 Entering Gaussian System, Link 0=g09
 Input=APFD3HPA2.gjf
 Output=APFD3HPA2.log
 Initial command:
 /home/phzd/g09E/g09/l1.exe "/home/phzd/g09E/scratch/Gau-513032.inp" -scrdir="/home/phzd/g09E/scratch/"
 Default is to use a total of  18 processors:
                               18 via shared-memory
                                1 via Linda
 Entering Link 1 = /home/phzd/g09E/g09/l1.exe PID=    513034.
  
 Copyright (c) 1988,1990,1992,1993,1995,1998,2003,2009,2015,
            Gaussian, Inc.  All Rights Reserved.
  
 This is part of the Gaussian(R) 09 program.  It is based on
 the Gaussian(R) 03 system (copyright 2003, Gaussian, Inc.),
 the Gaussian(R) 98 system (copyright 1998, Gaussian, Inc.),
 the Gaussian(R) 94 system (copyright 1995, Gaussian, Inc.),
 the Gaussian 92(TM) system (copyright 1992, Gaussian, Inc.),
 the Gaussian 90(TM) system (copyright 1990, Gaussian, Inc.),
 the Gaussian 88(TM) system (copyright 1988, Gaussian, Inc.),
 the Gaussian 86(TM) system (copyright 1986, Carnegie Mellon
 University), and the Gaussian 82(TM) system (copyright 1983,
 Carnegie Mellon University). Gaussian is a federally registered
 trademark of Gaussian, Inc.
  
 This software contains proprietary and confidential information,
 including trade secrets, belonging to Gaussian, Inc.
  
 This software is provided under written license and may be
 used, copied, transmitted, or stored only in accord with that
 written license.
  
 The following legend is applicable only to US Government
 contracts under FAR:
  
                    RESTRICTED RIGHTS LEGEND
  
 Use, reproduction and disclosure by the US Government is
 subject to restrictions as set forth in subparagraphs (a)
 and (c) of the Commercial Computer Software - Restricted
 Rights clause in FAR 52.227-19.
  
 Gaussian, Inc.
 340 Quinnipiac St., Bldg. 40, Wallingford CT 06492
  
  
 ---------------------------------------------------------------
 Warning -- This program may not be used in any manner that
 competes with the business of Gaussian, Inc. or will provide
 assistance to any competitor of Gaussian, Inc.  The licensee
 of this program is prohibited from giving any competitor of
 Gaussian, Inc. access to this program.  By using this program,
 the user acknowledges that Gaussian, Inc. is engaged in the
 business of creating and licensing software in the field of
 computational chemistry and represents and warrants to the
 licensee that it is not a competitor of Gaussian, Inc. and that
 it will not use this program in any manner prohibited above.
 ---------------------------------------------------------------
  

 Cite this work as:
 Gaussian 09, Revision E.01,
 M. J. Frisch, G. W. Trucks, H. B. Schlegel, G. E. Scuseria, 
 M. A. Robb, J. R. Cheeseman, G. Scalmani, V. Barone, B. Mennucci, 
 G. A. Petersson, H. Nakatsuji, M. Caricato, X. Li, H. P. Hratchian, 
 A. F. Izmaylov, J. Bloino, G. Zheng, J. L. Sonnenberg, M. Hada, 
 M. Ehara, K. Toyota, R. Fukuda, J. Hasegawa, M. Ishida, T. Nakajima, 
 Y. Honda, O. Kitao, H. Nakai, T. Vreven, J. A. Montgomery, Jr., 
 J. E. Peralta, F. Ogliaro, M. Bearpark, J. J. Heyd, E. Brothers, 
 K. N. Kudin, V. N. Staroverov, T. Keith, R. Kobayashi, J. Normand, 
 K. Raghavachari, A. Rendell, J. C. Burant, S. S. Iyengar, J. Tomasi, 
 M. Cossi, N. Rega, J. M. Millam, M. Klene, J. E. Knox, J. B. Cross, 
 V. Bakken, C. Adamo, J. Jaramillo, R. Gomperts, R. E. Stratmann, 
 O. Yazyev, A. J. Austin, R. Cammi, C. Pomelli, J. W. Ochterski, 
 R. L. Martin, K. Morokuma, V. G. Zakrzewski, G. A. Voth, 
 P. Salvador, J. J. Dannenberg, S. Dapprich, A. D. Daniels, 
 O. Farkas, J. B. Foresman, J. V. Ortiz, J. Cioslowski, 
 and D. J. Fox, Gaussian, Inc., Wallingford CT, 2013.
 
 ******************************************
 Gaussian 09:  ES64L-G09RevE.01 30-Nov-2015
                19-May-2024 
 ******************************************
 %chk=APFD3HPA.chk
 ---------------------------
 # opt freq apfd/6-31+g(d,p)
 ---------------------------
 1/14=-1,18=20,19=15,26=3,38=1/1,3;
 2/9=110,12=2,17=6,18=5,40=1/2;
 3/5=1,6=6,7=111,11=2,16=1,25=1,30=1,71=1,74=-44/1,2,3;
 4//1;
 5/5=2,38=5/2;
 6/7=2,8=2,9=2,10=2,28=1/1;
 7//1,2,3,16;
 1/14=-1,18=20,19=15,26=3/3(2);
 2/9=110/2;
 99//99;
 2/9=110/2;
 3/5=1,6=6,7=111,11=2,16=1,25=1,30=1,71=1,74=-44/1,2,3;
 4/5=5,16=3,69=1/1;
 5/5=2,38=5/2;
 7//1,2,3,16;
 1/14=-1,18=20,19=15,26=3/3(-5);
 2/9=110/2;
 6/7=2,8=2,9=2,10=2,19=2,28=1/1;
 99/9=1/99;
 ----------
 [No Title]
 ----------
 Symbolic Z-matrix:
 Charge =  1 Multiplicity = 1
 N                     0.51177  -1.34938   0.00006 
 C                     1.8373   -1.41215   0.00001 
 C                     2.56092  -0.21887  -0.00007 
 C                     1.88992   0.98298  -0.0001 
 C                     0.47777   1.01894  -0.00005 
 C                    -0.20226  -0.19674   0.00003 
 C                    -1.67205  -0.42401   0.0001 
 O                    -2.14148  -1.53172   0.00013 
 O                    -2.36457   0.71891  -0.00003 
 O                    -0.0985    2.20979  -0.00008 
 H                    -0.05827  -2.20069   0.00012 
 H                     2.29083  -2.39528   0.00004 
 H                     3.64355  -0.25334  -0.00011 
 H                     2.42054   1.92938  -0.00017 
 H                    -3.32194   0.5358   -0.00004 
 H                    -1.07037   2.15311  -0.00003 
 

 GradGradGradGradGradGradGradGradGradGradGradGradGradGradGradGradGradGrad
 Berny optimization.
 Initialization pass.
                           ----------------------------
                           !    Initial Parameters    !
                           ! (Angstroms and Degrees)  !
 --------------------------                            --------------------------
 ! Name  Definition              Value          Derivative Info.                !
 --------------------------------------------------------------------------------
 ! R1    R(1,2)                  1.327          estimate D2E/DX2                !
 ! R2    R(1,6)                  1.3559         estimate D2E/DX2                !
 ! R3    R(1,11)                 1.0245         estimate D2E/DX2                !
 ! R4    R(2,3)                  1.3955         estimate D2E/DX2                !
 ! R5    R(2,12)                 1.0827         estimate D2E/DX2                !
 ! R6    R(3,4)                  1.3765         estimate D2E/DX2                !
 ! R7    R(3,13)                 1.0832         estimate D2E/DX2                !
 ! R8    R(4,5)                  1.4126         estimate D2E/DX2                !
 ! R9    R(4,14)                 1.085          estimate D2E/DX2                !
 ! R10   R(5,6)                  1.3929         estimate D2E/DX2                !
 ! R11   R(5,10)                 1.323          estimate D2E/DX2                !
 ! R12   R(6,7)                  1.4873         estimate D2E/DX2                !
 ! R13   R(7,8)                  1.2031         estimate D2E/DX2                !
 ! R14   R(7,9)                  1.3364         estimate D2E/DX2                !
 ! R15   R(9,15)                 0.9747         estimate D2E/DX2                !
 ! R16   R(10,16)                0.9735         estimate D2E/DX2                !
 ! A1    A(2,1,6)              124.4879         estimate D2E/DX2                !
 ! A2    A(2,1,11)             121.0952         estimate D2E/DX2                !
 ! A3    A(6,1,11)             114.4169         estimate D2E/DX2                !
 ! A4    A(1,2,3)              118.5224         estimate D2E/DX2                !
 ! A5    A(1,2,12)             117.4755         estimate D2E/DX2                !
 ! A6    A(3,2,12)             124.0021         estimate D2E/DX2                !
 ! A7    A(2,3,4)              119.5917         estimate D2E/DX2                !
 ! A8    A(2,3,13)             119.41           estimate D2E/DX2                !
 ! A9    A(4,3,13)             120.9983         estimate D2E/DX2                !
 ! A10   A(3,4,5)              120.6334         estimate D2E/DX2                !
 ! A11   A(3,4,14)             121.5469         estimate D2E/DX2                !
 ! A12   A(5,4,14)             117.8196         estimate D2E/DX2                !
 ! A13   A(4,5,6)              117.7634         estimate D2E/DX2                !
 ! A14   A(4,5,10)             117.2814         estimate D2E/DX2                !
 ! A15   A(6,5,10)             124.9552         estimate D2E/DX2                !
 ! A16   A(1,6,5)              119.0012         estimate D2E/DX2                !
 ! A17   A(1,6,7)              112.9867         estimate D2E/DX2                !
 ! A18   A(5,6,7)              128.0121         estimate D2E/DX2                !
 ! A19   A(6,7,8)              121.7563         estimate D2E/DX2                !
 ! A20   A(6,7,9)              112.4224         estimate D2E/DX2                !
 ! A21   A(8,7,9)              125.8213         estimate D2E/DX2                !
 ! A22   A(7,9,15)             110.3846         estimate D2E/DX2                !
 ! A23   A(5,10,16)            112.4851         estimate D2E/DX2                !
 ! D1    D(6,1,2,3)              0.0001         estimate D2E/DX2                !
 ! D2    D(6,1,2,12)          -180.0            estimate D2E/DX2                !
 ! D3    D(11,1,2,3)          -179.9999         estimate D2E/DX2                !
 ! D4    D(11,1,2,12)            0.0            estimate D2E/DX2                !
 ! D5    D(2,1,6,5)              0.0            estimate D2E/DX2                !
 ! D6    D(2,1,6,7)            180.0            estimate D2E/DX2                !
 ! D7    D(11,1,6,5)          -180.0            estimate D2E/DX2                !
 ! D8    D(11,1,6,7)             0.0            estimate D2E/DX2                !
 ! D9    D(1,2,3,4)             -0.0001         estimate D2E/DX2                !
 ! D10   D(1,2,3,13)           180.0            estimate D2E/DX2                !
 ! D11   D(12,2,3,4)           180.0            estimate D2E/DX2                !
 ! D12   D(12,2,3,13)            0.0            estimate D2E/DX2                !
 ! D13   D(2,3,4,5)              0.0            estimate D2E/DX2                !
 ! D14   D(2,3,4,14)           179.9998         estimate D2E/DX2                !
 ! D15   D(13,3,4,5)           180.0            estimate D2E/DX2                !
 ! D16   D(13,3,4,14)           -0.0002         estimate D2E/DX2                !
 ! D17   D(3,4,5,6)              0.0001         estimate D2E/DX2                !
 ! D18   D(3,4,5,10)           179.9995         estimate D2E/DX2                !
 ! D19   D(14,4,5,6)          -179.9997         estimate D2E/DX2                !
 ! D20   D(14,4,5,10)           -0.0004         estimate D2E/DX2                !
 ! D21   D(4,5,6,1)             -0.0001         estimate D2E/DX2                !
 ! D22   D(4,5,6,7)            180.0            estimate D2E/DX2                !
 ! D23   D(10,5,6,1)          -179.9994         estimate D2E/DX2                !
 ! D24   D(10,5,6,7)             0.0006         estimate D2E/DX2                !
 ! D25   D(4,5,10,16)         -179.9994         estimate D2E/DX2                !
 ! D26   D(6,5,10,16)           -0.0001         estimate D2E/DX2                !
 ! D27   D(1,6,7,8)             -0.0021         estimate D2E/DX2                !
 ! D28   D(1,6,7,9)           -179.9953         estimate D2E/DX2                !
 ! D29   D(5,6,7,8)            179.9978         estimate D2E/DX2                !
 ! D30   D(5,6,7,9)              0.0046         estimate D2E/DX2                !
 ! D31   D(6,7,9,15)           179.9963         estimate D2E/DX2                !
 ! D32   D(8,7,9,15)             0.0034         estimate D2E/DX2                !
 --------------------------------------------------------------------------------
 Trust Radius=3.00D-01 FncErr=1.00D-07 GrdErr=1.00D-06
 Number of steps in this run=     81 maximum allowed number of steps=    100.
 GradGradGradGradGradGradGradGradGradGradGradGradGradGradGradGradGradGrad

                          Input orientation:                          
 ---------------------------------------------------------------------
 Center     Atomic      Atomic             Coordinates (Angstroms)
 Number     Number       Type             X           Y           Z
 ---------------------------------------------------------------------
      1          7           0        0.511769   -1.349381    0.000060
      2          6           0        1.837300   -1.412147    0.000011
      3          6           0        2.560924   -0.218871   -0.000073
      4          6           0        1.889923    0.982980   -0.000104
      5          6           0        0.477770    1.018936   -0.000052
      6          6           0       -0.202257   -0.196736    0.000033
      7          6           0       -1.672053   -0.424013    0.000101
      8          8           0       -2.141477   -1.531723    0.000134
      9          8           0       -2.364571    0.718908   -0.000027
     10          8           0       -0.098498    2.209789   -0.000075
     11          1           0       -0.058266   -2.200690    0.000123
     12          1           0        2.290833   -2.395281    0.000040
     13          1           0        3.643546   -0.253336   -0.000113
     14          1           0        2.420544    1.929380   -0.000166
     15          1           0       -3.321942    0.535796   -0.000037
     16          1           0       -1.070370    2.153108   -0.000027
 ---------------------------------------------------------------------
                    Distance matrix (angstroms):
                    1          2          3          4          5
     1  N    0.000000
     2  C    1.327016   0.000000
     3  C    2.340318   1.395543   0.000000
     4  C    2.709099   2.395705   1.376477   0.000000
     5  C    2.368561   2.785406   2.423158   1.412611   0.000000
     6  C    1.355885   2.374240   2.763270   2.401863   1.392945
     7  C    2.371789   3.645815   4.237945   3.829791   2.589178
     8  O    2.659504   3.980573   4.882229   4.751412   3.655997
     9  O    3.542760   4.711381   5.013974   4.262681   2.858132
    10  O    3.611110   4.106791   3.601516   2.336424   1.322957
    11  H    1.024533   2.053039   3.284473   3.732452   3.263943
    12  H    2.063729   1.082702   2.193105   3.401967   3.865757
    13  H    3.318033   2.146012   1.083170   2.145617   3.411864
    14  H    3.793902   3.392046   2.152833   1.085003   2.145525
    15  H    4.272146   5.514731   5.931074   5.231014   3.830305
    16  H    3.843253   4.600607   4.337347   3.183164   1.919136
                    6          7          8          9         10
     6  C    0.000000
     7  C    1.487264   0.000000
     8  O    2.354308   1.203071   0.000000
     9  O    2.348192   1.336357   2.261661   0.000000
    10  O    2.408761   3.068059   4.262942   2.712529   0.000000
    11  H    2.009120   2.400185   2.187986   3.720631   4.410662
    12  H    3.324018   4.426100   4.515651   5.600978   5.188022
    13  H    3.846219   5.318338   5.924590   6.086274   4.479942
    14  H    3.376308   4.720997   5.726366   4.935845   2.534601
    15  H    3.204534   1.908761   2.380784   0.974725   3.632195
    16  H    2.505072   2.646427   3.837349   1.931809   0.973523
                   11         12         13         14         15
    11  H    0.000000
    12  H    2.357145   0.000000
    13  H    4.182774   2.533330   0.000000
    14  H    4.816843   4.326606   2.501996   0.000000
    15  H    4.259100   6.332018   7.010047   5.909164   0.000000
    16  H    4.469889   5.655575   5.292634   3.498076   2.772233
                   16
    16  H    0.000000
 Stoichiometry    C6H6NO3(1+)
 Framework group  C1[X(C6H6NO3)]
 Deg. of freedom    42
 Full point group                 C1      NOp   1
 Largest Abelian subgroup         C1      NOp   1
 Largest concise Abelian subgroup C1      NOp   1
                         Standard orientation:                         
 ---------------------------------------------------------------------
 Center     Atomic      Atomic             Coordinates (Angstroms)
 Number     Number       Type             X           Y           Z
 ---------------------------------------------------------------------
      1          7           0       -0.511769   -1.349381   -0.000060
      2          6           0       -1.837300   -1.412147   -0.000011
      3          6           0       -2.560924   -0.218871    0.000073
      4          6           0       -1.889923    0.982980    0.000104
      5          6           0       -0.477770    1.018936    0.000052
      6          6           0        0.202257   -0.196736   -0.000033
      7          6           0        1.672053   -0.424013   -0.000101
      8          8           0        2.141477   -1.531723   -0.000134
      9          8           0        2.364571    0.718908    0.000027
     10          8           0        0.098498    2.209789    0.000075
     11          1           0        0.058266   -2.200690   -0.000123
     12          1           0       -2.290833   -2.395281   -0.000040
     13          1           0       -3.643546   -0.253336    0.000113
     14          1           0       -2.420544    1.929380    0.000166
     15          1           0        3.321942    0.535796    0.000037
     16          1           0        1.070370    2.153108    0.000027
 ---------------------------------------------------------------------
 Rotational constants (GHZ):      2.2988213      1.2559873      0.8122210
 Standard basis: 6-31+G(d,p) (6D, 7F)
 There are   220 symmetry adapted cartesian basis functions of A   symmetry.
 There are   220 symmetry adapted basis functions of A   symmetry.
   220 basis functions,   362 primitive gaussians,   220 cartesian basis functions
    36 alpha electrons       36 beta electrons
       nuclear repulsion energy       522.6926599352 Hartrees.
 NAtoms=   16 NActive=   16 NUniq=   16 SFac= 1.00D+00 NAtFMM=   60 NAOKFM=F Big=F
 Integral buffers will be    131072 words long.
 Raffenetti 2 integral format.
 Two-electron integral symmetry is turned on.
 R6APFD:  NTU= -4 IXU= 1 FactS= 1.050
 Nuclear repulsion after empirical dispersion term =      522.6826423598 Hartrees.
 One-electron integrals computed using PRISM.
 NBasis=   220 RedAO= T EigKep=  4.63D-06  NBF=   220
 NBsUse=   220 1.00D-06 EigRej= -1.00D+00 NBFU=   220
 ExpMin= 4.38D-02 ExpMax= 5.48D+03 ExpMxC= 8.25D+02 IAcc=2 IRadAn=         4 AccDes= 0.00D+00
 Harris functional with IExCor= 3731 and IRadAn=       4 diagonalized for initial guess.
 HarFok:  IExCor= 3731 AccDes= 0.00D+00 IRadAn=         4 IDoV= 1 UseB2=F ITyADJ=14
 ICtDFT=  3500011 ScaDFX=  1.000000  1.000000  1.000000  1.000000
 FoFCou: FMM=F IPFlag=           0 FMFlag=      100000 FMFlg1=           0
         NFxFlg=           0 DoJE=T BraDBF=F KetDBF=T FulRan=T
         wScrn=  0.000000 ICntrl=     500 IOpCl=  0 I1Cent=   200000004 NGrid=           0
         NMat0=    1 NMatS0=      1 NMatT0=    0 NMatD0=    1 NMtDS0=    0 NMtDT0=    0
 Petite list used in FoFCou.
 Keep R1 ints in memory in canonical form, NReq=301066375.
 Requested convergence on RMS density matrix=1.00D-08 within 128 cycles.
 Requested convergence on MAX density matrix=1.00D-06.
 Requested convergence on             energy=1.00D-06.
 No special actions if energy rises.
 SCF Done:  E(RAPFD) =  -512.078359658     A.U. after   14 cycles
            NFock= 14  Conv=0.90D-08     -V/T= 2.0086

 **********************************************************************

            Population analysis using the SCF density.

 **********************************************************************

 Orbital symmetries:
       Occupied  (A) (A) (A) (A) (A) (A) (A) (A) (A) (A) (A) (A)
                 (A) (A) (A) (A) (A) (A) (A) (A) (A) (A) (A) (A)
                 (A) (A) (A) (A) (A) (A) (A) (A) (A) (A) (A) (A)
       Virtual   (A) (A) (A) (A) (A) (A) (A) (A) (A) (A) (A) (A)
                 (A) (A) (A) (A) (A) (A) (A) (A) (A) (A) (A) (A)
                 (A) (A) (A) (A) (A) (A) (A) (A) (A) (A) (A) (A)
                 (A) (A) (A) (A) (A) (A) (A) (A) (A) (A) (A) (A)
                 (A) (A) (A) (A) (A) (A) (A) (A) (A) (A) (A) (A)
                 (A) (A) (A) (A) (A) (A) (A) (A) (A) (A) (A) (A)
                 (A) (A) (A) (A) (A) (A) (A) (A) (A) (A) (A) (A)
                 (A) (A) (A) (A) (A) (A) (A) (A) (A) (A) (A) (A)
                 (A) (A) (A) (A) (A) (A) (A) (A) (A) (A) (A) (A)
                 (A) (A) (A) (A) (A) (A) (A) (A) (A) (A) (A) (A)
                 (A) (A) (A) (A) (A) (A) (A) (A) (A) (A) (A) (A)
                 (A) (A) (A) (A) (A) (A) (A) (A) (A) (A) (A) (A)
                 (A) (A) (A) (A) (A) (A) (A) (A) (A) (A) (A) (A)
                 (A) (A) (A) (A) (A) (A) (A) (A) (A) (A) (A) (A)
                 (A) (A) (A) (A) (A) (A) (A) (A) (A) (A) (A) (A)
                 (A) (A) (A) (A)
 The electronic state is 1-A.
 Alpha  occ. eigenvalues --  -19.44118 -19.41939 -19.37877 -14.67094 -10.54637
 Alpha  occ. eigenvalues --  -10.50338 -10.48160 -10.47865 -10.43717 -10.43498
 Alpha  occ. eigenvalues --   -1.33024  -1.28983  -1.24863  -1.22733  -1.04240
 Alpha  occ. eigenvalues --   -1.01943  -0.91080  -0.88013  -0.85237  -0.79763
 Alpha  occ. eigenvalues --   -0.76690  -0.73011  -0.71049  -0.68720  -0.68271
 Alpha  occ. eigenvalues --   -0.68141  -0.63665  -0.62085  -0.61155  -0.60354
 Alpha  occ. eigenvalues --   -0.60126  -0.55632  -0.52724  -0.50511  -0.49045
 Alpha  occ. eigenvalues --   -0.45510
 Alpha virt. eigenvalues --   -0.27338  -0.22136  -0.14373  -0.14033  -0.12432
 Alpha virt. eigenvalues --   -0.10262  -0.09882  -0.08495  -0.07936  -0.07328
 Alpha virt. eigenvalues --   -0.05040  -0.04375  -0.04240  -0.03513  -0.03228
 Alpha virt. eigenvalues --   -0.02520  -0.01030  -0.00664   0.00112   0.00576
 Alpha virt. eigenvalues --    0.00625   0.01648   0.02772   0.03111   0.03672
 Alpha virt. eigenvalues --    0.04250   0.05135   0.05514   0.06291   0.07107
 Alpha virt. eigenvalues --    0.08533   0.09146   0.09327   0.09789   0.10686
 Alpha virt. eigenvalues --    0.10704   0.11784   0.12345   0.12893   0.13955
 Alpha virt. eigenvalues --    0.14307   0.14973   0.15572   0.15625   0.16886
 Alpha virt. eigenvalues --    0.18045   0.18540   0.19462   0.20264   0.20637
 Alpha virt. eigenvalues --    0.22866   0.24101   0.25266   0.25896   0.26613
 Alpha virt. eigenvalues --    0.30881   0.34068   0.36111   0.42027   0.45031
 Alpha virt. eigenvalues --    0.48008   0.48624   0.52678   0.52987   0.54656
 Alpha virt. eigenvalues --    0.55980   0.57219   0.58843   0.59345   0.64073
 Alpha virt. eigenvalues --    0.64582   0.66964   0.71297   0.72148   0.75044
 Alpha virt. eigenvalues --    0.78512   0.79125   0.82052   0.84353   0.87220
 Alpha virt. eigenvalues --    0.87833   0.91153   0.92976   0.94808   0.96338
 Alpha virt. eigenvalues --    0.97775   0.98998   1.00293   1.01494   1.03077
 Alpha virt. eigenvalues --    1.03083   1.06581   1.06622   1.09544   1.11836
 Alpha virt. eigenvalues --    1.12371   1.13556   1.15610   1.17080   1.18270
 Alpha virt. eigenvalues --    1.18485   1.20058   1.21039   1.21582   1.22917
 Alpha virt. eigenvalues --    1.25005   1.29239   1.35666   1.37874   1.40380
 Alpha virt. eigenvalues --    1.42724   1.43245   1.53812   1.55986   1.57606
 Alpha virt. eigenvalues --    1.58122   1.60060   1.62988   1.65756   1.70249
 Alpha virt. eigenvalues --    1.73552   1.74357   1.74905   1.77877   1.80598
 Alpha virt. eigenvalues --    1.80851   1.84969   1.88603   1.88877   1.90822
 Alpha virt. eigenvalues --    1.92818   1.95541   2.05089   2.06972   2.09495
 Alpha virt. eigenvalues --    2.12043   2.16013   2.18020   2.19221   2.20406
 Alpha virt. eigenvalues --    2.21335   2.22616   2.28651   2.31589   2.34305
 Alpha virt. eigenvalues --    2.34892   2.36055   2.36757   2.39608   2.41187
 Alpha virt. eigenvalues --    2.41616   2.47710   2.49098   2.51669   2.57025
 Alpha virt. eigenvalues --    2.58084   2.58660   2.61766   2.64759   2.71425
 Alpha virt. eigenvalues --    2.79531   2.87991   2.92654   2.95255   3.01761
 Alpha virt. eigenvalues --    3.06629   3.09547   3.10546   3.19986   3.25068
 Alpha virt. eigenvalues --    3.30803   3.36180   3.43916   3.71812   4.02476
 Alpha virt. eigenvalues --    4.10939   4.15940   4.19974   4.23751   4.30735
 Alpha virt. eigenvalues --    4.38159   4.51275   4.73884   4.78084
          Condensed to atoms (all electrons):
               1          2          3          4          5          6
     1  N    6.655046   0.132960  -0.017055  -0.087998  -0.196657   0.389362
     2  C    0.132960   5.937643  -0.062534   0.455207  -0.512373  -0.256841
     3  C   -0.017055  -0.062534   5.469051  -0.704382   1.432942  -0.434126
     4  C   -0.087998   0.455207  -0.704382   8.223258  -3.322019   1.220327
     5  C   -0.196657  -0.512373   1.432942  -3.322019  13.653143  -4.366264
     6  C    0.389362  -0.256841  -0.434126   1.220327  -4.366264   9.609707
     7  C   -0.017165   0.134837  -0.209960   0.241632  -1.612092   0.283327
     8  O    0.022928   0.043936  -0.010217   0.031463   0.031689  -0.356527
     9  O    0.020484   0.006275  -0.001544   0.028717  -0.036368  -0.037994
    10  O    0.014725   0.005633   0.025440  -0.362389   0.348603   0.007538
    11  H    0.299937  -0.043432   0.033595  -0.022467   0.092209  -0.024277
    12  H   -0.067693   0.361113  -0.000889   0.027667  -0.033735   0.029859
    13  H    0.001101   0.038446   0.266504   0.048687  -0.034147   0.015468
    14  H    0.003605  -0.021391   0.089498   0.150884   0.162598  -0.046614
    15  H   -0.001462  -0.001614   0.000794  -0.000643   0.014414   0.018120
    16  H   -0.000928  -0.002396  -0.006307   0.071840   0.005593  -0.085223
               7          8          9         10         11         12
     1  N   -0.017165   0.022928   0.020484   0.014725   0.299937  -0.067693
     2  C    0.134837   0.043936   0.006275   0.005633  -0.043432   0.361113
     3  C   -0.209960  -0.010217  -0.001544   0.025440   0.033595  -0.000889
     4  C    0.241632   0.031463   0.028717  -0.362389  -0.022467   0.027667
     5  C   -1.612092   0.031689  -0.036368   0.348603   0.092209  -0.033735
     6  C    0.283327  -0.356527  -0.037994   0.007538  -0.024277   0.029859
     7  C    6.302650   0.557369   0.057497  -0.026330  -0.070336   0.017307
     8  O    0.557369   8.215693  -0.148114  -0.002533   0.028654  -0.000124
     9  O    0.057497  -0.148114   8.426369   0.001297   0.002515   0.000029
    10  O   -0.026330  -0.002533   0.001297   8.271980  -0.000295   0.000121
    11  H   -0.070336   0.028654   0.002515  -0.000295   0.318655  -0.003165
    12  H    0.017307  -0.000124   0.000029   0.000121  -0.003165   0.435328
    13  H    0.003375   0.000006   0.000002  -0.000438  -0.000108  -0.002352
    14  H    0.001144   0.000003   0.000163  -0.010173   0.000013  -0.000084
    15  H   -0.009513   0.006189   0.222809   0.000860  -0.000049  -0.000000
    16  H    0.021929   0.001395   0.028086   0.212780  -0.000021  -0.000000
              13         14         15         16
     1  N    0.001101   0.003605  -0.001462  -0.000928
     2  C    0.038446  -0.021391  -0.001614  -0.002396
     3  C    0.266504   0.089498   0.000794  -0.006307
     4  C    0.048687   0.150884  -0.000643   0.071840
     5  C   -0.034147   0.162598   0.014414   0.005593
     6  C    0.015468  -0.046614   0.018120  -0.085223
     7  C    0.003375   0.001144  -0.009513   0.021929
     8  O    0.000006   0.000003   0.006189   0.001395
     9  O    0.000002   0.000163   0.222809   0.028086
    10  O   -0.000438  -0.010173   0.000860   0.212780
    11  H   -0.000108   0.000013  -0.000049  -0.000021
    12  H   -0.002352  -0.000084  -0.000000  -0.000000
    13  H    0.430408  -0.003702   0.000000   0.000002
    14  H   -0.003702   0.437971  -0.000000  -0.000015
    15  H    0.000000  -0.000000   0.296980   0.000921
    16  H    0.000002  -0.000015   0.000921   0.317441
 Mulliken charges:
               1
     1  N   -0.151188
     2  C   -0.215467
     3  C    0.129191
     4  C    0.000218
     5  C    0.372466
     6  C    0.034158
     7  C    0.324332
     8  O   -0.421809
     9  O   -0.570223
    10  O   -0.486818
    11  H    0.388572
    12  H    0.236619
    13  H    0.236749
    14  H    0.236100
    15  H    0.452195
    16  H    0.434903
 Sum of Mulliken charges =   1.00000
 Mulliken charges with hydrogens summed into heavy atoms:
               1
     1  N    0.237384
     2  C    0.021153
     3  C    0.365941
     4  C    0.236318
     5  C    0.372466
     6  C    0.034158
     7  C    0.324332
     8  O   -0.421809
     9  O   -0.118028
    10  O   -0.051915
 Electronic spatial extent (au):  <R**2>=           1303.2450
 Charge=              1.0000 electrons
 Dipole moment (field-independent basis, Debye):
    X=             -2.5537    Y=             -1.1330    Z=              0.0000  Tot=              2.7938
 Quadrupole moment (field-independent basis, Debye-Ang):
   XX=            -24.8498   YY=            -44.1702   ZZ=            -56.0129
   XY=              9.7067   XZ=             -0.0003   YZ=              0.0003
 Traceless Quadrupole moment (field-independent basis, Debye-Ang):
   XX=             16.8278   YY=             -2.4926   ZZ=            -14.3353
   XY=              9.7067   XZ=             -0.0003   YZ=              0.0003
 Octapole moment (field-independent basis, Debye-Ang**2):
  XXX=             10.6055  YYY=            -15.2803  ZZZ=             -0.0005  XYY=            -13.7235
  XXY=             16.9228  XXZ=              0.0030  XZZ=              8.6148  YZZ=              0.5436
  YYZ=             -0.0005  XYZ=             -0.0015
 Hexadecapole moment (field-independent basis, Debye-Ang**3):
 XXXX=           -637.8713 YYYY=           -484.3266 ZZZZ=            -52.4634 XXXY=             69.4672
 XXXZ=              0.0108 YYYX=             48.4429 YYYZ=             -0.0099 ZZZX=              0.0129
 ZZZY=             -0.0122 XXYY=           -220.7141 XXZZ=           -183.0750 YYZZ=           -103.3558
 XXYZ=             -0.0031 YYXZ=              0.0049 ZZXY=             -0.6694
 N-N= 5.226826423598D+02 E-N=-2.227579036193D+03  KE= 5.077327239880D+02
 R6APFD:  NTU= -4 IXU= 1 FactS= 1.050
 Calling FoFJK, ICntrl=      2127 FMM=F ISym2X=0 I1Cent= 0 IOpClX= 0 NMat=1 NMatS=1 NMatT=0.
 ***** Axes restored to original set *****
 -------------------------------------------------------------------
 Center     Atomic                   Forces (Hartrees/Bohr)
 Number     Number              X              Y              Z
 -------------------------------------------------------------------
      1        7          -0.002431380    0.000243211    0.000000554
      2        6           0.001290801   -0.001669454   -0.000000055
      3        6           0.002100651   -0.001164685   -0.000000173
      4        6          -0.000392680    0.003011288   -0.000000559
      5        6          -0.001180752    0.006464975    0.000001112
      6        6          -0.004358472   -0.005615927    0.000004473
      7        6           0.000782172    0.002462681   -0.000015841
      8        8          -0.000951112   -0.005774945    0.000006212
      9        8          -0.000253665    0.003377769    0.000004767
     10        8           0.000820022    0.000243867    0.000000006
     11        1          -0.000141119   -0.000052598   -0.000000045
     12        1           0.000172369   -0.000774625   -0.000000088
     13        1           0.001145426   -0.000089037    0.000000036
     14        1           0.000680729    0.000929194   -0.000000116
     15        1           0.001884340   -0.000256391    0.000000420
     16        1           0.000832670   -0.001335322   -0.000000702
 -------------------------------------------------------------------
 Cartesian Forces:  Max     0.006464975 RMS     0.001945451

 GradGradGradGradGradGradGradGradGradGradGradGradGradGradGradGradGradGrad
 Berny optimization.
 FormGI is forming the generalized inverse of G from B-inverse, IUseBI=4.
 Internal  Forces:  Max     0.006104584 RMS     0.001475954
 Search for a local minimum.
 Step number   1 out of a maximum of   81
 All quantities printed in internal units (Hartrees-Bohrs-Radians)
 Mixed Optimization -- RFO/linear search
 Second derivative matrix not updated -- first step.
 ITU=  0
     Eigenvalues ---    0.00934   0.01502   0.01807   0.02074   0.02168
     Eigenvalues ---    0.02209   0.02252   0.02278   0.02379   0.02428
     Eigenvalues ---    0.02507   0.02534   0.02711   0.16000   0.16000
     Eigenvalues ---    0.16000   0.16000   0.16000   0.16000   0.22000
     Eigenvalues ---    0.22479   0.24470   0.25000   0.25000   0.25000
     Eigenvalues ---    0.25000   0.33751   0.35397   0.35614   0.35670
     Eigenvalues ---    0.41615   0.43452   0.43623   0.46589   0.48000
     Eigenvalues ---    0.52423   0.52577   0.52663   0.58029   0.58476
     Eigenvalues ---    0.61201   1.03295
 RFO step:  Lambda=-3.63770065D-04 EMin= 9.34416232D-03
 Linear search not attempted -- first point.
 Iteration  1 RMS(Cart)=  0.00863742 RMS(Int)=  0.00005095
 Iteration  2 RMS(Cart)=  0.00006208 RMS(Int)=  0.00000079
 Iteration  3 RMS(Cart)=  0.00000000 RMS(Int)=  0.00000079
 Variable       Old X    -DE/DX   Delta X   Delta X   Delta X     New X
                                 (Linear)    (Quad)   (Total)
    R1        2.50770   0.00297   0.00000   0.00482   0.00482   2.51252
    R2        2.56225   0.00004   0.00000  -0.00004  -0.00004   2.56221
    R3        1.93609   0.00012   0.00000   0.00028   0.00028   1.93636
    R4        2.63719   0.00289   0.00000   0.00620   0.00620   2.64339
    R5        2.04601   0.00077   0.00000   0.00217   0.00217   2.04818
    R6        2.60116   0.00409   0.00000   0.00832   0.00832   2.60948
    R7        2.04690   0.00115   0.00000   0.00322   0.00322   2.05012
    R8        2.66945   0.00201   0.00000   0.00477   0.00477   2.67422
    R9        2.05036   0.00114   0.00000   0.00323   0.00323   2.05359
   R10        2.63228   0.00610   0.00000   0.01305   0.01306   2.64534
   R11        2.50003  -0.00170   0.00000  -0.00278  -0.00278   2.49725
   R12        2.81052  -0.00141   0.00000  -0.00419  -0.00419   2.80634
   R13        2.27348   0.00569   0.00000   0.00551   0.00551   2.27898
   R14        2.52535   0.00182   0.00000   0.00314   0.00314   2.52848
   R15        1.84196  -0.00180   0.00000  -0.00343  -0.00343   1.83853
   R16        1.83969  -0.00075   0.00000  -0.00143  -0.00143   1.83827
    A1        2.17272   0.00016   0.00000   0.00021   0.00021   2.17294
    A2        2.11351   0.00000   0.00000   0.00041   0.00041   2.11392
    A3        1.99695  -0.00017   0.00000  -0.00063  -0.00063   1.99633
    A4        2.06861   0.00027   0.00000   0.00085   0.00085   2.06945
    A5        2.05033  -0.00030   0.00000  -0.00148  -0.00148   2.04886
    A6        2.16425   0.00004   0.00000   0.00063   0.00063   2.16488
    A7        2.08727   0.00009   0.00000   0.00061   0.00061   2.08788
    A8        2.08410  -0.00010   0.00000  -0.00062  -0.00062   2.08347
    A9        2.11182   0.00000   0.00000   0.00001   0.00001   2.11183
   A10        2.10545  -0.00055   0.00000  -0.00193  -0.00192   2.10353
   A11        2.12139   0.00013   0.00000   0.00009   0.00009   2.12148
   A12        2.05634   0.00041   0.00000   0.00184   0.00184   2.05818
   A13        2.05536  -0.00013   0.00000  -0.00019  -0.00019   2.05517
   A14        2.04695   0.00008   0.00000   0.00014   0.00014   2.04709
   A15        2.18088   0.00005   0.00000   0.00005   0.00005   2.18093
   A16        2.07696   0.00015   0.00000   0.00044   0.00044   2.07740
   A17        1.97199   0.00100   0.00000   0.00408   0.00408   1.97608
   A18        2.23423  -0.00115   0.00000  -0.00453  -0.00452   2.22971
   A19        2.12505   0.00007   0.00000   0.00027   0.00027   2.12532
   A20        1.96214  -0.00327   0.00000  -0.01307  -0.01307   1.94907
   A21        2.19600   0.00320   0.00000   0.01280   0.01280   2.20879
   A22        1.92657  -0.00112   0.00000  -0.00699  -0.00699   1.91958
   A23        1.96324  -0.00254   0.00000  -0.01586  -0.01586   1.94737
    D1        0.00000   0.00000   0.00000   0.00000   0.00000   0.00000
    D2       -3.14159   0.00000   0.00000   0.00000   0.00000  -3.14159
    D3       -3.14159  -0.00000   0.00000  -0.00000  -0.00000   3.14159
    D4        0.00000  -0.00000   0.00000  -0.00000  -0.00000  -0.00000
    D5        0.00000  -0.00000   0.00000  -0.00000  -0.00000  -0.00000
    D6        3.14159  -0.00000   0.00000  -0.00000  -0.00000   3.14159
    D7       -3.14159  -0.00000   0.00000  -0.00000  -0.00000   3.14159
    D8       -0.00000   0.00000   0.00000   0.00000   0.00000   0.00000
    D9       -0.00000  -0.00000   0.00000  -0.00000  -0.00000  -0.00000
   D10        3.14159   0.00000   0.00000   0.00000   0.00000   3.14159
   D11        3.14159  -0.00000   0.00000  -0.00000  -0.00000   3.14159
   D12        0.00000  -0.00000   0.00000  -0.00000  -0.00000  -0.00000
   D13       -0.00000   0.00000   0.00000   0.00000   0.00000   0.00000
   D14        3.14159   0.00000   0.00000   0.00001   0.00001  -3.14159
   D15        3.14159   0.00000   0.00000   0.00000   0.00000   3.14159
   D16       -0.00000   0.00000   0.00000   0.00000   0.00000   0.00000
   D17        0.00000  -0.00000   0.00000  -0.00000  -0.00000  -0.00000
   D18        3.14158   0.00000   0.00000   0.00002   0.00002  -3.14158
   D19       -3.14159  -0.00000   0.00000  -0.00001  -0.00001   3.14159
   D20       -0.00001   0.00000   0.00000   0.00002   0.00002   0.00001
   D21       -0.00000   0.00000   0.00000   0.00001   0.00001   0.00000
   D22        3.14159   0.00000   0.00000   0.00000   0.00000  -3.14159
   D23       -3.14158  -0.00000   0.00000  -0.00002  -0.00002   3.14158
   D24        0.00001  -0.00000   0.00000  -0.00002  -0.00002  -0.00001
   D25       -3.14158  -0.00000   0.00000  -0.00003  -0.00003   3.14157
   D26       -0.00000  -0.00000   0.00000  -0.00001  -0.00001  -0.00001
   D27       -0.00004   0.00000   0.00000   0.00023   0.00023   0.00019
   D28       -3.14151  -0.00000   0.00000  -0.00029  -0.00029   3.14138
   D29        3.14155   0.00000   0.00000   0.00023   0.00023  -3.14140
   D30        0.00008  -0.00000   0.00000  -0.00029  -0.00029  -0.00021
   D31        3.14153   0.00000   0.00000   0.00028   0.00028  -3.14137
   D32        0.00006  -0.00000   0.00000  -0.00026  -0.00026  -0.00020
         Item               Value     Threshold  Converged?
 Maximum Force            0.006105     0.000450     NO 
 RMS     Force            0.001476     0.000300     NO 
 Maximum Displacement     0.035218     0.001800     NO 
 RMS     Displacement     0.008633     0.001200     NO 
 Predicted change in Energy=-1.820860D-04
 GradGradGradGradGradGradGradGradGradGradGradGradGradGradGradGradGradGrad

                          Input orientation:                          
 ---------------------------------------------------------------------
 Center     Atomic      Atomic             Coordinates (Angstroms)
 Number     Number       Type             X           Y           Z
 ---------------------------------------------------------------------
      1          7           0        0.509938   -1.353524   -0.000003
      2          6           0        1.838142   -1.413731    0.000025
      3          6           0        2.562068   -0.216803   -0.000010
      4          6           0        1.888253    0.988517   -0.000074
      5          6           0        0.473492    1.021029   -0.000104
      6          6           0       -0.206644   -0.202492   -0.000068
      7          6           0       -1.674670   -0.426706   -0.000090
      8          8           0       -2.147590   -1.536096    0.000141
      9          8           0       -2.350893    0.727854    0.000108
     10          8           0       -0.105251    2.209046   -0.000177
     11          1           0       -0.058814   -2.205868    0.000020
     12          1           0        2.292686   -2.397664    0.000073
     13          1           0        3.646412   -0.250731    0.000013
     14          1           0        2.419101    1.936748   -0.000105
     15          1           0       -3.307898    0.552668    0.000291
     16          1           0       -1.075157    2.134471   -0.000214
 ---------------------------------------------------------------------
                    Distance matrix (angstroms):
                    1          2          3          4          5
     1  N    0.000000
     2  C    1.329568   0.000000
     3  C    2.345927   1.398823   0.000000
     4  C    2.717519   2.402771   1.380878   0.000000
     5  C    2.374833   2.791116   2.427835   1.415135   0.000000
     6  C    1.355863   2.376606   2.768750   2.409792   1.399853
     7  C    2.373078   3.648845   4.241935   3.833702   2.590470
     8  O    2.663792   3.987610   4.890953   4.760431   3.661825
     9  O    3.537865   4.704721   5.002956   4.247152   2.839560
    10  O    3.615295   4.111118   3.605459   2.337466   1.321486
    11  H    1.024680   2.055705   3.290198   3.741011   3.270507
    12  H    2.066015   1.083851   2.197435   3.410247   3.872587
    13  H    3.324699   2.149979   1.084874   2.151014   3.418303
    14  H    3.804050   3.400475   2.158292   1.086712   2.150334
    15  H    4.267252   5.508944   5.920185   5.214399   3.810285
    16  H    3.831271   4.590975   4.331039   3.177264   1.907371
                    6          7          8          9         10
     6  C    0.000000
     7  C    1.485049   0.000000
     8  O    2.354946   1.205985   0.000000
     9  O    2.337380   1.338016   2.273060   0.000000
    10  O    2.413668   3.067615   4.265822   2.690137   0.000000
    11  H    2.008823   2.403415   2.193531   3.722949   4.415158
    12  H    3.326474   4.429964   4.523091   5.597471   5.193445
    13  H    3.853358   5.323991   5.934865   6.076619   4.486143
    14  H    3.386870   4.727037   5.737187   4.920800   2.538996
    15  H    3.191871   1.904366   2.389404   0.972908   3.605626
    16  H    2.493133   2.630408   3.824026   1.898967   0.972769
                   11         12         13         14         15
    11  H    0.000000
    12  H    2.359309   0.000000
    13  H    4.189422   2.538089   0.000000
    14  H    4.827145   4.336255   2.508258   0.000000
    15  H    4.262167   6.330166   7.000563   5.891876   0.000000
    16  H    4.457745   5.646469   5.289840   3.499848   2.736282
                   16
    16  H    0.000000
 Stoichiometry    C6H6NO3(1+)
 Framework group  C1[X(C6H6NO3)]
 Deg. of freedom    42
 Full point group                 C1      NOp   1
 Largest Abelian subgroup         C1      NOp   1
 Largest concise Abelian subgroup C1      NOp   1
                         Standard orientation:                         
 ---------------------------------------------------------------------
 Center     Atomic      Atomic             Coordinates (Angstroms)
 Number     Number       Type             X           Y           Z
 ---------------------------------------------------------------------
      1          7           0       -0.510687   -1.353556   -0.000015
      2          6           0       -1.838888   -1.413837   -0.000043
      3          6           0       -2.562880   -0.216949   -0.000008
      4          6           0       -1.889131    0.988409    0.000057
      5          6           0       -0.474372    1.020999    0.000086
      6          6           0        0.205832   -0.202484    0.000050
      7          6           0        1.673870   -0.426617    0.000072
      8          8           0        2.146851   -1.535981   -0.000159
      9          8           0        2.350029    0.727980   -0.000126
     10          8           0        0.104305    2.209048    0.000159
     11          1           0        0.058112   -2.205868   -0.000038
     12          1           0       -2.293377   -2.397794   -0.000091
     13          1           0       -3.647222   -0.250937   -0.000030
     14          1           0       -2.420032    1.936611    0.000087
     15          1           0        3.307044    0.552847   -0.000308
     16          1           0        1.074215    2.134527    0.000196
 ---------------------------------------------------------------------
 Rotational constants (GHZ):      2.2904605      1.2577742      0.8119198
 Standard basis: 6-31+G(d,p) (6D, 7F)
 There are   220 symmetry adapted cartesian basis functions of A   symmetry.
 There are   220 symmetry adapted basis functions of A   symmetry.
   220 basis functions,   362 primitive gaussians,   220 cartesian basis functions
    36 alpha electrons       36 beta electrons
       nuclear repulsion energy       522.3684657369 Hartrees.
 NAtoms=   16 NActive=   16 NUniq=   16 SFac= 1.00D+00 NAtFMM=   60 NAOKFM=F Big=F
 Integral buffers will be    131072 words long.
 Raffenetti 2 integral format.
 Two-electron integral symmetry is turned on.
 R6APFD:  NTU= -4 IXU= 1 FactS= 1.050
 Nuclear repulsion after empirical dispersion term =      522.3583290244 Hartrees.
 One-electron integrals computed using PRISM.
 NBasis=   220 RedAO= T EigKep=  4.77D-06  NBF=   220
 NBsUse=   220 1.00D-06 EigRej= -1.00D+00 NBFU=   220
 Initial guess from the checkpoint file:  "APFD3HPA.chk"
 B after Tr=     0.000000   -0.000000   -0.000000
         Rot=    1.000000   -0.000001    0.000001   -0.000049 Ang=  -0.01 deg.
 ExpMin= 4.38D-02 ExpMax= 5.48D+03 ExpMxC= 8.25D+02 IAcc=2 IRadAn=         4 AccDes= 0.00D+00
 Harris functional with IExCor= 3731 and IRadAn=       4 diagonalized for initial guess.
 HarFok:  IExCor= 3731 AccDes= 0.00D+00 IRadAn=         4 IDoV= 1 UseB2=F ITyADJ=14
 ICtDFT=  3500011 ScaDFX=  1.000000  1.000000  1.000000  1.000000
 FoFCou: FMM=F IPFlag=           0 FMFlag=      100000 FMFlg1=           0
         NFxFlg=           0 DoJE=T BraDBF=F KetDBF=T FulRan=T
         wScrn=  0.000000 ICntrl=     500 IOpCl=  0 I1Cent=   200000004 NGrid=           0
         NMat0=    1 NMatS0=      1 NMatT0=    0 NMatD0=    1 NMtDS0=    0 NMtDT0=    0
 Petite list used in FoFCou.
 Keep R1 ints in memory in canonical form, NReq=301066375.
 Requested convergence on RMS density matrix=1.00D-08 within 128 cycles.
 Requested convergence on MAX density matrix=1.00D-06.
 Requested convergence on             energy=1.00D-06.
 No special actions if energy rises.
 SCF Done:  E(RAPFD) =  -512.078511749     A.U. after   11 cycles
            NFock= 11  Conv=0.46D-08     -V/T= 2.0087
 R6APFD:  NTU= -4 IXU= 1 FactS= 1.050
 Calling FoFJK, ICntrl=      2127 FMM=F ISym2X=0 I1Cent= 0 IOpClX= 0 NMat=1 NMatS=1 NMatT=0.
 ***** Axes restored to original set *****
 -------------------------------------------------------------------
 Center     Atomic                   Forces (Hartrees/Bohr)
 Number     Number              X              Y              Z
 -------------------------------------------------------------------
      1        7          -0.000219694    0.001029018   -0.000002413
      2        6           0.000680118    0.000178191    0.000000558
      3        6          -0.000462386   -0.000329397   -0.000000083
      4        6          -0.000315804   -0.000330051    0.000001658
      5        6           0.000699995    0.001493186   -0.000002161
      6        6          -0.000227873   -0.001839315   -0.000014898
      7        6           0.002072776   -0.000885815    0.000054077
      8        8          -0.000572621    0.000815088   -0.000020958
      9        8          -0.001556279   -0.000303686   -0.000016286
     10        8           0.000794964   -0.000385724   -0.000001067
     11        1           0.000140672   -0.000000068    0.000000617
     12        1          -0.000056487    0.000066464    0.000000481
     13        1          -0.000082555   -0.000037197   -0.000000138
     14        1           0.000016471   -0.000154171   -0.000000130
     15        1          -0.000424770    0.000378348   -0.000001029
     16        1          -0.000486525    0.000305129    0.000001771
 -------------------------------------------------------------------
 Cartesian Forces:  Max     0.002072776 RMS     0.000618672

 GradGradGradGradGradGradGradGradGradGradGradGradGradGradGradGradGradGrad
 Berny optimization.
 Using GEDIIS/GDIIS optimizer.
 FormGI is forming the generalized inverse of G from B-inverse, IUseBI=4.
 Internal  Forces:  Max     0.001780445 RMS     0.000462037
 Search for a local minimum.
 Step number   2 out of a maximum of   81
 All quantities printed in internal units (Hartrees-Bohrs-Radians)
 Mixed Optimization -- En-DIIS/RFO-DIIS
 Update second derivatives using D2CorX and points    1    2
 DE= -1.52D-04 DEPred=-1.82D-04 R= 8.35D-01
 TightC=F SS=  1.41D+00  RLast= 3.34D-02 DXNew= 5.0454D-01 1.0011D-01
 Trust test= 8.35D-01 RLast= 3.34D-02 DXMaxT set to 3.00D-01
 ITU=  1  0
 Use linear search instead of GDIIS.
     Eigenvalues ---    0.00934   0.01509   0.01807   0.02074   0.02168
     Eigenvalues ---    0.02209   0.02252   0.02278   0.02379   0.02428
     Eigenvalues ---    0.02507   0.02534   0.02711   0.15807   0.16000
     Eigenvalues ---    0.16000   0.16000   0.16000   0.16591   0.21963
     Eigenvalues ---    0.22441   0.24461   0.24748   0.25000   0.25000
     Eigenvalues ---    0.30443   0.34267   0.35470   0.35632   0.35762
     Eigenvalues ---    0.38744   0.42712   0.43624   0.46492   0.47621
     Eigenvalues ---    0.52437   0.52635   0.54143   0.56980   0.59015
     Eigenvalues ---    0.61094   1.03994
 RFO step:  Lambda=-3.15848714D-05 EMin= 9.34416312D-03
 Quartic linear search produced a step of -0.14095.
 Iteration  1 RMS(Cart)=  0.00458751 RMS(Int)=  0.00000719
 Iteration  2 RMS(Cart)=  0.00000971 RMS(Int)=  0.00000041
 Iteration  3 RMS(Cart)=  0.00000000 RMS(Int)=  0.00000041
 Variable       Old X    -DE/DX   Delta X   Delta X   Delta X     New X
                                 (Linear)    (Quad)   (Total)
    R1        2.51252   0.00006  -0.00068   0.00114   0.00046   2.51298
    R2        2.56221  -0.00053   0.00001  -0.00082  -0.00081   2.56140
    R3        1.93636  -0.00008  -0.00004  -0.00009  -0.00013   1.93623
    R4        2.64339  -0.00088  -0.00087  -0.00032  -0.00120   2.64220
    R5        2.04818  -0.00008  -0.00031   0.00029  -0.00001   2.04817
    R6        2.60948  -0.00025  -0.00117   0.00142   0.00025   2.60973
    R7        2.05012  -0.00008  -0.00045   0.00054   0.00008   2.05020
    R8        2.67422  -0.00025  -0.00067   0.00065  -0.00003   2.67419
    R9        2.05359  -0.00013  -0.00046   0.00043  -0.00002   2.05356
   R10        2.64534   0.00145  -0.00184   0.00574   0.00390   2.64924
   R11        2.49725  -0.00021   0.00039  -0.00092  -0.00053   2.49671
   R12        2.80634   0.00048   0.00059   0.00026   0.00085   2.80718
   R13        2.27898  -0.00052  -0.00078   0.00082   0.00004   2.27902
   R14        2.52848   0.00106  -0.00044   0.00229   0.00184   2.53033
   R15        1.83853   0.00035   0.00048  -0.00021   0.00028   1.83881
   R16        1.83827   0.00046   0.00020   0.00043   0.00063   1.83890
    A1        2.17294   0.00053  -0.00003   0.00203   0.00200   2.17494
    A2        2.11392  -0.00038  -0.00006  -0.00151  -0.00157   2.11235
    A3        1.99633  -0.00015   0.00009  -0.00052  -0.00043   1.99590
    A4        2.06945  -0.00012  -0.00012  -0.00067  -0.00079   2.06866
    A5        2.04886   0.00004   0.00021  -0.00002   0.00019   2.04904
    A6        2.16488   0.00008  -0.00009   0.00069   0.00060   2.16548
    A7        2.08788   0.00012  -0.00009   0.00021   0.00012   2.08800
    A8        2.08347  -0.00010   0.00009  -0.00038  -0.00029   2.08318
    A9        2.11183  -0.00002  -0.00000   0.00017   0.00017   2.11200
   A10        2.10353   0.00037   0.00027   0.00094   0.00121   2.10473
   A11        2.12148  -0.00027  -0.00001  -0.00115  -0.00116   2.12032
   A12        2.05818  -0.00009  -0.00026   0.00021  -0.00005   2.05813
   A13        2.05517  -0.00042   0.00003  -0.00121  -0.00119   2.05398
   A14        2.04709  -0.00040  -0.00002  -0.00148  -0.00150   2.04559
   A15        2.18093   0.00082  -0.00001   0.00269   0.00268   2.18361
   A16        2.07740  -0.00048  -0.00006  -0.00129  -0.00135   2.07605
   A17        1.97608  -0.00041  -0.00058  -0.00061  -0.00119   1.97489
   A18        2.22971   0.00089   0.00064   0.00190   0.00254   2.23225
   A19        2.12532   0.00014  -0.00004   0.00056   0.00052   2.12584
   A20        1.94907   0.00164   0.00184   0.00264   0.00448   1.95355
   A21        2.20879  -0.00178  -0.00180  -0.00320  -0.00500   2.20379
   A22        1.91958   0.00082   0.00099   0.00280   0.00379   1.92337
   A23        1.94737   0.00063   0.00224  -0.00026   0.00197   1.94935
    D1        0.00000  -0.00000  -0.00000  -0.00001  -0.00001  -0.00001
    D2       -3.14159  -0.00000  -0.00000  -0.00002  -0.00002   3.14158
    D3        3.14159   0.00000   0.00000   0.00001   0.00001  -3.14158
    D4       -0.00000   0.00000   0.00000   0.00001   0.00001   0.00001
    D5       -0.00000   0.00000   0.00000   0.00002   0.00002   0.00001
    D6        3.14159   0.00000   0.00000   0.00002   0.00002  -3.14158
    D7        3.14159  -0.00000   0.00000  -0.00001  -0.00001   3.14158
    D8        0.00000  -0.00000  -0.00000  -0.00001  -0.00001  -0.00001
    D9       -0.00000   0.00000   0.00000   0.00001   0.00001   0.00001
   D10        3.14159   0.00000  -0.00000   0.00000   0.00000  -3.14159
   D11        3.14159   0.00000   0.00000   0.00001   0.00001  -3.14158
   D12       -0.00000   0.00000   0.00000   0.00001   0.00001   0.00001
   D13        0.00000  -0.00000  -0.00000  -0.00000  -0.00000  -0.00000
   D14       -3.14159  -0.00000  -0.00000  -0.00000  -0.00000   3.14159
   D15        3.14159   0.00000  -0.00000   0.00000   0.00000  -3.14159
   D16        0.00000   0.00000  -0.00000   0.00000   0.00000   0.00000
   D17       -0.00000   0.00000   0.00000   0.00001   0.00001   0.00000
   D18       -3.14158  -0.00000  -0.00000  -0.00002  -0.00002   3.14158
   D19        3.14159   0.00000   0.00000   0.00000   0.00001  -3.14159
   D20        0.00001  -0.00000  -0.00000  -0.00002  -0.00002  -0.00001
   D21        0.00000  -0.00000  -0.00000  -0.00001  -0.00001  -0.00001
   D22       -3.14159  -0.00000  -0.00000  -0.00001  -0.00001   3.14158
   D23        3.14158   0.00000   0.00000   0.00002   0.00002  -3.14158
   D24       -0.00001   0.00000   0.00000   0.00002   0.00002   0.00001
   D25        3.14157   0.00000   0.00000   0.00006   0.00006  -3.14155
   D26       -0.00001   0.00000   0.00000   0.00003   0.00003   0.00002
   D27        0.00019  -0.00001  -0.00003  -0.00070  -0.00073  -0.00055
   D28        3.14138   0.00001   0.00004   0.00072   0.00076  -3.14104
   D29       -3.14140  -0.00001  -0.00003  -0.00070  -0.00073   3.14105
   D30       -0.00021   0.00001   0.00004   0.00072   0.00076   0.00055
   D31       -3.14137  -0.00002  -0.00004  -0.00078  -0.00082   3.14099
   D32       -0.00020   0.00001   0.00004   0.00072   0.00076   0.00055
         Item               Value     Threshold  Converged?
 Maximum Force            0.001780     0.000450     NO 
 RMS     Force            0.000462     0.000300     NO 
 Maximum Displacement     0.017687     0.001800     NO 
 RMS     Displacement     0.004591     0.001200     NO 
 Predicted change in Energy=-2.000862D-05
 GradGradGradGradGradGradGradGradGradGradGradGradGradGradGradGradGradGrad

                          Input orientation:                          
 ---------------------------------------------------------------------
 Center     Atomic      Atomic             Coordinates (Angstroms)
 Number     Number       Type             X           Y           Z
 ---------------------------------------------------------------------
      1          7           0        0.509908   -1.351582    0.000173
      2          6           0        1.838271   -1.413638   -0.000008
      3          6           0        2.562581   -0.217682   -0.000179
      4          6           0        1.889564    0.988234   -0.000150
      5          6           0        0.474882    1.023464    0.000048
      6          6           0       -0.207158   -0.201359    0.000216
      7          6           0       -1.675218   -0.428293    0.000448
      8          8           0       -2.146717   -1.538313    0.000021
      9          8           0       -2.359187    0.722831   -0.000195
     10          8           0       -0.099672    2.213199    0.000080
     11          1           0       -0.058644   -2.203976    0.000312
     12          1           0        2.291635   -2.398106   -0.000009
     13          1           0        3.646939   -0.252572   -0.000330
     14          1           0        2.422185    1.935457   -0.000278
     15          1           0       -3.315894    0.545223   -0.000573
     16          1           0       -1.070300    2.143831    0.000253
 ---------------------------------------------------------------------
                    Distance matrix (angstroms):
                    1          2          3          4          5
     1  N    0.000000
     2  C    1.329812   0.000000
     3  C    2.345036   1.398190   0.000000
     4  C    2.716282   2.402419   1.381008   0.000000
     5  C    2.375304   2.792543   2.428771   1.415121   0.000000
     6  C    1.355432   2.377688   2.769787   2.410679   1.401916
     7  C    2.372180   3.649042   4.243029   3.835912   2.594326
     8  O    2.663179   3.986938   4.890966   4.761828   3.665444
     9  O    3.540465   4.709899   5.010824   4.257032   2.849969
    10  O    3.616524   4.112125   3.605104   2.336151   1.321204
    11  H    1.024610   2.054975   3.288796   3.739748   3.271241
    12  H    2.066341   1.083843   2.197193   3.410125   3.873981
    13  H    3.323971   2.149268   1.084919   2.151270   3.419095
    14  H    3.802818   3.399616   2.157711   1.086699   2.150283
    15  H    4.270202   5.513851   5.927773   5.224276   3.820824
    16  H    3.836009   4.595146   4.332962   3.177452   1.908614
                    6          7          8          9         10
     6  C    0.000000
     7  C    1.485496   0.000000
     8  O    2.355703   1.206008   0.000000
     9  O    2.342083   1.338992   2.271104   0.000000
    10  O    2.416949   3.075683   4.273667   2.706770   0.000000
    11  H    2.008116   2.401324   2.191610   3.722726   4.417365
    12  H    3.327110   4.429005   4.520864   5.600927   5.194466
    13  H    3.854437   5.325057   5.934608   6.084813   4.485211
    14  H    3.388130   4.730330   5.739507   4.932745   2.537105
    15  H    3.197128   1.907761   2.389163   0.973054   3.623014
    16  H    2.498985   2.642299   3.836255   1.918455   0.973103
                   11         12         13         14         15
    11  H    0.000000
    12  H    2.358283   0.000000
    13  H    4.187997   2.537748   0.000000
    14  H    4.825910   4.335528   2.507487   0.000000
    15  H    4.262367   6.333053   7.008389   5.904092   0.000000
    16  H    4.463952   5.650822   5.291038   3.498695   2.756491
                   16
    16  H    0.000000
 Stoichiometry    C6H6NO3(1+)
 Framework group  C1[X(C6H6NO3)]
 Deg. of freedom    42
 Full point group                 C1      NOp   1
 Largest Abelian subgroup         C1      NOp   1
 Largest concise Abelian subgroup C1      NOp   1
                         Standard orientation:                         
 ---------------------------------------------------------------------
 Center     Atomic      Atomic             Coordinates (Angstroms)
 Number     Number       Type             X           Y           Z
 ---------------------------------------------------------------------
      1          7           0       -0.507732   -1.352650   -0.000144
      2          6           0       -1.835954   -1.417674    0.000036
      3          6           0       -2.562934   -0.223340    0.000208
      4          6           0       -1.892615    0.984076    0.000178
      5          6           0       -0.478015    1.022469   -0.000019
      6          6           0        0.206761   -0.200827   -0.000187
      7          6           0        1.675324   -0.424480   -0.000419
      8          8           0        2.149303   -1.533443    0.000007
      9          8           0        2.356719    0.728170    0.000224
     10          8           0        0.093879    2.213485   -0.000051
     11          1           0        0.062723   -2.203771   -0.000283
     12          1           0       -2.287116   -2.403153    0.000038
     13          1           0       -3.647212   -0.260653    0.000358
     14          1           0       -2.427351    1.930107    0.000306
     15          1           0        3.313821    0.552701    0.000602
     16          1           0        1.064659    2.146286   -0.000225
 ---------------------------------------------------------------------
 Rotational constants (GHZ):      2.2876282      1.2553798      0.8105661
 Standard basis: 6-31+G(d,p) (6D, 7F)
 There are   220 symmetry adapted cartesian basis functions of A   symmetry.
 There are   220 symmetry adapted basis functions of A   symmetry.
   220 basis functions,   362 primitive gaussians,   220 cartesian basis functions
    36 alpha electrons       36 beta electrons
       nuclear repulsion energy       522.0565161295 Hartrees.
 NAtoms=   16 NActive=   16 NUniq=   16 SFac= 1.00D+00 NAtFMM=   60 NAOKFM=F Big=F
 Integral buffers will be    131072 words long.
 Raffenetti 2 integral format.
 Two-electron integral symmetry is turned on.
 R6APFD:  NTU= -4 IXU= 1 FactS= 1.050
 Nuclear repulsion after empirical dispersion term =      522.0464074309 Hartrees.
 One-electron integrals computed using PRISM.
 NBasis=   220 RedAO= T EigKep=  4.79D-06  NBF=   220
 NBsUse=   220 1.00D-06 EigRej= -1.00D+00 NBFU=   220
 Initial guess from the checkpoint file:  "APFD3HPA.chk"
 B after Tr=    -0.000000   -0.000000    0.000000
         Rot=    1.000000    0.000007   -0.000001   -0.000979 Ang=   0.11 deg.
 Keep R1 ints in memory in canonical form, NReq=301066375.
 Requested convergence on RMS density matrix=1.00D-08 within 128 cycles.
 Requested convergence on MAX density matrix=1.00D-06.
 Requested convergence on             energy=1.00D-06.
 No special actions if energy rises.
 SCF Done:  E(RAPFD) =  -512.078524270     A.U. after   10 cycles
            NFock= 10  Conv=0.64D-08     -V/T= 2.0087
 R6APFD:  NTU= -4 IXU= 1 FactS= 1.050
 Calling FoFJK, ICntrl=      2127 FMM=F ISym2X=0 I1Cent= 0 IOpClX= 0 NMat=1 NMatS=1 NMatT=0.
 ***** Axes restored to original set *****
 -------------------------------------------------------------------
 Center     Atomic                   Forces (Hartrees/Bohr)
 Number     Number              X              Y              Z
 -------------------------------------------------------------------
      1        7          -0.000083659    0.000444719    0.000006937
      2        6           0.000267183    0.000188151   -0.000001648
      3        6          -0.000235938   -0.000094699    0.000000481
      4        6          -0.000251429   -0.000335688   -0.000004256
      5        6           0.000368452   -0.000079946    0.000003936
      6        6           0.000110037    0.000001522    0.000041473
      7        6          -0.000079541   -0.000093463   -0.000149331
      8        8           0.000151785    0.000294124    0.000058021
      9        8           0.000497191    0.000199481    0.000045054
     10        8          -0.000366294   -0.000504005    0.000002987
     11        1          -0.000001183   -0.000048467   -0.000002178
     12        1          -0.000088984    0.000062995   -0.000001322
     13        1          -0.000104838    0.000037966    0.000000352
     14        1          -0.000041096   -0.000102046    0.000000478
     15        1           0.000026915   -0.000091283    0.000002949
     16        1          -0.000168600    0.000120638   -0.000003935
 -------------------------------------------------------------------
 Cartesian Forces:  Max     0.000504005 RMS     0.000184080

 GradGradGradGradGradGradGradGradGradGradGradGradGradGradGradGradGradGrad
 Berny optimization.
 Using GEDIIS/GDIIS optimizer.
 FormGI is forming the generalized inverse of G from B-inverse, IUseBI=4.
 Internal  Forces:  Max     0.000915871 RMS     0.000269041
 Search for a local minimum.
 Step number   3 out of a maximum of   81
 All quantities printed in internal units (Hartrees-Bohrs-Radians)
 Mixed Optimization -- En-DIIS/RFO-DIIS
 Swapping is turned off.
 Update second derivatives using D2CorX and points    1    2    3
 DE= -1.25D-05 DEPred=-2.00D-05 R= 6.26D-01
 TightC=F SS=  1.41D+00  RLast= 1.10D-02 DXNew= 5.0454D-01 3.2959D-02
 Trust test= 6.26D-01 RLast= 1.10D-02 DXMaxT set to 3.00D-01
 ITU=  1  1  0
     Eigenvalues ---    0.00934   0.01515   0.01806   0.02074   0.02168
     Eigenvalues ---    0.02209   0.02252   0.02278   0.02379   0.02428
     Eigenvalues ---    0.02507   0.02534   0.02711   0.15719   0.16000
     Eigenvalues ---    0.16000   0.16000   0.16125   0.16390   0.21050
     Eigenvalues ---    0.22124   0.24232   0.24490   0.25000   0.25315
     Eigenvalues ---    0.32401   0.35427   0.35504   0.35699   0.35770
     Eigenvalues ---    0.42123   0.43612   0.46329   0.46754   0.51407
     Eigenvalues ---    0.52617   0.53265   0.55606   0.57830   0.60243
     Eigenvalues ---    0.63456   1.04256
 En-DIIS/RFO-DIIS IScMMF=        0 using points:     3    2
 RFO step:  Lambda=-6.93690407D-06.
 DidBck=T Rises=F RFO-DIIS coefs:    0.72229    0.27771
 Iteration  1 RMS(Cart)=  0.00239760 RMS(Int)=  0.00000189
 Iteration  2 RMS(Cart)=  0.00000280 RMS(Int)=  0.00000037
 Iteration  3 RMS(Cart)=  0.00000000 RMS(Int)=  0.00000037
 Variable       Old X    -DE/DX   Delta X   Delta X   Delta X     New X
                                 (Linear)    (Quad)   (Total)
    R1        2.51298  -0.00004  -0.00013   0.00012  -0.00001   2.51298
    R2        2.56140  -0.00041   0.00023  -0.00087  -0.00065   2.56075
    R3        1.93623   0.00004   0.00004   0.00000   0.00004   1.93627
    R4        2.64220  -0.00033   0.00033  -0.00101  -0.00068   2.64152
    R5        2.04817  -0.00010   0.00000  -0.00021  -0.00020   2.04796
    R6        2.60973  -0.00023  -0.00007  -0.00026  -0.00033   2.60940
    R7        2.05020  -0.00011  -0.00002  -0.00019  -0.00022   2.04998
    R8        2.67419  -0.00040   0.00001  -0.00070  -0.00070   2.67349
    R9        2.05356  -0.00011   0.00001  -0.00025  -0.00024   2.05333
   R10        2.64924  -0.00090  -0.00108   0.00022  -0.00086   2.64838
   R11        2.49671  -0.00011   0.00015  -0.00033  -0.00018   2.49653
   R12        2.80718  -0.00064  -0.00023  -0.00088  -0.00111   2.80607
   R13        2.27902  -0.00033  -0.00001  -0.00024  -0.00026   2.27877
   R14        2.53033  -0.00018  -0.00051   0.00055   0.00004   2.53037
   R15        1.83881  -0.00001  -0.00008   0.00014   0.00006   1.83887
   R16        1.83890   0.00016  -0.00018   0.00049   0.00032   1.83921
    A1        2.17494  -0.00011  -0.00056   0.00056   0.00000   2.17494
    A2        2.11235   0.00003   0.00044  -0.00064  -0.00021   2.11215
    A3        1.99590   0.00008   0.00012   0.00008   0.00020   1.99610
    A4        2.06866  -0.00012   0.00022  -0.00056  -0.00034   2.06832
    A5        2.04904   0.00001  -0.00005  -0.00002  -0.00007   2.04897
    A6        2.16548   0.00011  -0.00017   0.00059   0.00042   2.16590
    A7        2.08800  -0.00001  -0.00003   0.00013   0.00010   2.08810
    A8        2.08318   0.00004   0.00008   0.00000   0.00008   2.08326
    A9        2.11200  -0.00003  -0.00005  -0.00013  -0.00018   2.11182
   A10        2.10473  -0.00000  -0.00033   0.00052   0.00018   2.10492
   A11        2.12032  -0.00001   0.00032  -0.00054  -0.00022   2.12010
   A12        2.05813   0.00001   0.00001   0.00002   0.00004   2.05817
   A13        2.05398   0.00001   0.00033  -0.00059  -0.00026   2.05372
   A14        2.04559   0.00069   0.00042   0.00128   0.00169   2.04728
   A15        2.18361  -0.00070  -0.00075  -0.00069  -0.00143   2.18218
   A16        2.07605   0.00023   0.00038  -0.00005   0.00032   2.07637
   A17        1.97489   0.00069   0.00033   0.00136   0.00169   1.97658
   A18        2.23225  -0.00092  -0.00071  -0.00131  -0.00201   2.23024
   A19        2.12584   0.00032  -0.00014   0.00109   0.00095   2.12679
   A20        1.95355  -0.00071  -0.00124   0.00012  -0.00112   1.95243
   A21        2.20379   0.00038   0.00139  -0.00122   0.00017   2.20397
   A22        1.92337  -0.00018  -0.00105   0.00092  -0.00013   1.92324
   A23        1.94935   0.00024  -0.00055   0.00201   0.00146   1.95080
    D1       -0.00001   0.00000   0.00000   0.00003   0.00003   0.00002
    D2        3.14158   0.00000   0.00001   0.00003   0.00004  -3.14157
    D3       -3.14158  -0.00000  -0.00000  -0.00003  -0.00003   3.14157
    D4        0.00001  -0.00000  -0.00000  -0.00002  -0.00002  -0.00001
    D5        0.00001  -0.00000  -0.00000  -0.00003  -0.00003  -0.00002
    D6       -3.14158  -0.00000  -0.00000  -0.00003  -0.00004   3.14157
    D7        3.14158   0.00000   0.00000   0.00002   0.00003  -3.14157
    D8       -0.00001   0.00000   0.00000   0.00001   0.00002   0.00001
    D9        0.00001  -0.00000  -0.00000  -0.00002  -0.00002  -0.00001
   D10       -3.14159  -0.00000  -0.00000  -0.00001  -0.00001   3.14159
   D11       -3.14158  -0.00000  -0.00000  -0.00003  -0.00003   3.14157
   D12        0.00001  -0.00000  -0.00000  -0.00002  -0.00002  -0.00001
   D13       -0.00000   0.00000   0.00000   0.00001   0.00001   0.00001
   D14        3.14159   0.00000   0.00000   0.00001   0.00001  -3.14159
   D15       -3.14159  -0.00000  -0.00000  -0.00000  -0.00000   3.14159
   D16        0.00000  -0.00000  -0.00000  -0.00000  -0.00000  -0.00000
   D17        0.00000  -0.00000  -0.00000  -0.00001  -0.00001  -0.00001
   D18        3.14158   0.00000   0.00001   0.00003   0.00003  -3.14157
   D19       -3.14159  -0.00000  -0.00000  -0.00001  -0.00001   3.14159
   D20       -0.00001   0.00000   0.00001   0.00003   0.00004   0.00002
   D21       -0.00001   0.00000   0.00000   0.00002   0.00002   0.00001
   D22        3.14158   0.00000   0.00000   0.00003   0.00003  -3.14157
   D23       -3.14158  -0.00000  -0.00001  -0.00002  -0.00003   3.14157
   D24        0.00001  -0.00000  -0.00001  -0.00001  -0.00002  -0.00001
   D25       -3.14155  -0.00000  -0.00002  -0.00008  -0.00010   3.14153
   D26        0.00002  -0.00000  -0.00001  -0.00004  -0.00005  -0.00003
   D27       -0.00055   0.00004   0.00020   0.00134   0.00154   0.00099
   D28       -3.14104  -0.00004  -0.00021  -0.00133  -0.00154   3.14060
   D29        3.14105   0.00004   0.00020   0.00133   0.00153  -3.14061
   D30        0.00055  -0.00004  -0.00021  -0.00134  -0.00155  -0.00100
   D31        3.14099   0.00004   0.00023   0.00146   0.00169  -3.14051
   D32        0.00055  -0.00004  -0.00021  -0.00135  -0.00156  -0.00101
         Item               Value     Threshold  Converged?
 Maximum Force            0.000916     0.000450     NO 
 RMS     Force            0.000269     0.000300     YES
 Maximum Displacement     0.008516     0.001800     NO 
 RMS     Displacement     0.002398     0.001200     NO 
 Predicted change in Energy=-4.895010D-06
 GradGradGradGradGradGradGradGradGradGradGradGradGradGradGradGradGradGrad

                          Input orientation:                          
 ---------------------------------------------------------------------
 Center     Atomic      Atomic             Coordinates (Angstroms)
 Number     Number       Type             X           Y           Z
 ---------------------------------------------------------------------
      1          7           0        0.510697   -1.352251   -0.000186
      2          6           0        1.839084   -1.413750    0.000059
      3          6           0        2.562296   -0.217549    0.000166
      4          6           0        1.888566    0.987768    0.000001
      5          6           0        0.474236    1.022311   -0.000267
      6          6           0       -0.206671   -0.202621   -0.000364
      7          6           0       -1.674438   -0.427601   -0.000659
      8          8           0       -2.148346   -1.536446    0.000293
      9          8           0       -2.355662    0.725175    0.000405
     10          8           0       -0.102862    2.210708   -0.000438
     11          1           0       -0.057334   -2.205017   -0.000289
     12          1           0        2.292741   -2.397965    0.000158
     13          1           0        3.646569   -0.251521    0.000370
     14          1           0        2.420705    1.935116    0.000073
     15          1           0       -3.312800    0.549730    0.001177
     16          1           0       -1.073606    2.140633   -0.000674
 ---------------------------------------------------------------------
                    Distance matrix (angstroms):
                    1          2          3          4          5
     1  N    0.000000
     2  C    1.329809   0.000000
     3  C    2.344484   1.397832   0.000000
     4  C    2.715550   2.402028   1.380834   0.000000
     5  C    2.374841   2.792347   2.428425   1.414752   0.000000
     6  C    1.355089   2.377383   2.769008   2.409781   1.401461
     7  C    2.372718   3.649291   4.241938   3.833832   2.592112
     8  O    2.665415   3.989317   4.891793   4.761126   3.664038
     9  O    3.540015   4.708597   5.007498   4.252344   2.845455
    10  O    3.615401   4.111915   3.605482   2.336957   1.321109
    11  H    1.024632   2.054873   3.288235   3.739038   3.270812
    12  H    2.066204   1.083736   2.197015   3.409772   3.873661
    13  H    3.323447   2.148902   1.084804   2.150909   3.418529
    14  H    3.801962   3.398999   2.157317   1.086573   2.149873
    15  H    4.270441   5.513362   5.924988   5.219779   3.816409
    16  H    3.835395   4.595367   4.333683   3.178610   1.909570
                    6          7          8          9         10
     6  C    0.000000
     7  C    1.484909   0.000000
     8  O    2.355672   1.205872   0.000000
     9  O    2.340719   1.339014   2.271103   0.000000
    10  O    2.415560   3.070916   4.269095   2.698503   0.000000
    11  H    2.007957   2.402963   2.195295   3.724021   4.415959
    12  H    3.326650   4.429542   4.523878   5.600147   5.194110
    13  H    3.853551   5.323919   5.935661   6.081176   4.485621
    14  H    3.387186   4.727856   5.738290   4.927234   2.538570
    15  H    3.195946   1.907724   2.389160   0.973086   3.614216
    16  H    2.498482   2.637579   3.830924   1.909762   0.973270
                   11         12         13         14         15
    11  H    0.000000
    12  H    2.357983   0.000000
    13  H    4.187487   2.537730   0.000000
    14  H    4.825078   4.334971   2.506816   0.000000
    15  H    4.264586   6.333324   7.005342   5.898506   0.000000
    16  H    4.462901   5.650767   5.291734   3.500349   2.746811
                   16
    16  H    0.000000
 Stoichiometry    C6H6NO3(1+)
 Framework group  C1[X(C6H6NO3)]
 Deg. of freedom    42
 Full point group                 C1      NOp   1
 Largest Abelian subgroup         C1      NOp   1
 Largest concise Abelian subgroup C1      NOp   1
                         Standard orientation:                         
 ---------------------------------------------------------------------
 Center     Atomic      Atomic             Coordinates (Angstroms)
 Number     Number       Type             X           Y           Z
 ---------------------------------------------------------------------
      1          7           0       -0.510669   -1.352491    0.000121
      2          6           0       -1.839014   -1.414897   -0.000125
      3          6           0       -2.563043   -0.219190   -0.000231
      4          6           0       -1.890136    0.986587   -0.000067
      5          6           0       -0.475829    1.022095    0.000201
      6          6           0        0.205914   -0.202371    0.000298
      7          6           0        1.673834   -0.426350    0.000593
      8          8           0        2.148499   -1.534871   -0.000358
      9          8           0        2.354271    0.726891   -0.000470
     10          8           0        0.100457    2.210886    0.000372
     11          1           0        0.057944   -2.204869    0.000224
     12          1           0       -2.291999   -2.399421   -0.000224
     13          1           0       -3.647292   -0.253902   -0.000436
     14          1           0       -2.422921    1.933572   -0.000139
     15          1           0        3.311529    0.552099   -0.001243
     16          1           0        1.071249    2.141473    0.000608
 ---------------------------------------------------------------------
 Rotational constants (GHZ):      2.2898423      1.2561224      0.8111537
 Standard basis: 6-31+G(d,p) (6D, 7F)
 There are   220 symmetry adapted cartesian basis functions of A   symmetry.
 There are   220 symmetry adapted basis functions of A   symmetry.
   220 basis functions,   362 primitive gaussians,   220 cartesian basis functions
    36 alpha electrons       36 beta electrons
       nuclear repulsion energy       522.2096869429 Hartrees.
 NAtoms=   16 NActive=   16 NUniq=   16 SFac= 1.00D+00 NAtFMM=   60 NAOKFM=F Big=F
 Integral buffers will be    131072 words long.
 Raffenetti 2 integral format.
 Two-electron integral symmetry is turned on.
 R6APFD:  NTU= -4 IXU= 1 FactS= 1.050
 Nuclear repulsion after empirical dispersion term =      522.1995686791 Hartrees.
 One-electron integrals computed using PRISM.
 NBasis=   220 RedAO= T EigKep=  4.79D-06  NBF=   220
 NBsUse=   220 1.00D-06 EigRej= -1.00D+00 NBFU=   220
 Initial guess from the checkpoint file:  "APFD3HPA.chk"
 B after Tr=    -0.000000   -0.000000   -0.000000
         Rot=    1.000000   -0.000016    0.000002    0.000715 Ang=  -0.08 deg.
 Keep R1 ints in memory in canonical form, NReq=301066375.
 Requested convergence on RMS density matrix=1.00D-08 within 128 cycles.
 Requested convergence on MAX density matrix=1.00D-06.
 Requested convergence on             energy=1.00D-06.
 No special actions if energy rises.
 SCF Done:  E(RAPFD) =  -512.078528717     A.U. after    9 cycles
            NFock=  9  Conv=0.81D-08     -V/T= 2.0087
 R6APFD:  NTU= -4 IXU= 1 FactS= 1.050
 Calling FoFJK, ICntrl=      2127 FMM=F ISym2X=0 I1Cent= 0 IOpClX= 0 NMat=1 NMatS=1 NMatT=0.
 ***** Axes restored to original set *****
 -------------------------------------------------------------------
 Center     Atomic                   Forces (Hartrees/Bohr)
 Number     Number              X              Y              Z
 -------------------------------------------------------------------
      1        7          -0.000246672    0.000080018   -0.000012644
      2        6           0.000128869    0.000046328    0.000002904
      3        6          -0.000045839   -0.000049521   -0.000000903
      4        6          -0.000116227   -0.000007112    0.000007773
      5        6           0.000000313    0.000171001   -0.000006787
      6        6           0.000080157   -0.000083996   -0.000075820
      7        6          -0.000025561   -0.000208194    0.000271153
      8        8           0.000096707    0.000157906   -0.000105348
      9        8          -0.000012167    0.000137446   -0.000081650
     10        8           0.000098189   -0.000123560   -0.000005435
     11        1           0.000037451   -0.000018578    0.000003975
     12        1          -0.000041995    0.000006202    0.000002425
     13        1          -0.000021996    0.000033056   -0.000000592
     14        1           0.000011800   -0.000021637   -0.000000863
[...]
 ! D1    D(6,1,2,3)              0.0001         -DE/DX =    0.0                 !
 ! D2    D(6,1,2,12)           180.0001         -DE/DX =    0.0                 !
 ! D3    D(11,1,2,3)          -180.0001         -DE/DX =    0.0                 !
 ! D4    D(11,1,2,12)           -0.0001         -DE/DX =    0.0                 !
 ! D5    D(2,1,6,5)             -0.0001         -DE/DX =    0.0                 !
 ! D6    D(2,1,6,7)           -180.0002         -DE/DX =    0.0                 !
 ! D7    D(11,1,6,5)           180.0001         -DE/DX =    0.0                 !
 ! D8    D(11,1,6,7)             0.0            -DE/DX =    0.0                 !
 ! D9    D(1,2,3,4)             -0.0001         -DE/DX =    0.0                 !
 ! D10   D(1,2,3,13)           180.0            -DE/DX =    0.0                 !
 ! D11   D(12,2,3,4)          -180.0001         -DE/DX =    0.0                 !
 ! D12   D(12,2,3,13)           -0.0001         -DE/DX =    0.0                 !
 ! D13   D(2,3,4,5)              0.0            -DE/DX =    0.0                 !
 ! D14   D(2,3,4,14)          -180.0            -DE/DX =    0.0                 !
 ! D15   D(13,3,4,5)          -180.0            -DE/DX =    0.0                 !
 ! D16   D(13,3,4,14)            0.0            -DE/DX =    0.0                 !
 ! D17   D(3,4,5,6)              0.0            -DE/DX =    0.0                 !
 ! D18   D(3,4,5,10)           180.0001         -DE/DX =    0.0                 !
 ! D19   D(14,4,5,6)           180.0            -DE/DX =    0.0                 !
 ! D20   D(14,4,5,10)            0.0001         -DE/DX =    0.0                 !
 ! D21   D(4,5,6,1)              0.0001         -DE/DX =    0.0                 !
 ! D22   D(4,5,6,7)            180.0001         -DE/DX =    0.0                 !
 ! D23   D(10,5,6,1)          -180.0001         -DE/DX =    0.0                 !
 ! D24   D(10,5,6,7)             0.0            -DE/DX =    0.0                 !
 ! D25   D(4,5,10,16)         -180.0004         -DE/DX =    0.0                 !
 ! D26   D(6,5,10,16)           -0.0002         -DE/DX =    0.0                 !
 ! D27   D(1,6,7,8)              0.0058         -DE/DX =    0.0                 !
 ! D28   D(1,6,7,9)           -180.0057         -DE/DX =    0.0                 !
 ! D29   D(5,6,7,8)           -179.9943         -DE/DX =    0.0                 !
 ! D30   D(5,6,7,9)             -0.0057         -DE/DX =    0.0                 !
 ! D31   D(6,7,9,15)           180.0062         -DE/DX =    0.0                 !
 ! D32   D(8,7,9,15)            -0.0059         -DE/DX =    0.0                 !
 --------------------------------------------------------------------------------
 GradGradGradGradGradGradGradGradGradGradGradGradGradGradGradGradGradGrad

 1\1\ WCSS.PL-BEM-QINLAB\Freq\RAPFD\6-31+G(d,p)\C6H6N1O3(1+)\PHZD\19-Ma
 y-2024\0\\#N Geom=AllCheck Guess=TCheck SCRF=Check GenChk RAPFD/6-31+G
 (d,p) Freq\\[No Title]\\1,1\N,0.5104898204,-1.3520874863,0.0000216507\
 C,1.838966507,-1.4136732156,0.0000199429\C,2.5620537242,-0.2175628322,
 -0.0000342286\C,1.8884078221,0.9877551153,-0.0000857123\C,0.4743216526
 ,1.0224724861,-0.000083324\C,-0.2065624044,-0.2025452731,-0.0000280336
 \C,-1.6741303535,-0.4273744804,-0.0000169458\O,-2.1480550696,-1.536087
 5532,0.0001353727\O,-2.355506475,0.7254594841,0.0000565552\O,-0.102845
 2639,2.2105605819,-0.0001368651\H,-0.0573108514,-2.2049944384,0.000058
 7277\H,2.2922885415,-2.3979859653,0.0000607268\H,3.6462903889,-0.25122
 9856,-0.0000357342\H,2.4208131529,1.9349174929,-0.0001290678\H,-3.3124
 805309,0.5491761592,0.0001614324\H,-1.0735656608,2.1399187809,-0.00013
 64969\\Version=ES64L-G09RevE.01\State=1-A\HF=-512.0785292\RMSD=2.812e-
 09\RMSF=2.133e-05\ZeroPoint=0.1230994\Thermal=0.130998\Dipole=1.007103
 4,-0.4413635,-0.0000233\DipoleDeriv=0.145358,-0.1599861,0.0000035,-0.5
 7682,-0.302173,0.0000167,0.0000126,0.000003,-0.1081775,-0.2732468,0.15
 14222,0.0000016,-0.139113,0.235028,-0.000005,0.000006,-0.0000083,0.067
 8124,0.1924741,-0.0426695,0.0000011,0.334901,-0.1138317,-0.000005,-0.0
 000173,0.0000015,-0.0591965,0.149673,0.3452028,-0.0000213,-0.023069,0.
 0972926,-0.0000033,0.0000069,-0.0000051,-0.0401716,0.077612,-0.7030074
 ,0.0000411,-0.6174585,1.3381013,-0.0000568,0.0000121,-0.0000538,0.2025
 347,-0.5910761,-0.2810433,0.0000305,0.5050358,-0.2010403,0.0000104,-0.
 0000433,0.0000091,0.0835339,2.0601974,0.0954291,-0.0000554,-0.0309528,
 1.6113489,-0.0000078,-0.0000615,-0.0000278,0.3556656,-0.9036827,-0.283
 3333,0.0000182,-0.2572523,-0.9805193,0.0000038,0.000057,0.0000833,-0.3
 187604,-1.0285448,0.4284406,0.000016,0.4278918,-0.9061499,-0.0000013,0
 .0000605,-0.0000489,-0.3476358,-0.5350432,0.6144388,-0.0000279,0.40794
 36,-1.1609757,0.0000454,-0.0000134,0.0000455,-0.3159538,0.354291,0.026
 7595,-0.0000038,0.0926344,0.3701676,-0.0000027,-0.0000044,-0.0000005,0
 .2826225,0.1246334,-0.0417239,0.0000024,-0.0351865,0.1230609,0.0000026
 ,0.0000044,0.0000041,0.167706,0.1200139,0.0052766,-0.0000002,0.0092637
 ,0.1142476,0.0000017,-0.000001,0.0000021,0.1562151,0.1212061,0.0143698
 ,-0.0000004,0.0161089,0.1138273,0.0000016,0.000001,0.,0.1510221,0.4981
 943,-0.0840704,-0.0000041,-0.0976481,0.2800826,0.0000093,-0.0000096,0.
 0000087,0.3826118,0.4879404,-0.0855054,-0.0000012,-0.0162791,0.3815332
 ,-0.0000095,-0.0000099,-0.000013,0.3401718\Polar=108.9679125,-1.322168
 7,93.1298811,-0.0013527,-0.0025318,40.4677158\PG=C01 [X(C6H6N1O3)]\NIm
 ag=0\\0.87817079,0.04850424,0.80748738,-0.00000282,-0.00002922,0.12876
 229,-0.40326040,-0.01578366,0.00000108,0.73763031,0.04597984,-0.152463
 90,0.00000350,-0.04496987,0.79771439,-0.00000109,0.00000359,-0.0606468
 9,0.00000018,-0.00002838,0.14005378,-0.04760627,-0.03388906,0.00000153
 ,-0.18252869,-0.11586567,0.00000550,0.78962421,-0.08198938,0.02601236,
 -0.00000021,-0.05897133,-0.28837594,0.00000993,-0.02071405,0.69844846,
 0.00000394,-0.00000089,0.00785773,0.00000262,0.00001006,-0.06467290,-0
 .00000083,-0.00002463,0.13414488,-0.04873674,0.02473943,-0.00000090,0.
 06329492,0.01161920,-0.00000055,-0.19690860,0.08679047,-0.00000339,0.6
 7962531,0.02946598,-0.01382898,0.00000038,-0.01895435,-0.05400483,0.00
 000266,0.13874907,-0.33488177,0.00001202,-0.00184829,0.79421120,-0.000
 00121,0.00000064,-0.00215021,0.00000070,0.00000245,0.00422483,-0.00000
 574,0.00001195,-0.05584648,-0.00000148,-0.00002899,0.13416333,0.065076
 45,-0.02145921,0.00000065,-0.04651920,-0.01412169,0.00000060,-0.013284
 47,0.06082281,-0.00000274,-0.30548607,-0.04602108,0.00000323,0.7094959
 0,0.01224258,-0.06285753,0.00000302,-0.02486561,0.00028456,-0.00000023
 ,0.03837707,0.01854121,-0.00000114,0.00471358,-0.11933130,0.00000256,-
 0.03944087,0.76773889,-0.00000006,0.00000241,-0.00275220,0.00000076,-0
 .00000041,-0.00307335,-0.00000176,-0.00000059,-0.00266709,0.00000050,0
 .00000261,-0.06565909,0.00000141,-0.00002724,0.15538171,-0.18063988,0.
 10639302,-0.00000528,-0.06074229,0.02477251,-0.00000118,-0.00307717,0.
 02549458,-0.00000113,-0.00697182,-0.03464264,0.00000133,-0.20178539,-0
 .09318658,0.00000317,0.67989626,0.06050637,-0.29152254,0.00001001,0.07
 705564,0.01160717,-0.00000012,-0.01323343,-0.04641078,0.00000203,-0.05
 226898,0.03026068,-0.00000123,-0.06279216,-0.26105827,0.00000864,0.010
 04081,0.75539308,-0.00000416,0.00001020,-0.05399611,-0.00000293,0.0000
 0031,0.00671380,0.00000069,0.00000166,-0.00323704,0.00000249,-0.000001
 87,0.00336946,0.00000161,0.00000920,-0.05675481,-0.00000502,-0.0000272
 4,0.12124722,-0.05350802,0.02452707,-0.00000051,0.02301737,0.00635573,
 0.00000010,-0.00242547,-0.01568047,0.00000069,-0.01035292,0.00571765,0
 .00000018,0.01295710,-0.03531994,0.00000210,-0.19485533,-0.01181476,-0
 .00000442,0.67647976,0.02769817,0.00496417,0.00000049,0.00710892,-0.00
 870645,0.00000094,-0.00207286,-0.00270382,0.00000006,-0.00192319,-0.00
 567531,0.00000046,-0.03349903,0.01684852,-0.00000072,-0.01165206,-0.09
 111284,-0.00000078,0.12888569,0.99398757,-0.00000050,-0.00000115,-0.00
 295641,-0.00000006,0.00000098,0.00620572,0.00000034,0.00000007,-0.0006
 8391,-0.00000007,0.00000027,0.00776743,0.00000082,0.00000155,0.0012447
 6,0.00000192,-0.00000080,-0.07045763,-0.00005130,-0.00006578,0.1952190
 4,-0.00240397,-0.00774350,0.00000058,-0.00312734,-0.00356858,0.0000001
 4,-0.00033744,0.00269683,-0.00000013,0.00112208,-0.00337972,-0.0000001
 8,-0.01016902,0.01209079,-0.00000028,-0.03374894,-0.04764469,0.0000070
 9,-0.22489285,-0.24766649,0.00003631,0.23213914,0.01603793,-0.00370690
 ,-0.00000044,-0.00784802,0.00111175,-0.00000031,0.00192052,0.00386383,
 -0.00000016,0.00118325,-0.00165449,-0.00000021,-0.00049468,0.00216596,
 0.00000009,-0.03892720,-0.02355152,0.00000605,-0.24297060,-0.65059430,
 0.00007426,0.28448317,0.76950268,-0.00000133,0.00000075,0.00134325,0.0
 0000065,-0.00000015,-0.00061676,-0.00000024,-0.00000032,-0.00013515,0.
 ,0.00000042,-0.00175646,0.00000074,-0.00000093,0.00240905,0.00000427,0
 .00000623,0.02024064,0.00003757,0.00007717,-0.07442444,-0.00004126,-0.
 00008610,0.03363934,-0.00615265,-0.00609408,0.00000042,-0.00326536,0.0
 0110150,-0.00000023,0.00038332,0.00325370,-0.00000009,0.00279252,-0.00
 081193,0.,-0.00434019,0.00385448,-0.00000015,-0.03539669,0.04044162,0.
 00000345,-0.19657940,0.11126737,0.00001181,0.03646838,0.00235818,-0.00
 000097,0.69528264,-0.00142180,0.00533391,-0.00000028,0.00181640,0.0024
 1862,-0.00000010,0.00004660,-0.00309858,0.00000015,-0.00353447,0.00218
 581,-0.00000003,0.00833346,-0.01606923,0.00000100,0.01807294,0.0009749
 0,-0.00000187,0.06429650,-0.25224912,-0.00000299,0.02608073,-0.0999819
 9,0.00000205,-0.02949039,0.42263059,0.00000088,0.00000033,0.00158425,-
 0.00000009,-0.00000017,0.00002456,-0.00000002,-0.00000004,0.00025637,0
 .00000006,0.00000002,-0.00070992,0.00000040,-0.00000004,0.00088271,0.0
 0000092,-0.00000220,0.00751536,0.00001402,-0.00001213,-0.06007204,-0.0
 0000203,0.00000665,0.02669809,-0.00006609,-0.00000467,0.03971829,-0.01
 328566,0.00367134,0.00000012,0.00977687,0.00663354,-0.00000029,-0.0066
 8242,-0.01560111,0.00000078,-0.04123373,0.06303438,-0.00000299,-0.1691
 4198,0.13404985,-0.00000605,0.02925254,-0.00908502,0.00000049,-0.02118
 508,0.01279257,0.00000061,0.00513349,-0.00410700,0.00000011,-0.0060656
 9,-0.01736510,0.00000072,0.68582770,0.00107643,-0.00335763,0.00000030,
 -0.00549401,-0.00841362,0.00000033,-0.00443946,0.01060550,-0.00000020,
 0.02855627,-0.01089343,0.00000070,0.09405244,-0.34254202,0.00001326,0.
 00587048,-0.05563084,0.00000295,0.01937613,-0.00491172,-0.00000087,-0.
 00463966,0.00003427,0.00000020,-0.01131065,0.00685122,0.00000085,-0.10
 354091,0.45841113,-0.00000017,0.00000054,0.00862128,0.00000020,0.00000
 030,-0.00151735,0.00000018,-0.00000021,0.00478595,-0.00000116,0.000000
 80,0.00567568,-0.00000450,0.00001281,-0.04610190,0.00000026,0.00000338
 ,0.00712505,-0.00000073,-0.00000013,-0.00223222,0.00000013,0.00000021,
 -0.00014781,0.00000086,0.00000027,0.00154022,0.00000569,-0.00001918,0.
 03714744,-0.16795661,-0.15451405,0.00000640,-0.01510070,-0.02829558,0.
 00000119,-0.00498264,0.00371180,-0.00000016,-0.00010357,0.00045902,-0.
 00000002,-0.00237006,0.00297718,-0.00000021,0.01727114,0.01339867,-0.0
 0000041,0.00369741,0.01534630,-0.00000094,0.00087086,-0.00932982,0.000
 00064,0.00043699,-0.00601923,-0.00000007,-0.00065096,0.00225081,-0.000
 00008,0.16797777,-0.15508045,-0.31595149,0.00001225,0.00164383,0.01113
 188,-0.00000045,0.00267892,0.00259981,0.00000022,0.00070722,-0.0002052
 4,-0.00000006,0.00495549,-0.00248115,0.00000041,-0.01324848,-0.0252961
 2,0.00000093,0.00208247,-0.00243517,0.00000014,-0.00270730,-0.00005731
 ,-0.00000009,-0.00111240,-0.00023138,0.00000012,-0.00146276,0.00001455
 ,0.,0.16005450,0.33123022,0.00000619,0.00001232,-0.03180274,0.00000023
 ,-0.00000047,0.00008430,-0.00000015,0.00000006,0.00773136,-0.00000018,
 -0.00000001,-0.00133650,-0.00000003,0.00000050,0.00562117,0.00000077,0
 .00000094,0.00022794,-0.00000073,-0.00000024,-0.00196698,0.00000008,0.
 00000022,-0.00282722,0.00000021,0.00000016,0.00040569,0.00000004,0.000
 00001,0.00058917,-0.00000637,-0.00001321,0.02744588,-0.01882442,0.0354
 1111,-0.00000154,-0.10751823,0.10485342,-0.00000418,0.01328795,-0.0154
 2310,0.00000066,-0.00262321,-0.00354838,0.00000019,-0.00025158,0.00040
 082,-0.00000003,-0.00346731,-0.00412258,0.00000015,0.00001303,0.001519
 74,-0.00000012,0.00003359,-0.00019893,0.00000004,-0.00058498,-0.000094
 38,0.00000006,0.00043017,-0.00022841,0.,0.00020519,0.00100520,-0.00000
 006,0.11835537,-0.00268020,0.00571266,-0.00000024,0.11553981,-0.314434
 72,0.00001159,0.01124348,-0.01233402,0.00000075,-0.00282000,-0.0024933
 4,0.00000037,-0.00121687,-0.00092489,0.00000002,-0.00208241,0.00274387
 ,0.00000020,0.00063345,0.00043006,0.00000002,-0.00017887,-0.00027202,0
 .00000003,-0.00032229,0.00009313,0.,-0.00002674,0.00057979,-0.00000006
 ,0.00013076,0.00104630,-0.00000020,-0.11903578,0.31998321,0.00000027,-
 0.00000027,0.00026918,-0.00000467,0.00001154,-0.03739961,-0.00000052,0
 .00000079,0.00540558,0.00000010,0.00000036,0.00584886,0.00000005,-0.00
 000010,-0.00033849,0.00000013,0.00000030,0.00792816,0.00000002,0.00000
 010,0.00178789,0.00000003,0.00000002,-0.00007705,-0.00000008,-0.000000
 02,-0.00037578,-0.00000006,0.,-0.00066913,0.,-0.00000023,-0.00412947,0
 .00000480,-0.00001234,0.02549470,0.00062199,-0.00241518,0.00000013,-0.
 00919463,0.00293226,-0.00000010,-0.35796096,0.00755266,0.00000058,-0.0
 0752726,-0.00086094,0.00000008,0.00077423,0.00136933,-0.00000003,0.000
 80518,0.00015033,-0.00000002,-0.00044576,-0.00006835,0.,0.00009253,0.0
 0012539,0.,0.00011643,-0.00005212,0.,-0.00036910,-0.00016858,0.,-0.000
 12158,0.00033000,-0.00000001,0.00045175,-0.00003353,-0.00000001,0.3720
 6564,-0.00410203,-0.00569905,0.00000055,-0.02727241,0.00646139,-0.0000
 0010,0.00884037,-0.05942043,0.00000083,0.02879418,0.00381167,-0.000000
 07,0.00125736,-0.00481620,0.00000061,0.00094047,-0.00120778,0.00000002
 ,-0.00040595,-0.00031531,-0.00000002,-0.00006128,0.00038855,-0.0000000
 2,0.00000828,0.00013042,0.,0.00172118,0.00026310,-0.00000002,-0.001002
 83,0.00053227,0.,0.00017866,0.00042715,-0.00000015,-0.00884650,0.05905
 446,0.00000010,0.00000066,0.00682749,0.00000135,-0.00000016,0.00153915
 ,0.00000051,0.00000082,-0.04027669,-0.00000114,-0.00000005,0.00470620,
 -0.00000013,0.00000060,0.00927455,-0.00000002,0.,-0.00074834,-0.000000
 04,-0.00000005,-0.00095148,0.,0.00000001,0.00012120,-0.00000001,0.,-0.
 00004251,-0.00000004,-0.00000003,-0.00031483,0.00000007,0.,0.00052596,
 -0.00000003,-0.00000015,-0.00289151,-0.00000060,-0.00000139,0.02732441
 ,-0.00095411,0.00147003,-0.00000008,-0.00121948,0.00401656,-0.00000012
 ,0.01311534,0.01571242,-0.00000072,-0.13215163,-0.12682591,0.00000591,
 -0.01103040,-0.02881139,0.00000140,-0.00545165,0.00088871,-0.00000013,
 0.00067033,-0.00145889,-0.00000003,-0.00071029,-0.00026700,0.00000010,
 0.00004416,0.00033749,0.,0.00259093,0.00005267,0.,-0.00009930,-0.00008
 851,0.,0.00067202,0.00072055,-0.00000004,0.00070034,-0.00009829,-0.000
 00003,0.13383557,0.00081209,0.00083068,-0.00000008,0.00285522,-0.00311
 032,0.00000053,-0.01321559,-0.01554081,0.00000099,-0.12786408,-0.28049
 360,0.00001085,0.00289637,0.00620899,0.00000003,0.00105899,-0.00028419
 ,0.00000029,-0.00010953,0.00028596,-0.00000003,0.00026967,0.00015206,-
 0.00000004,0.00016181,-0.00004122,-0.00000002,-0.00004012,-0.00013895,
 -0.00000011,-0.00009558,-0.00008799,-0.00000003,-0.00075361,-0.0005082
 6,0.,-0.00013114,0.00074445,-0.00000023,0.13424582,0.29191454,-0.00000
 012,-0.00000007,-0.00105577,0.00000005,0.00000061,0.00914591,0.0000005
 6,0.00000076,0.00576110,0.00000590,0.00001084,-0.04274726,-0.00000008,
 0.00000031,0.00732552,0.00000003,0.00000012,0.00572743,-0.00000015,0.,
 -0.00139023,0.00000006,0.00000004,0.00020712,0.00000001,-0.00000001,0.
 00003242,0.,-0.00000019,-0.00269359,0.00000002,-0.00000002,-0.00084619
 ,0.00000003,0.,-0.00060502,-0.00000001,-0.00000024,-0.00466375,-0.0000
 0629,-0.00001212,0.02616018,-0.00077459,0.00018936,0.00000012,0.000897
 83,0.00062368,-0.00000007,-0.00001095,-0.00072861,0.00000005,-0.000512
 94,0.00016876,-0.00000008,0.00060390,0.00005546,-0.00000016,0.00130687
 ,0.00253277,0.00000103,-0.03086925,0.00460912,0.00000216,0.00341129,-0
 .00733395,-0.00000021,-0.47303085,-0.06836400,0.00005053,0.00160174,0.
 00028674,0.00000009,-0.00050967,0.00014363,0.00000005,-0.00006635,0.00
 003242,-0.00000004,-0.00002808,-0.00000982,0.00000001,-0.00000560,-0.0
 0005859,0.00000002,0.50023836,0.00143486,0.00016167,0.00000002,0.00000
 871,-0.00045906,0.00000006,-0.00008027,-0.00003823,0.,-0.00020602,0.00
 018286,-0.00000004,0.00079482,-0.00150162,0.00000009,0.00235355,-0.005
 00509,-0.00000011,0.04873650,0.01319802,-0.00000545,-0.00705143,-0.000
 96224,0.00000097,-0.11473613,-0.06897071,0.00001146,-0.00302576,-0.000
 88181,0.00000015,0.00052890,0.00010304,-0.00000004,0.00011920,0.000012
 82,0.,0.00000202,0.00001106,0.,0.00002837,0.00002317,0.,0.06977844,0.0
 6054655,0.00000015,0.00000008,0.00092710,-0.00000022,-0.00000014,-0.00
 028195,0.,0.00000016,0.00010544,0.00000011,-0.00000003,-0.00024041,-0.
 00000013,-0.00000011,-0.00076279,-0.00000040,0.,0.00490288,0.00000474,
 -0.00000049,0.00310215,-0.00000094,0.00000021,-0.00527665,0.00005014,0
 .00000698,-0.01507264,-0.00000008,0.00000011,0.00051003,0.00000003,0.,
 0.00029565,0.,0.,-0.00018956,0.,0.,0.00007001,0.,0.,0.00004897,-0.0000
 5365,-0.00000680,0.01216818,0.00023410,-0.00300684,0.00000009,-0.00214
 100,-0.00206685,0.00000008,-0.00060572,0.00307278,-0.00000014,0.005773
 64,-0.00070162,0.00000008,-0.02452923,0.01149325,-0.00000061,-0.002395
 53,-0.00405331,0.00000008,0.01827907,-0.01088701,-0.00000097,-0.003881
 52,0.00536877,-0.00000010,-0.01010862,0.00735737,0.00000071,-0.4759988
 2,-0.02170030,-0.00000077,0.00143572,0.00009863,-0.00000003,-0.0001129
 9,0.00009622,0.00000002,0.00001928,0.00005863,-0.00000001,-0.00000622,
 -0.00003173,-0.00000002,-0.00225172,0.00131423,0.00000023,0.49628955,0
 .00151537,-0.00111481,-0.00000005,-0.00186926,-0.00076090,0.00000005,0
 .00165436,0.00273322,-0.00000009,0.00336144,-0.00718994,0.00000064,0.0
 4593286,-0.00020590,-0.00000021,-0.00125799,0.00010028,0.00000007,0.00
 569005,-0.01101024,-0.00000019,-0.00097967,0.00356166,-0.00000018,0.00
 143093,0.00002363,-0.00000017,-0.06764835,-0.04998952,0.00000125,0.000
 39915,0.00008778,-0.00000002,-0.00008297,-0.00006172,0.00000001,0.0001
 1435,-0.00036575,-0.00000002,0.00007737,0.00004550,-0.00000002,-0.0019
 2540,0.00357959,0.00000004,0.01358777,0.06056714,-0.00000007,0.0000000
 6,-0.00083225,0.00000016,0.00000012,0.00021676,-0.00000005,-0.00000019
 ,0.00147085,-0.00000029,0.00000059,0.00469054,-0.00000190,-0.00000076,
 -0.00402975,0.00000025,-0.00000004,0.00019600,-0.00000154,0.00000111,-
 0.00019165,0.00000039,-0.00000056,0.00060285,0.00000069,-0.00000063,-0
 .00238509,0.00000094,0.00000176,-0.01231799,-0.00000009,0.,-0.00001801
 ,0.,0.,-0.00005875,0.,0.,-0.00049985,0.00000001,-0.00000002,-0.0004068
 4,0.00000014,-0.00000031,-0.00030639,0.00000136,-0.00000112,0.01386957
 \\0.00001932,0.00005678,0.00000129,-0.00000611,0.00000808,-0.00000030,
 -0.00003453,0.00002069,0.00000007,-0.00001830,-0.00003388,-0.00000078,
 0.00001735,0.00004271,0.00000069,-0.00003831,-0.00005424,0.00000765,0.
 00005836,0.00000568,-0.00002731,0.00001039,0.00002185,0.00001061,-0.00
 001078,-0.00001059,0.00000824,0.00003171,-0.00003664,0.00000054,-0.000
 00042,-0.00000622,-0.00000041,-0.00000260,0.00001086,-0.00000024,-0.00
 001060,-0.00000170,0.00000007,-0.00001031,-0.00000640,0.00000008,0.000
 00915,-0.00000318,0.00000051,-0.00001431,-0.00001381,-0.00000071\\\@


 A MAN SHOULD NEVER BE ASHAMED TO OWN HE HAS BEEN IN THE WRONG
 WHICH IS BUT SAYING IN OTHER WORDS,
 THAT HE IS WISER TODAY THAN HE WAS YESTERDAY.

                          -- JONATHAN SWIFT
 Job cpu time:       0 days  0 hours 18 minutes 52.1 seconds.
 File lengths (MBytes):  RWF=     85 Int=      0 D2E=      0 Chk=      5 Scr=      1
 Normal termination of Gaussian 09 at Sun May 19 23:48:28 2024.
