 Entering Gaussian System, Link 0=g09
 Input=APFD3HPA.gjf
 Output=APFD3HPA.log
 Initial command:
 /home/phzd/g09E/g09/l1.exe "/home/phzd/g09E/scratch/Gau-506414.inp" -scrdir="/home/phzd/g09E/scratch/"
 Default is to use a total of  18 processors:
                               18 via shared-memory
                                1 via Linda
 Entering Link 1 = /home/phzd/g09E/g09/l1.exe PID=    506416.
  
 Copyright (c) 1988,1990,1992,1993,1995,1998,2003,2009,2015,
            Gaussian, Inc.  All Rights Reserved.
  
 This is part of the Gaussian(R) 09 program.  It is based on
 the Gaussian(R) 03 system (copyright 2003, Gaussian, Inc.),
 the Gaussian(R) 98 system (copyright 1998, Gaussian, Inc.),
 the Gaussian(R) 94 system (copyright 1995, Gaussian, Inc.),
 the Gaussian 92(TM) system (copyright 1992, Gaussian, Inc.),
 the Gaussian 90(TM) system (copyright 1990, Gaussian, Inc.),
 the Gaussian 88(TM) system (copyright 1988, Gaussian, Inc.),
 the Gaussian 86(TM) system (copyright 1986, Carnegie Mellon
 University), and the Gaussian 82(TM) system (copyright 1983,
 Carnegie Mellon University). Gaussian is a federally registered
 trademark of Gaussian, Inc.
  
 This software contains proprietary and confidential information,
 including trade secrets, belonging to Gaussian, Inc.
  
 This software is provided under written license and may be
 used, copied, transmitted, or stored only in accord with that
 written license.
  
 The following legend is applicable only to US Government
 contracts under FAR:
  
                    RESTRICTED RIGHTS LEGEND
  
 Use, reproduction and disclosure by the US Government is
 subject to restrictions as set forth in subparagraphs (a)
 and (c) of the Commercial Computer Software - Restricted
 Rights clause in FAR 52.227-19.
  
 Gaussian, Inc.
 340 Quinnipiac St., Bldg. 40, Wallingford CT 06492
  
  
 ---------------------------------------------------------------
 Warning -- This program may not be used in any manner that
 competes with the business of Gaussian, Inc. or will provide
 assistance to any competitor of Gaussian, Inc.  The licensee
 of this program is prohibited from giving any competitor of
 Gaussian, Inc. access to this program.  By using this program,
 the user acknowledges that Gaussian, Inc. is engaged in the
 business of creating and licensing software in the field of
 computational chemistry and represents and warrants to the
 licensee that it is not a competitor of Gaussian, Inc. and that
 it will not use this program in any manner prohibited above.
 ---------------------------------------------------------------
  

 Cite this work as:
 Gaussian 09, Revision E.01,
 M. J. Frisch, G. W. Trucks, H. B. Schlegel, G. E. Scuseria, 
 M. A. Robb, J. R. Cheeseman, G. Scalmani, V. Barone, B. Mennucci, 
 G. A. Petersson, H. Nakatsuji, M. Caricato, X. Li, H. P. Hratchian, 
 A. F. Izmaylov, J. Bloino, G. Zheng, J. L. Sonnenberg, M. Hada, 
 M. Ehara, K. Toyota, R. Fukuda, J. Hasegawa, M. Ishida, T. Nakajima, 
 Y. Honda, O. Kitao, H. Nakai, T. Vreven, J. A. Montgomery, Jr., 
 J. E. Peralta, F. Ogliaro, M. Bearpark, J. J. Heyd, E. Brothers, 
 K. N. Kudin, V. N. Staroverov, T. Keith, R. Kobayashi, J. Normand, 
 K. Raghavachari, A. Rendell, J. C. Burant, S. S. Iyengar, J. Tomasi, 
 M. Cossi, N. Rega, J. M. Millam, M. Klene, J. E. Knox, J. B. Cross, 
 V. Bakken, C. Adamo, J. Jaramillo, R. Gomperts, R. E. Stratmann, 
 O. Yazyev, A. J. Austin, R. Cammi, C. Pomelli, J. W. Ochterski, 
 R. L. Martin, K. Morokuma, V. G. Zakrzewski, G. A. Voth, 
 P. Salvador, J. J. Dannenberg, S. Dapprich, A. D. Daniels, 
 O. Farkas, J. B. Foresman, J. V. Ortiz, J. Cioslowski, 
 and D. J. Fox, Gaussian, Inc., Wallingford CT, 2013.
 
 ******************************************
 Gaussian 09:  ES64L-G09RevE.01 30-Nov-2015
                19-May-2024 
 ******************************************
 %chk=APFD3HPA.chk
 ---------------------------
 # opt freq apfd/6-31+g(d,p)
 ---------------------------
 1/14=-1,18=20,19=15,26=3,38=1/1,3;
 2/9=110,12=2,17=6,18=5,40=1/2;
 3/5=1,6=6,7=111,11=2,16=1,25=1,30=1,71=1,74=-44/1,2,3;
 4//1;
 5/5=2,38=5/2;
 6/7=2,8=2,9=2,10=2,28=1/1;
 7//1,2,3,16;
 1/14=-1,18=20,19=15,26=3/3(2);
 2/9=110/2;
 99//99;
 2/9=110/2;
 3/5=1,6=6,7=111,11=2,16=1,25=1,30=1,71=1,74=-44/1,2,3;
 4/5=5,16=3,69=1/1;
 5/5=2,38=5/2;
 7//1,2,3,16;
 1/14=-1,18=20,19=15,26=3/3(-5);
 2/9=110/2;
 6/7=2,8=2,9=2,10=2,19=2,28=1/1;
 99/9=1/99;
 ----------
 [No Title]
 ----------
 Symbolic Z-matrix:
 Charge =  0 Multiplicity = 1
 N                     0.4416   -1.44344  -0.00004 
 C                     1.76064  -1.47677  -0.00004 
 C                     2.54554  -0.31395  -0.00002 
 C                     1.92738   0.91695   0. 
 C                     0.52787   0.96885   0. 
 C                    -0.17193  -0.25232  -0.00001 
 C                    -1.64755  -0.22442   0.00004 
 O                    -2.29212   0.82138   0.00012 
 O                    -2.24533  -1.41044  -0.00003 
 O                    -0.06687   2.16656  -0.00001 
 H                     2.2235   -2.45916  -0.00006 
 H                     3.62765  -0.38998  -0.00003 
 H                     2.48364   1.84751   0.00001 
 H                    -3.20227  -1.24592   0.00001 
 H                    -1.04083   2.02156  -0.00007 
 

 GradGradGradGradGradGradGradGradGradGradGradGradGradGradGradGradGradGrad
 Berny optimization.
 Initialization pass.
                           ----------------------------
                           !    Initial Parameters    !
                           ! (Angstroms and Degrees)  !
 --------------------------                            --------------------------
 ! Name  Definition              Value          Derivative Info.                !
 --------------------------------------------------------------------------------
 ! R1    R(1,2)                  1.3195         estimate D2E/DX2                !
 ! R2    R(1,6)                  1.3398         estimate D2E/DX2                !
 ! R3    R(2,3)                  1.4029         estimate D2E/DX2                !
 ! R4    R(2,11)                 1.086          estimate D2E/DX2                !
 ! R5    R(3,4)                  1.3774         estimate D2E/DX2                !
 ! R6    R(3,12)                 1.0848         estimate D2E/DX2                !
 ! R7    R(4,5)                  1.4005         estimate D2E/DX2                !
 ! R8    R(4,13)                 1.0841         estimate D2E/DX2                !
 ! R9    R(5,6)                  1.4075         estimate D2E/DX2                !
 ! R10   R(5,10)                 1.3372         estimate D2E/DX2                !
 ! R11   R(6,7)                  1.4759         estimate D2E/DX2                !
 ! R12   R(7,8)                  1.2285         estimate D2E/DX2                !
 ! R13   R(7,9)                  1.3282         estimate D2E/DX2                !
 ! R14   R(9,14)                 0.971          estimate D2E/DX2                !
 ! R15   R(10,15)                0.9847         estimate D2E/DX2                !
 ! A1    A(2,1,6)              118.6999         estimate D2E/DX2                !
 ! A2    A(1,2,3)              122.5719         estimate D2E/DX2                !
 ! A3    A(1,2,11)             116.6752         estimate D2E/DX2                !
 ! A4    A(3,2,11)             120.7529         estimate D2E/DX2                !
 ! A5    A(2,3,4)              119.3146         estimate D2E/DX2                !
 ! A6    A(2,3,12)             120.0001         estimate D2E/DX2                !
 ! A7    A(4,3,12)             120.6853         estimate D2E/DX2                !
 ! A8    A(3,4,5)              118.7898         estimate D2E/DX2                !
 ! A9    A(3,4,13)             122.4643         estimate D2E/DX2                !
 ! A10   A(5,4,13)             118.7459         estimate D2E/DX2                !
 ! A11   A(4,5,6)              117.6913         estimate D2E/DX2                !
 ! A12   A(4,5,10)             118.531          estimate D2E/DX2                !
 ! A13   A(6,5,10)             123.7777         estimate D2E/DX2                !
 ! A14   A(1,6,5)              122.9325         estimate D2E/DX2                !
 ! A15   A(1,6,7)              118.3358         estimate D2E/DX2                !
 ! A16   A(5,6,7)              118.7317         estimate D2E/DX2                !
 ! A17   A(6,7,8)              122.7311         estimate D2E/DX2                !
 ! A18   A(6,7,9)              115.6661         estimate D2E/DX2                !
 ! A19   A(8,7,9)              121.6028         estimate D2E/DX2                !
 ! A20   A(7,9,14)             106.9943         estimate D2E/DX2                !
 ! A21   A(5,10,15)            107.9396         estimate D2E/DX2                !
 ! D1    D(6,1,2,3)              0.0003         estimate D2E/DX2                !
 ! D2    D(6,1,2,11)           180.0            estimate D2E/DX2                !
 ! D3    D(2,1,6,5)              0.0002         estimate D2E/DX2                !
 ! D4    D(2,1,6,7)           -179.9982         estimate D2E/DX2                !
 ! D5    D(1,2,3,4)             -0.0004         estimate D2E/DX2                !
 ! D6    D(1,2,3,12)           179.9999         estimate D2E/DX2                !
 ! D7    D(11,2,3,4)           179.9999         estimate D2E/DX2                !
 ! D8    D(11,2,3,12)            0.0003         estimate D2E/DX2                !
 ! D9    D(2,3,4,5)              0.0            estimate D2E/DX2                !
 ! D10   D(2,3,4,13)          -179.9994         estimate D2E/DX2                !
 ! D11   D(12,3,4,5)           179.9996         estimate D2E/DX2                !
 ! D12   D(12,3,4,13)            0.0002         estimate D2E/DX2                !
 ! D13   D(3,4,5,6)              0.0005         estimate D2E/DX2                !
 ! D14   D(3,4,5,10)          -179.9984         estimate D2E/DX2                !
 ! D15   D(13,4,5,6)           179.9999         estimate D2E/DX2                !
 ! D16   D(13,4,5,10)            0.0011         estimate D2E/DX2                !
 ! D17   D(4,5,6,1)             -0.0006         estimate D2E/DX2                !
 ! D18   D(4,5,6,7)            179.9978         estimate D2E/DX2                !
 ! D19   D(10,5,6,1)           179.9981         estimate D2E/DX2                !
 ! D20   D(10,5,6,7)            -0.0034         estimate D2E/DX2                !
 ! D21   D(4,5,10,15)          179.9964         estimate D2E/DX2                !
 ! D22   D(6,5,10,15)           -0.0024         estimate D2E/DX2                !
 ! D23   D(1,6,7,8)            179.9968         estimate D2E/DX2                !
 ! D24   D(1,6,7,9)             -0.0038         estimate D2E/DX2                !
 ! D25   D(5,6,7,8)             -0.0017         estimate D2E/DX2                !
 ! D26   D(5,6,7,9)            179.9977         estimate D2E/DX2                !
 ! D27   D(6,7,9,14)          -179.9996         estimate D2E/DX2                !
 ! D28   D(8,7,9,14)            -0.0002         estimate D2E/DX2                !
 --------------------------------------------------------------------------------
 Trust Radius=3.00D-01 FncErr=1.00D-07 GrdErr=1.00D-06
 Number of steps in this run=     74 maximum allowed number of steps=    100.
 GradGradGradGradGradGradGradGradGradGradGradGradGradGradGradGradGradGrad

                          Input orientation:                          
 ---------------------------------------------------------------------
 Center     Atomic      Atomic             Coordinates (Angstroms)
 Number     Number       Type             X           Y           Z
 ---------------------------------------------------------------------
      1          7           0        0.441602   -1.443440   -0.000037
      2          6           0        1.760639   -1.476769   -0.000044
      3          6           0        2.545543   -0.313948   -0.000021
      4          6           0        1.927378    0.916953    0.000001
      5          6           0        0.527868    0.968851    0.000000
      6          6           0       -0.171930   -0.252322   -0.000013
      7          6           0       -1.647546   -0.224418    0.000036
      8          8           0       -2.292125    0.821377    0.000119
      9          8           0       -2.245333   -1.410435   -0.000027
     10          8           0       -0.066867    2.166555   -0.000012
     11          1           0        2.223497   -2.459157   -0.000063
     12          1           0        3.627653   -0.389981   -0.000027
     13          1           0        2.483636    1.847511    0.000010
     14          1           0       -3.202274   -1.245915    0.000009
     15          1           0       -1.040829    2.021557   -0.000070
 ---------------------------------------------------------------------
                    Distance matrix (angstroms):
                    1          2          3          4          5
     1  N    0.000000
     2  C    1.319458   0.000000
     3  C    2.387953   1.402935   0.000000
     4  C    2.789083   2.399522   1.377405   0.000000
     5  C    2.413833   2.738755   2.390938   1.400472   0.000000
     6  C    1.339845   2.287814   2.718172   2.402977   1.407473
     7  C    2.418792   3.630993   4.194045   3.752707   2.481193
     8  O    3.550022   4.659010   4.969104   4.220585   2.823847
     9  O    2.687138   4.006521   4.914751   4.777892   3.653990
    10  O    3.645628   4.075977   3.602441   2.353406   1.337238
    11  H    2.051056   1.085967   2.169248   3.389071   3.824447
    12  H    3.355696   2.160289   1.084778   2.144531   3.384537
    13  H    3.873017   3.401994   2.162345   1.084141   2.144078
    14  H    3.649226   4.968279   5.822883   5.566986   4.338104
    15  H    3.768794   4.481797   4.279795   3.167081   1.889180
                    6          7          8          9         10
     6  C    0.000000
     7  C    1.475880   0.000000
     8  O    2.376564   1.228483   0.000000
     9  O    2.374916   1.328151   2.232302   0.000000
    10  O    2.421158   2.866234   2.600246   4.188147   0.000000
    11  H    3.257022   4.469791   5.581464   4.590235   5.161684
    12  H    3.802076   5.277796   6.042447   5.960981   4.492811
    13  H    3.385459   4.621640   4.884756   5.742592   2.570380
    14  H    3.189077   1.860278   2.258776   0.970980   4.634191
    15  H    2.434237   2.326480   1.733832   3.637224   0.984696
                   11         12         13         14         15
    11  H    0.000000
    12  H    2.500629   0.000000
    13  H    4.314518   2.512995   0.000000
    14  H    5.559761   6.883351   6.472933   0.000000
    15  H    5.543701   5.254545   3.528760   3.917680   0.000000
 Stoichiometry    C6H5NO3
 Framework group  C1[X(C6H5NO3)]
 Deg. of freedom    39
 Full point group                 C1      NOp   1
 Largest Abelian subgroup         C1      NOp   1
 Largest concise Abelian subgroup C1      NOp   1
                         Standard orientation:                         
 ---------------------------------------------------------------------
 Center     Atomic      Atomic             Coordinates (Angstroms)
 Number     Number       Type             X           Y           Z
 ---------------------------------------------------------------------
      1          7           0       -0.441602   -1.443440    0.000037
      2          6           0       -1.760639   -1.476769    0.000044
      3          6           0       -2.545543   -0.313948    0.000021
      4          6           0       -1.927378    0.916953   -0.000001
      5          6           0       -0.527868    0.968851   -0.000000
      6          6           0        0.171930   -0.252322    0.000013
      7          6           0        1.647546   -0.224418   -0.000036
      8          8           0        2.292125    0.821377   -0.000119
      9          8           0        2.245333   -1.410435    0.000027
     10          8           0        0.066867    2.166555    0.000012
     11          1           0       -2.223497   -2.459157    0.000063
     12          1           0       -3.627653   -0.389981    0.000027
     13          1           0       -2.483636    1.847511   -0.000010
     14          1           0        3.202274   -1.245915   -0.000009
     15          1           0        1.040829    2.021557    0.000070
 ---------------------------------------------------------------------
 Rotational constants (GHZ):      2.3803782      1.2664469      0.8266431
 Standard basis: 6-31+G(d,p) (6D, 7F)
 There are   215 symmetry adapted cartesian basis functions of A   symmetry.
 There are   215 symmetry adapted basis functions of A   symmetry.
   215 basis functions,   355 primitive gaussians,   215 cartesian basis functions
    36 alpha electrons       36 beta electrons
       nuclear repulsion energy       508.7970624735 Hartrees.
 NAtoms=   15 NActive=   15 NUniq=   15 SFac= 1.00D+00 NAtFMM=   60 NAOKFM=F Big=F
 Integral buffers will be    131072 words long.
 Raffenetti 2 integral format.
 Two-electron integral symmetry is turned on.
 R6APFD:  NTU= -4 IXU= 1 FactS= 1.050
 Nuclear repulsion after empirical dispersion term =      508.7879689032 Hartrees.
 One-electron integrals computed using PRISM.
 NBasis=   215 RedAO= T EigKep=  5.63D-06  NBF=   215
 NBsUse=   215 1.00D-06 EigRej= -1.00D+00 NBFU=   215
 ExpMin= 4.38D-02 ExpMax= 5.48D+03 ExpMxC= 8.25D+02 IAcc=2 IRadAn=         4 AccDes= 0.00D+00
 Harris functional with IExCor= 3731 and IRadAn=       4 diagonalized for initial guess.
 HarFok:  IExCor= 3731 AccDes= 0.00D+00 IRadAn=         4 IDoV= 1 UseB2=F ITyADJ=14
 ICtDFT=  3500011 ScaDFX=  1.000000  1.000000  1.000000  1.000000
 FoFCou: FMM=F IPFlag=           0 FMFlag=      100000 FMFlg1=           0
         NFxFlg=           0 DoJE=T BraDBF=F KetDBF=T FulRan=T
         wScrn=  0.000000 ICntrl=     500 IOpCl=  0 I1Cent=   200000004 NGrid=           0
         NMat0=    1 NMatS0=      1 NMatT0=    0 NMatD0=    1 NMtDS0=    0 NMtDT0=    0
 Petite list used in FoFCou.
 Keep R1 ints in memory in canonical form, NReq=274797245.
 Requested convergence on RMS density matrix=1.00D-08 within 128 cycles.
 Requested convergence on MAX density matrix=1.00D-06.
 Requested convergence on             energy=1.00D-06.
 No special actions if energy rises.
 SCF Done:  E(RAPFD) =  -511.716844207     A.U. after   15 cycles
            NFock= 15  Conv=0.34D-08     -V/T= 2.0085

 **********************************************************************

            Population analysis using the SCF density.

 **********************************************************************

 Orbital symmetries:
       Occupied  (A) (A) (A) (A) (A) (A) (A) (A) (A) (A) (A) (A)
                 (A) (A) (A) (A) (A) (A) (A) (A) (A) (A) (A) (A)
                 (A) (A) (A) (A) (A) (A) (A) (A) (A) (A) (A) (A)
       Virtual   (A) (A) (A) (A) (A) (A) (A) (A) (A) (A) (A) (A)
                 (A) (A) (A) (A) (A) (A) (A) (A) (A) (A) (A) (A)
                 (A) (A) (A) (A) (A) (A) (A) (A) (A) (A) (A) (A)
                 (A) (A) (A) (A) (A) (A) (A) (A) (A) (A) (A) (A)
                 (A) (A) (A) (A) (A) (A) (A) (A) (A) (A) (A) (A)
                 (A) (A) (A) (A) (A) (A) (A) (A) (A) (A) (A) (A)
                 (A) (A) (A) (A) (A) (A) (A) (A) (A) (A) (A) (A)
                 (A) (A) (A) (A) (A) (A) (A) (A) (A) (A) (A) (A)
                 (A) (A) (A) (A) (A) (A) (A) (A) (A) (A) (A) (A)
                 (A) (A) (A) (A) (A) (A) (A) (A) (A) (A) (A) (A)
                 (A) (A) (A) (A) (A) (A) (A) (A) (A) (A) (A) (A)
                 (A) (A) (A) (A) (A) (A) (A) (A) (A) (A) (A) (A)
                 (A) (A) (A) (A) (A) (A) (A) (A) (A) (A) (A) (A)
                 (A) (A) (A) (A) (A) (A) (A) (A) (A) (A) (A) (A)
                 (A) (A) (A) (A) (A) (A) (A) (A) (A) (A) (A)
 The electronic state is 1-A.
 Alpha  occ. eigenvalues --  -19.26492 -19.23742 -19.21542 -14.39291 -10.37198
 Alpha  occ. eigenvalues --  -10.30982 -10.27436 -10.25978 -10.24920 -10.24647
 Alpha  occ. eigenvalues --   -1.16072  -1.10691  -1.06116  -0.98685  -0.84091
 Alpha  occ. eigenvalues --   -0.80847  -0.71567  -0.66432  -0.65259  -0.57794
 Alpha  occ. eigenvalues --   -0.56729  -0.53202  -0.51423  -0.49542  -0.49380
 Alpha  occ. eigenvalues --   -0.44613  -0.44262  -0.43157  -0.41750  -0.41053
 Alpha  occ. eigenvalues --   -0.39413  -0.35585  -0.32524  -0.31215  -0.28096
 Alpha  occ. eigenvalues --   -0.26365
 Alpha virt. eigenvalues --   -0.07581  -0.02679   0.00537   0.01449   0.03015
 Alpha virt. eigenvalues --    0.03426   0.03943   0.05600   0.05900   0.06340
 Alpha virt. eigenvalues --    0.08451   0.08788   0.09400   0.09953   0.11071
 Alpha virt. eigenvalues --    0.12404   0.13304   0.14409   0.14463   0.14799
 Alpha virt. eigenvalues --    0.15482   0.16340   0.17468   0.17703   0.18059
 Alpha virt. eigenvalues --    0.18732   0.19883   0.20650   0.21963   0.22508
 Alpha virt. eigenvalues --    0.23211   0.24118   0.24513   0.25555   0.25605
 Alpha virt. eigenvalues --    0.26303   0.26792   0.27889   0.28281   0.29063
 Alpha virt. eigenvalues --    0.29883   0.29921   0.30416   0.31604   0.32737
 Alpha virt. eigenvalues --    0.33016   0.34362   0.35133   0.35828   0.36938
 Alpha virt. eigenvalues --    0.38625   0.39637   0.40866   0.43068   0.45114
 Alpha virt. eigenvalues --    0.47254   0.51618   0.59985   0.62858   0.65914
 Alpha virt. eigenvalues --    0.66193   0.69526   0.71427   0.72589   0.72871
 Alpha virt. eigenvalues --    0.73064   0.74971   0.76597   0.81247   0.83139
 Alpha virt. eigenvalues --    0.86601   0.89293   0.90171   0.94478   0.96091
 Alpha virt. eigenvalues --    0.98314   1.02299   1.02982   1.05347   1.08735
 Alpha virt. eigenvalues --    1.09187   1.11011   1.12317   1.14282   1.15322
 Alpha virt. eigenvalues --    1.18218   1.19817   1.20093   1.21113   1.21920
 Alpha virt. eigenvalues --    1.24901   1.24958   1.28924   1.29798   1.31028
 Alpha virt. eigenvalues --    1.32033   1.32797   1.33134   1.36512   1.37772
 Alpha virt. eigenvalues --    1.39479   1.40413   1.42085   1.43773   1.45758
 Alpha virt. eigenvalues --    1.48608   1.56381   1.57649   1.58474   1.63042
 Alpha virt. eigenvalues --    1.65435   1.73962   1.75457   1.77131   1.79343
 Alpha virt. eigenvalues --    1.82757   1.82973   1.86760   1.88314   1.90089
 Alpha virt. eigenvalues --    1.91388   1.94841   1.98515   1.98961   1.99587
 Alpha virt. eigenvalues --    2.03203   2.05909   2.09665   2.14743   2.19449
 Alpha virt. eigenvalues --    2.27217   2.27487   2.29274   2.34338   2.34972
 Alpha virt. eigenvalues --    2.35044   2.37847   2.41939   2.44932   2.49016
 Alpha virt. eigenvalues --    2.49107   2.50771   2.52973   2.53906   2.54397
 Alpha virt. eigenvalues --    2.58173   2.61715   2.64823   2.66736   2.67527
 Alpha virt. eigenvalues --    2.71543   2.75012   2.76613   2.78433   2.84824
 Alpha virt. eigenvalues --    2.90177   2.95890   3.05159   3.08331   3.10931
 Alpha virt. eigenvalues --    3.19924   3.20580   3.27630   3.33653   3.39372
 Alpha virt. eigenvalues --    3.42970   3.53887   3.60089   3.83324   4.18036
 Alpha virt. eigenvalues --    4.28709   4.33967   4.35980   4.38921   4.49712
 Alpha virt. eigenvalues --    4.60059   4.72276   4.85767   4.87962
          Condensed to atoms (all electrons):
               1          2          3          4          5          6
     1  N    6.931458  -0.200614   0.302809  -0.174879   0.258062   0.320066
     2  C   -0.200614   6.650162  -0.714854   0.611788  -0.925594   0.099226
     3  C    0.302809  -0.714854   6.332580  -1.327198   2.248217  -0.946178
     4  C   -0.174879   0.611788  -1.327198  11.391485  -5.782029   1.420073
     5  C    0.258062  -0.925594   2.248217  -5.782029  15.268701  -4.672731
     6  C    0.320066   0.099226  -0.946178   1.420073  -4.672731  10.077775
     7  C   -0.267174   0.271987  -0.236176   0.011543  -1.043836   0.115896
     8  O    0.015833  -0.018499   0.018024   0.007866   0.115635  -0.271827
     9  O    0.052762  -0.025001   0.015330   0.001089   0.158534  -0.266759
    10  O    0.005286  -0.013384   0.026919  -0.556087   0.343387   0.194135
    11  H   -0.113596   0.466719  -0.114059   0.033637  -0.043175   0.037261
    12  H    0.001605   0.051137   0.236870   0.054249  -0.022458   0.002103
    13  H    0.001785  -0.028750   0.074681   0.135123   0.156152  -0.014590
    14  H    0.002369   0.004622  -0.002529   0.009029  -0.032891   0.020540
    15  H   -0.000293   0.003810  -0.011467   0.171399  -0.043276  -0.102173
               7          8          9         10         11         12
     1  N   -0.267174   0.015833   0.052762   0.005286  -0.113596   0.001605
     2  C    0.271987  -0.018499  -0.025001  -0.013384   0.466719   0.051137
     3  C   -0.236176   0.018024   0.015330   0.026919  -0.114059   0.236870
     4  C    0.011543   0.007866   0.001089  -0.556087   0.033637   0.054249
     5  C   -1.043836   0.115635   0.158534   0.343387  -0.043175  -0.022458
     6  C    0.115896  -0.271827  -0.266759   0.194135   0.037261   0.002103
     7  C    6.067026   0.388101   0.204459  -0.045927   0.022929   0.001468
     8  O    0.388101   8.436861  -0.162547  -0.036309   0.000010   0.000003
     9  O    0.204459  -0.162547   8.261908  -0.004095  -0.000594  -0.000006
    10  O   -0.045927  -0.036309  -0.004095   8.448711   0.000178  -0.000627
    11  H    0.022929   0.000010  -0.000594   0.000178   0.557194  -0.001575
    12  H    0.001468   0.000003  -0.000006  -0.000627  -0.001575   0.510177
    13  H    0.004373   0.000076   0.000022  -0.008154  -0.000112  -0.004209
    14  H    0.038465   0.002134   0.182671   0.000161  -0.000001   0.000000
    15  H   -0.002883   0.053970   0.003632   0.180733  -0.000000   0.000003
              13         14         15
     1  N    0.001785   0.002369  -0.000293
     2  C   -0.028750   0.004622   0.003810
     3  C    0.074681  -0.002529  -0.011467
     4  C    0.135123   0.009029   0.171399
     5  C    0.156152  -0.032891  -0.043276
     6  C   -0.014590   0.020540  -0.102173
     7  C    0.004373   0.038465  -0.002883
     8  O    0.000076   0.002134   0.053970
     9  O    0.000022   0.182671   0.003632
    10  O   -0.008154   0.000161   0.180733
    11  H   -0.000112  -0.000001  -0.000000
    12  H   -0.004209   0.000000   0.000003
    13  H    0.502240  -0.000000   0.000019
    14  H   -0.000000   0.386384   0.000021
    15  H    0.000019   0.000021   0.333608
 Mulliken charges:
               1
     1  N   -0.135478
     2  C   -0.232755
     3  C    0.097030
     4  C   -0.007088
     5  C    0.017304
     6  C   -0.012818
     7  C    0.469750
     8  O   -0.549329
     9  O   -0.421404
    10  O   -0.534926
    11  H    0.155186
    12  H    0.171260
    13  H    0.181344
    14  H    0.389026
    15  H    0.412898
 Sum of Mulliken charges =  -0.00000
 Mulliken charges with hydrogens summed into heavy atoms:
               1
     1  N   -0.135478
     2  C   -0.077569
     3  C    0.268290
     4  C    0.174256
     5  C    0.017304
     6  C   -0.012818
     7  C    0.469750
     8  O   -0.549329
     9  O   -0.032378
    10  O   -0.122028
 Electronic spatial extent (au):  <R**2>=           1303.4413
 Charge=             -0.0000 electrons
 Dipole moment (field-independent basis, Debye):
    X=             -1.2033    Y=             -0.4355    Z=              0.0002  Tot=              1.2797
 Quadrupole moment (field-independent basis, Debye-Ang):
   XX=            -43.1524   YY=            -62.0118   ZZ=            -58.0829
   XY=             -2.3576   XZ=              0.0004   YZ=              0.0006
 Traceless Quadrupole moment (field-independent basis, Debye-Ang):
   XX=             11.2633   YY=             -7.5961   ZZ=             -3.6672
   XY=             -2.3576   XZ=              0.0004   YZ=              0.0006
 Octapole moment (field-independent basis, Debye-Ang**2):
  XXX=             17.6812  YYY=              2.6853  ZZZ=             -0.0004  XYY=             -0.7119
  XXY=            -18.2843  XXZ=              0.0011  XZZ=             10.5394  YZZ=              1.7074
  YYZ=              0.0004  XYZ=              0.0015
 Hexadecapole moment (field-independent basis, Debye-Ang**3):
 XXXX=           -846.9153 YYYY=           -587.6545 ZZZZ=            -58.8175 XXXY=            -75.4651
 XXXZ=              0.0083 YYYX=             17.0824 YYYZ=              0.0048 ZZZX=              0.0072
 ZZZY=              0.0043 XXYY=           -230.9390 XXZZ=           -193.3666 YYZZ=           -108.3686
 XXYZ=              0.0032 YYXZ=              0.0028 ZZXY=             -2.5591
 N-N= 5.087879689032D+02 E-N=-2.213152135738D+03  KE= 5.074022585855D+02
 R6APFD:  NTU= -4 IXU= 1 FactS= 1.050
 Calling FoFJK, ICntrl=      2127 FMM=F ISym2X=0 I1Cent= 0 IOpClX= 0 NMat=1 NMatS=1 NMatT=0.
 ***** Axes restored to original set *****
 -------------------------------------------------------------------
 Center     Atomic                   Forces (Hartrees/Bohr)
 Number     Number              X              Y              Z
 -------------------------------------------------------------------
      1        7          -0.002822467   -0.002167167    0.000000084
      2        6           0.000411520   -0.000416468    0.000000190
      3        6           0.002275101   -0.001444623   -0.000000073
      4        6          -0.000076424    0.002462667   -0.000000099
      5        6          -0.003296758    0.006484350   -0.000002251
      6        6          -0.002556829   -0.005311496    0.000002231
      7        6           0.001391963   -0.001670637   -0.000002662
      8        8          -0.001162979    0.006377678   -0.000001639
      9        8          -0.000170866   -0.003936384    0.000000890
     10        8           0.002088261    0.001140886   -0.000001655
     11        1           0.000213390   -0.001141222   -0.000000190
     12        1           0.001415790    0.000068039    0.000000212
     13        1           0.000681181    0.001015790    0.000000083
     14        1           0.001605242    0.000329720    0.000000124
     15        1           0.000003876   -0.001791132    0.000004756
 -------------------------------------------------------------------
 Cartesian Forces:  Max     0.006484350 RMS     0.002069317

 GradGradGradGradGradGradGradGradGradGradGradGradGradGradGradGradGradGrad
 Berny optimization.
 FormGI is forming the generalized inverse of G from B-inverse, IUseBI=4.
 Internal  Forces:  Max     0.006036120 RMS     0.001619662
 Search for a local minimum.
 Step number   1 out of a maximum of   74
 All quantities printed in internal units (Hartrees-Bohrs-Radians)
 Mixed Optimization -- RFO/linear search
 Second derivative matrix not updated -- first step.
 ITU=  0
     Eigenvalues ---    0.01085   0.01596   0.01787   0.02054   0.02147
     Eigenvalues ---    0.02180   0.02218   0.02249   0.02311   0.02518
     Eigenvalues ---    0.02522   0.02642   0.16000   0.16000   0.16000
     Eigenvalues ---    0.16000   0.16000   0.22081   0.23322   0.24912
     Eigenvalues ---    0.25000   0.25000   0.25000   0.25000   0.35046
     Eigenvalues ---    0.35283   0.35423   0.35499   0.41432   0.44160
     Eigenvalues ---    0.44839   0.48205   0.50483   0.53177   0.55728
     Eigenvalues ---    0.57828   0.59944   0.60355   0.91722
 RFO step:  Lambda=-4.28949105D-04 EMin= 1.08501131D-02
 Linear search not attempted -- first point.
 Iteration  1 RMS(Cart)=  0.00683485 RMS(Int)=  0.00005348
 Iteration  2 RMS(Cart)=  0.00005147 RMS(Int)=  0.00000115
 Iteration  3 RMS(Cart)=  0.00000000 RMS(Int)=  0.00000115
 Variable       Old X    -DE/DX   Delta X   Delta X   Delta X     New X
                                 (Linear)    (Quad)   (Total)
    R1        2.49341   0.00263   0.00000   0.00417   0.00416   2.49758
    R2        2.53194   0.00109   0.00000   0.00185   0.00185   2.53378
    R3        2.65116   0.00312   0.00000   0.00689   0.00689   2.65805
    R4        2.05218   0.00112   0.00000   0.00318   0.00318   2.05536
    R5        2.60292   0.00412   0.00000   0.00837   0.00837   2.61129
    R6        2.04993   0.00141   0.00000   0.00397   0.00397   2.05390
    R7        2.64651   0.00228   0.00000   0.00510   0.00510   2.65161
    R8        2.04873   0.00122   0.00000   0.00344   0.00344   2.05217
    R9        2.65974   0.00534   0.00000   0.01202   0.01202   2.67176
   R10        2.52701  -0.00151   0.00000  -0.00261  -0.00261   2.52440
   R11        2.78901  -0.00165   0.00000  -0.00469  -0.00469   2.78432
   R12        2.32150   0.00604   0.00000   0.00658   0.00658   2.32807
   R13        2.50984   0.00258   0.00000   0.00431   0.00431   2.51415
   R14        1.83489  -0.00153   0.00000  -0.00287  -0.00287   1.83201
   R15        1.86081   0.00026   0.00000   0.00052   0.00052   1.86133
    A1        2.07170  -0.00098   0.00000  -0.00440  -0.00440   2.06730
    A2        2.13928   0.00068   0.00000   0.00283   0.00283   2.14211
    A3        2.03637  -0.00063   0.00000  -0.00326  -0.00325   2.03311
    A4        2.10754  -0.00004   0.00000   0.00042   0.00043   2.10796
    A5        2.08243   0.00002   0.00000   0.00019   0.00019   2.08262
    A6        2.09440   0.00017   0.00000   0.00101   0.00101   2.09541
    A7        2.10635  -0.00019   0.00000  -0.00120  -0.00120   2.10515
    A8        2.07327  -0.00025   0.00000  -0.00078  -0.00078   2.07250
    A9        2.13741   0.00006   0.00000   0.00002   0.00002   2.13742
   A10        2.07251   0.00018   0.00000   0.00076   0.00076   2.07327
   A11        2.05410  -0.00087   0.00000  -0.00328  -0.00327   2.05083
   A12        2.06876   0.00009   0.00000   0.00028   0.00028   2.06903
   A13        2.16033   0.00077   0.00000   0.00300   0.00300   2.16332
   A14        2.14558   0.00139   0.00000   0.00543   0.00543   2.15101
   A15        2.06535   0.00047   0.00000   0.00194   0.00194   2.06729
   A16        2.07226  -0.00186   0.00000  -0.00737  -0.00737   2.06489
   A17        2.14206  -0.00156   0.00000  -0.00625  -0.00625   2.13581
   A18        2.01875  -0.00233   0.00000  -0.00931  -0.00931   2.00944
   A19        2.12237   0.00390   0.00000   0.01556   0.01556   2.13793
   A20        1.86740  -0.00108   0.00000  -0.00676  -0.00676   1.86065
   A21        1.88390  -0.00330   0.00000  -0.02058  -0.02058   1.86332
    D1        0.00001  -0.00000   0.00000  -0.00001  -0.00001  -0.00001
    D2        3.14159   0.00000   0.00000   0.00000   0.00000  -3.14159
    D3        0.00000  -0.00000   0.00000  -0.00001  -0.00001  -0.00001
    D4       -3.14156  -0.00000   0.00000  -0.00009  -0.00009   3.14153
    D5       -0.00001   0.00000   0.00000   0.00002   0.00002   0.00001
    D6        3.14159   0.00000   0.00000   0.00000   0.00000  -3.14159
    D7        3.14159   0.00000   0.00000   0.00000   0.00000  -3.14159
    D8        0.00001  -0.00000   0.00000  -0.00001  -0.00001  -0.00001
    D9        0.00000  -0.00000   0.00000   0.00000   0.00000   0.00000
   D10       -3.14158  -0.00000   0.00000  -0.00003  -0.00003   3.14157
   D11        3.14159   0.00000   0.00000   0.00002   0.00002  -3.14158
   D12        0.00000  -0.00000   0.00000  -0.00001  -0.00001  -0.00001
   D13        0.00001  -0.00000   0.00000  -0.00003  -0.00003  -0.00002
   D14       -3.14156  -0.00000   0.00000  -0.00008  -0.00008   3.14154
   D15        3.14159   0.00000   0.00000   0.00001   0.00001  -3.14159
   D16        0.00002  -0.00000   0.00000  -0.00005  -0.00005  -0.00003
   D17       -0.00001   0.00000   0.00000   0.00003   0.00003   0.00002
   D18        3.14155   0.00000   0.00000   0.00011   0.00011  -3.14152
   D19        3.14156   0.00000   0.00000   0.00010   0.00010  -3.14153
   D20       -0.00006   0.00000   0.00000   0.00017   0.00017   0.00011
   D21        3.14153   0.00000   0.00000   0.00020   0.00020  -3.14146
   D22       -0.00004   0.00000   0.00000   0.00013   0.00013   0.00009
   D23        3.14154   0.00000   0.00000   0.00020   0.00020  -3.14145
   D24       -0.00007   0.00000   0.00000   0.00018   0.00018   0.00011
   D25       -0.00003   0.00000   0.00000   0.00013   0.00013   0.00010
   D26        3.14155   0.00000   0.00000   0.00011   0.00011  -3.14153
   D27       -3.14159   0.00000   0.00000   0.00000   0.00000  -3.14158
   D28       -0.00000  -0.00000   0.00000  -0.00001  -0.00001  -0.00002
         Item               Value     Threshold  Converged?
 Maximum Force            0.006036     0.000450     NO 
 RMS     Force            0.001620     0.000300     NO 
 Maximum Displacement     0.031847     0.001800     NO 
 RMS     Displacement     0.006836     0.001200     NO 
 Predicted change in Energy=-2.147807D-04
 GradGradGradGradGradGradGradGradGradGradGradGradGradGradGradGradGradGrad

                          Input orientation:                          
 ---------------------------------------------------------------------
 Center     Atomic      Atomic             Coordinates (Angstroms)
 Number     Number       Type             X           Y           Z
 ---------------------------------------------------------------------
      1          7           0        0.436466   -1.448672    0.000010
      2          6           0        1.757776   -1.479186   -0.000015
      3          6           0        2.545485   -0.313859   -0.000053
      4          6           0        1.926375    0.921524   -0.000049
      5          6           0        0.524173    0.973618   -0.000005
      6          6           0       -0.174856   -0.255321    0.000010
      7          6           0       -1.647860   -0.221322   -0.000038
      8          8           0       -2.283307    0.834112   -0.000191
      9          8           0       -2.240554   -1.412439    0.000060
     10          8           0       -0.070195    2.169960    0.000065
     11          1           0        2.220286   -2.463595   -0.000016
     12          1           0        3.629717   -0.389652   -0.000075
     13          1           0        2.484340    1.853183   -0.000058
     14          1           0       -3.195730   -1.246635    0.000004
     15          1           0       -1.041205    2.004704    0.000212
 ---------------------------------------------------------------------
                    Distance matrix (angstroms):
                    1          2          3          4          5
     1  N    0.000000
     2  C    1.321662   0.000000
     3  C    2.394944   1.406581   0.000000
     4  C    2.799582   2.406623   1.381835   0.000000
     5  C    2.423877   2.745546   2.396517   1.403169   0.000000
     6  C    1.340821   2.287555   2.720970   2.408347   1.413836
     7  C    2.418844   3.630507   4.194366   3.752500   2.479034
     8  O    3.550813   4.656361   4.963372   4.210589   2.810944
     9  O    2.677266   3.998887   4.910503   4.776053   3.651983
    10  O    3.653930   4.081390   3.607095   2.354758   1.335855
    11  H    2.052335   1.087648   2.174194   3.397855   3.832914
    12  H    3.364279   2.165929   1.086878   2.149548   3.391594
    13  H    3.885361   3.410656   2.167904   1.085962   2.148462
    14  H    3.637811   4.958962   5.816495   5.562093   4.332113
    15  H    3.756238   4.468980   4.270841   3.159084   1.874446
                    6          7          8          9         10
     6  C    0.000000
     7  C    1.473397   0.000000
     8  O    2.373274   1.231963   0.000000
     9  O    2.367706   1.330430   2.246957   0.000000
    10  O    2.427538   2.864831   2.585025   4.188560   0.000000
    11  H    3.257787   4.471056   5.581865   4.583014   5.168765
    12  H    3.806943   5.280261   6.038332   5.958706   4.498996
    13  H    3.393687   4.623706   4.875343   5.743597   2.574101
    14  H    3.179369   1.856655   2.272009   0.969460   4.630560
    15  H    2.420388   2.307211   1.706781   3.621505   0.984973
                   11         12         13         14         15
    11  H    0.000000
    12  H    2.507536   0.000000
    13  H    4.324847   2.518372   0.000000
    14  H    5.551055   6.879037   6.470863   0.000000
    15  H    5.532000   5.248853   3.528800   3.900408   0.000000
 Stoichiometry    C6H5NO3
 Framework group  C1[X(C6H5NO3)]
 Deg. of freedom    39
 Full point group                 C1      NOp   1
 Largest Abelian subgroup         C1      NOp   1
 Largest concise Abelian subgroup C1      NOp   1
                         Standard orientation:                         
 ---------------------------------------------------------------------
 Center     Atomic      Atomic             Coordinates (Angstroms)
 Number     Number       Type             X           Y           Z
 ---------------------------------------------------------------------
      1          7           0       -0.439087   -1.449368   -0.000028
      2          6           0       -1.760446   -1.477660   -0.000003
      3          6           0       -2.546194   -0.311011    0.000035
      4          6           0       -1.925009    0.923330    0.000031
      5          6           0       -0.522722    0.973066   -0.000013
      6          6           0        0.174240   -0.257046   -0.000028
      7          6           0        1.647300   -0.225524    0.000020
      8          8           0        2.284520    0.828841    0.000173
      9          8           0        2.237990   -1.417635   -0.000078
     10          8           0        0.073657    2.168407   -0.000083
     11          1           0       -2.224610   -2.461291   -0.000002
     12          1           0       -3.630553   -0.384981    0.000057
     13          1           0       -2.481407    1.855925    0.000040
     14          1           0        3.193444   -1.253437   -0.000022
     15          1           0        1.044388    2.001519   -0.000230
 ---------------------------------------------------------------------
 Rotational constants (GHZ):      2.3675471      1.2705122      0.8268138
 Standard basis: 6-31+G(d,p) (6D, 7F)
 There are   215 symmetry adapted cartesian basis functions of A   symmetry.
 There are   215 symmetry adapted basis functions of A   symmetry.
   215 basis functions,   355 primitive gaussians,   215 cartesian basis functions
    36 alpha electrons       36 beta electrons
       nuclear repulsion energy       508.4940479988 Hartrees.
 NAtoms=   15 NActive=   15 NUniq=   15 SFac= 1.00D+00 NAtFMM=   60 NAOKFM=F Big=F
 Integral buffers will be    131072 words long.
 Raffenetti 2 integral format.
 Two-electron integral symmetry is turned on.
 R6APFD:  NTU= -4 IXU= 1 FactS= 1.050
 Nuclear repulsion after empirical dispersion term =      508.4848378179 Hartrees.
 One-electron integrals computed using PRISM.
 NBasis=   215 RedAO= T EigKep=  5.78D-06  NBF=   215
 NBsUse=   215 1.00D-06 EigRej= -1.00D+00 NBFU=   215
 Initial guess from the checkpoint file:  "APFD3HPA.chk"
 B after Tr=     0.000000    0.000000    0.000000
         Rot=    1.000000   -0.000010    0.000008    0.000576 Ang=  -0.07 deg.
 ExpMin= 4.38D-02 ExpMax= 5.48D+03 ExpMxC= 8.25D+02 IAcc=2 IRadAn=         4 AccDes= 0.00D+00
 Harris functional with IExCor= 3731 and IRadAn=       4 diagonalized for initial guess.
 HarFok:  IExCor= 3731 AccDes= 0.00D+00 IRadAn=         4 IDoV= 1 UseB2=F ITyADJ=14
 ICtDFT=  3500011 ScaDFX=  1.000000  1.000000  1.000000  1.000000
 FoFCou: FMM=F IPFlag=           0 FMFlag=      100000 FMFlg1=           0
         NFxFlg=           0 DoJE=T BraDBF=F KetDBF=T FulRan=T
         wScrn=  0.000000 ICntrl=     500 IOpCl=  0 I1Cent=   200000004 NGrid=           0
         NMat0=    1 NMatS0=      1 NMatT0=    0 NMatD0=    1 NMtDS0=    0 NMtDT0=    0
 Petite list used in FoFCou.
 Keep R1 ints in memory in canonical form, NReq=274797245.
 Requested convergence on RMS density matrix=1.00D-08 within 128 cycles.
 Requested convergence on MAX density matrix=1.00D-06.
 Requested convergence on             energy=1.00D-06.
 No special actions if energy rises.
 SCF Done:  E(RAPFD) =  -511.717017599     A.U. after   12 cycles
            NFock= 12  Conv=0.22D-08     -V/T= 2.0086
 R6APFD:  NTU= -4 IXU= 1 FactS= 1.050
 Calling FoFJK, ICntrl=      2127 FMM=F ISym2X=0 I1Cent= 0 IOpClX= 0 NMat=1 NMatS=1 NMatT=0.
 ***** Axes restored to original set *****
 -------------------------------------------------------------------
 Center     Atomic                   Forces (Hartrees/Bohr)
 Number     Number              X              Y              Z
 -------------------------------------------------------------------
      1        7          -0.000198986    0.000304343    0.000000217
      2        6           0.000681963    0.000395731   -0.000000581
      3        6          -0.000138470   -0.000281229   -0.000000130
      4        6           0.000042548   -0.000565431    0.000000389
      5        6           0.000413233    0.001959119    0.000004358
      6        6          -0.000515634   -0.000901255   -0.000002323
      7        6           0.002425427   -0.000590772   -0.000001836
      8        8          -0.001353109   -0.000553271    0.000007261
      9        8          -0.000828565    0.001159920   -0.000000507
     10        8           0.001926962   -0.000949530    0.000004016
     11        1          -0.000018598    0.000088471    0.000000288
     12        1          -0.000123094    0.000006287   -0.000000313
     13        1           0.000060133   -0.000136493   -0.000000249
     14        1          -0.000506078   -0.000353636   -0.000000260
     15        1          -0.001867731    0.000417743   -0.000010331
 -------------------------------------------------------------------
 Cartesian Forces:  Max     0.002425427 RMS     0.000750794

 GradGradGradGradGradGradGradGradGradGradGradGradGradGradGradGradGradGrad
 Berny optimization.
 Using GEDIIS/GDIIS optimizer.
 FormGI is forming the generalized inverse of G from B-inverse, IUseBI=4.
 Internal  Forces:  Max     0.002148254 RMS     0.000530141
 Search for a local minimum.
 Step number   2 out of a maximum of   74
 All quantities printed in internal units (Hartrees-Bohrs-Radians)
 Mixed Optimization -- En-DIIS/RFO-DIIS
 Update second derivatives using D2CorX and points    1    2
 DE= -1.73D-04 DEPred=-2.15D-04 R= 8.07D-01
 TightC=F SS=  1.41D+00  RLast= 3.78D-02 DXNew= 5.0454D-01 1.1353D-01
 Trust test= 8.07D-01 RLast= 3.78D-02 DXMaxT set to 3.00D-01
 ITU=  1  0
 Use linear search instead of GDIIS.
     Eigenvalues ---    0.01085   0.01605   0.01789   0.02054   0.02147
     Eigenvalues ---    0.02180   0.02218   0.02248   0.02310   0.02517
     Eigenvalues ---    0.02522   0.02642   0.15924   0.16000   0.16000
     Eigenvalues ---    0.16000   0.17084   0.22008   0.23330   0.24358
     Eigenvalues ---    0.24962   0.25000   0.25000   0.30789   0.35133
     Eigenvalues ---    0.35182   0.35357   0.35472   0.38600   0.44061
     Eigenvalues ---    0.44602   0.47868   0.51712   0.53843   0.56142
     Eigenvalues ---    0.57541   0.59909   0.60237   0.90323
 RFO step:  Lambda=-3.55189015D-05 EMin= 1.08502064D-02
 Quartic linear search produced a step of -0.15964.
 Iteration  1 RMS(Cart)=  0.00394862 RMS(Int)=  0.00000900
 Iteration  2 RMS(Cart)=  0.00001026 RMS(Int)=  0.00000014
 Iteration  3 RMS(Cart)=  0.00000000 RMS(Int)=  0.00000014
 Variable       Old X    -DE/DX   Delta X   Delta X   Delta X     New X
                                 (Linear)    (Quad)   (Total)
    R1        2.49758   0.00027  -0.00066   0.00135   0.00069   2.49827
    R2        2.53378  -0.00011  -0.00029   0.00035   0.00005   2.53384
    R3        2.65805  -0.00075  -0.00110   0.00016  -0.00094   2.65711
    R4        2.05536  -0.00009  -0.00051   0.00055   0.00005   2.05540
    R5        2.61129  -0.00027  -0.00134   0.00150   0.00016   2.61145
    R6        2.05390  -0.00012  -0.00063   0.00067   0.00003   2.05394
    R7        2.65161   0.00025  -0.00081   0.00173   0.00091   2.65252
    R8        2.05217  -0.00008  -0.00055   0.00063   0.00008   2.05225
    R9        2.67176   0.00130  -0.00192   0.00549   0.00357   2.67533
   R10        2.52440  -0.00050   0.00042  -0.00136  -0.00094   2.52346
   R11        2.78432   0.00025   0.00075  -0.00053   0.00021   2.78453
   R12        2.32807   0.00022  -0.00105   0.00180   0.00075   2.32882
   R13        2.51415  -0.00012  -0.00069   0.00088   0.00019   2.51434
   R14        1.83201   0.00043   0.00046  -0.00001   0.00045   1.83246
   R15        1.86133   0.00178  -0.00008   0.00308   0.00300   1.86433
    A1        2.06730   0.00037   0.00070   0.00027   0.00098   2.06828
    A2        2.14211   0.00004  -0.00045   0.00052   0.00007   2.14218
    A3        2.03311   0.00001   0.00052  -0.00056  -0.00004   2.03307
    A4        2.10796  -0.00005  -0.00007   0.00004  -0.00003   2.10793
    A5        2.08262   0.00002  -0.00003  -0.00029  -0.00032   2.08230
    A6        2.09541  -0.00001  -0.00016   0.00044   0.00028   2.09569
    A7        2.10515  -0.00002   0.00019  -0.00015   0.00005   2.10520
    A8        2.07250   0.00046   0.00012   0.00143   0.00155   2.07405
    A9        2.13742  -0.00035  -0.00000  -0.00143  -0.00143   2.13599
   A10        2.07327  -0.00011  -0.00012   0.00000  -0.00012   2.07315
   A11        2.05083  -0.00046   0.00052  -0.00211  -0.00159   2.04924
   A12        2.06903  -0.00020  -0.00004  -0.00071  -0.00076   2.06827
   A13        2.16332   0.00066  -0.00048   0.00283   0.00235   2.16567
   A14        2.15101  -0.00043  -0.00087   0.00019  -0.00068   2.15033
   A15        2.06729  -0.00045  -0.00031  -0.00119  -0.00150   2.06579
   A16        2.06489   0.00087   0.00118   0.00100   0.00218   2.06706
   A17        2.13581   0.00122   0.00100   0.00261   0.00361   2.13942
   A18        2.00944   0.00092   0.00149   0.00086   0.00234   2.01178
   A19        2.13793  -0.00215  -0.00248  -0.00346  -0.00595   2.13198
   A20        1.86065   0.00081   0.00108   0.00262   0.00370   1.86435
   A21        1.86332   0.00135   0.00329   0.00212   0.00540   1.86872
    D1       -0.00001   0.00000   0.00000   0.00003   0.00003   0.00002
    D2       -3.14159  -0.00000  -0.00000  -0.00000  -0.00000   3.14159
    D3       -0.00001   0.00000   0.00000   0.00002   0.00002   0.00001
    D4        3.14153   0.00000   0.00001   0.00014   0.00015  -3.14150
    D5        0.00001  -0.00000  -0.00000  -0.00003  -0.00004  -0.00002
    D6       -3.14159  -0.00000  -0.00000  -0.00001  -0.00001   3.14159
    D7       -3.14159  -0.00000  -0.00000  -0.00001  -0.00001   3.14159
    D8       -0.00001   0.00000   0.00000   0.00002   0.00002   0.00001
    D9        0.00000  -0.00000  -0.00000  -0.00000  -0.00000  -0.00000
   D10        3.14157   0.00000   0.00001   0.00005   0.00006  -3.14156
   D11       -3.14158  -0.00000  -0.00000  -0.00003  -0.00003   3.14157
   D12       -0.00001   0.00000   0.00000   0.00003   0.00003   0.00002
   D13       -0.00002   0.00000   0.00000   0.00004   0.00005   0.00003
   D14        3.14154   0.00000   0.00001   0.00014   0.00015  -3.14150
   D15       -3.14159  -0.00000  -0.00000  -0.00001  -0.00001   3.14159
   D16       -0.00003   0.00000   0.00001   0.00008   0.00009   0.00006
   D17        0.00002  -0.00000  -0.00001  -0.00005  -0.00006  -0.00004
   D18       -3.14152  -0.00000  -0.00002  -0.00017  -0.00019   3.14147
   D19       -3.14153  -0.00000  -0.00002  -0.00015  -0.00017   3.14149
   D20        0.00011  -0.00001  -0.00003  -0.00027  -0.00030  -0.00019
   D21       -3.14146  -0.00001  -0.00003  -0.00032  -0.00036   3.14137
   D22        0.00009  -0.00001  -0.00002  -0.00023  -0.00025  -0.00016
   D23       -3.14145  -0.00001  -0.00003  -0.00043  -0.00046   3.14127
   D24        0.00011  -0.00000  -0.00003  -0.00022  -0.00025  -0.00013
   D25        0.00010  -0.00000  -0.00002  -0.00032  -0.00034  -0.00024
   D26       -3.14153  -0.00000  -0.00002  -0.00010  -0.00012   3.14154
   D27       -3.14158  -0.00000  -0.00000  -0.00010  -0.00010   3.14150
   D28       -0.00002   0.00000   0.00000   0.00011   0.00012   0.00010
         Item               Value     Threshold  Converged?
 Maximum Force            0.002148     0.000450     NO 
 RMS     Force            0.000530     0.000300     NO 
 Maximum Displacement     0.020393     0.001800     NO 
 RMS     Displacement     0.003954     0.001200     NO 
 Predicted change in Energy=-2.417007D-05
 GradGradGradGradGradGradGradGradGradGradGradGradGradGradGradGradGradGrad

                          Input orientation:                          
 ---------------------------------------------------------------------
 Center     Atomic      Atomic             Coordinates (Angstroms)
 Number     Number       Type             X           Y           Z
 ---------------------------------------------------------------------
      1          7           0        0.436443   -1.447728   -0.000100
      2          6           0        1.758099   -1.478978   -0.000074
      3          6           0        2.546248   -0.314551    0.000015
      4          6           0        1.927465    0.921091    0.000051
      5          6           0        0.524878    0.975790   -0.000007
      6          6           0       -0.175399   -0.254612   -0.000061
      7          6           0       -1.648580   -0.223443    0.000033
      8          8           0       -2.290058    0.828797    0.000407
      9          8           0       -2.241817   -1.414401   -0.000090
     10          8           0       -0.066152    2.173228   -0.000081
     11          1           0        2.220041   -2.463682   -0.000108
     12          1           0        3.630472   -0.390716    0.000039
     13          1           0        2.487059    1.851823    0.000088
     14          1           0       -3.197767   -1.251694    0.000073
     15          1           0       -1.040021    2.015496   -0.000324
 ---------------------------------------------------------------------
                    Distance matrix (angstroms):
                    1          2          3          4          5
     1  N    0.000000
     2  C    1.322025   0.000000
     3  C    2.394863   1.406083   0.000000
     4  C    2.799009   2.406038   1.381920   0.000000
     5  C    2.425132   2.747130   2.398107   1.403653   0.000000
     6  C    1.340849   2.288555   2.722307   2.409214   1.415725
     7  C    2.417890   3.630678   4.195817   3.754737   2.482353
     8  O    3.551954   4.659764   4.969618   4.218532   2.818771
     9  O    2.678467   4.000437   4.912762   4.778852   3.656175
    10  O    3.655670   4.082463   3.607448   2.354221   1.335355
    11  H    2.052653   1.087673   2.173747   3.397394   3.834521
    12  H    3.364387   2.165663   1.086896   2.149668   3.392943
    13  H    3.884851   3.409636   2.167183   1.086006   2.148858
    14  H    3.639493   4.961075   5.819960   5.566776   4.338176
    15  H    3.764819   4.476698   4.276733   3.162861   1.878801
                    6          7          8          9         10
     6  C    0.000000
     7  C    1.473510   0.000000
     8  O    2.376038   1.232358   0.000000
     9  O    2.369640   1.330530   2.243717   0.000000
    10  O    2.430297   2.871953   2.598702   4.195783   0.000000
    11  H    3.258546   4.470447   5.584032   4.583576   5.169876
    12  H    3.808304   5.281701   6.044824   5.960848   4.498760
    13  H    3.394959   4.627120   4.885430   5.747216   2.573361
    14  H    3.182590   1.859376   2.269885   0.969698   4.640808
    15  H    2.429189   2.320171   1.723614   3.634351   0.986560
                   11         12         13         14         15
    11  H    0.000000
    12  H    2.507290   0.000000
    13  H    4.323758   2.517216   0.000000
    14  H    5.551716   6.882306   6.476810   0.000000
    15  H    5.539949   5.253890   3.530876   3.915405   0.000000
 Stoichiometry    C6H5NO3
 Framework group  C1[X(C6H5NO3)]
 Deg. of freedom    39
 Full point group                 C1      NOp   1
 Largest Abelian subgroup         C1      NOp   1
 Largest concise Abelian subgroup C1      NOp   1
                         Standard orientation:                         
 ---------------------------------------------------------------------
 Center     Atomic      Atomic             Coordinates (Angstroms)
 Number     Number       Type             X           Y           Z
 ---------------------------------------------------------------------
      1          7           0       -0.436472   -1.448967    0.000110
      2          6           0       -1.758119   -1.480610    0.000084
      3          6           0       -2.546613   -0.316417   -0.000005
      4          6           0       -1.928197    0.919409   -0.000041
      5          6           0       -0.525626    0.974525    0.000017
      6          6           0        0.175015   -0.255670    0.000070
      7          6           0        1.648187   -0.224064   -0.000023
      8          8           0        2.289353    0.828367   -0.000397
      9          8           0        2.241778   -1.414845    0.000099
     10          8           0        0.065048    2.172138    0.000091
     11          1           0       -2.219769   -2.465451    0.000117
     12          1           0       -3.630815   -0.392904   -0.000029
     13          1           0       -2.488068    1.849975   -0.000078
     14          1           0        3.197679   -1.251855   -0.000063
     15          1           0        1.038964    2.014694    0.000333
 ---------------------------------------------------------------------
 Rotational constants (GHZ):      2.3649534      1.2681124      0.8254810
 Standard basis: 6-31+G(d,p) (6D, 7F)
 There are   215 symmetry adapted cartesian basis functions of A   symmetry.
 There are   215 symmetry adapted basis functions of A   symmetry.
   215 basis functions,   355 primitive gaussians,   215 cartesian basis functions
    36 alpha electrons       36 beta electrons
       nuclear repulsion energy       508.1760762745 Hartrees.
 NAtoms=   15 NActive=   15 NUniq=   15 SFac= 1.00D+00 NAtFMM=   60 NAOKFM=F Big=F
 Integral buffers will be    131072 words long.
 Raffenetti 2 integral format.
 Two-electron integral symmetry is turned on.
 R6APFD:  NTU= -4 IXU= 1 FactS= 1.050
 Nuclear repulsion after empirical dispersion term =      508.1668798709 Hartrees.
 One-electron integrals computed using PRISM.
 NBasis=   215 RedAO= T EigKep=  5.80D-06  NBF=   215
 NBsUse=   215 1.00D-06 EigRej= -1.00D+00 NBFU=   215
 Initial guess from the checkpoint file:  "APFD3HPA.chk"
 B after Tr=    -0.000000   -0.000000   -0.000000
         Rot=    1.000000    0.000020   -0.000015   -0.000858 Ang=   0.10 deg.
 ExpMin= 4.38D-02 ExpMax= 5.48D+03 ExpMxC= 8.25D+02 IAcc=2 IRadAn=         4 AccDes= 0.00D+00
 Harris functional with IExCor= 3731 and IRadAn=       4 diagonalized for initial guess.
 HarFok:  IExCor= 3731 AccDes= 0.00D+00 IRadAn=         4 IDoV= 1 UseB2=F ITyADJ=14
 ICtDFT=  3500011 ScaDFX=  1.000000  1.000000  1.000000  1.000000
 FoFCou: FMM=F IPFlag=           0 FMFlag=      100000 FMFlg1=           0
         NFxFlg=           0 DoJE=T BraDBF=F KetDBF=T FulRan=T
         wScrn=  0.000000 ICntrl=     500 IOpCl=  0 I1Cent=   200000004 NGrid=           0
         NMat0=    1 NMatS0=      1 NMatT0=    0 NMatD0=    1 NMtDS0=    0 NMtDT0=    0
 Petite list used in FoFCou.
 Keep R1 ints in memory in canonical form, NReq=274797245.
 Requested convergence on RMS density matrix=1.00D-08 within 128 cycles.
 Requested convergence on MAX density matrix=1.00D-06.
 Requested convergence on             energy=1.00D-06.
 No special actions if energy rises.
 SCF Done:  E(RAPFD) =  -511.717033045     A.U. after   11 cycles
            NFock= 11  Conv=0.43D-08     -V/T= 2.0086
 R6APFD:  NTU= -4 IXU= 1 FactS= 1.050
 Calling FoFJK, ICntrl=      2127 FMM=F ISym2X=0 I1Cent= 0 IOpClX= 0 NMat=1 NMatS=1 NMatT=0.
 ***** Axes restored to original set *****
 -------------------------------------------------------------------
 Center     Atomic                   Forces (Hartrees/Bohr)
 Number     Number              X              Y              Z
 -------------------------------------------------------------------
      1        7          -0.000027488    0.000429294   -0.000001807
      2        6           0.000331093    0.000192908    0.000001761
      3        6          -0.000208800   -0.000139617    0.000000228
      4        6          -0.000269163   -0.000274161   -0.000000262
      5        6           0.000185870    0.000114205   -0.000007554
      6        6           0.000092631    0.000016458   -0.000001777
      7        6           0.000112941    0.000220522    0.000023369
      8        8           0.000489147    0.000132322   -0.000020254
      9        8          -0.000005444    0.000030660   -0.000005415
     10        8          -0.000572576   -0.000802200   -0.000007646
     11        1          -0.000069988    0.000087841   -0.000000345
     12        1          -0.000144946    0.000030668    0.000000355
     13        1          -0.000021621   -0.000095517    0.000000362
     14        1           0.000025534    0.000096609    0.000000424
     15        1           0.000082811   -0.000039992    0.000018561
 -------------------------------------------------------------------
 Cartesian Forces:  Max     0.000802200 RMS     0.000208358

 GradGradGradGradGradGradGradGradGradGradGradGradGradGradGradGradGradGrad
 Berny optimization.
 Using GEDIIS/GDIIS optimizer.
 FormGI is forming the generalized inverse of G from B-inverse, IUseBI=4.
 Internal  Forces:  Max     0.001497453 RMS     0.000395930
 Search for a local minimum.
 Step number   3 out of a maximum of   74
 All quantities printed in internal units (Hartrees-Bohrs-Radians)
 Mixed Optimization -- En-DIIS/RFO-DIIS
 Swapping is turned off.
 Update second derivatives using D2CorX and points    1    2    3
 DE= -1.54D-05 DEPred=-2.42D-05 R= 6.39D-01
 TightC=F SS=  1.41D+00  RLast= 1.20D-02 DXNew= 5.0454D-01 3.6122D-02
 Trust test= 6.39D-01 RLast= 1.20D-02 DXMaxT set to 3.00D-01
 ITU=  1  1  0
     Eigenvalues ---    0.01085   0.01601   0.01789   0.02054   0.02147
     Eigenvalues ---    0.02180   0.02218   0.02248   0.02310   0.02517
     Eigenvalues ---    0.02523   0.02642   0.15524   0.16000   0.16000
     Eigenvalues ---    0.16012   0.16482   0.20556   0.22365   0.23544
     Eigenvalues ---    0.24973   0.25000   0.25626   0.33745   0.34510
     Eigenvalues ---    0.35309   0.35461   0.35627   0.44039   0.44578
     Eigenvalues ---    0.47290   0.49728   0.53136   0.54974   0.56169
     Eigenvalues ---    0.59893   0.60116   0.71884   0.90342
 En-DIIS/RFO-DIIS IScMMF=        0 using points:     3    2
 RFO step:  Lambda=-1.30273143D-05.
 DidBck=T Rises=F RFO-DIIS coefs:    0.72269    0.27731
 Iteration  1 RMS(Cart)=  0.00377762 RMS(Int)=  0.00000428
 Iteration  2 RMS(Cart)=  0.00000618 RMS(Int)=  0.00000007
 Iteration  3 RMS(Cart)=  0.00000000 RMS(Int)=  0.00000007
 Variable       Old X    -DE/DX   Delta X   Delta X   Delta X     New X
                                 (Linear)    (Quad)   (Total)
    R1        2.49827   0.00006  -0.00019   0.00055   0.00036   2.49863
    R2        2.53384  -0.00041  -0.00001  -0.00045  -0.00046   2.53338
    R3        2.65711  -0.00031   0.00026  -0.00087  -0.00061   2.65650
    R4        2.05540  -0.00011  -0.00001  -0.00014  -0.00015   2.05525
    R5        2.61145  -0.00019  -0.00004  -0.00002  -0.00006   2.61139
    R6        2.05394  -0.00015  -0.00001  -0.00020  -0.00021   2.05373
    R7        2.65252  -0.00043  -0.00025  -0.00005  -0.00030   2.65222
    R8        2.05225  -0.00009  -0.00002  -0.00007  -0.00010   2.05216
    R9        2.67533  -0.00120  -0.00099   0.00042  -0.00057   2.67476
   R10        2.52346  -0.00054   0.00026  -0.00122  -0.00096   2.52250
   R11        2.78453  -0.00062  -0.00006  -0.00112  -0.00118   2.78336
   R12        2.32882  -0.00015  -0.00021   0.00043   0.00022   2.32904
   R13        2.51434  -0.00011  -0.00005   0.00004  -0.00001   2.51433
   R14        1.83246  -0.00001  -0.00012   0.00021   0.00009   1.83255
   R15        1.86433  -0.00007  -0.00083   0.00170   0.00086   1.86519
    A1        2.06828  -0.00024  -0.00027  -0.00010  -0.00037   2.06791
    A2        2.14218  -0.00009  -0.00002  -0.00001  -0.00002   2.14215
    A3        2.03307   0.00002   0.00001  -0.00011  -0.00010   2.03297
    A4        2.10793   0.00006   0.00001   0.00012   0.00013   2.10806
    A5        2.08230  -0.00001   0.00009  -0.00005   0.00004   2.08234
    A6        2.09569   0.00003  -0.00008   0.00022   0.00015   2.09583
    A7        2.10520  -0.00002  -0.00001  -0.00018  -0.00019   2.10501
    A8        2.07405  -0.00013  -0.00043   0.00052   0.00009   2.07414
    A9        2.13599   0.00004   0.00040  -0.00077  -0.00037   2.13562
   A10        2.07315   0.00009   0.00003   0.00024   0.00028   2.07342
   A11        2.04924   0.00015   0.00044  -0.00073  -0.00029   2.04895
   A12        2.06827   0.00101   0.00021   0.00234   0.00255   2.07082
   A13        2.16567  -0.00116  -0.00065  -0.00160  -0.00225   2.16342
   A14        2.15033   0.00031   0.00019   0.00037   0.00056   2.15088
   A15        2.06579   0.00119   0.00042   0.00238   0.00280   2.06859
   A16        2.06706  -0.00150  -0.00060  -0.00275  -0.00336   2.06371
   A17        2.13942  -0.00083  -0.00100  -0.00017  -0.00117   2.13825
   A18        2.01178   0.00054  -0.00065   0.00270   0.00205   2.01383
   A19        2.13198   0.00029   0.00165  -0.00253  -0.00088   2.13110
   A20        1.86435  -0.00017  -0.00103   0.00139   0.00036   1.86471
   A21        1.86872  -0.00010  -0.00150   0.00249   0.00099   1.86971
    D1        0.00002  -0.00000  -0.00001  -0.00003  -0.00004  -0.00002
    D2        3.14159   0.00000   0.00000  -0.00000  -0.00000   3.14159
    D3        0.00001  -0.00000  -0.00001  -0.00001  -0.00002  -0.00000
    D4       -3.14150  -0.00001  -0.00004  -0.00012  -0.00016   3.14153
    D5       -0.00002   0.00000   0.00001   0.00004   0.00005   0.00002
    D6        3.14159   0.00000   0.00000   0.00001   0.00001  -3.14158
    D7        3.14159   0.00000   0.00000   0.00001   0.00001  -3.14159
    D8        0.00001  -0.00000  -0.00001  -0.00002  -0.00002  -0.00001
    D9       -0.00000   0.00000   0.00000   0.00000   0.00000   0.00000
   D10       -3.14156  -0.00000  -0.00002  -0.00005  -0.00006   3.14156
   D11        3.14157   0.00000   0.00001   0.00003   0.00004  -3.14158
   D12        0.00002  -0.00000  -0.00001  -0.00002  -0.00003  -0.00001
   D13        0.00003  -0.00000  -0.00001  -0.00004  -0.00006  -0.00002
   D14       -3.14150  -0.00001  -0.00004  -0.00013  -0.00017   3.14151
   D15        3.14159   0.00000   0.00000   0.00001   0.00001  -3.14159
   D16        0.00006  -0.00000  -0.00003  -0.00008  -0.00011  -0.00005
   D17       -0.00004   0.00000   0.00002   0.00005   0.00006   0.00003
   D18        3.14147   0.00001   0.00005   0.00015   0.00021  -3.14151
   D19        3.14149   0.00001   0.00005   0.00014   0.00019  -3.14151
   D20       -0.00019   0.00001   0.00008   0.00025   0.00033   0.00015
   D21        3.14137   0.00002   0.00010   0.00031   0.00041  -3.14141
   D22       -0.00016   0.00001   0.00007   0.00021   0.00028   0.00013
   D23        3.14127   0.00002   0.00013   0.00061   0.00073  -3.14118
   D24       -0.00013   0.00000   0.00007   0.00003   0.00010  -0.00004
   D25       -0.00024   0.00001   0.00009   0.00050   0.00060   0.00036
   D26        3.14154  -0.00000   0.00003  -0.00007  -0.00004   3.14150
   D27        3.14150   0.00001   0.00003   0.00028   0.00031  -3.14137
   D28        0.00010  -0.00001  -0.00003  -0.00029  -0.00032  -0.00023
         Item               Value     Threshold  Converged?
 Maximum Force            0.001497     0.000450     NO 
 RMS     Force            0.000396     0.000300     NO 
 Maximum Displacement     0.013196     0.001800     NO 
 RMS     Displacement     0.003779     0.001200     NO 
 Predicted change in Energy=-8.956248D-06
 GradGradGradGradGradGradGradGradGradGradGradGradGradGradGradGradGradGrad

                          Input orientation:                          
 ---------------------------------------------------------------------
 Center     Atomic      Atomic             Coordinates (Angstroms)
 Number     Number       Type             X           Y           Z
 ---------------------------------------------------------------------
      1          7           0        0.438353   -1.449324    0.000093
      2          6           0        1.760233   -1.479172    0.000018
      3          6           0        2.546933   -0.314155   -0.000090
      4          6           0        1.926871    0.920809   -0.000092
      5          6           0        0.524393    0.974165    0.000016
      6          6           0       -0.174200   -0.256846    0.000091
      7          6           0       -1.646690   -0.222582    0.000090
      8          8           0       -2.284773    0.831858   -0.000342
      9          8           0       -2.244876   -1.411056    0.000049
     10          8           0       -0.070599    2.169071    0.000107
     11          1           0        2.223088   -2.463359    0.000025
     12          1           0        3.631139   -0.388973   -0.000157
     13          1           0        2.485808    1.851876   -0.000146
     14          1           0       -3.200246   -1.244711   -0.000151
     15          1           0       -1.044520    2.008819    0.000349
 ---------------------------------------------------------------------
                    Distance matrix (angstroms):
                    1          2          3          4          5
     1  N    0.000000
     2  C    1.322217   0.000000
     3  C    2.394727   1.405760   0.000000
     4  C    2.798788   2.405759   1.381888   0.000000
     5  C    2.425015   2.747028   2.398007   1.403493   0.000000
     6  C    1.340606   2.288255   2.721736   2.408603   1.415422
     7  C    2.419152   3.631272   4.194622   3.752023   2.479073
     8  O    3.552352   4.658640   4.965755   4.212583   2.812768
     9  O    2.683502   4.005688   4.915753   4.779233   3.654877
    10  O    3.654013   4.081865   3.608031   2.355429   1.334847
    11  H    2.052693   1.087593   2.173466   3.397108   3.834336
    12  H    3.364258   2.165370   1.086785   2.149433   3.392642
    13  H    3.884584   3.409155   2.166894   1.085954   2.148843
    14  H    3.644347   4.966017   5.822027   5.565681   4.335475
    15  H    3.762667   4.475793   4.277236   3.164321   1.879361
                    6          7          8          9         10
     6  C    0.000000
     7  C    1.472888   0.000000
     8  O    2.374825   1.232475   0.000000
     9  O    2.370633   1.330526   2.243269   0.000000
    10  O    2.428128   2.864274   2.586640   4.188651   0.000000
    11  H    3.258173   4.471718   5.583839   4.590212   5.169179
    12  H    3.807633   5.280451   6.040567   5.964245   4.499606
    13  H    3.394459   4.623950   4.878409   5.746834   2.576010
    14  H    3.183211   1.859647   2.269412   0.969744   4.631263
    15  H    2.427075   2.311224   1.709814   3.624417   0.987017
                   11         12         13         14         15
    11  H    0.000000
    12  H    2.507128   0.000000
    13  H    4.323225   2.516583   0.000000
    14  H    5.558566   6.884774   6.474570   0.000000
    15  H    5.538740   5.254636   3.533815   3.902898   0.000000
 Stoichiometry    C6H5NO3
 Framework group  C1[X(C6H5NO3)]
 Deg. of freedom    39
 Full point group                 C1      NOp   1
 Largest Abelian subgroup         C1      NOp   1
 Largest concise Abelian subgroup C1      NOp   1
                         Standard orientation:                         
 ---------------------------------------------------------------------
 Center     Atomic      Atomic             Coordinates (Angstroms)
 Number     Number       Type             X           Y           Z
 ---------------------------------------------------------------------
      1          7           0       -0.441083   -1.449532   -0.000103
      2          6           0       -1.763013   -1.477056   -0.000027
      3          6           0       -2.547664   -0.310658    0.000080
      4          6           0       -1.925431    0.923214    0.000082
      5          6           0       -0.522862    0.974104   -0.000026
      6          6           0        0.173566   -0.258133   -0.000100
      7          6           0        1.646113   -0.226458   -0.000100
      8          8           0        2.286049    0.826858    0.000332
      9          8           0        2.242209   -1.415982   -0.000059
     10          8           0        0.074230    2.167962   -0.000117
     11          1           0       -2.227598   -2.460428   -0.000034
     12          1           0       -3.632000   -0.383569    0.000147
     13          1           0       -2.482730    1.855262    0.000136
     14          1           0        3.197870   -1.251317    0.000141
     15          1           0        1.047868    2.005998   -0.000359
 ---------------------------------------------------------------------
 Rotational constants (GHZ):      2.3690707      1.2683547      0.8260848
 Standard basis: 6-31+G(d,p) (6D, 7F)
 There are   215 symmetry adapted cartesian basis functions of A   symmetry.
 There are   215 symmetry adapted basis functions of A   symmetry.
   215 basis functions,   355 primitive gaussians,   215 cartesian basis functions
    36 alpha electrons       36 beta electrons
       nuclear repulsion energy       508.3521455558 Hartrees.
 NAtoms=   15 NActive=   15 NUniq=   15 SFac= 1.00D+00 NAtFMM=   60 NAOKFM=F Big=F
 Integral buffers will be    131072 words long.
 Raffenetti 2 integral format.
 Two-electron integral symmetry is turned on.
 R6APFD:  NTU= -4 IXU= 1 FactS= 1.050
 Nuclear repulsion after empirical dispersion term =      508.3429541231 Hartrees.
 One-electron integrals computed using PRISM.
 NBasis=   215 RedAO= T EigKep=  5.80D-06  NBF=   215
 NBsUse=   215 1.00D-06 EigRej= -1.00D+00 NBFU=   215
 Initial guess from the checkpoint file:  "APFD3HPA.chk"
 B after Tr=    -0.000000    0.000000    0.000000
         Rot=    1.000000   -0.000026    0.000018    0.000931 Ang=  -0.11 deg.
 Keep R1 ints in memory in canonical form, NReq=274797245.
 Requested convergence on RMS density matrix=1.00D-08 within 128 cycles.
 Requested convergence on MAX density matrix=1.00D-06.
 Requested convergence on             energy=1.00D-06.
 No special actions if energy rises.
 SCF Done:  E(RAPFD) =  -511.717038895     A.U. after   10 cycles
            NFock= 10  Conv=0.62D-08     -V/T= 2.0086
 R6APFD:  NTU= -4 IXU= 1 FactS= 1.050
 Calling FoFJK, ICntrl=      2127 FMM=F ISym2X=0 I1Cent= 0 IOpClX= 0 NMat=1 NMatS=1 NMatT=0.
 ***** Axes restored to original set *****
 -------------------------------------------------------------------
 Center     Atomic                   Forces (Hartrees/Bohr)
 Number     Number              X              Y              Z
 -------------------------------------------------------------------
      1        7          -0.000039237    0.000187997    0.000004340
      2        6           0.000000958   -0.000016330   -0.000003273
      3        6          -0.000209686    0.000052459   -0.000000124
      4        6          -0.000089271   -0.000023728   -0.000000846
      5        6          -0.000061454    0.000239778    0.000007876
      6        6           0.000054243   -0.000035021    0.000013341
      7        6          -0.000181340   -0.000268342   -0.000061478
      8        8          -0.000137831    0.000027001    0.000033476
      9        8           0.000199895    0.000004379    0.000017114
     10        8           0.000415406   -0.000053896    0.000007252
     11        1          -0.000054081    0.000041351    0.000000111
     12        1          -0.000069698    0.000014882    0.000000031
     13        1          -0.000011550   -0.000050052   -0.000000272
     14        1           0.000084858    0.000110134   -0.000000216
     15        1           0.000098790   -0.000230612   -0.000017334
 -------------------------------------------------------------------
 Cartesian Forces:  Max     0.000415406 RMS     0.000115311

 GradGradGradGradGradGradGradGradGradGradGradGradGradGradGradGradGradGrad
 Berny optimization.
 Using GEDIIS/GDIIS optimizer.
 FormGI is forming the generalized inverse of G from B-inverse, IUseBI=4.
 Internal  Forces:  Max     0.000529227 RMS     0.000155170
 Search for a local minimum.
 Step number   4 out of a maximum of   74
 All quantities printed in internal units (Hartrees-Bohrs-Radians)
 Mixed Optimization -- En-DIIS/RFO-DIIS
 Swapping is turned off.
 Update second derivatives using D2CorX and points    1    2    3    4
 DE= -5.85D-06 DEPred=-8.96D-06 R= 6.53D-01
 TightC=F SS=  1.41D+00  RLast= 6.70D-03 DXNew= 5.0454D-01 2.0112D-02
 Trust test= 6.53D-01 RLast= 6.70D-03 DXMaxT set to 3.00D-01
 ITU=  1  1  1  0
     Eigenvalues ---    0.01086   0.01606   0.01789   0.02055   0.02147
     Eigenvalues ---    0.02180   0.02218   0.02248   0.02310   0.02517
     Eigenvalues ---    0.02524   0.02642   0.15338   0.16000   0.16000
     Eigenvalues ---    0.16009   0.17641   0.21950   0.22472   0.23638
     Eigenvalues ---    0.24979   0.25049   0.27979   0.33785   0.34877
     Eigenvalues ---    0.35303   0.35455   0.35518   0.44066   0.44746
     Eigenvalues ---    0.46447   0.48812   0.53314   0.56029   0.57241
     Eigenvalues ---    0.60000   0.61308   0.76361   0.90545
 En-DIIS/RFO-DIIS IScMMF=        0 using points:     4    3    2
 RFO step:  Lambda=-2.14630069D-06.
 DidBck=T Rises=F RFO-DIIS coefs:    0.72584    0.20336    0.07081
 Iteration  1 RMS(Cart)=  0.00096273 RMS(Int)=  0.00000050
 Iteration  2 RMS(Cart)=  0.00000055 RMS(Int)=  0.00000008
 Variable       Old X    -DE/DX   Delta X   Delta X   Delta X     New X
                                 (Linear)    (Quad)   (Total)
    R1        2.49863  -0.00018  -0.00015  -0.00005  -0.00020   2.49843
    R2        2.53338  -0.00023   0.00012  -0.00049  -0.00037   2.53301
    R3        2.65650  -0.00014   0.00023  -0.00058  -0.00035   2.65615
    R4        2.05525  -0.00006   0.00004  -0.00021  -0.00017   2.05508
    R5        2.61139  -0.00020   0.00001  -0.00036  -0.00035   2.61104
    R6        2.05373  -0.00007   0.00006  -0.00026  -0.00020   2.05353
    R7        2.65222  -0.00025   0.00002  -0.00051  -0.00049   2.65173
    R8        2.05216  -0.00005   0.00002  -0.00015  -0.00013   2.05202
    R9        2.67476   0.00013  -0.00010   0.00005  -0.00005   2.67471
   R10        2.52250  -0.00048   0.00033  -0.00104  -0.00071   2.52178
   R11        2.78336   0.00003   0.00031  -0.00043  -0.00012   2.78323
   R12        2.32904   0.00009  -0.00011   0.00016   0.00005   2.32909
   R13        2.51433  -0.00022  -0.00001  -0.00028  -0.00029   2.51403
   R14        1.83255  -0.00007  -0.00006  -0.00002  -0.00007   1.83248
   R15        1.86519  -0.00006  -0.00045   0.00043  -0.00002   1.86517
    A1        2.06791   0.00007   0.00003   0.00009   0.00012   2.06803
    A2        2.14215  -0.00005   0.00000  -0.00022  -0.00022   2.14194
    A3        2.03297  -0.00000   0.00003  -0.00004  -0.00001   2.03296
    A4        2.10806   0.00005  -0.00003   0.00026   0.00023   2.10829
    A5        2.08234   0.00008   0.00001   0.00021   0.00023   2.08257
    A6        2.09583  -0.00002  -0.00006   0.00004  -0.00002   2.09582
    A7        2.10501  -0.00006   0.00005  -0.00026  -0.00021   2.10480
    A8        2.07414  -0.00002  -0.00014   0.00006  -0.00007   2.07406
    A9        2.13562  -0.00000   0.00020  -0.00025  -0.00004   2.13558
   A10        2.07342   0.00002  -0.00007   0.00018   0.00012   2.07354
   A11        2.04895  -0.00001   0.00019  -0.00016   0.00003   2.04898
   A12        2.07082  -0.00018  -0.00064   0.00058  -0.00007   2.07075
[...]
 ! R10   R(5,10)                 1.3345         -DE/DX =    0.0                 !
 ! R11   R(6,7)                  1.4728         -DE/DX =    0.0                 !
 ! R12   R(7,8)                  1.2325         -DE/DX =    0.0                 !
 ! R13   R(7,9)                  1.3303         -DE/DX =    0.0                 !
 ! R14   R(9,14)                 0.9697         -DE/DX =    0.0                 !
 ! R15   R(10,15)                0.987          -DE/DX =    0.0                 !
 ! A1    A(2,1,6)              118.491          -DE/DX =    0.0                 !
 ! A2    A(1,2,3)              122.712          -DE/DX =    0.0                 !
 ! A3    A(1,2,11)             116.4819         -DE/DX =    0.0                 !
 ! A4    A(3,2,11)             120.8062         -DE/DX =    0.0                 !
 ! A5    A(2,3,4)              119.3337         -DE/DX =    0.0                 !
 ! A6    A(2,3,12)             120.0789         -DE/DX =    0.0                 !
 ! A7    A(4,3,12)             120.5874         -DE/DX =    0.0                 !
 ! A8    A(3,4,5)              118.8342         -DE/DX =    0.0                 !
 ! A9    A(3,4,13)             122.3571         -DE/DX =    0.0                 !
 ! A10   A(5,4,13)             118.8088         -DE/DX =    0.0                 !
 ! A11   A(4,5,6)              117.3871         -DE/DX =    0.0                 !
 ! A12   A(4,5,10)             118.6502         -DE/DX =    0.0                 !
 ! A13   A(6,5,10)             123.9626         -DE/DX =    0.0                 !
 ! A14   A(1,6,5)              123.242          -DE/DX =    0.0                 !
 ! A15   A(1,6,7)              118.4582         -DE/DX =    0.0                 !
 ! A16   A(5,6,7)              118.2998         -DE/DX =    0.0                 !
 ! A17   A(6,7,8)              122.5198         -DE/DX =    0.0                 !
 ! A18   A(6,7,9)              115.352          -DE/DX =    0.0                 !
 ! A19   A(8,7,9)              122.1282         -DE/DX =    0.0                 !
 ! A20   A(7,9,14)             106.767          -DE/DX =    0.0                 !
 ! A21   A(5,10,15)            107.0441         -DE/DX =    0.0                 !
 ! D1    D(6,1,2,3)              0.0002         -DE/DX =    0.0                 !
 ! D2    D(6,1,2,11)          -179.9999         -DE/DX =    0.0                 !
 ! D3    D(2,1,6,5)             -0.0003         -DE/DX =    0.0                 !
 ! D4    D(2,1,6,7)            179.9995         -DE/DX =    0.0                 !
 ! D5    D(1,2,3,4)             -0.0001         -DE/DX =    0.0                 !
 ! D6    D(1,2,3,12)           179.9998         -DE/DX =    0.0                 !
 ! D7    D(11,2,3,4)           180.0            -DE/DX =    0.0                 !
 ! D8    D(11,2,3,12)            0.0            -DE/DX =    0.0                 !
 ! D9    D(2,3,4,5)              0.0            -DE/DX =    0.0                 !
 ! D10   D(2,3,4,13)           180.0            -DE/DX =    0.0                 !
 ! D11   D(12,3,4,5)          -180.0            -DE/DX =    0.0                 !
 ! D12   D(12,3,4,13)            0.0001         -DE/DX =    0.0                 !
 ! D13   D(3,4,5,6)              0.0            -DE/DX =    0.0                 !
 ! D14   D(3,4,5,10)          -179.9998         -DE/DX =    0.0                 !
 ! D15   D(13,4,5,6)          -180.0            -DE/DX =    0.0                 !
 ! D16   D(13,4,5,10)            0.0002         -DE/DX =    0.0                 !
 ! D17   D(4,5,6,1)              0.0002         -DE/DX =    0.0                 !
 ! D18   D(4,5,6,7)            180.0004         -DE/DX =    0.0                 !
 ! D19   D(10,5,6,1)           179.9999         -DE/DX =    0.0                 !
 ! D20   D(10,5,6,7)             0.0001         -DE/DX =    0.0                 !
 ! D21   D(4,5,10,15)          179.9996         -DE/DX =    0.0                 !
 ! D22   D(6,5,10,15)           -0.0001         -DE/DX =    0.0                 !
 ! D23   D(1,6,7,8)           -180.0062         -DE/DX =    0.0                 !
 ! D24   D(1,6,7,9)              0.0055         -DE/DX =    0.0                 !
 ! D25   D(5,6,7,8)             -0.0064         -DE/DX =    0.0                 !
 ! D26   D(5,6,7,9)           -179.9946         -DE/DX =    0.0                 !
 ! D27   D(6,7,9,14)          -180.0059         -DE/DX =    0.0                 !
 ! D28   D(8,7,9,14)             0.0058         -DE/DX =    0.0                 !
 --------------------------------------------------------------------------------
 GradGradGradGradGradGradGradGradGradGradGradGradGradGradGradGradGradGrad

 1\1\ WCSS.PL-BEM-QINLAB\Freq\RAPFD\6-31+G(d,p)\C6H5N1O3\PHZD\19-May-20
 24\0\\#N Geom=AllCheck Guess=TCheck SCRF=Check GenChk RAPFD/6-31+G(d,p
 ) Freq\\[No Title]\\0,1\N,0.4376684985,-1.4484412286,-0.0000578381\C,1
 .7594007446,-1.4789839594,-0.0000474807\C,2.5461085943,-0.3142095564,-
 0.0000170963\C,1.926780378,0.9209165297,0.0000004753\C,0.5246338269,0.
 9748707471,-0.0000122155\C,-0.17431811,-0.2559682423,-0.0000435254\C,-
 1.6467189823,-0.222786395,-0.0000653384\O,-2.2857390232,0.8311664265,0
 .0000584787\O,-2.2432729274,-1.4118470308,0.000017923\O,-0.0696993734,
 2.1697066485,0.0000012958\H,2.2217103772,-2.4633094193,-0.0000616668\H
 ,3.6301997621,-0.3891963947,-0.0000071232\H,2.4862492808,1.8515717882,
 0.0000237241\H,-3.1986101024,-1.2455262696,0.0000880266\H,-1.043480943
 8,2.0084553561,-0.0000166391\\Version=ES64L-G09RevE.01\State=1-A\HF=-5
 11.7170406\RMSD=3.477e-09\RMSF=1.651e-05\ZeroPoint=0.109486\Thermal=0.
 117126\Dipole=0.4674596,-0.1793019,-0.0000271\DipoleDeriv=0.1037962,0.
 056989,-0.0000003,-0.4311135,-0.4036341,-0.0000029,-0.0000236,-0.00000
 53,-0.2388651,-0.3186751,-0.0963517,0.0000021,-0.2771446,0.2663891,0.0
 000055,-0.0000073,0.0000017,-0.0351776,0.156314,-0.0605114,0.0000008,0
 .3407044,0.0690487,0.0000003,0.0000093,0.0000037,-0.0793889,0.0416052,
 0.4056945,0.0000054,-0.0208579,-0.0229436,0.0000045,0.0000093,0.000005
 8,-0.1527873,0.2458174,-0.6596692,-0.000004,-0.4375306,1.1226918,0.000
 0066,-0.0000326,0.0000127,0.1639971,-0.615215,-0.2712786,0.0000025,0.4
 097586,-0.1199181,-0.0000042,-0.0000069,-0.0000068,0.0301144,2.1548721
 ,0.2734329,-0.000019,0.2083136,1.6459544,0.0000013,-0.0000686,-0.00000
 27,0.3082506,-1.1643704,0.2531911,0.000005,0.2544133,-1.022252,0.00000
 74,0.0000662,-0.0000547,-0.3688682,-0.8556091,-0.5722157,0.0000032,-0.
 6320001,-1.0167482,0.0000038,0.0000498,0.0000703,-0.3423171,-0.6625005
 ,0.4761148,0.0000073,0.3408488,-1.2357487,-0.000003,0.00001,-0.0000016
 ,-0.3388527,0.0124026,0.0569593,0.000001,0.0856814,-0.0526516,-0.00000
 26,0.000003,-0.0000013,0.1215152,-0.0703697,0.0156204,-0.0000013,0.015
 3382,0.09028,-0.0000009,-0.0000037,0.,0.135258,0.062843,-0.0363754,-0.
 0000013,-0.0497255,0.0015592,-0.000003,-0.0000003,-0.0000051,0.1474925
 ,0.3388457,0.0932286,0.0000021,0.1295027,0.2858411,-0.0000053,0.000003
 9,-0.0000042,0.3466101,0.5702436,0.0651712,-0.0000036,0.0638111,0.3921
 32,-0.0000076,-0.0000086,-0.0000127,0.3030191\Polar=117.3394015,-3.335
 6804,96.4030869,-0.0004502,0.00081,45.8164227\PG=C01 [X(C6H5N1O3)]\NIm
 ag=0\\0.65841655,-0.12049799,0.46235889,0.00000342,0.00000608,0.097169
 14,-0.39428587,-0.00404041,-0.00000287,0.71732690,0.02256803,-0.117674
 40,-0.00000121,-0.05636780,0.74019522,-0.00000223,-0.00000219,-0.06468
 441,0.00000386,0.00001037,0.14709405,-0.05472092,-0.02266708,-0.000001
 59,-0.17793214,-0.11346547,-0.00000295,0.74137038,-0.08850694,0.043371
 03,-0.00000082,-0.04326238,-0.26588021,-0.00000369,-0.03260933,0.68951
 717,-0.00000235,-0.00000041,0.02361459,-0.00000201,-0.00000464,-0.0687
 5296,0.00000535,0.00001032,0.13520720,-0.05387949,0.03121332,-0.000000
 14,0.06886277,0.01466632,0.00000123,-0.18410877,0.07308855,0.00000025,
 0.69226087,0.03467930,-0.01710190,0.00000029,-0.02739333,-0.05489756,-
 0.00000149,0.13316879,-0.34045309,-0.00000419,0.00979937,0.78693962,0.
 00000018,0.00000021,-0.00633821,0.00000016,-0.00000112,0.00778567,0.00
 000139,-0.00000489,-0.05631621,0.00000554,0.00001289,0.12738357,0.0764
 0073,-0.02619282,0.00000044,-0.06023017,-0.02588452,-0.00000133,-0.012
 61851,0.07918895,0.00000137,-0.32270883,-0.04878840,-0.00000302,0.7301
 7322,0.02537442,-0.06561737,-0.00000016,-0.03290069,-0.00468969,-0.000
 00057,0.03975157,0.02395985,0.00000080,0.01161524,-0.12286534,-0.00000
 081,-0.03744576,0.71113626,0.00000166,-0.00000181,0.01423826,-0.000001
 62,-0.00000044,-0.00850467,0.00000057,0.00000175,-0.00271883,-0.000002
 08,-0.00000141,-0.06800383,0.00000634,0.00001008,0.16327094,-0.1426057
 9,0.08770111,0.,-0.06886937,0.03636801,-0.00000068,0.01645725,0.019458
 86,0.00000059,-0.01118347,-0.02794562,-0.00000117,-0.19488771,-0.08704
 951,-0.00000458,0.63544785,0.08434229,-0.30048899,-0.00000408,0.081705
 79,0.00411471,0.00000169,-0.01624395,-0.05987441,-0.00000070,-0.057815
 13,0.03543040,-0.00000033,-0.04179889,-0.22719347,-0.00000377,-0.02256
 948,0.71883220,-0.00000108,-0.00000310,-0.06145685,0.00000098,0.000001
 00,0.00565862,0.00000008,-0.00000077,-0.00818322,-0.00000121,-0.000000
 57,0.00854045,-0.00000405,-0.00000446,-0.06853999,0.00000324,0.0000101
 3,0.14203620,-0.04376130,0.03408778,0.00000020,0.02532246,0.00867590,0
 .00000094,-0.00024921,-0.01641496,-0.00000034,-0.01063196,0.00197489,0
 .00000039,-0.00367539,-0.04146648,-0.00000019,-0.20911122,-0.01464873,
 -0.00000655,0.74092823,0.03597436,-0.00479345,0.00000141,0.00590653,-0
 .00675529,-0.00000031,-0.00018335,-0.00159484,-0.00000015,-0.00217653,
 -0.00679731,-0.00000042,-0.03832803,0.02571015,-0.00000078,-0.02604745
 ,-0.09506480,0.00000018,-0.10527129,0.87442814,0.00000033,0.00000109,-
 0.01299517,-0.00000037,-0.00000039,0.01261473,0.00000038,0.00000020,0.
 00045331,-0.00000016,-0.00000053,0.00673911,-0.00000074,0.00000268,0.0
 0062712,0.00000233,-0.00000167,-0.07688017,-0.00004343,0.00002979,0.20
 950125,-0.00485313,-0.00398574,0.00000049,-0.00614878,-0.00044312,-0.0
 0000048,-0.00001267,0.00402957,0.00000014,0.00232607,0.00021858,0.0000
 0005,-0.00049002,0.00301454,0.00000020,-0.01637392,0.03952263,0.000005
 07,-0.28111989,0.24282616,0.00002967,0.29447174,-0.00425206,0.00731482
 ,-0.00000039,0.00783862,0.00431934,0.00000051,-0.00033666,-0.00718637,
 -0.00000018,-0.00678670,0.00426102,0.00000006,0.01219227,-0.03091775,0
 .00000038,0.03293003,-0.00512626,-0.00000314,0.22875972,-0.48491549,-0
 .00004183,-0.27090620,0.59845757,0.00000090,-0.00000020,0.00606642,0.0
 0000035,0.00000010,-0.00265309,-0.00000011,-0.00000026,0.00006096,0.,0
 .00000012,-0.00074383,0.00000026,-0.00000179,0.00019643,-0.00000012,-0
 .00000229,0.01845188,0.00003355,-0.00004547,-0.07576977,-0.00003395,0.
 00004957,0.03730988,-0.00030356,-0.00396109,-0.00000007,-0.00333653,-0
 .00250898,-0.00000006,-0.00020303,0.00230758,0.00000006,0.00062728,-0.
 00269624,-0.00000028,-0.00827473,0.00996667,-0.00000008,-0.02813784,-0
 .04100568,0.00000310,-0.17995778,-0.10761644,0.00001047,0.03787901,0.0
 1040359,-0.00000098,0.66453887,0.00577544,-0.00152561,-0.00000047,-0.0
 0509456,-0.00083083,-0.00000011,0.00041903,0.00248345,0.00000007,0.000
 76282,0.00056963,0.,0.00295952,-0.00092742,-0.00000008,-0.01449564,-0.
 00273375,0.00000187,-0.07104243,-0.27532703,0.00000819,-0.00937079,-0.
 10905410,-0.00000052,0.02545814,0.44305627,0.,-0.00000028,0.00169468,0
 .00000041,0.00000015,-0.00134326,-0.00000005,-0.00000023,-0.00012224,-
 0.00000008,0.00000022,-0.00105347,0.00000026,-0.00000058,0.00215713,-0
 .00000020,0.00000211,0.01073286,0.00001041,0.00001509,-0.06558531,-0.0
 0000052,-0.00000461,0.02749007,-0.00004590,-0.00000564,0.04083002,-0.0
 1352633,0.00331820,0.00000017,0.01116378,0.00894432,0.00000032,-0.0060
 5459,-0.01711512,-0.00000046,-0.04028556,0.06296753,0.00000035,-0.1566
 5899,0.11404298,0.00000081,0.03081403,-0.00902515,0.00000028,-0.033427
 55,0.02399339,0.00000187,-0.01486326,-0.04616202,-0.00000107,0.0037060
 0,-0.00850755,0.00000007,0.60941483,0.00036171,-0.00609480,-0.00000065
 ,-0.00389975,-0.00615892,-0.00000006,-0.00425142,0.00733358,0.00000007
 ,0.02530390,-0.00725902,0.00000023,0.07979989,-0.31797851,-0.00000438,
 0.00602652,-0.06184250,-0.00000104,0.02172429,-0.00692552,-0.00000102,
 -0.01717223,0.00776564,0.00000133,-0.00354398,-0.00118860,0.00000039,-
 0.05408162,0.45647248,-0.00000050,-0.00000048,0.00770520,0.00000017,0.
 00000009,-0.00071709,-0.00000027,-0.00000028,0.00619481,-0.00000020,0.
 00000069,0.00661872,-0.00000003,-0.00000417,-0.04843607,0.00000116,-0.
 00000061,0.00735909,-0.00000012,0.00000012,-0.00004722,0.00000014,0.,0
 .00462903,0.00000011,0.00000027,-0.00091612,0.00000670,0.00000678,0.04
 134916,-0.02636013,0.03208377,0.00000041,-0.09595608,0.09984535,0.0000
 0143,0.01095758,-0.01719378,-0.00000028,-0.00214766,-0.00309519,-0.000
 00010,-0.00111641,-0.00026012,-0.00000004,-0.00400006,0.00086994,-0.00
 000023,0.00081019,0.00117848,-0.00000006,-0.00084099,0.00024360,0.0000
 0009,-0.00027850,-0.00021989,0.00000003,0.00036700,0.00043170,0.000000
 01,0.11775466,0.00548319,0.00560060,0.00000035,0.10141872,-0.29731976,
 -0.00000388,0.01269855,-0.01718521,-0.00000026,-0.00394221,-0.00256788
 ,-0.00000019,-0.00103883,0.00008903,-0.00000003,-0.00173016,0.00289749
 ,-0.00000021,-0.00024066,0.00018680,-0.00000001,0.00012839,-0.00002011
 ,0.,0.00019507,0.00004149,-0.00000002,0.00013663,0.00009898,0.00000004
 ,-0.11336290,0.30884567,0.00000009,0.00000076,-0.00670170,0.00000134,-
 0.00000389,-0.03790013,0.00000028,-0.00000068,0.00449489,-0.00000022,-
 0.00000018,0.00566079,-0.00000003,-0.00000012,0.00103520,-0.00000012,-
 0.00000020,0.01093251,0.,0.00000002,0.00085892,-0.00000009,0.00000002,
 -0.00049474,0.00000001,0.,0.00003027,-0.00000004,0.00000007,-0.0016449
 6,-0.00000130,0.00000417,0.02621404,-0.00164826,-0.00378985,-0.0000001
 7,-0.01143049,0.00666950,0.00000002,-0.34496920,0.01874331,-0.00000278
 ,-0.00874710,-0.00165383,-0.00000015,0.00175222,0.00165057,-0.00000004
 ,0.00154579,-0.00059346,0.,-0.00002957,-0.00005837,0.,-0.00017618,0.00
 001867,0.00000002,-0.00013813,-0.00004461,0.,-0.00094854,0.00012639,-0
 .00000001,0.00035953,-0.00043482,0.00000002,0.36345016,-0.00528586,-0.
 00412820,-0.00000028,-0.02524495,0.00977261,-0.00000003,0.01819537,-0.
 06131043,-0.00000026,0.02927024,0.00306498,0.00000022,0.00120848,-0.00
 478530,-0.00000025,0.00125489,-0.00216261,-0.00000002,-0.00045881,-0.0
 0018758,0.00000002,0.00004201,0.00018609,0.00000002,0.00008197,0.00021
 664,-0.00000001,0.00193208,0.00027607,0.00000003,0.00051683,0.00022526
 ,0.00000006,-0.02109437,0.05843666,-0.00000028,0.00000011,0.00632635,-
 0.00000041,0.00000021,0.00232424,-0.00000283,-0.00000028,-0.03914384,0
 .00000051,-0.00000013,0.00432716,-0.00000015,-0.00000026,0.00945759,0.
 00000012,-0.00000023,-0.00021677,-0.00000010,0.00000007,-0.00214414,0.
 ,-0.00000002,0.00035365,0.,0.,0.00032464,0.00000008,-0.00000002,0.0000
 1376,0.00000003,0.00000004,-0.00253635,0.00000302,0.00000041,0.0259992
 4,-0.00076482,0.00096997,0.,-0.00075649,0.00360008,0.00000002,0.012807
 64,0.01382766,0.00000037,-0.13850619,-0.12848654,-0.00000337,-0.011110
 94,-0.03012813,-0.00000071,-0.00544185,0.00195692,-0.00000022,0.000364
 67,-0.00190937,-0.00000008,0.00010769,0.00057762,0.00000003,-0.0008208
 0,0.00004981,0.00000005,0.00307423,0.00052879,0.00000009,0.00050875,0.
 00075851,0.00000002,0.00074506,-0.00038210,0.00000002,0.14017717,0.000
 37970,0.00028889,0.00000007,0.00450030,-0.00273005,-0.00000017,-0.0162
 0848,-0.01715869,-0.00000055,-0.13043178,-0.26872865,-0.00000572,0.002
 87937,0.00360335,-0.00000002,0.00048705,0.00114785,-0.00000008,0.00064
 018,0.00001222,0.,-0.00013066,0.00020176,0.00000003,-0.00002045,-0.000
 04525,0.,-0.00050514,0.00075569,0.00000007,-0.00089038,-0.00085177,-0.
 00000003,0.00021142,0.00082812,0.00000011,0.13900392,0.28261651,-0.000
 00003,0.00000019,-0.00328286,0.00000005,-0.00000016,0.00899794,-0.0000
 0022,-0.00000034,0.00384961,-0.00000347,-0.00000568,-0.03789054,-0.000
 00008,-0.00000016,0.00639957,-0.00000002,-0.00000030,0.00608723,-0.000
 00009,0.00000008,-0.00058862,0.,0.,0.00002014,0.00000002,0.,-0.0000013
 8,0.00000008,-0.00000003,-0.00338816,0.,0.,-0.00003408,0.00000006,0.00
 000010,-0.00469190,0.00000374,0.00000629,0.02495440,0.00043170,0.00011
 686,0.,0.00062824,0.00042855,-0.00000002,0.00009307,-0.00043685,0.,-0.
 00023747,-0.00039733,-0.00000008,-0.00095857,0.00065152,0.00000010,0.0
 0210292,-0.00307612,0.00000089,-0.03487882,-0.00544782,0.00000191,0.00
 323814,0.00901914,-0.00000029,-0.48296307,0.06278893,0.00003526,0.0012
 2823,0.00032705,-0.00000003,0.00001125,-0.00002651,0.,0.00003287,-0.00
 000386,0.,-0.00007428,0.00002360,0.,0.51272339,0.00149699,0.00013811,0
 .00000001,0.00006393,0.00043625,-0.00000002,0.00021366,-0.00011462,0.0
 0000001,-0.00013807,-0.00053267,-0.00000006,-0.00174134,0.00119815,-0.
 00000004,-0.00102884,-0.00681069,0.00000021,-0.05619063,0.00605436,0.0
 0000466,0.00752324,0.00123314,-0.00000096,0.11301603,-0.06117257,-0.00
 000644,0.00151174,0.00014115,0.00000001,0.00005002,-0.00003865,0.,0.00
 004645,0.00003102,0.,-0.00014253,0.00001728,0.,-0.06312977,0.06042657,
 -0.00000013,-0.00000003,-0.00035079,-0.00000005,-0.00000010,-0.0000123
 1,-0.00000005,0.00000004,0.00002931,0.00000003,0.00000011,-0.00042231,
 0.00000017,-0.00000011,0.00065782,-0.00000079,0.00000039,0.00509734,0.
 00000634,0.00000065,0.00410616,-0.00000104,-0.00000030,-0.00610060,0.0
 0003330,-0.00000317,-0.01626479,-0.00000008,-0.00000006,-0.00001281,0.
 ,0.,0.00001103,0.,0.,-0.00001024,0.00000002,0.,0.00003270,-0.00003781,
 0.00000253,0.01323736,0.00146063,-0.00435602,-0.00000030,-0.00435822,-
 0.00309617,-0.00000006,-0.00081688,0.00489487,0.00000010,0.00835953,-0
 .00235198,0.00000012,-0.03559589,0.02318319,-0.00000036,-0.00575662,-0
 .00162098,-0.00000029,0.02941715,-0.02284026,-0.00000211,-0.01314382,0
 .02646037,0.00000132,-0.00233721,0.01056180,0.00000025,-0.39400329,-0.
 05168123,-0.00000723,-0.00006914,-0.00004299,0.00000002,0.00020182,-0.
 00003191,-0.00000001,-0.00030983,0.00006136,-0.00000003,-0.00137759,-0
 .00155089,0.00000008,0.41832937,0.00210744,-0.00164762,-0.00000016,-0.
 00323000,-0.00190143,-0.00000005,0.00151878,0.00409280,0.00000007,0.00
 557067,-0.00906224,-0.00000006,0.04299012,0.00927806,0.00000080,-0.003
 35977,-0.00112519,0.00000002,0.00987124,-0.02403037,-0.00000117,0.0047
 0361,0.01348069,0.00000034,-0.00007619,0.00643768,-0.00000018,-0.08145
 027,-0.06539571,-0.00000256,-0.00019742,-0.00000194,0.00000001,0.00020
 298,-0.00046334,-0.00000003,-0.00022462,0.00004275,0.,-0.00083740,-0.0
 0100684,0.00000006,0.02241084,0.07130271,0.00000002,0.00000007,-0.0010
 0466,0.,0.00000003,0.00009266,0.00000003,-0.00000006,0.00133260,-0.000
 00003,-0.00000014,0.00371294,0.00000062,-0.00000035,-0.00183667,0.0000
 0023,-0.00000017,0.00038082,-0.00000102,-0.00000026,-0.00089021,0.0000
 0032,-0.00000008,-0.00881643,0.00000029,-0.00000040,0.00202692,-0.0000
 0908,-0.00000163,-0.01870734,0.,0.,0.00007432,0.,0.,-0.00038338,0.0000
 0002,0.,-0.00046406,0.00000007,0.00000007,0.00000213,0.00000851,0.0000
 0291,0.02448036\\0.00001095,0.00001332,0.00000201,-0.00001069,0.000009
 11,-0.00000128,-0.00001529,0.00002032,0.,-0.00000432,-0.00001860,-0.00
 000074,0.00000599,0.00003380,0.00000121,-0.00001201,-0.00001593,0.0000
 0813,-0.00000122,-0.00001630,-0.00002926,0.00001216,0.00001122,0.00001
 179,0.00001976,-0.00003419,0.00000875,0.00004498,-0.00003150,0.0000007
 5,-0.00000191,0.00000923,-0.00000012,-0.00001405,0.00000618,0.00000023
 ,-0.00001069,-0.00000028,0.00000002,0.00002057,0.00000857,0.00000007,-
 0.00004423,0.00000507,-0.00000156\\\@


 LAW OF COMPENSATION:
      NO CALCULATION IS EVER A COMPLETE FAILURE; IT 
      CAN ALWAYS SERVE AS A BAD EXAMPLE.

                                           -- ANON
 Job cpu time:       0 days  0 hours 18 minutes 21.1 seconds.
 File lengths (MBytes):  RWF=     79 Int=      0 D2E=      0 Chk=      5 Scr=      1
 Normal termination of Gaussian 09 at Sun May 19 23:28:42 2024.
