 Entering Gaussian System, Link 0=g09
 Input=b3lyp3HPAgd3.gjf
 Output=b3lyp3HPAgd3.log
 Initial command:
 /home/phzd/g09E/g09/l1.exe "/home/phzd/g09E/scratch/Gau-129762.inp" -scrdir="/home/phzd/g09E/scratch/"
 Default is to use a total of  18 processors:
                               18 via shared-memory
                                1 via Linda
 Entering Link 1 = /home/phzd/g09E/g09/l1.exe PID=    129764.
  
 Copyright (c) 1988,1990,1992,1993,1995,1998,2003,2009,2015,
            Gaussian, Inc.  All Rights Reserved.
  
 This is part of the Gaussian(R) 09 program.  It is based on
 the Gaussian(R) 03 system (copyright 2003, Gaussian, Inc.),
 the Gaussian(R) 98 system (copyright 1998, Gaussian, Inc.),
 the Gaussian(R) 94 system (copyright 1995, Gaussian, Inc.),
 the Gaussian 92(TM) system (copyright 1992, Gaussian, Inc.),
 the Gaussian 90(TM) system (copyright 1990, Gaussian, Inc.),
 the Gaussian 88(TM) system (copyright 1988, Gaussian, Inc.),
 the Gaussian 86(TM) system (copyright 1986, Carnegie Mellon
 University), and the Gaussian 82(TM) system (copyright 1983,
 Carnegie Mellon University). Gaussian is a federally registered
 trademark of Gaussian, Inc.
  
 This software contains proprietary and confidential information,
 including trade secrets, belonging to Gaussian, Inc.
  
 This software is provided under written license and may be
 used, copied, transmitted, or stored only in accord with that
 written license.
  
 The following legend is applicable only to US Government
 contracts under FAR:
  
                    RESTRICTED RIGHTS LEGEND
  
 Use, reproduction and disclosure by the US Government is
 subject to restrictions as set forth in subparagraphs (a)
 and (c) of the Commercial Computer Software - Restricted
 Rights clause in FAR 52.227-19.
  
 Gaussian, Inc.
 340 Quinnipiac St., Bldg. 40, Wallingford CT 06492
  
  
 ---------------------------------------------------------------
 Warning -- This program may not be used in any manner that
 competes with the business of Gaussian, Inc. or will provide
 assistance to any competitor of Gaussian, Inc.  The licensee
 of this program is prohibited from giving any competitor of
 Gaussian, Inc. access to this program.  By using this program,
 the user acknowledges that Gaussian, Inc. is engaged in the
 business of creating and licensing software in the field of
 computational chemistry and represents and warrants to the
 licensee that it is not a competitor of Gaussian, Inc. and that
 it will not use this program in any manner prohibited above.
 ---------------------------------------------------------------
  

 Cite this work as:
 Gaussian 09, Revision E.01,
 M. J. Frisch, G. W. Trucks, H. B. Schlegel, G. E. Scuseria, 
 M. A. Robb, J. R. Cheeseman, G. Scalmani, V. Barone, B. Mennucci, 
 G. A. Petersson, H. Nakatsuji, M. Caricato, X. Li, H. P. Hratchian, 
 A. F. Izmaylov, J. Bloino, G. Zheng, J. L. Sonnenberg, M. Hada, 
 M. Ehara, K. Toyota, R. Fukuda, J. Hasegawa, M. Ishida, T. Nakajima, 
 Y. Honda, O. Kitao, H. Nakai, T. Vreven, J. A. Montgomery, Jr., 
 J. E. Peralta, F. Ogliaro, M. Bearpark, J. J. Heyd, E. Brothers, 
 K. N. Kudin, V. N. Staroverov, T. Keith, R. Kobayashi, J. Normand, 
 K. Raghavachari, A. Rendell, J. C. Burant, S. S. Iyengar, J. Tomasi, 
 M. Cossi, N. Rega, J. M. Millam, M. Klene, J. E. Knox, J. B. Cross, 
 V. Bakken, C. Adamo, J. Jaramillo, R. Gomperts, R. E. Stratmann, 
 O. Yazyev, A. J. Austin, R. Cammi, C. Pomelli, J. W. Ochterski, 
 R. L. Martin, K. Morokuma, V. G. Zakrzewski, G. A. Voth, 
 P. Salvador, J. J. Dannenberg, S. Dapprich, A. D. Daniels, 
 O. Farkas, J. B. Foresman, J. V. Ortiz, J. Cioslowski, 
 and D. J. Fox, Gaussian, Inc., Wallingford CT, 2013.
 
 ******************************************
 Gaussian 09:  ES64L-G09RevE.01 30-Nov-2015
                20-Jun-2024 
 ******************************************
 %chk=b3lyp3HPAgd3.chk
 ----------------------------
 # opt freq b3lyp/6-31+g(d,p)
 ----------------------------
 1/14=-1,18=20,19=15,26=3,38=1/1,3;
 2/9=110,12=2,17=6,18=5,40=1/2;
 3/5=1,6=6,7=111,11=2,16=1,25=1,30=1,71=1,74=-5/1,2,3;
 4//1;
 5/5=2,38=5/2;
 6/7=2,8=2,9=2,10=2,28=1/1;
 7//1,2,3,16;
 1/14=-1,18=20,19=15,26=3/3(2);
 2/9=110/2;
 99//99;
 2/9=110/2;
 3/5=1,6=6,7=111,11=2,16=1,25=1,30=1,71=1,74=-5/1,2,3;
 4/5=5,16=3,69=1/1;
 5/5=2,38=5/2;
 7//1,2,3,16;
 1/14=-1,18=20,19=15,26=3/3(-5);
 2/9=110/2;
 6/7=2,8=2,9=2,10=2,19=2,28=1/1;
 99/9=1/99;
 ----------
 [No Title]
 ----------
 Symbolic Z-matrix:
 Charge =  0 Multiplicity = 1
 N                    -1.28696  -0.14341  -0.05 
 C                    -1.32205  -1.4062   -0.05376 
 C                    -0.22124  -2.16679  -0.03463 
 C                     0.95474  -1.52786  -0.01061 
 C                     1.00474  -0.18226  -0.00596 
 C                    -0.17855   0.47752  -0.02722 
 C                    -0.2837    1.8426   -0.02566 
 O                     0.66898   2.58916  -0.00484 
 O                    -1.4896    2.4678   -0.04768 
 O                     2.23637   0.40405   0.01785 
 H                    -2.32079  -1.87383  -0.07408 
 H                    -0.28095  -3.26679  -0.03872 
 H                     1.88897  -2.11387   0.00547 
 H                    -1.33168   3.42591  -0.04182 
 H                     2.21883   1.36913   0.00825 
 

 GradGradGradGradGradGradGradGradGradGradGradGradGradGradGradGradGradGrad
 Berny optimization.
 Initialization pass.
                           ----------------------------
                           !    Initial Parameters    !
                           ! (Angstroms and Degrees)  !
 --------------------------                            --------------------------
 ! Name  Definition              Value          Derivative Info.                !
 --------------------------------------------------------------------------------
 ! R1    R(1,2)                  1.2633         estimate D2E/DX2                !
 ! R2    R(1,6)                  1.2707         estimate D2E/DX2                !
 ! R3    R(2,3)                  1.3382         estimate D2E/DX2                !
 ! R4    R(2,11)                 1.103          estimate D2E/DX2                !
 ! R5    R(3,4)                  1.3386         estimate D2E/DX2                !
 ! R6    R(3,12)                 1.1016         estimate D2E/DX2                !
 ! R7    R(4,5)                  1.3465         estimate D2E/DX2                !
 ! R8    R(4,13)                 1.1029         estimate D2E/DX2                !
 ! R9    R(5,6)                  1.355          estimate D2E/DX2                !
 ! R10   R(5,10)                 1.3643         estimate D2E/DX2                !
 ! R11   R(6,7)                  1.3691         estimate D2E/DX2                !
 ! R12   R(7,8)                  1.2105         estimate D2E/DX2                !
 ! R13   R(7,9)                  1.3585         estimate D2E/DX2                !
 ! R14   R(9,14)                 0.9711         estimate D2E/DX2                !
 ! R15   R(10,15)                0.9653         estimate D2E/DX2                !
 ! A1    A(2,1,6)              120.8475         estimate D2E/DX2                !
 ! A2    A(1,2,3)              123.0433         estimate D2E/DX2                !
 ! A3    A(1,2,11)             116.6806         estimate D2E/DX2                !
 ! A4    A(3,2,11)             120.2762         estimate D2E/DX2                !
 ! A5    A(2,3,4)              116.851          estimate D2E/DX2                !
 ! A6    A(2,3,12)             121.5273         estimate D2E/DX2                !
 ! A7    A(4,3,12)             121.6217         estimate D2E/DX2                !
 ! A8    A(3,4,5)              120.6424         estimate D2E/DX2                !
 ! A9    A(3,4,13)             119.3942         estimate D2E/DX2                !
 ! A10   A(5,4,13)             119.9634         estimate D2E/DX2                !
 ! A11   A(4,5,6)              117.0077         estimate D2E/DX2                !
 ! A12   A(4,5,10)             117.5835         estimate D2E/DX2                !
 ! A13   A(6,5,10)             125.4087         estimate D2E/DX2                !
 ! A14   A(1,6,5)              121.6081         estimate D2E/DX2                !
 ! A15   A(1,6,7)              114.8501         estimate D2E/DX2                !
 ! A16   A(5,6,7)              123.5419         estimate D2E/DX2                !
 ! A17   A(6,7,8)              123.6747         estimate D2E/DX2                !
 ! A18   A(6,7,9)              121.8033         estimate D2E/DX2                !
 ! A19   A(8,7,9)              114.522          estimate D2E/DX2                !
 ! A20   A(7,9,14)             108.0357         estimate D2E/DX2                !
 ! A21   A(5,10,15)            114.3989         estimate D2E/DX2                !
 ! D1    D(6,1,2,3)             -0.0064         estimate D2E/DX2                !
 ! D2    D(6,1,2,11)          -179.9989         estimate D2E/DX2                !
 ! D3    D(2,1,6,5)             -0.009          estimate D2E/DX2                !
 ! D4    D(2,1,6,7)           -179.9893         estimate D2E/DX2                !
 ! D5    D(1,2,3,4)              0.0016         estimate D2E/DX2                !
 ! D6    D(1,2,3,12)          -179.9845         estimate D2E/DX2                !
 ! D7    D(11,2,3,4)           179.9938         estimate D2E/DX2                !
 ! D8    D(11,2,3,12)            0.0077         estimate D2E/DX2                !
 ! D9    D(2,3,4,5)              0.0184         estimate D2E/DX2                !
 ! D10   D(2,3,4,13)          -179.9824         estimate D2E/DX2                !
 ! D11   D(12,3,4,5)          -179.9955         estimate D2E/DX2                !
 ! D12   D(12,3,4,13)            0.0037         estimate D2E/DX2                !
 ! D13   D(3,4,5,6)             -0.0322         estimate D2E/DX2                !
 ! D14   D(3,4,5,10)          -179.9468         estimate D2E/DX2                !
 ! D15   D(13,4,5,6)           179.9686         estimate D2E/DX2                !
 ! D16   D(13,4,5,10)            0.054          estimate D2E/DX2                !
 ! D17   D(4,5,6,1)              0.0277         estimate D2E/DX2                !
 ! D18   D(4,5,6,7)           -179.9936         estimate D2E/DX2                !
 ! D19   D(10,5,6,1)           179.9349         estimate D2E/DX2                !
 ! D20   D(10,5,6,7)            -0.0865         estimate D2E/DX2                !
 ! D21   D(4,5,10,15)          179.2194         estimate D2E/DX2                !
 ! D22   D(6,5,10,15)           -0.6872         estimate D2E/DX2                !
 ! D23   D(1,6,7,8)            179.9611         estimate D2E/DX2                !
 ! D24   D(1,6,7,9)             -0.0314         estimate D2E/DX2                !
 ! D25   D(5,6,7,8)             -0.0188         estimate D2E/DX2                !
 ! D26   D(5,6,7,9)            179.9887         estimate D2E/DX2                !
 ! D27   D(6,7,9,14)           179.9866         estimate D2E/DX2                !
 ! D28   D(8,7,9,14)            -0.0065         estimate D2E/DX2                !
 --------------------------------------------------------------------------------
 Trust Radius=3.00D-01 FncErr=1.00D-07 GrdErr=1.00D-06
 Number of steps in this run=     74 maximum allowed number of steps=    100.
 GradGradGradGradGradGradGradGradGradGradGradGradGradGradGradGradGradGrad

                          Input orientation:                          
 ---------------------------------------------------------------------
 Center     Atomic      Atomic             Coordinates (Angstroms)
 Number     Number       Type             X           Y           Z
 ---------------------------------------------------------------------
      1          7           0       -1.286956   -0.143411   -0.049997
      2          6           0       -1.322049   -1.406196   -0.053761
      3          6           0       -0.221235   -2.166788   -0.034634
      4          6           0        0.954744   -1.527861   -0.010611
      5          6           0        1.004745   -0.182255   -0.005957
      6          6           0       -0.178550    0.477524   -0.027218
      7          6           0       -0.283700    1.842598   -0.025662
      8          8           0        0.668979    2.589158   -0.004844
      9          8           0       -1.489604    2.467800   -0.047682
     10          8           0        2.236370    0.404046    0.017851
     11          1           0       -2.320791   -1.873833   -0.074081
     12          1           0       -0.280949   -3.266792   -0.038722
     13          1           0        1.888969   -2.113865    0.005473
     14          1           0       -1.331676    3.425906   -0.041824
     15          1           0        2.218831    1.369134    0.008250
 ---------------------------------------------------------------------
                    Distance matrix (angstroms):
                    1          2          3          4          5
     1  N    0.000000
     2  C    1.263278   0.000000
     3  C    2.286931   1.338155   0.000000
     4  C    2.635047   2.280450   1.338556   0.000000
     5  C    2.292453   2.629503   2.332857   1.346543   0.000000
     6  C    1.270686   2.203791   2.644667   2.303519   1.354971
     7  C    2.225162   3.410809   4.009883   3.590817   2.400106
     8  O    3.360752   4.464240   4.838635   4.126929   2.791679
     9  O    2.619064   3.877623   4.805032   4.684177   3.639548
    10  O    3.566250   3.993050   3.556932   2.318543   1.364264
    11  H    2.015876   1.102988   2.120263   3.294367   3.731657
    12  H    3.281415   2.132119   1.101631   2.133450   3.341923
    13  H    3.737949   3.288608   2.111249   1.102921   2.124406
    14  H    3.569606   4.832126   5.701873   5.456052   4.298718
    15  H    3.818603   4.499348   4.296336   3.160831   1.970029
                    6          7          8          9         10
     6  C    0.000000
     7  C    1.369119   0.000000
     8  O    2.275479   1.210530   0.000000
     9  O    2.383376   1.358516   2.162416   0.000000
    10  O    2.416458   2.902082   2.689227   4.259842   0.000000
    11  H    3.181238   4.238389   5.372319   4.420559   5.095577
    12  H    3.745734   5.109407   5.932593   5.860586   4.451421
    13  H    3.315268   4.513874   4.858694   5.692911   2.541794
    14  H    3.165892   1.898784   2.168902   0.971052   4.676126
    15  H    2.558058   2.547151   1.972478   3.868163   0.965295
                   11         12         13         14         15
    11  H    0.000000
    12  H    2.470332   0.000000
    13  H    4.217348   2.457588   0.000000
    14  H    5.391347   6.774677   6.408108   0.000000
    15  H    5.579586   5.267154   3.498585   4.103525   0.000000
 Stoichiometry    C6H5NO3
 Framework group  C1[X(C6H5NO3)]
 Deg. of freedom    39
 Full point group                 C1      NOp   1
 Largest Abelian subgroup         C1      NOp   1
 Largest concise Abelian subgroup C1      NOp   1
                         Standard orientation:                         
 ---------------------------------------------------------------------
 Center     Atomic      Atomic             Coordinates (Angstroms)
 Number     Number       Type             X           Y           Z
 ---------------------------------------------------------------------
      1          7           0       -0.349886   -1.349758    0.000255
      2          6           0       -1.605977   -1.484328    0.000226
      3          6           0       -2.450974   -0.446718   -0.000080
      4          6           0       -1.906732    0.776202   -0.000395
      5          6           0       -0.569253    0.932175   -0.000770
      6          6           0        0.181747   -0.195631   -0.000133
      7          6           0        1.550862   -0.192822   -0.000280
      8          8           0        2.220005    0.815954   -0.001324
      9          8           0        2.269174   -1.345902    0.000605
     10          8           0       -0.081860    2.206406    0.000046
     11          1           0       -1.993433   -2.517024    0.000597
     12          1           0       -3.542849   -0.593005    0.000156
     13          1           0       -2.564554    1.661474   -0.000358
     14          1           0        3.211851   -1.112873    0.000095
     15          1           0        0.881596    2.264803    0.011709
 ---------------------------------------------------------------------
 Rotational constants (GHZ):      2.4494088      1.3398749      0.8661013
 Standard basis: 6-31+G(d,p) (6D, 7F)
 There are   215 symmetry adapted cartesian basis functions of A   symmetry.
 There are   215 symmetry adapted basis functions of A   symmetry.
   215 basis functions,   355 primitive gaussians,   215 cartesian basis functions
    36 alpha electrons       36 beta electrons
       nuclear repulsion energy       520.7112767044 Hartrees.
 NAtoms=   15 NActive=   15 NUniq=   15 SFac= 1.00D+00 NAtFMM=   60 NAOKFM=F Big=F
 Integral buffers will be    131072 words long.
 Raffenetti 2 integral format.
 Two-electron integral symmetry is turned on.
 One-electron integrals computed using PRISM.
 NBasis=   215 RedAO= T EigKep=  3.82D-06  NBF=   215
 NBsUse=   215 1.00D-06 EigRej= -1.00D+00 NBFU=   215
 ExpMin= 4.38D-02 ExpMax= 5.48D+03 ExpMxC= 8.25D+02 IAcc=2 IRadAn=         4 AccDes= 0.00D+00
 Harris functional with IExCor=  402 and IRadAn=       4 diagonalized for initial guess.
 HarFok:  IExCor=  402 AccDes= 0.00D+00 IRadAn=         4 IDoV= 1 UseB2=F ITyADJ=14
 ICtDFT=  3500011 ScaDFX=  1.000000  1.000000  1.000000  1.000000
 FoFCou: FMM=F IPFlag=           0 FMFlag=      100000 FMFlg1=           0
         NFxFlg=           0 DoJE=T BraDBF=F KetDBF=T FulRan=T
         wScrn=  0.000000 ICntrl=     500 IOpCl=  0 I1Cent=   200000004 NGrid=           0
         NMat0=    1 NMatS0=      1 NMatT0=    0 NMatD0=    1 NMtDS0=    0 NMtDT0=    0
 Petite list used in FoFCou.
 Keep R1 ints in memory in canonical form, NReq=274797245.
 Requested convergence on RMS density matrix=1.00D-08 within 128 cycles.
 Requested convergence on MAX density matrix=1.00D-06.
 Requested convergence on             energy=1.00D-06.
 No special actions if energy rises.
 SCF Done:  E(RB3LYP) =  -512.077857064     A.U. after   15 cycles
            NFock= 15  Conv=0.57D-08     -V/T= 2.0065

 **********************************************************************

            Population analysis using the SCF density.

 **********************************************************************

 Orbital symmetries:
       Occupied  (A) (A) (A) (A) (A) (A) (A) (A) (A) (A) (A) (A)
                 (A) (A) (A) (A) (A) (A) (A) (A) (A) (A) (A) (A)
                 (A) (A) (A) (A) (A) (A) (A) (A) (A) (A) (A) (A)
       Virtual   (A) (A) (A) (A) (A) (A) (A) (A) (A) (A) (A) (A)
                 (A) (A) (A) (A) (A) (A) (A) (A) (A) (A) (A) (A)
                 (A) (A) (A) (A) (A) (A) (A) (A) (A) (A) (A) (A)
                 (A) (A) (A) (A) (A) (A) (A) (A) (A) (A) (A) (A)
                 (A) (A) (A) (A) (A) (A) (A) (A) (A) (A) (A) (A)
                 (A) (A) (A) (A) (A) (A) (A) (A) (A) (A) (A) (A)
                 (A) (A) (A) (A) (A) (A) (A) (A) (A) (A) (A) (A)
                 (A) (A) (A) (A) (A) (A) (A) (A) (A) (A) (A) (A)
                 (A) (A) (A) (A) (A) (A) (A) (A) (A) (A) (A) (A)
                 (A) (A) (A) (A) (A) (A) (A) (A) (A) (A) (A) (A)
                 (A) (A) (A) (A) (A) (A) (A) (A) (A) (A) (A) (A)
                 (A) (A) (A) (A) (A) (A) (A) (A) (A) (A) (A) (A)
                 (A) (A) (A) (A) (A) (A) (A) (A) (A) (A) (A) (A)
                 (A) (A) (A) (A) (A) (A) (A) (A) (A) (A) (A) (A)
                 (A) (A) (A) (A) (A) (A) (A) (A) (A) (A) (A)
 The electronic state is 1-A.
 Alpha  occ. eigenvalues --  -19.20265 -19.19850 -19.15932 -14.34637 -10.33156
 Alpha  occ. eigenvalues --  -10.28220 -10.23983 -10.22844 -10.21984 -10.21842
 Alpha  occ. eigenvalues --   -1.13047  -1.08144  -1.02682  -1.01178  -0.85024
 Alpha  occ. eigenvalues --   -0.82152  -0.71989  -0.66667  -0.64186  -0.57834
 Alpha  occ. eigenvalues --   -0.57063  -0.52322  -0.50396  -0.49455  -0.48974
 Alpha  occ. eigenvalues --   -0.44046  -0.43093  -0.42236  -0.40551  -0.39958
 Alpha  occ. eigenvalues --   -0.39573  -0.33406  -0.31790  -0.30507  -0.27073
 Alpha  occ. eigenvalues --   -0.27052
 Alpha virt. eigenvalues --   -0.07881  -0.02631  -0.00446   0.00412   0.02047
 Alpha virt. eigenvalues --    0.02788   0.04026   0.04403   0.04729   0.05217
 Alpha virt. eigenvalues --    0.07463   0.07850   0.08354   0.08855   0.09965
 Alpha virt. eigenvalues --    0.11800   0.12473   0.12970   0.13513   0.14532
 Alpha virt. eigenvalues --    0.14578   0.15058   0.16393   0.17396   0.18293
 Alpha virt. eigenvalues --    0.18949   0.19031   0.19910   0.20787   0.21425
 Alpha virt. eigenvalues --    0.22636   0.23283   0.23911   0.24562   0.24850
 Alpha virt. eigenvalues --    0.25652   0.26164   0.26988   0.27869   0.28802
 Alpha virt. eigenvalues --    0.29116   0.29408   0.30627   0.31225   0.32750
 Alpha virt. eigenvalues --    0.33934   0.34844   0.35277   0.36119   0.37686
 Alpha virt. eigenvalues --    0.38114   0.40726   0.42049   0.44323   0.47007
 Alpha virt. eigenvalues --    0.48726   0.54142   0.64150   0.64399   0.65044
 Alpha virt. eigenvalues --    0.67444   0.68289   0.70414   0.71277   0.71936
 Alpha virt. eigenvalues --    0.74017   0.75317   0.76469   0.80512   0.83270
 Alpha virt. eigenvalues --    0.85896   0.88430   0.89107   0.92631   0.94563
 Alpha virt. eigenvalues --    0.98191   1.00910   1.02260   1.04001   1.07705
 Alpha virt. eigenvalues --    1.08235   1.10409   1.11097   1.13303   1.15244
 Alpha virt. eigenvalues --    1.16829   1.17518   1.19020   1.20897   1.23021
 Alpha virt. eigenvalues --    1.24334   1.24709   1.28792   1.28858   1.30399
 Alpha virt. eigenvalues --    1.31495   1.32479   1.32979   1.37275   1.38328
 Alpha virt. eigenvalues --    1.39608   1.41943   1.43255   1.43894   1.46933
 Alpha virt. eigenvalues --    1.48564   1.57378   1.58634   1.59891   1.66976
 Alpha virt. eigenvalues --    1.69817   1.75678   1.75903   1.81161   1.82855
 Alpha virt. eigenvalues --    1.84487   1.86434   1.90212   1.91453   1.92416
 Alpha virt. eigenvalues --    1.95006   1.96257   2.00514   2.02797   2.02835
 Alpha virt. eigenvalues --    2.08774   2.10670   2.16969   2.17003   2.25545
 Alpha virt. eigenvalues --    2.28806   2.29066   2.31972   2.33888   2.35306
 Alpha virt. eigenvalues --    2.37572   2.37985   2.43973   2.45929   2.49009
 Alpha virt. eigenvalues --    2.50851   2.53213   2.54421   2.54649   2.56082
 Alpha virt. eigenvalues --    2.57269   2.63809   2.64483   2.66547   2.68128
 Alpha virt. eigenvalues --    2.76389   2.77473   2.78947   2.85736   2.86046
 Alpha virt. eigenvalues --    2.93494   2.99183   3.05070   3.14162   3.15079
 Alpha virt. eigenvalues --    3.20782   3.21800   3.30889   3.40580   3.42691
 Alpha virt. eigenvalues --    3.45892   3.56822   3.59754   3.92879   4.18516
 Alpha virt. eigenvalues --    4.27789   4.33130   4.39244   4.44520   4.50900
 Alpha virt. eigenvalues --    4.60844   4.73305   4.87255   4.93933
          Condensed to atoms (all electrons):
               1          2          3          4          5          6
     1  N    7.115411  -0.326203   0.435430  -0.256187   0.471040   0.197769
     2  C   -0.326203   7.096706  -0.889891   0.276872  -0.657098  -0.145528
     3  C    0.435430  -0.889891   6.761127  -1.767123   2.897071  -1.524729
     4  C   -0.256187   0.276872  -1.767123  11.323815  -6.327523   3.039821
     5  C    0.471040  -0.657098   2.897071  -6.327523  17.968840  -8.597951
     6  C    0.197769  -0.145528  -1.524729   3.039821  -8.597951  14.555439
     7  C   -0.344930   0.385081  -0.174440  -0.249458  -0.293366  -1.140539
     8  O    0.021511  -0.039830   0.028864  -0.010511   0.236519  -0.400615
     9  O    0.027933  -0.055708   0.022322  -0.004217   0.150547  -0.374767
    10  O    0.008369  -0.024543   0.040164  -0.509492   0.333121   0.133912
    11  H   -0.124363   0.494991  -0.169960   0.047846  -0.059371   0.045207
    12  H    0.002525   0.064028   0.229495   0.050926  -0.012774  -0.017742
    13  H    0.003086  -0.029512   0.060989   0.145319   0.149575  -0.017038
    14  H    0.005791   0.008433  -0.003645   0.010240  -0.050731   0.060946
    15  H   -0.000461   0.003112  -0.011915   0.137236  -0.031720  -0.085639
               7          8          9         10         11         12
     1  N   -0.344930   0.021511   0.027933   0.008369  -0.124363   0.002525
     2  C    0.385081  -0.039830  -0.055708  -0.024543   0.494991   0.064028
     3  C   -0.174440   0.028864   0.022322   0.040164  -0.169960   0.229495
     4  C   -0.249458  -0.010511  -0.004217  -0.509492   0.047846   0.050926
     5  C   -0.293366   0.236519   0.150547   0.333121  -0.059371  -0.012774
     6  C   -1.140539  -0.400615  -0.374767   0.133912   0.045207  -0.017742
     7  C    6.516548   0.392443   0.350034  -0.057235   0.029352  -0.001176
     8  O    0.392443   8.548534  -0.197010  -0.041538   0.000004  -0.000011
     9  O    0.350034  -0.197010   8.372972  -0.002223  -0.000559  -0.000019
    10  O   -0.057235  -0.041538  -0.002223   8.516419   0.000275  -0.000740
    11  H    0.029352   0.000004  -0.000559   0.000275   0.618311  -0.002670
    12  H   -0.001176  -0.000011  -0.000019  -0.000740  -0.002670   0.551337
    13  H    0.002751   0.000116   0.000023  -0.009827  -0.000180  -0.006532
    14  H    0.008754   0.000865   0.182413   0.000142  -0.000003  -0.000000
    15  H    0.000642   0.039800   0.002320   0.196351  -0.000000   0.000004
              13         14         15
     1  N    0.003086   0.005791  -0.000461
     2  C   -0.029512   0.008433   0.003112
     3  C    0.060989  -0.003645  -0.011915
     4  C    0.145319   0.010240   0.137236
     5  C    0.149575  -0.050731  -0.031720
     6  C   -0.017038   0.060946  -0.085639
     7  C    0.002751   0.008754   0.000642
     8  O    0.000116   0.000865   0.039800
     9  O    0.000023   0.182413   0.002320
    10  O   -0.009827   0.000142   0.196351
    11  H   -0.000180  -0.000003  -0.000000
    12  H   -0.006532  -0.000000   0.000004
    13  H    0.548868  -0.000000   0.000082
    14  H   -0.000000   0.392778   0.000013
    15  H    0.000082   0.000013   0.346437
 Mulliken charges:
               1
     1  N   -0.236721
     2  C   -0.160910
     3  C    0.066241
     4  C    0.092436
     5  C   -0.176178
     6  C    0.271455
     7  C    0.575541
     8  O   -0.579141
     9  O   -0.474062
    10  O   -0.583154
    11  H    0.121119
    12  H    0.143349
    13  H    0.152282
    14  H    0.384003
    15  H    0.403740
 Sum of Mulliken charges =  -0.00000
 Mulliken charges with hydrogens summed into heavy atoms:
               1
     1  N   -0.236721
     2  C   -0.039791
     3  C    0.209590
     4  C    0.244718
     5  C   -0.176178
     6  C    0.271455
     7  C    0.575541
     8  O   -0.579141
     9  O   -0.090059
    10  O   -0.179415
 Electronic spatial extent (au):  <R**2>=           1253.5471
 Charge=             -0.0000 electrons
 Dipole moment (field-independent basis, Debye):
    X=             -1.8716    Y=             -0.1127    Z=              0.0189  Tot=              1.8751
 Quadrupole moment (field-independent basis, Debye-Ang):
   XX=            -45.6435   YY=            -62.1251   ZZ=            -57.2983
   XY=              0.0034   XZ=              0.0272   YZ=              0.0552
 Traceless Quadrupole moment (field-independent basis, Debye-Ang):
   XX=              9.3788   YY=             -7.1028   ZZ=             -2.2760
   XY=              0.0034   XZ=              0.0272   YZ=              0.0552
 Octapole moment (field-independent basis, Debye-Ang**2):
  XXX=             14.0949  YYY=              6.0663  ZZZ=              0.0055  XYY=              0.7148
  XXY=            -13.5024  XXZ=              0.0235  XZZ=              8.9102  YZZ=              1.7307
  YYZ=              0.1213  XYZ=              0.0769
 Hexadecapole moment (field-independent basis, Debye-Ang**3):
 XXXX=           -812.6353 YYYY=           -571.8352 ZZZZ=            -57.9196 XXXY=            -64.7018
 XXXZ=              0.0296 YYYX=             30.9146 YYYZ=              0.3146 ZZZX=              0.0059
 ZZZY=              0.0277 XXYY=           -237.8811 XXZZ=           -183.4080 YYZZ=           -106.7166
 XXYZ=              0.0667 YYXZ=              0.1473 ZZXY=             -1.9770
 N-N= 5.207112767044D+02 E-N=-2.238168257245D+03  KE= 5.087664390883D+02
 Calling FoFJK, ICntrl=      2127 FMM=F ISym2X=0 I1Cent= 0 IOpClX= 0 NMat=1 NMatS=1 NMatT=0.
 ***** Axes restored to original set *****
 -------------------------------------------------------------------
 Center     Atomic                   Forces (Hartrees/Bohr)
 Number     Number              X              Y              Z
 -------------------------------------------------------------------
      1        7          -0.081943761    0.021912817   -0.001522547
      2        6          -0.078697074   -0.050951528   -0.001629397
      3        6           0.009497997   -0.065410276    0.000055330
      4        6           0.063181377   -0.047438401    0.001200143
      5        6           0.066461686    0.036791921    0.001042450
      6        6           0.011118719   -0.002953576    0.000244801
      7        6          -0.020344799    0.107394537   -0.000129127
      8        8           0.051935474    0.018134314    0.000924426
      9        8          -0.017133689   -0.025315670   -0.000375352
     10        8           0.002443428   -0.019786202   -0.000003103
     11        1           0.006259018    0.002250964    0.000124545
     12        1           0.000968725    0.010301063    0.000041043
     13        1          -0.006307170    0.009631795   -0.000108012
     14        1           0.006475019   -0.003577979    0.000115741
     15        1          -0.013914950    0.009016222    0.000019059
 -------------------------------------------------------------------
 Cartesian Forces:  Max     0.107394537 RMS     0.033141467

 GradGradGradGradGradGradGradGradGradGradGradGradGradGradGradGradGradGrad
 Berny optimization.
 FormGI is forming the generalized inverse of G from B-inverse, IUseBI=4.
 Internal  Forces:  Max     0.104851913 RMS     0.028454343
 Search for a local minimum.
 Step number   1 out of a maximum of   74
 All quantities printed in internal units (Hartrees-Bohrs-Radians)
 Mixed Optimization -- RFO/linear search
 Second derivative matrix not updated -- first step.
 ITU=  0
     Eigenvalues ---    0.02165   0.02241   0.02422   0.02497   0.02637
     Eigenvalues ---    0.02757   0.02779   0.02847   0.02904   0.02926
     Eigenvalues ---    0.03096   0.03322   0.16000   0.16000   0.16000
     Eigenvalues ---    0.16000   0.16000   0.22086   0.23330   0.24910
     Eigenvalues ---    0.25000   0.25000   0.25000   0.25000   0.33354
     Eigenvalues ---    0.33361   0.33502   0.49891   0.51146   0.52095
     Eigenvalues ---    0.52913   0.53163   0.53249   0.54350   0.55767
     Eigenvalues ---    0.57113   0.72886   0.76351   0.99705
 RFO step:  Lambda=-8.11152674D-02 EMin= 2.16450120D-02
 Linear search not attempted -- first point.
 Maximum step size (   0.300) exceeded in Quadratic search.
    -- Step size scaled by   0.789
 Iteration  1 RMS(Cart)=  0.06617675 RMS(Int)=  0.00164229
 Iteration  2 RMS(Cart)=  0.00188623 RMS(Int)=  0.00004347
 Iteration  3 RMS(Cart)=  0.00000309 RMS(Int)=  0.00004344
 Iteration  4 RMS(Cart)=  0.00000000 RMS(Int)=  0.00004344
 Variable       Old X    -DE/DX   Delta X   Delta X   Delta X     New X
                                 (Linear)    (Quad)   (Total)
    R1        2.38725   0.08239   0.00000   0.07774   0.07781   2.46506
    R2        2.40125   0.10485   0.00000   0.10095   0.10101   2.50226
    R3        2.52875   0.07510   0.00000   0.09058   0.09059   2.61934
    R4        2.08435  -0.00662   0.00000  -0.01261  -0.01261   2.07174
    R5        2.52950   0.06088   0.00000   0.06985   0.06979   2.59929
    R6        2.08178  -0.01034   0.00000  -0.01961  -0.01961   2.06218
    R7        2.54460   0.05930   0.00000   0.06960   0.06953   2.61412
    R8        2.08422  -0.01046   0.00000  -0.01991  -0.01991   2.06431
    R9        2.56052   0.06363   0.00000   0.08082   0.08081   2.64134
   R10        2.57809  -0.01498   0.00000  -0.01964  -0.01964   2.55844
   R11        2.58726   0.09474   0.00000   0.12617   0.12617   2.71343
   R12        2.28757   0.05207   0.00000   0.03811   0.03811   2.32568
   R13        2.56722  -0.00383   0.00000  -0.00493  -0.00493   2.56229
   R14        1.83502  -0.00248   0.00000  -0.00319  -0.00319   1.83183
   R15        1.82414   0.00927   0.00000   0.01171   0.01171   1.83585
    A1        2.10919  -0.00782   0.00000  -0.00059  -0.00041   2.10878
    A2        2.14751  -0.00813   0.00000  -0.01432  -0.01425   2.13326
    A3        2.03646   0.00471   0.00000   0.00925   0.00922   2.04568
    A4        2.09922   0.00343   0.00000   0.00507   0.00503   2.10424
    A5        2.03943   0.01118   0.00000   0.02178   0.02171   2.06115
    A6        2.12105  -0.00517   0.00000  -0.00950  -0.00947   2.11158
    A7        2.12270  -0.00601   0.00000  -0.01228  -0.01224   2.11046
    A8        2.10561   0.00030   0.00000  -0.01467  -0.01482   2.09078
    A9        2.08382   0.00486   0.00000   0.02373   0.02381   2.10763
   A10        2.09376  -0.00516   0.00000  -0.00906  -0.00898   2.08477
   A11        2.04217   0.01041   0.00000   0.01667   0.01657   2.05874
   A12        2.05222   0.00115   0.00000   0.00680   0.00685   2.05907
   A13        2.18880  -0.01155   0.00000  -0.02347  -0.02342   2.16538
   A14        2.12246  -0.00594   0.00000  -0.00886  -0.00881   2.11365
   A15        2.00451   0.02707   0.00000   0.06187   0.06185   2.06636
   A16        2.15621  -0.02113   0.00000  -0.05301  -0.05304   2.10318
   A17        2.15853  -0.00520   0.00000  -0.01240  -0.01240   2.14613
   A18        2.12587  -0.03022   0.00000  -0.07202  -0.07202   2.05384
   A19        1.99879   0.03543   0.00000   0.08443   0.08443   2.08321
   A20        1.88558  -0.01280   0.00000  -0.04188  -0.04188   1.84370
   A21        1.99664  -0.02507   0.00000  -0.08204  -0.08204   1.91460
    D1       -0.00011  -0.00000   0.00000  -0.00005  -0.00005  -0.00016
    D2       -3.14157   0.00000   0.00000   0.00000   0.00000  -3.14157
    D3       -0.00016  -0.00001   0.00000  -0.00005  -0.00005  -0.00020
    D4       -3.14141  -0.00007   0.00000  -0.00051  -0.00053   3.14125
    D5        0.00003   0.00001   0.00000   0.00009   0.00009   0.00012
    D6       -3.14132   0.00000   0.00000   0.00001   0.00001  -3.14131
    D7        3.14148   0.00000   0.00000   0.00003   0.00003   3.14152
    D8        0.00013  -0.00001   0.00000  -0.00004  -0.00004   0.00009
    D9        0.00032  -0.00000   0.00000  -0.00003  -0.00003   0.00029
   D10       -3.14129  -0.00003   0.00000  -0.00021  -0.00022  -3.14150
   D11       -3.14151   0.00001   0.00000   0.00004   0.00005  -3.14147
   D12        0.00006  -0.00002   0.00000  -0.00013  -0.00014  -0.00007
   D13       -0.00056  -0.00001   0.00000  -0.00006  -0.00006  -0.00062
   D14       -3.14066  -0.00011   0.00000  -0.00084  -0.00085  -3.14151
   D15        3.14104   0.00001   0.00000   0.00012   0.00012   3.14116
   D16        0.00094  -0.00009   0.00000  -0.00066  -0.00067   0.00027
   D17        0.00048   0.00002   0.00000   0.00011   0.00011   0.00059
   D18       -3.14148   0.00009   0.00000   0.00064   0.00063  -3.14086
   D19        3.14046   0.00014   0.00000   0.00098   0.00098   3.14143
   D20       -0.00151   0.00021   0.00000   0.00151   0.00149  -0.00001
   D21        3.12797   0.00043   0.00000   0.00323   0.00322   3.13119
   D22       -0.01199   0.00030   0.00000   0.00234   0.00235  -0.00965
   D23        3.14091   0.00016   0.00000   0.00118   0.00118  -3.14109
   D24       -0.00055   0.00008   0.00000   0.00060   0.00060   0.00006
   D25       -0.00033   0.00009   0.00000   0.00070   0.00069   0.00036
   D26        3.14139   0.00002   0.00000   0.00011   0.00011   3.14151
   D27        3.14136   0.00004   0.00000   0.00028   0.00029  -3.14154
   D28       -0.00011  -0.00003   0.00000  -0.00025  -0.00026  -0.00038
         Item               Value     Threshold  Converged?
 Maximum Force            0.104852     0.000450     NO 
 RMS     Force            0.028454     0.000300     NO 
 Maximum Displacement     0.228606     0.001800     NO 
 RMS     Displacement     0.066288     0.001200     NO 
 Predicted change in Energy=-4.240141D-02
 GradGradGradGradGradGradGradGradGradGradGradGradGradGradGradGradGradGrad

                          Input orientation:                          
 ---------------------------------------------------------------------
 Center     Atomic      Atomic             Coordinates (Angstroms)
 Number     Number       Type             X           Y           Z
 ---------------------------------------------------------------------
      1          7           0       -1.355426   -0.165459   -0.050886
      2          6           0       -1.375374   -1.469756   -0.054590
      3          6           0       -0.214462   -2.226827   -0.034881
      4          6           0        0.990656   -1.564209   -0.010579
      5          6           0        1.014582   -0.181089   -0.006116
      6          6           0       -0.208290    0.495511   -0.027627
      7          6           0       -0.247223    1.930866   -0.025131
      8          8           0        0.766635    2.628216   -0.004837
      9          8           0       -1.464412    2.527913   -0.046817
     10          8           0        2.220848    0.433164    0.017971
     11          1           0       -2.357760   -1.956009   -0.074328
     12          1           0       -0.254793   -3.317331   -0.038683
     13          1           0        1.932303   -2.117700    0.005482
     14          1           0       -1.288014    3.481078   -0.041382
     15          1           0        2.097858    1.396795    0.008985
 ---------------------------------------------------------------------
                    Distance matrix (angstroms):
                    1          2          3          4          5
     1  N    0.000000
     2  C    1.304455   0.000000
     3  C    2.356118   1.386095   0.000000
     4  C    2.731708   2.368323   1.375486   0.000000
     5  C    2.370482   2.715677   2.386717   1.383334   0.000000
     6  C    1.324138   2.285845   2.722355   2.383319   1.397736
     7  C    2.371361   3.582991   4.157833   3.707843   2.460258
     8  O    3.508544   4.624290   4.953271   4.198410   2.820227
     9  O    2.695579   3.998669   4.916306   4.772226   3.672297
    10  O    3.626682   4.069298   3.606810   2.345994   1.353871
    11  H    2.052143   1.096318   2.160699   3.371862   3.811519
    12  H    3.338539   2.160900   1.091257   2.150667   3.383546
    13  H    3.824080   3.371078   2.149916   1.092387   2.143084
    14  H    3.647172   4.951623   5.807989   5.536082   4.326045
    15  H    3.790698   4.503832   4.298765   3.161301   1.914010
                    6          7          8          9         10
     6  C    0.000000
     7  C    1.435884   0.000000
     8  O    2.345086   1.230699   0.000000
     9  O    2.389324   1.355907   2.233695   0.000000
    10  O    2.430366   2.887273   2.633156   4.239494   0.000000
    11  H    3.260728   4.423186   5.548134   4.572131   5.165299
    12  H    3.813142   5.248220   6.032744   5.969098   4.494243
    13  H    3.378181   4.598060   4.886983   5.755183   2.567162
    14  H    3.174839   1.867262   2.224925   0.969365   4.648162
    15  H    2.476282   2.405369   1.813489   3.737955   0.971490
                   11         12         13         14         15
    11  H    0.000000
    12  H    2.505382   0.000000
    13  H    4.293851   2.494886   0.000000
    14  H    5.541422   6.876476   6.459021   0.000000
    15  H    5.576806   5.268797   3.518394   3.976292   0.000000
 Stoichiometry    C6H5NO3
 Framework group  C1[X(C6H5NO3)]
 Deg. of freedom    39
 Full point group                 C1      NOp   1
 Largest Abelian subgroup         C1      NOp   1
 Largest concise Abelian subgroup C1      NOp   1
                         Standard orientation:                         
 ---------------------------------------------------------------------
 Center     Atomic      Atomic             Coordinates (Angstroms)
 Number     Number       Type             X           Y           Z
 ---------------------------------------------------------------------
      1          7           0       -0.427544   -1.410038   -0.000138
      2          6           0       -1.729969   -1.482776    0.000116
      3          6           0       -2.533371   -0.353260    0.000319
      4          6           0       -1.920032    0.877909    0.000104
      5          6           0       -0.539009    0.957821   -0.000649
      6          6           0        0.186494   -0.236880   -0.000397
      7          6           0        1.622250   -0.217689   -0.000234
      8          8           0        2.278028    0.823740    0.000067
      9          8           0        2.268036   -1.409933    0.000111
     10          8           0        0.025959    2.188178   -0.000741
     11          1           0       -2.176095   -2.484217    0.000346
     12          1           0       -3.621355   -0.437717    0.000794
     13          1           0       -2.511154    1.796541    0.000338
     14          1           0        3.213288   -1.195067    0.000221
     15          1           0        0.993762    2.104106    0.008219
 ---------------------------------------------------------------------
 Rotational constants (GHZ):      2.3836280      1.2757750      0.8310027
 Standard basis: 6-31+G(d,p) (6D, 7F)
 There are   215 symmetry adapted cartesian basis functions of A   symmetry.
 There are   215 symmetry adapted basis functions of A   symmetry.
   215 basis functions,   355 primitive gaussians,   215 cartesian basis functions
    36 alpha electrons       36 beta electrons
       nuclear repulsion energy       510.2414700581 Hartrees.
 NAtoms=   15 NActive=   15 NUniq=   15 SFac= 1.00D+00 NAtFMM=   60 NAOKFM=F Big=F
 Integral buffers will be    131072 words long.
 Raffenetti 2 integral format.
 Two-electron integral symmetry is turned on.
 One-electron integrals computed using PRISM.
 NBasis=   215 RedAO= T EigKep=  5.17D-06  NBF=   215
 NBsUse=   215 1.00D-06 EigRej= -1.00D+00 NBFU=   215
 Initial guess from the checkpoint file:  "b3lyp3HPAgd3.chk"
 B after Tr=     0.000000    0.000000    0.000000
         Rot=    0.999871   -0.000016    0.000000    0.016058 Ang=  -1.84 deg.
 ExpMin= 4.38D-02 ExpMax= 5.48D+03 ExpMxC= 8.25D+02 IAcc=2 IRadAn=         4 AccDes= 0.00D+00
 Harris functional with IExCor=  402 and IRadAn=       4 diagonalized for initial guess.
 HarFok:  IExCor=  402 AccDes= 0.00D+00 IRadAn=         4 IDoV= 1 UseB2=F ITyADJ=14
 ICtDFT=  3500011 ScaDFX=  1.000000  1.000000  1.000000  1.000000
 FoFCou: FMM=F IPFlag=           0 FMFlag=      100000 FMFlg1=           0
         NFxFlg=           0 DoJE=T BraDBF=F KetDBF=T FulRan=T
         wScrn=  0.000000 ICntrl=     500 IOpCl=  0 I1Cent=   200000004 NGrid=           0
         NMat0=    1 NMatS0=      1 NMatT0=    0 NMatD0=    1 NMtDS0=    0 NMtDT0=    0
 Petite list used in FoFCou.
 Keep R1 ints in memory in canonical form, NReq=274797245.
 Requested convergence on RMS density matrix=1.00D-08 within 128 cycles.
 Requested convergence on MAX density matrix=1.00D-06.
 Requested convergence on             energy=1.00D-06.
 No special actions if energy rises.
 SCF Done:  E(RB3LYP) =  -512.117480348     A.U. after   14 cycles
            NFock= 14  Conv=0.30D-08     -V/T= 2.0085
 Calling FoFJK, ICntrl=      2127 FMM=F ISym2X=0 I1Cent= 0 IOpClX= 0 NMat=1 NMatS=1 NMatT=0.
 ***** Axes restored to original set *****
 -------------------------------------------------------------------
 Center     Atomic                   Forces (Hartrees/Bohr)
 Number     Number              X              Y              Z
 -------------------------------------------------------------------
      1        7          -0.026621595    0.013579187   -0.000476313
      2        6          -0.020169012   -0.015952954   -0.000421647
      3        6           0.006616412   -0.015147463    0.000101816
      4        6           0.015679538   -0.020772716    0.000339547
      5        6           0.023591782    0.016558356    0.000346407
      6        6          -0.000726123   -0.011987593   -0.000000626
      7        6          -0.008658076    0.037252017   -0.000140967
      8        8           0.008523561    0.001750031    0.000068687
      9        8           0.005551810   -0.013258987    0.000125170
     10        8          -0.000193938   -0.014559221   -0.000175492
     11        1           0.004260274    0.003015108    0.000091614
     12        1           0.000197872    0.003741243    0.000008397
     13        1          -0.002850063    0.004374770   -0.000050963
     14        1           0.000568660    0.002413836    0.000012125
     15        1          -0.005771100    0.008994386    0.000172244
 -------------------------------------------------------------------
 Cartesian Forces:  Max     0.037252017 RMS     0.011181952

 GradGradGradGradGradGradGradGradGradGradGradGradGradGradGradGradGradGrad
 Berny optimization.
 Using GEDIIS/GDIIS optimizer.
 FormGI is forming the generalized inverse of G from B-inverse, IUseBI=4.
 Internal  Forces:  Max     0.027986843 RMS     0.007893820
 Search for a local minimum.
 Step number   2 out of a maximum of   74
 All quantities printed in internal units (Hartrees-Bohrs-Radians)
 Mixed Optimization -- RFO/linear search
 Update second derivatives using D2CorX and points    1    2
 DE= -3.96D-02 DEPred=-4.24D-02 R= 9.34D-01
 TightC=F SS=  1.41D+00  RLast= 3.00D-01 DXNew= 5.0454D-01 9.0011D-01
 Trust test= 9.34D-01 RLast= 3.00D-01 DXMaxT set to 5.05D-01
 ITU=  1  0
 Use linear search instead of GDIIS.
     Eigenvalues ---    0.02164   0.02241   0.02416   0.02497   0.02640
     Eigenvalues ---    0.02764   0.02781   0.02848   0.02904   0.02924
     Eigenvalues ---    0.03097   0.03322   0.15945   0.16000   0.16000
     Eigenvalues ---    0.16000   0.16308   0.22101   0.23227   0.24666
     Eigenvalues ---    0.24988   0.25000   0.25000   0.26657   0.33234
     Eigenvalues ---    0.33369   0.33508   0.49421   0.50384   0.52065
     Eigenvalues ---    0.52817   0.53171   0.53677   0.54141   0.56799
     Eigenvalues ---    0.57389   0.74713   0.76261   1.00671
 RFO step:  Lambda=-2.19885367D-03 EMin= 2.16449350D-02
 Quartic linear search produced a step of  0.43132.
 Iteration  1 RMS(Cart)=  0.02931892 RMS(Int)=  0.00075711
 Iteration  2 RMS(Cart)=  0.00083454 RMS(Int)=  0.00004125
 Iteration  3 RMS(Cart)=  0.00000107 RMS(Int)=  0.00004125
 Iteration  4 RMS(Cart)=  0.00000000 RMS(Int)=  0.00004125
 Variable       Old X    -DE/DX   Delta X   Delta X   Delta X     New X
                                 (Linear)    (Quad)   (Total)
    R1        2.46506   0.02264   0.03356   0.00139   0.03502   2.50008
    R2        2.50226   0.02451   0.04357  -0.00583   0.03779   2.54005
    R3        2.61934   0.02168   0.03908   0.00552   0.04461   2.66395
    R4        2.07174  -0.00516  -0.00544  -0.01518  -0.02061   2.05113
    R5        2.59929   0.01192   0.03010  -0.00933   0.02071   2.62000
    R6        2.06218  -0.00375  -0.00846  -0.00532  -0.01378   2.04840
    R7        2.61412   0.01803   0.02999   0.00748   0.03740   2.65152
    R8        2.06431  -0.00468  -0.00859  -0.00918  -0.01777   2.04654
    R9        2.64134   0.01895   0.03486   0.00742   0.04227   2.68361
   R10        2.55844  -0.00784  -0.00847  -0.01101  -0.01948   2.53897
   R11        2.71343   0.02799   0.05442   0.01086   0.06528   2.77871
   R12        2.32568   0.00802   0.01644  -0.00852   0.00792   2.33360
   R13        2.56229  -0.01028  -0.00213  -0.02489  -0.02701   2.53528
   R14        1.83183   0.00248  -0.00138   0.00834   0.00697   1.83880
   R15        1.83585   0.00965   0.00505   0.01909   0.02413   1.85998
    A1        2.10878  -0.00787  -0.00017  -0.03431  -0.03431   2.07447
    A2        2.13326   0.00067  -0.00614   0.01494   0.00887   2.14213
    A3        2.04568  -0.00118   0.00398  -0.01611  -0.01217   2.03351
    A4        2.10424   0.00051   0.00217   0.00117   0.00330   2.10755
    A5        2.06115   0.00446   0.00937   0.01084   0.02015   2.08130
    A6        2.11158  -0.00217  -0.00408  -0.00570  -0.00976   2.10183
    A7        2.11046  -0.00229  -0.00528  -0.00514  -0.01039   2.10006
    A8        2.09078  -0.00202  -0.00639  -0.01433  -0.02087   2.06992
    A9        2.10763   0.00341   0.01027   0.01910   0.02944   2.13706
   A10        2.08477  -0.00139  -0.00387  -0.00476  -0.00857   2.07621
   A11        2.05874   0.00122   0.00715  -0.00602   0.00103   2.05978
   A12        2.05907   0.00071   0.00295   0.00219   0.00519   2.06425
   A13        2.16538  -0.00192  -0.01010   0.00383  -0.00622   2.15915
   A14        2.11365   0.00356  -0.00380   0.02889   0.02512   2.13877
   A15        2.06636   0.00244   0.02668  -0.02194   0.00471   2.07107
   A16        2.10318  -0.00599  -0.02288  -0.00694  -0.02984   2.07334
   A17        2.14613   0.00068  -0.00535   0.01062   0.00527   2.15140
   A18        2.05384  -0.00924  -0.03107  -0.01303  -0.04410   2.00975
   A19        2.08321   0.00856   0.03642   0.00241   0.03883   2.12204
   A20        1.84370  -0.00023  -0.01806   0.02158   0.00352   1.84722
   A21        1.91460  -0.00840  -0.03539  -0.02795  -0.06333   1.85127
    D1       -0.00016  -0.00001  -0.00002  -0.00034  -0.00037  -0.00053
    D2       -3.14157  -0.00000   0.00000  -0.00008  -0.00008   3.14153
    D3       -0.00020  -0.00001  -0.00002  -0.00034  -0.00034  -0.00055
    D4        3.14125  -0.00006  -0.00023  -0.00247  -0.00275   3.13850
    D5        0.00012   0.00001   0.00004   0.00060   0.00064   0.00076
    D6       -3.14131   0.00000   0.00000   0.00018   0.00019  -3.14112
    D7        3.14152   0.00001   0.00001   0.00033   0.00034  -3.14132
    D8        0.00009  -0.00000  -0.00002  -0.00009  -0.00011  -0.00002
    D9        0.00029  -0.00000  -0.00001  -0.00019  -0.00019   0.00009
   D10       -3.14150  -0.00002  -0.00009  -0.00096  -0.00106   3.14062
   D11       -3.14147   0.00001   0.00002   0.00023   0.00026  -3.14121
   D12       -0.00007  -0.00001  -0.00006  -0.00054  -0.00061  -0.00068
   D13       -0.00062  -0.00001  -0.00003  -0.00043  -0.00045  -0.00108
   D14       -3.14151  -0.00008  -0.00037  -0.00336  -0.00374   3.13793
   D15        3.14116   0.00001   0.00005   0.00033   0.00038   3.14154
   D16        0.00027  -0.00006  -0.00029  -0.00260  -0.00291  -0.00264
   D17        0.00059   0.00002   0.00005   0.00072   0.00076   0.00136
   D18       -3.14086   0.00007   0.00027   0.00290   0.00317  -3.13769
   D19        3.14143   0.00009   0.00042   0.00385   0.00425  -3.13750
   D20       -0.00001   0.00015   0.00064   0.00603   0.00666   0.00664
   D21        3.13119   0.00035   0.00139   0.01808   0.01947  -3.13252
   D22       -0.00965   0.00028   0.00101   0.01496   0.01597   0.00633
   D23       -3.14109   0.00011   0.00051   0.00492   0.00541  -3.13568
   D24        0.00006   0.00008   0.00026   0.00373   0.00398   0.00404
   D25        0.00036   0.00006   0.00030   0.00280   0.00311   0.00347
   D26        3.14151   0.00003   0.00005   0.00161   0.00167  -3.14000
   D27       -3.14154   0.00002   0.00012   0.00077   0.00091  -3.14063
   D28       -0.00038  -0.00001  -0.00011  -0.00038  -0.00050  -0.00088
         Item               Value     Threshold  Converged?
 Maximum Force            0.027987     0.000450     NO 
 RMS     Force            0.007894     0.000300     NO 
 Maximum Displacement     0.150222     0.001800     NO 
 RMS     Displacement     0.029464     0.001200     NO 
 Predicted change in Energy=-3.932657D-03
 GradGradGradGradGradGradGradGradGradGradGradGradGradGradGradGradGradGrad

                          Input orientation:                          
 ---------------------------------------------------------------------
 Center     Atomic      Atomic             Coordinates (Angstroms)
 Number     Number       Type             X           Y           Z
 ---------------------------------------------------------------------
      1          7           0       -1.395186   -0.156858   -0.049125
      2          6           0       -1.394159   -1.479839   -0.052856
      3          6           0       -0.207911   -2.241273   -0.035907
      4          6           0        1.015396   -1.589162   -0.013435
      5          6           0        1.028548   -0.186110   -0.008229
      6          6           0       -0.218639    0.492746   -0.027710
      7          6           0       -0.224711    1.963164   -0.027634
      8          8           0        0.804936    2.644789   -0.014987
      9          8           0       -1.441358    2.528319   -0.044720
     10          8           0        2.217500    0.439089    0.017916
     11          1           0       -2.364924   -1.965046   -0.070324
     12          1           0       -0.250736   -3.324384   -0.040104
     13          1           0        1.957880   -2.122420    0.001166
     14          1           0       -1.287873    3.489188   -0.043353
     15          1           0        2.018364    1.402962    0.025883
 ---------------------------------------------------------------------
                    Distance matrix (angstroms):
                    1          2          3          4          5
     1  N    0.000000
     2  C    1.322987   0.000000
     3  C    2.398871   1.409700   0.000000
     4  C    2.804224   2.412356   1.386447   0.000000
     5  C    2.424256   2.746860   2.398602   1.403123   0.000000
     6  C    1.344138   2.296426   2.734052   2.420203   1.420106
     7  C    2.421769   3.636278   4.204479   3.762590   2.488055
     8  O    3.562433   4.674400   4.989980   4.239178   2.839725
     9  O    2.685577   4.008444   4.926507   4.794816   3.670135
    10  O    3.662123   4.090401   3.615226   2.357931   1.343564
    11  H    2.051923   1.085410   2.174900   3.401630   3.831987
    12  H    3.367947   2.170236   1.083965   2.148208   3.389151
    13  H    3.887032   3.413502   2.169367   1.082984   2.147799
    14  H    3.647629   4.970172   5.831342   5.576341   4.344520
    15  H    3.753796   4.467892   4.270898   3.155993   1.872445
                    6          7          8          9         10
     6  C    0.000000
     7  C    1.470431   0.000000
     8  O    2.383098   1.234887   0.000000
     9  O    2.374634   1.341612   2.249509   0.000000
    10  O    2.437157   2.879110   2.619452   4.213792   0.000000
    11  H    3.263296   4.473608   5.594789   4.587369   5.175545
    12  H    3.817285   5.287627   6.061856   5.972581   4.501032
    13  H    3.402523   4.632120   4.904674   5.760755   2.574687
    14  H    3.181536   1.859922   2.256915   0.973052   4.646988
    15  H    2.415687   2.312590   1.736724   3.638830   0.984261
                   11         12         13         14         15
    11  H    0.000000
    12  H    2.513663   0.000000
    13  H    4.326258   2.514837   0.000000
    14  H    5.559626   6.892055   6.482826   0.000000
    15  H    5.528648   5.244137   3.525988   3.910029   0.000000
 Stoichiometry    C6H5NO3
 Framework group  C1[X(C6H5NO3)]
 Deg. of freedom    39
 Full point group                 C1      NOp   1
 Largest Abelian subgroup         C1      NOp   1
 Largest concise Abelian subgroup C1      NOp   1
                         Standard orientation:                         
 ---------------------------------------------------------------------
 Center     Atomic      Atomic             Coordinates (Angstroms)
 Number     Number       Type             X           Y           Z
 ---------------------------------------------------------------------
      1          7           0       -0.434613   -1.449635   -0.001776
      2          6           0       -1.757061   -1.487358   -0.000210
      3          6           0       -2.552864   -0.323766    0.002333
      4          6           0       -1.936805    0.918291    0.002336
      5          6           0       -0.534735    0.972552   -0.000324
      6          6           0        0.180306   -0.254402   -0.001539
      7          6           0        1.650271   -0.217475    0.000706
      8          8           0        2.301486    0.831725    0.007193
      9          8           0        2.250767   -1.417190   -0.002556
     10          8           0        0.055433    2.179551   -0.004641
     11          1           0       -2.213672   -2.472052   -0.000523
     12          1           0       -3.634262   -0.398310    0.003993
     13          1           0       -2.497399    1.844891    0.003340
     14          1           0        3.206735   -1.235675    0.000346
     15          1           0        1.024729    2.008853   -0.014499
 ---------------------------------------------------------------------
 Rotational constants (GHZ):      2.3552819      1.2601169      0.8209183
 Standard basis: 6-31+G(d,p) (6D, 7F)
 There are   215 symmetry adapted cartesian basis functions of A   symmetry.
 There are   215 symmetry adapted basis functions of A   symmetry.
   215 basis functions,   355 primitive gaussians,   215 cartesian basis functions
    36 alpha electrons       36 beta electrons
       nuclear repulsion energy       506.9144951598 Hartrees.
 NAtoms=   15 NActive=   15 NUniq=   15 SFac= 1.00D+00 NAtFMM=   60 NAOKFM=F Big=F
 Integral buffers will be    131072 words long.
 Raffenetti 2 integral format.
 Two-electron integral symmetry is turned on.
 One-electron integrals computed using PRISM.
 NBasis=   215 RedAO= T EigKep=  5.88D-06  NBF=   215
 NBsUse=   215 1.00D-06 EigRej= -1.00D+00 NBFU=   215
 Initial guess from the checkpoint file:  "b3lyp3HPAgd3.chk"
 B after Tr=     0.000000    0.000000    0.000000
         Rot=    0.999992    0.000016    0.000000    0.003983 Ang=   0.46 deg.
 ExpMin= 4.38D-02 ExpMax= 5.48D+03 ExpMxC= 8.25D+02 IAcc=2 IRadAn=         4 AccDes= 0.00D+00
 Harris functional with IExCor=  402 and IRadAn=       4 diagonalized for initial guess.
 HarFok:  IExCor=  402 AccDes= 0.00D+00 IRadAn=         4 IDoV= 1 UseB2=F ITyADJ=14
 ICtDFT=  3500011 ScaDFX=  1.000000  1.000000  1.000000  1.000000
 FoFCou: FMM=F IPFlag=           0 FMFlag=      100000 FMFlg1=           0
         NFxFlg=           0 DoJE=T BraDBF=F KetDBF=T FulRan=T
         wScrn=  0.000000 ICntrl=     500 IOpCl=  0 I1Cent=   200000004 NGrid=           0
         NMat0=    1 NMatS0=      1 NMatT0=    0 NMatD0=    1 NMtDS0=    0 NMtDT0=    0
 Petite list used in FoFCou.
 Keep R1 ints in memory in canonical form, NReq=274797245.
 Requested convergence on RMS density matrix=1.00D-08 within 128 cycles.
 Requested convergence on MAX density matrix=1.00D-06.
 Requested convergence on             energy=1.00D-06.
 No special actions if energy rises.
 SCF Done:  E(RB3LYP) =  -512.122012327     A.U. after   13 cycles
            NFock= 13  Conv=0.64D-08     -V/T= 2.0091
 Calling FoFJK, ICntrl=      2127 FMM=F ISym2X=0 I1Cent= 0 IOpClX= 0 NMat=1 NMatS=1 NMatT=0.
 ***** Axes restored to original set *****
 -------------------------------------------------------------------
 Center     Atomic                   Forces (Hartrees/Bohr)
 Number     Number              X              Y              Z
 -------------------------------------------------------------------
      1        7          -0.001921180    0.002392707   -0.000028183
      2        6           0.002055913   -0.003149408    0.000006841
      3        6           0.001602797    0.002168487   -0.000009321
      4        6          -0.004535153   -0.001509529   -0.000103182
      5        6           0.000911537    0.000347345    0.000314477
      6        6           0.004150736   -0.005110068   -0.000050575
      7        6          -0.004520389    0.003618909   -0.000207883
      8        8           0.000010278   -0.000968557    0.000389858
      9        8           0.004342337    0.001218122    0.000057149
     10        8          -0.003202148   -0.000928177    0.000151691
     11        1          -0.000909517   -0.000814601   -0.000006006
     12        1          -0.000777590   -0.001270633   -0.000017347
     13        1           0.001091609   -0.000678892    0.000017971
     14        1          -0.001443835    0.000188300   -0.000026924
     15        1           0.003144604    0.004495996   -0.000488567
 -------------------------------------------------------------------
 Cartesian Forces:  Max     0.005110068 RMS     0.002118990

 GradGradGradGradGradGradGradGradGradGradGradGradGradGradGradGradGradGrad
 Berny optimization.
 Using GEDIIS/GDIIS optimizer.
 FormGI is forming the generalized inverse of G from B-inverse, IUseBI=4.
 Internal  Forces:  Max     0.007401012 RMS     0.001549839
 Search for a local minimum.
 Step number   3 out of a maximum of   74
 All quantities printed in internal units (Hartrees-Bohrs-Radians)
 Mixed Optimization -- RFO/linear search
 Update second derivatives using D2CorX and points    1    2    3
 DE= -4.53D-03 DEPred=-3.93D-03 R= 1.15D+00
 TightC=F SS=  1.41D+00  RLast= 1.69D-01 DXNew= 8.4853D-01 5.0704D-01
 Trust test= 1.15D+00 RLast= 1.69D-01 DXMaxT set to 5.07D-01
 ITU=  1  1  0
 Use linear search instead of GDIIS.
     Eigenvalues ---    0.02170   0.02241   0.02414   0.02498   0.02642
     Eigenvalues ---    0.02767   0.02787   0.02849   0.02904   0.02924
     Eigenvalues ---    0.03095   0.03316   0.15836   0.16000   0.16000
     Eigenvalues ---    0.16069   0.17076   0.22075   0.23174   0.23908
     Eigenvalues ---    0.24999   0.25000   0.25551   0.26477   0.33365
     Eigenvalues ---    0.33420   0.33649   0.42769   0.50210   0.52259
     Eigenvalues ---    0.52878   0.53182   0.53747   0.54112   0.56727
     Eigenvalues ---    0.58465   0.71673   0.76232   1.00646
 RFO step:  Lambda=-6.26124295D-04 EMin= 2.17048062D-02
 Quartic linear search produced a step of -0.02400.
 Iteration  1 RMS(Cart)=  0.01542508 RMS(Int)=  0.00025590
 Iteration  2 RMS(Cart)=  0.00024800 RMS(Int)=  0.00000724
 Iteration  3 RMS(Cart)=  0.00000006 RMS(Int)=  0.00000724
 Variable       Old X    -DE/DX   Delta X   Delta X   Delta X     New X
                                 (Linear)    (Quad)   (Total)
    R1        2.50008   0.00294  -0.00084   0.00708   0.00624   2.50633
    R2        2.54005   0.00187  -0.00091   0.00639   0.00548   2.54554
    R3        2.66395  -0.00144  -0.00107   0.00154   0.00047   2.66441
    R4        2.05113   0.00118   0.00049   0.00197   0.00247   2.05360
    R5        2.62000  -0.00160  -0.00050  -0.00074  -0.00123   2.61877
    R6        2.04840   0.00130   0.00033   0.00265   0.00298   2.05138
    R7        2.65152   0.00233  -0.00090   0.00719   0.00630   2.65782
    R8        2.04654   0.00128   0.00043   0.00237   0.00279   2.04934
    R9        2.68361  -0.00139  -0.00101   0.00137   0.00036   2.68397
   R10        2.53897   0.00160   0.00047   0.00150   0.00197   2.54094
   R11        2.77871   0.00406  -0.00157   0.01361   0.01204   2.79075
   R12        2.33360  -0.00052  -0.00019   0.00051   0.00032   2.33392
   R13        2.53528  -0.00204   0.00065  -0.00551  -0.00486   2.53041
   R14        1.83880  -0.00004  -0.00017   0.00032   0.00015   1.83896
   R15        1.85998   0.00376  -0.00058   0.00845   0.00787   1.86786
    A1        2.07447  -0.00072   0.00082  -0.00355  -0.00273   2.07175
    A2        2.14213  -0.00012  -0.00021   0.00001  -0.00021   2.14192
    A3        2.03351   0.00039   0.00029   0.00156   0.00185   2.03536
    A4        2.10755  -0.00027  -0.00008  -0.00156  -0.00164   2.10591
    A5        2.08130   0.00012  -0.00048   0.00096   0.00048   2.08178
    A6        2.10183  -0.00081   0.00023  -0.00497  -0.00473   2.09709
    A7        2.10006   0.00068   0.00025   0.00401   0.00426   2.10432
    A8        2.06992   0.00133   0.00050   0.00294   0.00344   2.07336
    A9        2.13706  -0.00072  -0.00071  -0.00040  -0.00111   2.13596
   A10        2.07621  -0.00061   0.00021  -0.00254  -0.00234   2.07387
   A11        2.05978  -0.00119  -0.00002  -0.00478  -0.00480   2.05497
   A12        2.06425   0.00094  -0.00012   0.00431   0.00418   2.06843
   A13        2.15915   0.00025   0.00015   0.00048   0.00062   2.15978
   A14        2.13877   0.00058  -0.00060   0.00442   0.00382   2.14259
   A15        2.07107   0.00027  -0.00011   0.00185   0.00173   2.07280
   A16        2.07334  -0.00085   0.00072  -0.00625  -0.00554   2.06779
   A17        2.15140  -0.00248  -0.00013  -0.00952  -0.00966   2.14174
   A18        2.00975   0.00307   0.00106   0.00823   0.00927   2.01902
   A19        2.12204  -0.00058  -0.00093   0.00131   0.00036   2.12240
   A20        1.84722   0.00268  -0.00008   0.01597   0.01588   1.86310
   A21        1.85127   0.00740   0.00152   0.04001   0.04153   1.89280
    D1       -0.00053   0.00002   0.00001   0.00101   0.00102   0.00049
    D2        3.14153  -0.00001   0.00000  -0.00016  -0.00016   3.14137
    D3       -0.00055   0.00004   0.00001   0.00116   0.00117   0.00063
    D4        3.13850   0.00019   0.00007   0.00632   0.00640  -3.13828
    D5        0.00076  -0.00005  -0.00002  -0.00155  -0.00157  -0.00081
    D6       -3.14112  -0.00001  -0.00000  -0.00042  -0.00043  -3.14155
    D7       -3.14132  -0.00001  -0.00001  -0.00033  -0.00034   3.14152
    D8       -0.00002   0.00002   0.00000   0.00080   0.00080   0.00078
    D9        0.00009  -0.00000   0.00000  -0.00010  -0.00009  -0.00000
   D10        3.14062   0.00008   0.00003   0.00268   0.00271  -3.13986
   D11       -3.14121  -0.00003  -0.00001  -0.00123  -0.00124   3.14074
   D12       -0.00068   0.00004   0.00001   0.00155   0.00156   0.00088
   D13       -0.00108   0.00006   0.00001   0.00208   0.00209   0.00102
   D14        3.13793   0.00022   0.00009   0.00783   0.00792  -3.13733
   D15        3.14154  -0.00001  -0.00001  -0.00059  -0.00061   3.14094
   D16       -0.00264   0.00014   0.00007   0.00515   0.00522   0.00258
   D17        0.00136  -0.00009  -0.00002  -0.00272  -0.00274  -0.00139
   D18       -3.13769  -0.00024  -0.00008  -0.00789  -0.00797   3.13753
   D19       -3.13750  -0.00026  -0.00010  -0.00881  -0.00891   3.13678
   D20        0.00664  -0.00041  -0.00016  -0.01398  -0.01413  -0.00749
   D21       -3.13252  -0.00061  -0.00047  -0.02523  -0.02571   3.12496
   D22        0.00633  -0.00044  -0.00038  -0.01914  -0.01951  -0.01319
   D23       -3.13568  -0.00039  -0.00013  -0.01458  -0.01469   3.13282
   D24        0.00404  -0.00014  -0.00010  -0.00490  -0.00500  -0.00096
   D25        0.00347  -0.00025  -0.00007  -0.00961  -0.00967  -0.00621
   D26       -3.14000   0.00000  -0.00004   0.00007   0.00002  -3.13999
   D27       -3.14063  -0.00011  -0.00002  -0.00448  -0.00453   3.13803
   D28       -0.00088   0.00013   0.00001   0.00500   0.00504   0.00416
         Item               Value     Threshold  Converged?
 Maximum Force            0.007401     0.000450     NO 
 RMS     Force            0.001550     0.000300     NO 
 Maximum Displacement     0.060597     0.001800     NO 
 RMS     Displacement     0.015431     0.001200     NO 
 Predicted change in Energy=-3.166729D-04
 GradGradGradGradGradGradGradGradGradGradGradGradGradGradGradGradGradGrad

                          Input orientation:                          
 ---------------------------------------------------------------------
 Center     Atomic      Atomic             Coordinates (Angstroms)
 Number     Number       Type             X           Y           Z
 ---------------------------------------------------------------------
      1          7           0       -1.403042   -0.163007   -0.055905
      2          6           0       -1.397476   -1.489285   -0.057240
      3          6           0       -0.208377   -2.246513   -0.032749
      4          6           0        1.012208   -1.590820   -0.007016
      5          6           0        1.025833   -0.184430   -0.006152
      6          6           0       -0.224500    0.488850   -0.030676
      7          6           0       -0.229231    1.965633   -0.024870
      8          8           0        0.807387    2.636292    0.006831
      9          8           0       -1.437602    2.542151   -0.046929
     10          8           0        2.213358    0.445928    0.013847
     11          1           0       -2.366761   -1.980219   -0.077726
     12          1           0       -0.252461   -3.331160   -0.034917
     13          1           0        1.957028   -2.122846    0.010881
     14          1           0       -1.289664    3.503920   -0.036782
     15          1           0        2.050430    1.420670   -0.004014
 ---------------------------------------------------------------------
                    Distance matrix (angstroms):
                    1          2          3          4          5
     1  N    0.000000
     2  C    1.326290   0.000000
     3  C    2.401824   1.409947   0.000000
     4  C    2.806149   2.412345   1.385793   0.000000
     5  C    2.429479   2.752759   2.403366   1.406456   0.000000
     6  C    1.347040   2.299912   2.735411   2.419717   1.420296
     7  C    2.431029   3.647231   4.212204   3.766941   2.489640
     8  O    3.567353   4.678238   4.987497   4.232093   2.829198
     9  O    2.705394   4.031649   4.943936   4.804645   3.674837
    10  O    3.667971   4.097343   3.621630   2.364643   1.344606
    11  H    2.057059   1.086716   2.175215   3.402068   3.839229
    12  H    3.370678   2.168885   1.085544   2.151499   3.396582
    13  H    3.890438   3.414489   2.169372   1.084462   2.150551
    14  H    3.668729   4.994411   5.851212   5.590695   4.355042
    15  H    3.799631   4.512064   4.307118   3.185433   1.904245
                    6          7          8          9         10
     6  C    0.000000
     7  C    1.476801   0.000000
     8  O    2.382793   1.235057   0.000000
     9  O    2.384938   1.339037   2.247606   0.000000
    10  O    2.438642   2.877020   2.602786   4.210387   0.000000
    11  H    3.269220   4.487937   5.603083   4.616939   5.183827
    12  H    3.820114   5.296853   6.060981   5.991701   4.510990
    13  H    3.403197   4.636450   4.896027   5.769667   2.581533
    14  H    3.197696   1.868419   2.269869   0.973133   4.650273
    15  H    2.458517   2.343987   1.738680   3.664141   0.988426
                   11         12         13         14         15
    11  H    0.000000
    12  H    2.509410   0.000000
    13  H    4.327048   2.518722   0.000000
    14  H    5.589061   6.913328   6.496444   0.000000
    15  H    5.575219   5.280544   3.544778   3.936653   0.000000
 Stoichiometry    C6H5NO3
 Framework group  C1[X(C6H5NO3)]
 Deg. of freedom    39
 Full point group                 C1      NOp   1
 Largest Abelian subgroup         C1      NOp   1
 Largest concise Abelian subgroup C1      NOp   1
                         Standard orientation:                         
 ---------------------------------------------------------------------
 Center     Atomic      Atomic             Coordinates (Angstroms)
 Number     Number       Type             X           Y           Z
 ---------------------------------------------------------------------
      1          7           0       -0.445070   -1.454464    0.003057
      2          6           0       -1.771047   -1.483221    0.000548
      3          6           0       -2.558767   -0.313848   -0.003233
      4          6           0       -1.934858    0.923552   -0.003438
      5          6           0       -0.529296    0.973553    0.000151
      6          6           0        0.176092   -0.259193    0.002532
      7          6           0        1.652511   -0.225624    0.001036
      8          8           0        2.296162    0.828409   -0.008644
      9          8           0        2.260089   -1.418884    0.001474
     10          8           0        0.070129    2.177144    0.004966
     11          1           0       -2.236751   -2.465091    0.000850
     12          1           0       -3.641910   -0.385997   -0.005148
     13          1           0       -2.491141    1.854469   -0.004672
     14          1           0        3.217724   -1.245958   -0.002949
     15          1           0        1.048718    2.039160    0.022581
 ---------------------------------------------------------------------
 Rotational constants (GHZ):      2.3536550      1.2552485      0.8186552
 Standard basis: 6-31+G(d,p) (6D, 7F)
 There are   215 symmetry adapted cartesian basis functions of A   symmetry.
 There are   215 symmetry adapted basis functions of A   symmetry.
   215 basis functions,   355 primitive gaussians,   215 cartesian basis functions
    36 alpha electrons       36 beta electrons
       nuclear repulsion energy       506.2604033863 Hartrees.
 NAtoms=   15 NActive=   15 NUniq=   15 SFac= 1.00D+00 NAtFMM=   60 NAOKFM=F Big=F
 Integral buffers will be    131072 words long.
 Raffenetti 2 integral format.
 Two-electron integral symmetry is turned on.
 One-electron integrals computed using PRISM.
 NBasis=   215 RedAO= T EigKep=  5.93D-06  NBF=   215
 NBsUse=   215 1.00D-06 EigRej= -1.00D+00 NBFU=   215
 Initial guess from the checkpoint file:  "b3lyp3HPAgd3.chk"
 B after Tr=    -0.000000   -0.000000   -0.000000
         Rot=    0.999999    0.000000   -0.000000    0.001528 Ang=   0.18 deg.
 ExpMin= 4.38D-02 ExpMax= 5.48D+03 ExpMxC= 8.25D+02 IAcc=2 IRadAn=         4 AccDes= 0.00D+00
 Harris functional with IExCor=  402 and IRadAn=       4 diagonalized for initial guess.
 HarFok:  IExCor=  402 AccDes= 0.00D+00 IRadAn=         4 IDoV= 1 UseB2=F ITyADJ=14
 ICtDFT=  3500011 ScaDFX=  1.000000  1.000000  1.000000  1.000000
 FoFCou: FMM=F IPFlag=           0 FMFlag=      100000 FMFlg1=           0
         NFxFlg=           0 DoJE=T BraDBF=F KetDBF=T FulRan=T
         wScrn=  0.000000 ICntrl=     500 IOpCl=  0 I1Cent=   200000004 NGrid=           0
         NMat0=    1 NMatS0=      1 NMatT0=    0 NMatD0=    1 NMtDS0=    0 NMtDT0=    0
 Petite list used in FoFCou.
 Keep R1 ints in memory in canonical form, NReq=274797245.
 Requested convergence on RMS density matrix=1.00D-08 within 128 cycles.
 Requested convergence on MAX density matrix=1.00D-06.
 Requested convergence on             energy=1.00D-06.
 No special actions if energy rises.
 SCF Done:  E(RB3LYP) =  -512.122170374     A.U. after   12 cycles
            NFock= 12  Conv=0.35D-08     -V/T= 2.0092
 Calling FoFJK, ICntrl=      2127 FMM=F ISym2X=0 I1Cent= 0 IOpClX= 0 NMat=1 NMatS=1 NMatT=0.
 ***** Axes restored to original set *****
 -------------------------------------------------------------------
 Center     Atomic                   Forces (Hartrees/Bohr)
 Number     Number              X              Y              Z
 -------------------------------------------------------------------
      1        7           0.000545997    0.000768302   -0.000015980
      2        6           0.001957267   -0.000564088    0.000109109
      3        6           0.000205574    0.001811587    0.000040659
      4        6          -0.001464778    0.000477260    0.000020279
      5        6          -0.000002146    0.002477713   -0.000449818
      6        6           0.001408673   -0.002350321   -0.000062336
      7        6          -0.000923551    0.001122572    0.000924896
      8        8          -0.000856452    0.000843378   -0.000840093
      9        8           0.001373110   -0.000102067   -0.000198845
     10        8          -0.000088039   -0.001555166   -0.000447692
     11        1          -0.000212622   -0.000024068   -0.000029487
     12        1          -0.000163231   -0.000182911    0.000007217
     13        1           0.000251896   -0.000239021    0.000018909
     14        1          -0.000043208   -0.000543080    0.000008520
     15        1          -0.001988491   -0.001940090    0.000914663
 -------------------------------------------------------------------
 Cartesian Forces:  Max     0.002477713 RMS     0.000981646

 GradGradGradGradGradGradGradGradGradGradGradGradGradGradGradGradGradGrad
 Berny optimization.
 Using GEDIIS/GDIIS optimizer.
 FormGI is forming the generalized inverse of G from B-inverse, IUseBI=4.
 Internal  Forces:  Max     0.004224218 RMS     0.001008026
 Search for a local minimum.
 Step number   4 out of a maximum of   74
 All quantities printed in internal units (Hartrees-Bohrs-Radians)
 Mixed Optimization -- RFO/linear search
 Update second derivatives using D2CorX and points    1    2    3    4
 DE= -1.58D-04 DEPred=-3.17D-04 R= 4.99D-01
 Trust test= 4.99D-01 RLast= 6.79D-02 DXMaxT set to 5.07D-01
 ITU=  0  1  1  0
 Use linear search instead of GDIIS.
     Eigenvalues ---    0.02240   0.02251   0.02441   0.02539   0.02683
     Eigenvalues ---    0.02770   0.02847   0.02884   0.02904   0.02960
     Eigenvalues ---    0.03096   0.03317   0.15335   0.15989   0.16000
     Eigenvalues ---    0.16057   0.20044   0.22080   0.23334   0.24087
     Eigenvalues ---    0.24988   0.25000   0.25928   0.30013   0.33303
     Eigenvalues ---    0.33428   0.33459   0.37694   0.50207   0.52753
     Eigenvalues ---    0.53100   0.53363   0.54027   0.56679   0.57292
     Eigenvalues ---    0.59432   0.72636   0.76172   1.00494
 RFO step:  Lambda=-9.32861173D-05 EMin= 2.24043416D-02
 Quartic linear search produced a step of -0.33293.
 Iteration  1 RMS(Cart)=  0.01098310 RMS(Int)=  0.00010962
 Iteration  2 RMS(Cart)=  0.00011637 RMS(Int)=  0.00001025
 Iteration  3 RMS(Cart)=  0.00000001 RMS(Int)=  0.00001025
 Variable       Old X    -DE/DX   Delta X   Delta X   Delta X     New X
                                 (Linear)    (Quad)   (Total)
    R1        2.50633  -0.00034  -0.00208   0.00254   0.00046   2.50679
    R2        2.54554  -0.00118  -0.00183   0.00146  -0.00036   2.54517
    R3        2.66441  -0.00182  -0.00016  -0.00215  -0.00230   2.66211
    R4        2.05360   0.00020  -0.00082   0.00177   0.00095   2.05454
    R5        2.61877  -0.00174   0.00041  -0.00270  -0.00229   2.61648
    R6        2.05138   0.00019  -0.00099   0.00190   0.00091   2.05229
    R7        2.65782  -0.00094  -0.00210   0.00171  -0.00038   2.65743
    R8        2.04934   0.00034  -0.00093   0.00215   0.00122   2.05055
    R9        2.68397  -0.00144  -0.00012  -0.00183  -0.00195   2.68202
   R10        2.54094  -0.00347  -0.00066  -0.00330  -0.00396   2.53698
   R11        2.79075   0.00132  -0.00401   0.00720   0.00320   2.79395
   R12        2.33392  -0.00028  -0.00011  -0.00005  -0.00016   2.33376
   R13        2.53041  -0.00147   0.00162  -0.00394  -0.00232   2.52809
   R14        1.83896  -0.00054  -0.00005  -0.00068  -0.00073   1.83822
   R15        1.86786  -0.00160  -0.00262   0.00166  -0.00096   1.86689
    A1        2.07175  -0.00011   0.00091  -0.00114  -0.00023   2.07152
    A2        2.14192   0.00019   0.00007   0.00028   0.00035   2.14227
    A3        2.03536  -0.00017  -0.00062   0.00048  -0.00014   2.03522
    A4        2.10591  -0.00002   0.00055  -0.00076  -0.00021   2.10569
    A5        2.08178  -0.00006  -0.00016  -0.00019  -0.00035   2.08143
    A6        2.09709  -0.00013   0.00158  -0.00273  -0.00116   2.09594
    A7        2.10432   0.00019  -0.00142   0.00292   0.00151   2.10582
    A8        2.07336   0.00004  -0.00115   0.00181   0.00066   2.07403
    A9        2.13596  -0.00010   0.00037  -0.00106  -0.00069   2.13527
   A10        2.07387   0.00007   0.00078  -0.00075   0.00003   2.07389
[...]
 ! A2    A(1,2,3)              122.7449         -DE/DX =    0.0                 !
 ! A3    A(1,2,11)             116.5556         -DE/DX =    0.0                 !
 ! A4    A(3,2,11)             120.6996         -DE/DX =    0.0                 !
 ! A5    A(2,3,4)              119.2719         -DE/DX =    0.0                 !
 ! A6    A(2,3,12)             120.0668         -DE/DX =    0.0                 !
 ! A7    A(4,3,12)             120.6613         -DE/DX =    0.0                 !
 ! A8    A(3,4,5)              118.8191         -DE/DX =    0.0                 !
 ! A9    A(3,4,13)             122.3536         -DE/DX =    0.0                 !
 ! A10   A(5,4,13)             118.8273         -DE/DX =    0.0                 !
 ! A11   A(4,5,6)              117.7173         -DE/DX =    0.0001              !
 ! A12   A(4,5,10)             118.4858         -DE/DX =    0.0001              !
 ! A13   A(6,5,10)             123.7969         -DE/DX =   -0.0001              !
 ! A14   A(1,6,5)              122.8207         -DE/DX =    0.0                 !
 ! A15   A(1,6,7)              118.4677         -DE/DX =    0.0001              !
 ! A16   A(5,6,7)              118.7117         -DE/DX =   -0.0001              !
 ! A17   A(6,7,8)              122.8114         -DE/DX =    0.0                 !
 ! A18   A(6,7,9)              115.6078         -DE/DX =    0.0001              !
 ! A19   A(8,7,9)              121.5808         -DE/DX =    0.0                 !
 ! A20   A(7,9,14)             106.7552         -DE/DX =    0.0                 !
 ! A21   A(5,10,15)            107.6105         -DE/DX =   -0.0001              !
 ! D1    D(6,1,2,3)              0.0003         -DE/DX =    0.0                 !
 ! D2    D(6,1,2,11)          -179.9999         -DE/DX =    0.0                 !
 ! D3    D(2,1,6,5)             -0.0001         -DE/DX =    0.0                 !
 ! D4    D(2,1,6,7)            179.9988         -DE/DX =    0.0                 !
 ! D5    D(1,2,3,4)             -0.0002         -DE/DX =    0.0                 !
 ! D6    D(1,2,3,12)           180.0003         -DE/DX =    0.0                 !
 ! D7    D(11,2,3,4)           180.0            -DE/DX =    0.0                 !
 ! D8    D(11,2,3,12)            0.0005         -DE/DX =    0.0                 !
 ! D9    D(2,3,4,5)              0.0            -DE/DX =    0.0                 !
 ! D10   D(2,3,4,13)           180.0006         -DE/DX =    0.0                 !
 ! D11   D(12,3,4,5)           179.9994         -DE/DX =    0.0                 !
 ! D12   D(12,3,4,13)            0.0            -DE/DX =    0.0                 !
 ! D13   D(3,4,5,6)              0.0002         -DE/DX =    0.0                 !
 ! D14   D(3,4,5,10)           179.9995         -DE/DX =    0.0                 !
 ! D15   D(13,4,5,6)           179.9996         -DE/DX =    0.0                 !
 ! D16   D(13,4,5,10)           -0.0011         -DE/DX =    0.0                 !
 ! D17   D(4,5,6,1)             -0.0001         -DE/DX =    0.0                 !
 ! D18   D(4,5,6,7)           -179.9991         -DE/DX =    0.0                 !
 ! D19   D(10,5,6,1)           180.0005         -DE/DX =    0.0                 !
 ! D20   D(10,5,6,7)             0.0016         -DE/DX =    0.0                 !
 ! D21   D(4,5,10,15)          179.9965         -DE/DX =    0.0                 !
 ! D22   D(6,5,10,15)           -0.0041         -DE/DX =    0.0                 !
 ! D23   D(1,6,7,8)           -179.9986         -DE/DX =    0.0                 !
 ! D24   D(1,6,7,9)              0.0128         -DE/DX =    0.0                 !
 ! D25   D(5,6,7,8)              0.0005         -DE/DX =    0.0                 !
 ! D26   D(5,6,7,9)            180.0118         -DE/DX =    0.0                 !
 ! D27   D(6,7,9,14)          -180.0049         -DE/DX =    0.0                 !
 ! D28   D(8,7,9,14)             0.0063         -DE/DX =    0.0                 !
 --------------------------------------------------------------------------------
 GradGradGradGradGradGradGradGradGradGradGradGradGradGradGradGradGradGrad

 1\1\ WCSS.PL-BEM-QINLAB\Freq\RB3LYP\6-31+G(d,p)\C6H5N1O3\PHZD\20-Jun-2
 024\0\\#N Geom=AllCheck Guess=TCheck SCRF=Check GenChk RB3LYP/6-31+G(d
 ,p) Freq\\[No Title]\\0,1\N,-1.3985969318,-0.1601934257,-0.0516625803\
 C,-1.3942245857,-1.4863959981,-0.0545298208\C,-0.2077841763,-2.2440424
 072,-0.0346394272\C,1.0120802552,-1.5906628626,-0.01101108\C,1.0279502
 886,-0.1850123358,-0.007604597\C,-0.2193577579,0.4885600042,-0.0287844
 065\C,-0.228319158,1.9669615226,-0.0256885842\O,0.8053539813,2.6423854
 734,-0.0054254252\O,-1.4373994628,2.5376086042,-0.0461521468\O,2.21479
 70702,0.4418242702,0.0153739151\H,-2.3648077488,-1.9755339761,-0.07326
 20218\H,-0.2549329356,-3.3288324831,-0.037912346\H,1.9564613348,-2.124
 531903,0.0049651215\H,-1.2935813594,3.499471208,-0.0413692431\H,2.0394
 891862,1.4135593091,0.0142836422\\Version=ES64L-G09RevE.01\State=1-A\H
 F=-512.1222637\RMSD=7.499e-09\RMSF=2.976e-05\ZeroPoint=0.1085649\Therm
 al=0.1162438\Dipole=-0.154005,-0.5190804,-0.0039492\DipoleDeriv=-0.416
 6487,0.4137853,-0.0022739,-0.0676566,0.1003397,-0.000466,-0.0033443,0.
 0082818,-0.2410493,0.265168,0.2870947,0.0059988,0.1101589,-0.2895154,0
 .0014202,0.0055973,0.0046352,-0.0294296,0.0809898,-0.331628,0.0020432,
 0.057515,0.1585869,0.0015594,0.0029131,-0.0055148,-0.0720027,-0.005537
 9,0.0134648,0.0025381,-0.4028466,0.0333287,-0.00693,0.0016186,0.000629
 ,-0.1435016,1.0914416,0.4446907,0.0178557,0.6768401,0.2799402,0.012562
 3,0.018378,0.0083822,0.1642147,-0.112334,-0.3838465,-0.0035537,0.27846
 8,-0.605126,0.0036321,-0.0020855,-0.0083815,0.0363199,1.6510795,-0.219
 3589,0.0237168,-0.2819621,2.1328527,-0.0010405,0.0235825,0.0001732,0.3
 086984,-1.0022983,-0.2518188,-0.0119546,-0.2558464,-1.1741365,-0.00638
 86,-0.0120241,-0.0063947,-0.3703706,-1.0454614,0.6221937,-0.0112338,0.
 5660136,-0.815092,0.0091661,-0.011294,0.0101295,-0.3460668,-1.2104584,
 -0.3551923,-0.0165348,-0.4962285,-0.6687073,-0.0097497,-0.0168713,-0.0
 071782,-0.344363,-0.0545903,-0.0895571,-0.003324,-0.0614305,0.0025958,
 -0.0013722,-0.0032603,-0.0018811,0.1172062,0.0860592,-0.0117431,-0.000
 8241,-0.0114727,-0.0815108,-0.0006786,-0.000823,-0.000683,0.1299134,-0
 .0068343,0.0500493,-0.0026026,0.0376048,0.0595814,0.0004993,-0.002632,
 0.0007226,0.1423977,0.2896801,-0.1315409,-0.0012736,-0.0931273,0.32072
 78,-0.0017327,-0.0011905,-0.0024187,0.3439247,0.389745,-0.0565929,0.00
 14225,-0.0560296,0.546135,-0.000481,0.0014356,-0.0005013,0.3041087\Pol
 ar=97.7542697,2.7050683,119.9279578,0.9292848,0.212009,46.9184004\PG=C
 01 [X(C6H5N1O3)]\NImag=0\\0.43824538,0.10591415,0.63904253,0.00645633,
 0.00313122,0.09618218,-0.11781137,-0.01441432,-0.00101215,0.72752538,0
 .01061284,-0.37489943,-0.00049833,0.06060027,0.69662991,-0.00095750,-0
 .00095290,-0.06393126,0.01070992,0.00232531,0.14605318,0.03922599,0.08
 945515,0.00049271,-0.26165398,0.03643223,-0.00344043,0.67029153,0.0254
 4248,-0.05133350,0.00029782,0.10516911,-0.17103540,0.00168310,0.031153
 66,0.75009283,0.00035096,0.00146128,0.02303466,-0.00328779,0.00043337,
 -0.06803581,0.00981657,0.00193628,0.13435034,-0.01397076,-0.03298753,-
 0.00021880,-0.05560934,0.02352524,-0.00109724,-0.32463525,-0.13064640,
 -0.00516967,0.77492503,-0.02984462,-0.05370423,-0.00064816,-0.01731598
 ,0.06797695,-0.00018101,-0.07211730,-0.18699231,-0.00160177,-0.0115006
 2,0.67558927,-0.00021170,-0.00070527,-0.00596933,-0.00118787,0.0005613
 9,0.00760400,-0.00503996,-0.00266586,-0.05634507,0.01174378,0.00100930
 ,0.12770122,-0.06560607,-0.02844427,-0.00150966,-0.00769651,0.03266292
 ,0.00007786,0.02648248,-0.03864611,0.00043939,-0.12410833,-0.00564774,
 -0.00103004,0.68334586,0.02181837,0.07440114,0.00053030,0.02585429,-0.
 05749074,0.00036033,-0.07746318,-0.01701788,-0.00144075,0.05348044,-0.
 30905341,0.00043726,0.03152917,0.71141021,-0.00139923,-0.00038355,0.01
 398985,0.00006306,0.00048433,-0.00801135,0.00035356,-0.00073500,-0.002
 40175,-0.00089830,-0.00063672,-0.06817679,0.00954795,0.00178894,0.1623
 2305,-0.27784749,-0.07951109,-0.00411918,0.00712459,-0.07828725,-0.000
 13852,-0.05818649,0.01373027,-0.00088410,0.03211727,0.05848985,0.00056
 043,-0.22118617,0.03759862,-0.00268960,0.67484090,-0.08167360,-0.14301
 436,-0.00166719,-0.03462504,-0.07028547,-0.00079701,-0.02011137,0.0007
 5464,-0.00034660,0.02872940,-0.01006437,0.00048072,0.08174092,-0.18852
 034,0.00122265,0.02082872,0.64248932,-0.00412237,-0.00162709,-0.061109
 23,-0.00004303,-0.00159083,0.00525867,-0.00095890,0.00026866,-0.007888
 77,0.00049274,0.00102173,0.00846217,-0.00259070,0.00042120,-0.06873951
 ,0.00971721,0.00148956,0.14275788,-0.00295947,-0.03453543,0.00010078,-
 0.00607093,-0.00643862,-0.00034648,-0.00192717,0.00006425,-0.00004415,
 -0.00661897,0.00219150,-0.00023637,0.02271256,0.03823350,0.00048817,-0
 .09608478,0.02886715,-0.00030529,0.82905446,-0.03255675,-0.04508635,-0
 .00066257,-0.00912730,0.02398449,-0.00014002,0.01544657,0.00003284,0.0
 0027987,-0.00162402,-0.00980715,-0.00006579,0.04142052,-0.00311995,0.0
 0074435,0.01762201,-0.19328150,0.00006383,0.10925531,0.72241038,0.0001
 0494,-0.00070075,-0.01264942,-0.00035252,-0.00009015,0.01219621,-0.000
 00962,-0.00000021,0.00050350,-0.00024504,0.00000327,0.00665537,0.00049
 695,0.00068592,0.00047092,-0.00033231,0.00026051,-0.07580598,0.0115306
 0,0.00315751,0.20544295,0.00676209,0.00426315,0.00002413,0.00427306,-0
 .00711563,0.00010788,-0.00664521,0.00017013,-0.00012145,0.00385742,0.0
 0631758,0.00009712,-0.02913129,-0.01198612,-0.00056028,-0.00454766,-0.
 03629643,-0.00048950,-0.45393969,-0.22691687,-0.00739096,0.56322868,0.
 00413505,-0.00454612,0.00005182,0.00073423,-0.00614265,0.00000529,-0.0
 0408727,-0.00010698,-0.00007474,-0.00011463,0.00232980,0.00000459,-0.0
 0435394,-0.00009135,-0.00007974,-0.04257277,-0.02760613,-0.00087495,-0
 .23976479,-0.28864982,-0.00482877,0.27625612,0.31030757,0.00002369,0.0
 0005434,0.00593980,0.00012565,-0.00013768,-0.00253924,-0.00013111,0.00
 000282,0.00005046,0.00008360,0.00012192,-0.00074155,-0.00054445,-0.000
 21897,0.00024382,-0.00050314,-0.00075910,0.01799490,-0.00742174,-0.004
 59751,-0.07441762,0.01016057,0.00562149,0.03662652,-0.00133317,-0.0056
 4464,-0.00006846,-0.00097877,0.00500152,0.00001607,0.00242163,-0.00034
 718,0.00004579,0.00053317,-0.00070918,0.00002617,-0.00052367,-0.002701
 12,-0.00005626,-0.00534852,0.01709570,-0.00023963,-0.26091657,0.060887
 81,-0.00341505,-0.10600363,0.00456334,-0.00238863,0.42430973,0.0036420
 1,0.00046175,0.00006264,0.00250827,-0.00305093,0.00004189,-0.00208516,
 -0.00030517,-0.00003821,0.00255913,0.00060945,0.00005036,-0.00939465,-
 0.00824934,-0.00019406,0.04304327,-0.02959251,0.00068589,0.09725973,-0
 .16991452,0.00151026,-0.01397279,0.03663403,-0.00023044,-0.02578736,0.
 64763396,-0.00004762,-0.00010481,0.00173949,0.00001090,0.00008620,-0.0
 0125869,0.00004165,-0.00000665,-0.00014011,0.00003347,-0.00000932,-0.0
 0099348,-0.00007182,-0.00007220,0.00224850,-0.00018155,0.00022041,0.01
 012474,-0.00332830,0.00085389,-0.06382256,-0.00243245,0.00010438,0.026
 88793,0.00687239,0.00091934,0.03992494,-0.00604225,-0.00018341,-0.0002
 4710,-0.00591347,0.00332566,-0.00008734,0.00652101,0.00434632,0.000018
 88,-0.00526161,-0.02432512,-0.00026820,-0.29378905,-0.07365276,-0.0046
 5466,-0.04511971,-0.00882056,-0.00096790,-0.00517361,-0.02079490,-0.00
 013965,0.00672672,0.01620296,0.00007819,-0.00139890,0.00334107,-0.0000
 0111,0.41547265,-0.00301633,-0.01308880,-0.00010050,-0.00903685,0.0105
 1565,-0.00013940,0.01677787,-0.00536125,0.00027976,-0.06115325,-0.0418
 8080,-0.00121916,-0.10879160,-0.15609706,-0.00221971,0.00632043,0.0296
 0388,0.00016448,-0.02209723,-0.03246212,-0.00047184,0.04233831,-0.0102
 6659,0.00073807,0.00786564,0.00376906,0.00015166,0.04623003,0.60316563
 ,-0.00025353,-0.00004937,0.00750300,-0.00011512,0.00008572,-0.00069994
 ,0.00004675,0.00005412,0.00602352,-0.00034976,-0.00055007,0.00653770,-
 0.00473111,-0.00157850,-0.04705090,-0.00093274,-0.00011081,0.00700054,
 -0.00014116,-0.00044960,-0.00006598,0.00013514,0.00026306,0.00441714,0
 .00000783,0.00007098,-0.00089489,0.00693968,0.00206393,0.03996168,0.00
 672183,-0.00497953,0.00023114,-0.28838287,-0.10469846,-0.00479067,-0.0
 1744223,-0.01337945,-0.00042759,-0.00273993,0.00392414,-0.00014341,0.0
 0006556,0.00104088,-0.00001540,0.00284311,0.00185377,-0.00013920,0.000
 19696,0.00025389,-0.00001180,-0.00001674,-0.00011132,0.00000820,0.0000
 4399,-0.00018334,-0.00000008,0.00009803,-0.00015411,0.00003056,0.29901
 937,-0.03119226,-0.02786608,-0.00061434,-0.10350735,-0.10085401,-0.002
 02221,0.01649535,0.01115009,0.00031484,0.00297197,-0.00198660,0.000037
 10,0.00026899,-0.00103109,0.00000031,-0.00054435,-0.00377737,-0.000042
 09,-0.00117156,0.00073774,-0.00002156,-0.00020123,-0.00082524,-0.00000
 443,0.00021412,-0.00028086,0.00000317,-0.00045786,0.00033061,-0.000004
 04,0.11684497,0.12347017,0.00017283,-0.00013790,-0.00659290,-0.0047878
 2,-0.00204378,-0.03776395,-0.00036144,-0.00022836,0.00443534,-0.000145
 52,0.00005450,0.00562513,-0.00001720,0.00001433,0.00103907,-0.00014446
 ,0.00000167,0.01072101,-0.00001496,0.00000411,0.00087765,0.00000805,-0
 .00000273,-0.00048105,0.00000084,-0.00000405,0.00002330,0.00002990,0.0
 0000148,-0.00160056,0.00522147,0.00234059,0.02619603,-0.00430638,0.004
 94306,-0.00018137,0.00915132,0.02593506,0.00018396,-0.06091490,-0.0107
 7207,-0.00042604,0.00380499,-0.02901690,-0.00007166,-0.00462753,-0.001
 30407,-0.00025568,-0.00205113,-0.00128688,-0.00003765,-0.00018508,0.00
 042419,0.00003568,0.00018262,-0.00002583,-0.00000306,0.00020741,-0.000
 06214,-0.00000207,0.00031364,-0.00186734,0.00000081,0.00049126,-0.0007
 0002,0.00005329,0.05726844,0.00371199,-0.00137489,0.00005049,-0.005861
 30,-0.01099852,-0.00013600,-0.01127489,-0.34201409,-0.00088008,0.00167
 422,-0.00959544,-0.00000026,-0.00182717,0.00163056,-0.00005028,0.00046
 147,0.00145270,0.00001193,0.00005322,0.00002342,0.00000570,-0.00002119
 ,-0.00018832,-0.00000157,0.00006004,-0.00015031,0.00000004,-0.00009893
 ,-0.00097453,-0.00000402,0.00031157,0.00046680,0.00001233,0.01317422,0
 .36067190,-0.00018376,0.00007284,0.00626623,0.00011298,0.00044218,0.00
 221491,-0.00042703,-0.00087122,-0.03881362,-0.00000343,-0.00055831,0.0
 0419135,-0.00025670,-0.00004048,0.00926979,-0.00003408,-0.00001979,-0.
 00013571,0.00003481,0.00001241,-0.00209404,-0.00000293,-0.00000162,0.0
 0034770,-0.00000175,-0.00000220,0.00031193,0.00000458,-0.00003628,0.00
 004617,0.00005553,-0.00000607,-0.00252426,0.00059926,0.00098485,0.0259
 3612,0.00028604,-0.00033744,0.00006139,-0.00247679,-0.00451412,-0.0002
 1534,-0.01739889,0.01530308,-0.00035210,-0.27307600,0.12500152,-0.0039
 9977,0.00282695,-0.00222780,-0.00006672,0.00118467,-0.00031254,-0.0000
 8811,-0.00002182,-0.00065095,0.00000752,0.00021926,0.00013654,0.000003
 84,-0.00004468,0.00004552,-0.00000053,0.00085699,0.00032521,0.00007706
 ,-0.00085417,0.00084362,-0.00001313,0.00108465,-0.00011148,0.00010363,
 0.28733720,-0.00087463,-0.00073663,-0.00001054,-0.00351339,-0.00104884
 ,-0.00008587,-0.01460174,0.01299950,-0.00024509,0.12301010,-0.13095007
 ,0.00202833,0.03032279,-0.01069293,0.00051350,-0.00182416,-0.00538266,
 -0.00005819,0.00184072,0.00040341,0.00003551,-0.00055121,0.00005711,-0
 .00000998,-0.00002992,-0.00078430,-0.00000231,-0.00042202,0.00328473,0
 .00000699,-0.00078775,0.00050454,-0.00001314,0.00054971,0.00083237,0.0
 0002218,-0.13345381,0.13186407,0.00006031,-0.00000080,-0.00313116,-0.0
 0021317,-0.00010403,0.00881668,-0.00041866,0.00029852,0.00383490,-0.00
 400393,0.00206431,-0.03777926,0.00000569,-0.00007796,0.00622603,-0.000
 09178,-0.00003085,0.00599247,0.00001311,-0.00000977,-0.00051463,0.0000
 0236,0.00000258,0.00002470,-0.00000072,-0.00000093,-0.00000871,0.00007
 528,0.00002056,-0.00334174,-0.00001674,0.00001652,-0.00002999,0.000105
 13,0.00001014,-0.00462913,0.00447274,-0.00218771,0.02499277,0.00019731
 ,-0.00148142,0.00000616,0.00043974,-0.00005780,0.00000766,-0.00011558,
 -0.00020411,-0.00000318,-0.00052140,0.00012598,-0.00000185,0.00109941,
 0.00175013,0.00001183,-0.00678314,0.00076394,-0.00020992,0.00438059,0.
 05667833,0.00013714,0.00211969,-0.00745922,0.00012961,-0.05720377,-0.1
 0116989,-0.00097093,0.00016453,-0.00142048,0.,-0.00003695,-0.00005051,
 -0.00000100,0.00003046,-0.00004653,0.00000071,0.00001395,0.00013760,0.
 00000010,0.05720933,-0.00010757,0.00035096,-0.00000032,-0.00041459,0.0
 0057848,-0.00000625,0.00039593,0.00009460,0.00000730,0.00039889,-0.000
 19507,0.00000785,-0.00060502,-0.00096044,-0.00001485,0.00272192,0.0022
 5457,0.00004253,0.00627646,-0.03293387,0.00002995,-0.00922018,0.002976
 86,-0.00014622,-0.05091864,-0.47437256,-0.00196261,-0.00031893,0.00111
 946,-0.00000335,0.00002363,0.00000779,0.00000042,0.00000332,0.00003182
 ,0.00000015,-0.00002071,-0.00006985,-0.00000058,0.05098973,0.50233777,
 0.00000915,-0.00002519,-0.00032999,0.00000684,0.00000030,0.00000595,-0
 .00000183,-0.00000350,0.00003674,-0.00000084,0.00000273,-0.00041187,0.
 00000641,0.00002762,0.00066660,-0.00020528,0.00000888,0.00494544,0.000
 02207,0.00093440,0.00397606,0.00012624,-0.00011363,-0.00602069,-0.0008
 5708,-0.00286655,-0.01603770,0.00000212,-0.00002308,-0.00000467,-0.000
 00082,-0.00000093,0.00001165,0.00000081,-0.00000074,-0.00001381,-0.000
 00028,0.00000224,0.00002633,0.00090885,0.00203422,0.01313725,-0.001561
 68,-0.00205643,-0.00001592,-0.00192005,0.00301615,-0.00002983,0.003977
 07,-0.00138398,0.00004448,-0.00869629,-0.00557311,-0.00023667,0.010135
 83,-0.04197036,0.00013155,-0.00095545,0.00324683,-0.00001776,-0.022446
 49,-0.01031784,-0.00041588,0.01291468,-0.00353846,0.00037879,0.0062357
 4,0.00025635,0.00007806,-0.06745498,0.08767970,-0.00071444,-0.00000722
 ,0.00018613,-0.00000087,-0.00044979,-0.00020525,-0.00000186,0.00006263
 ,0.00019771,0.00001030,-0.00099417,0.00079576,-0.00001635,0.07116017,0
 .00398888,0.00139400,0.00007767,0.00294995,-0.00387949,0.00004473,-0.0
 0441585,-0.00095791,-0.00008544,0.00167706,0.00772398,0.00003945,-0.02
 023481,-0.03511737,-0.00044015,0.00192307,-0.00503041,0.00002334,0.019
 96579,0.02766299,0.00042466,-0.02306363,-0.01388214,-0.00043273,-0.009
 55015,-0.00240775,-0.00018120,0.05562845,-0.39165786,0.00020497,0.0000
 4112,-0.00004651,0.00000053,0.00000571,0.00018651,0.00000139,-0.000026
 64,-0.00028044,0.00000001,0.00144425,-0.00122053,0.00002323,-0.0303332
 1,0.41751294,-0.00000251,-0.00003203,-0.00094192,-0.00002988,0.0000460
 1,0.00009066,0.00003773,-0.00003050,0.00135567,-0.00022107,-0.00009239
 ,0.00364042,0.00017741,-0.00083703,-0.00209733,-0.00002091,0.00004695,
 0.00042136,-0.00035109,-0.00012512,-0.00075242,0.00033608,-0.00007702,
 -0.00833280,0.00005849,-0.00000491,0.00189531,-0.00078267,0.00079003,-
 0.01783107,-0.00000121,0.00000314,0.00006354,-0.00000141,-0.00000252,-
 0.00037365,0.00000980,0.00000409,-0.00047925,-0.00001517,0.00001175,0.
 00001271,0.00080640,0.00029955,0.02332878\\-0.00003783,-0.00005002,0.0
 0000032,-0.00001281,0.00005796,-0.00000156,0.00004694,0.00000371,0.000
 00153,-0.00003128,-0.00001823,-0.00000098,0.00007348,0.00000103,0.0000
 0134,-0.00000575,0.00004014,0.00000833,-0.00004753,-0.00003077,-0.0000
 2808,0.00002011,0.00002315,0.00000963,-0.00003408,-0.00002523,0.000008
 52,-0.00000565,-0.00008869,0.00000147,0.00001396,0.00001314,0.00000031
 ,-0.00000737,0.00002835,-0.00000018,-0.00001771,0.00001541,-0.00000065
 ,0.00001830,-0.00002771,0.00000025,0.00002722,0.00005777,-0.00000025\\
 \@


    UPON JULIA'S CLOTHES

 WHENAS IN SILKS MY JULIA GOES,
 THEN, THEN, METHINKS, HOW SWEETLY FLOWS
 THAT LIQUEFACTION OF HER CLOTHES.

 NEXT, WHEN I CAST MINE EYES, AND SEE
 THAT BRAVE VIBRATION, EACH WAY FREE,
 O, HOW THAT GLITTERING TAKETH ME!
     -- ROBERT HERRICK, 1648
 Job cpu time:       0 days  0 hours 18 minutes 25.3 seconds.
 File lengths (MBytes):  RWF=     79 Int=      0 D2E=      0 Chk=      5 Scr=      1
 Normal termination of Gaussian 09 at Thu Jun 20 11:46:10 2024.
