 Entering Gaussian System, Link 0=g09
 Input=b3lyp3HPAyanggd3.gjf
 Output=b3lyp3HPAyanggd3.log
 Initial command:
 /home/phzd/g09E/g09/l1.exe "/home/phzd/g09E/scratch/Gau-135155.inp" -scrdir="/home/phzd/g09E/scratch/"
 Default is to use a total of  18 processors:
                               18 via shared-memory
                                1 via Linda
 Entering Link 1 = /home/phzd/g09E/g09/l1.exe PID=    135157.
  
 Copyright (c) 1988,1990,1992,1993,1995,1998,2003,2009,2015,
            Gaussian, Inc.  All Rights Reserved.
  
 This is part of the Gaussian(R) 09 program.  It is based on
 the Gaussian(R) 03 system (copyright 2003, Gaussian, Inc.),
 the Gaussian(R) 98 system (copyright 1998, Gaussian, Inc.),
 the Gaussian(R) 94 system (copyright 1995, Gaussian, Inc.),
 the Gaussian 92(TM) system (copyright 1992, Gaussian, Inc.),
 the Gaussian 90(TM) system (copyright 1990, Gaussian, Inc.),
 the Gaussian 88(TM) system (copyright 1988, Gaussian, Inc.),
 the Gaussian 86(TM) system (copyright 1986, Carnegie Mellon
 University), and the Gaussian 82(TM) system (copyright 1983,
 Carnegie Mellon University). Gaussian is a federally registered
 trademark of Gaussian, Inc.
  
 This software contains proprietary and confidential information,
 including trade secrets, belonging to Gaussian, Inc.
  
 This software is provided under written license and may be
 used, copied, transmitted, or stored only in accord with that
 written license.
  
 The following legend is applicable only to US Government
 contracts under FAR:
  
                    RESTRICTED RIGHTS LEGEND
  
 Use, reproduction and disclosure by the US Government is
 subject to restrictions as set forth in subparagraphs (a)
 and (c) of the Commercial Computer Software - Restricted
 Rights clause in FAR 52.227-19.
  
 Gaussian, Inc.
 340 Quinnipiac St., Bldg. 40, Wallingford CT 06492
  
  
 ---------------------------------------------------------------
 Warning -- This program may not be used in any manner that
 competes with the business of Gaussian, Inc. or will provide
 assistance to any competitor of Gaussian, Inc.  The licensee
 of this program is prohibited from giving any competitor of
 Gaussian, Inc. access to this program.  By using this program,
 the user acknowledges that Gaussian, Inc. is engaged in the
 business of creating and licensing software in the field of
 computational chemistry and represents and warrants to the
 licensee that it is not a competitor of Gaussian, Inc. and that
 it will not use this program in any manner prohibited above.
 ---------------------------------------------------------------
  

 Cite this work as:
 Gaussian 09, Revision E.01,
 M. J. Frisch, G. W. Trucks, H. B. Schlegel, G. E. Scuseria, 
 M. A. Robb, J. R. Cheeseman, G. Scalmani, V. Barone, B. Mennucci, 
 G. A. Petersson, H. Nakatsuji, M. Caricato, X. Li, H. P. Hratchian, 
 A. F. Izmaylov, J. Bloino, G. Zheng, J. L. Sonnenberg, M. Hada, 
 M. Ehara, K. Toyota, R. Fukuda, J. Hasegawa, M. Ishida, T. Nakajima, 
 Y. Honda, O. Kitao, H. Nakai, T. Vreven, J. A. Montgomery, Jr., 
 J. E. Peralta, F. Ogliaro, M. Bearpark, J. J. Heyd, E. Brothers, 
 K. N. Kudin, V. N. Staroverov, T. Keith, R. Kobayashi, J. Normand, 
 K. Raghavachari, A. Rendell, J. C. Burant, S. S. Iyengar, J. Tomasi, 
 M. Cossi, N. Rega, J. M. Millam, M. Klene, J. E. Knox, J. B. Cross, 
 V. Bakken, C. Adamo, J. Jaramillo, R. Gomperts, R. E. Stratmann, 
 O. Yazyev, A. J. Austin, R. Cammi, C. Pomelli, J. W. Ochterski, 
 R. L. Martin, K. Morokuma, V. G. Zakrzewski, G. A. Voth, 
 P. Salvador, J. J. Dannenberg, S. Dapprich, A. D. Daniels, 
 O. Farkas, J. B. Foresman, J. V. Ortiz, J. Cioslowski, 
 and D. J. Fox, Gaussian, Inc., Wallingford CT, 2013.
 
 ******************************************
 Gaussian 09:  ES64L-G09RevE.01 30-Nov-2015
                20-Jun-2024 
 ******************************************
 %chk=b3lyp3HPAyanggd3.chk
 ----------------------------
 # opt freq b3lyp/6-31+g(d,p)
 ----------------------------
 1/14=-1,18=20,19=15,26=3,38=1/1,3;
 2/9=110,12=2,17=6,18=5,40=1/2;
 3/5=1,6=6,7=111,11=2,16=1,25=1,30=1,71=1,74=-5/1,2,3;
 4//1;
 5/5=2,38=5/2;
 6/7=2,8=2,9=2,10=2,28=1/1;
 7//1,2,3,16;
 1/14=-1,18=20,19=15,26=3/3(2);
 2/9=110/2;
 99//99;
 2/9=110/2;
 3/5=1,6=6,7=111,11=2,16=1,25=1,30=1,71=1,74=-5/1,2,3;
 4/5=5,16=3,69=1/1;
 5/5=2,38=5/2;
 7//1,2,3,16;
 1/14=-1,18=20,19=15,26=3/3(-5);
 2/9=110/2;
 6/7=2,8=2,9=2,10=2,19=2,28=1/1;
 99/9=1/99;
 ----------
 [No Title]
 ----------
 Symbolic Z-matrix:
 Charge =  1 Multiplicity = 1
 N                    -1.3485   -0.19621  -0.00463 
 C                    -1.34403  -1.50021   0.01185 
 C                    -0.21337  -2.21419   0.00606 
 C                     0.93913  -1.53509  -0.00976 
 C                     0.96484  -0.18889  -0.0174 
 C                    -0.21789   0.47812  -0.03149 
 C                    -0.23665   1.8506    0.00333 
 O                    -1.2732    2.47806  -0.04717 
 O                     0.87181   2.61943   0.1145 
 O                     2.1927    0.41081  -0.03144 
 H                    -2.26283   0.27574   0.00191 
 H                    -2.31573  -2.02393   0.0304 
 H                    -0.23109  -3.31585   0.01824 
 H                     1.88753  -2.09903  -0.01067 
 H                     0.62647   3.55566   0.17003 
 H                     2.20059   1.20652  -0.58332 
 

 GradGradGradGradGradGradGradGradGradGradGradGradGradGradGradGradGradGrad
 Berny optimization.
 Initialization pass.
                           ----------------------------
                           !    Initial Parameters    !
                           ! (Angstroms and Degrees)  !
 --------------------------                            --------------------------
 ! Name  Definition              Value          Derivative Info.                !
 --------------------------------------------------------------------------------
 ! R1    R(1,2)                  1.3041         estimate D2E/DX2                !
 ! R2    R(1,6)                  1.3167         estimate D2E/DX2                !
 ! R3    R(1,11)                 1.029          estimate D2E/DX2                !
 ! R4    R(2,3)                  1.3372         estimate D2E/DX2                !
 ! R5    R(2,12)                 1.104          estimate D2E/DX2                !
 ! R6    R(3,4)                  1.3378         estimate D2E/DX2                !
 ! R7    R(3,13)                 1.1019         estimate D2E/DX2                !
 ! R8    R(4,5)                  1.3465         estimate D2E/DX2                !
 ! R9    R(4,14)                 1.1034         estimate D2E/DX2                !
 ! R10   R(5,6)                  1.3579         estimate D2E/DX2                !
 ! R11   R(5,10)                 1.3666         estimate D2E/DX2                !
 ! R12   R(6,7)                  1.3731         estimate D2E/DX2                !
 ! R13   R(7,8)                  1.2127         estimate D2E/DX2                !
 ! R14   R(7,9)                  1.3536         estimate D2E/DX2                !
 ! R15   R(9,15)                 0.9694         estimate D2E/DX2                !
 ! R16   R(10,16)                0.9684         estimate D2E/DX2                !
 ! A1    A(2,1,6)              120.624          estimate D2E/DX2                !
 ! A2    A(2,1,11)             117.4899         estimate D2E/DX2                !
 ! A3    A(6,1,11)             121.8859         estimate D2E/DX2                !
 ! A4    A(1,2,3)              122.4606         estimate D2E/DX2                !
 ! A5    A(1,2,12)             118.1344         estimate D2E/DX2                !
 ! A6    A(3,2,12)             119.405          estimate D2E/DX2                !
 ! A7    A(2,3,4)              117.2216         estimate D2E/DX2                !
 ! A8    A(2,3,13)             121.3442         estimate D2E/DX2                !
 ! A9    A(4,3,13)             121.4337         estimate D2E/DX2                !
 ! A10   A(3,4,5)              121.6036         estimate D2E/DX2                !
 ! A11   A(3,4,14)             118.7534         estimate D2E/DX2                !
 ! A12   A(5,4,14)             119.6421         estimate D2E/DX2                !
 ! A13   A(4,5,6)              118.329          estimate D2E/DX2                !
 ! A14   A(4,5,10)             117.1269         estimate D2E/DX2                !
 ! A15   A(6,5,10)             124.5359         estimate D2E/DX2                !
 ! A16   A(1,6,5)              119.7433         estimate D2E/DX2                !
 ! A17   A(1,6,7)              119.9778         estimate D2E/DX2                !
 ! A18   A(5,6,7)              120.1746         estimate D2E/DX2                !
 ! A19   A(6,7,8)              121.8576         estimate D2E/DX2                !
 ! A20   A(6,7,9)              123.9628         estimate D2E/DX2                !
 ! A21   A(8,7,9)              114.1731         estimate D2E/DX2                !
 ! A22   A(7,9,15)             110.2428         estimate D2E/DX2                !
 ! A23   A(5,10,16)            111.948          estimate D2E/DX2                !
 ! D1    D(6,1,2,3)              0.1754         estimate D2E/DX2                !
 ! D2    D(6,1,2,12)          -179.7749         estimate D2E/DX2                !
 ! D3    D(11,1,2,3)          -179.9674         estimate D2E/DX2                !
 ! D4    D(11,1,2,12)            0.0823         estimate D2E/DX2                !
 ! D5    D(2,1,6,5)             -1.2037         estimate D2E/DX2                !
 ! D6    D(2,1,6,7)           -177.4977         estimate D2E/DX2                !
 ! D7    D(11,1,6,5)           178.9456         estimate D2E/DX2                !
 ! D8    D(11,1,6,7)             2.6516         estimate D2E/DX2                !
 ! D9    D(1,2,3,4)              0.3811         estimate D2E/DX2                !
 ! D10   D(1,2,3,13)          -179.8766         estimate D2E/DX2                !
 ! D11   D(12,2,3,4)          -179.6693         estimate D2E/DX2                !
 ! D12   D(12,2,3,13)            0.073          estimate D2E/DX2                !
 ! D13   D(2,3,4,5)              0.1055         estimate D2E/DX2                !
 ! D14   D(2,3,4,14)           179.7518         estimate D2E/DX2                !
 ! D15   D(13,3,4,5)          -179.6366         estimate D2E/DX2                !
 ! D16   D(13,3,4,14)            0.0097         estimate D2E/DX2                !
 ! D17   D(3,4,5,6)             -1.0963         estimate D2E/DX2                !
 ! D18   D(3,4,5,10)           179.8994         estimate D2E/DX2                !
 ! D19   D(14,4,5,6)           179.2605         estimate D2E/DX2                !
 ! D20   D(14,4,5,10)            0.2562         estimate D2E/DX2                !
 ! D21   D(4,5,6,1)              1.6377         estimate D2E/DX2                !
 ! D22   D(4,5,6,7)            177.9243         estimate D2E/DX2                !
 ! D23   D(10,5,6,1)          -179.4381         estimate D2E/DX2                !
 ! D24   D(10,5,6,7)            -3.1515         estimate D2E/DX2                !
 ! D25   D(4,5,10,16)          142.4514         estimate D2E/DX2                !
 ! D26   D(6,5,10,16)          -36.4846         estimate D2E/DX2                !
 ! D27   D(1,6,7,8)             -5.9046         estimate D2E/DX2                !
 ! D28   D(1,6,7,9)            173.1096         estimate D2E/DX2                !
 ! D29   D(5,6,7,8)            177.8176         estimate D2E/DX2                !
 ! D30   D(5,6,7,9)             -3.1683         estimate D2E/DX2                !
 ! D31   D(6,7,9,15)          -176.8086         estimate D2E/DX2                !
 ! D32   D(8,7,9,15)             2.2735         estimate D2E/DX2                !
 --------------------------------------------------------------------------------
 Trust Radius=3.00D-01 FncErr=1.00D-07 GrdErr=1.00D-06
 Number of steps in this run=     81 maximum allowed number of steps=    100.
 GradGradGradGradGradGradGradGradGradGradGradGradGradGradGradGradGradGrad

                          Input orientation:                          
 ---------------------------------------------------------------------
 Center     Atomic      Atomic             Coordinates (Angstroms)
 Number     Number       Type             X           Y           Z
 ---------------------------------------------------------------------
      1          7           0       -1.348499   -0.196210   -0.004629
      2          6           0       -1.344030   -1.500206    0.011849
      3          6           0       -0.213369   -2.214185    0.006064
      4          6           0        0.939132   -1.535088   -0.009761
      5          6           0        0.964837   -0.188892   -0.017396
      6          6           0       -0.217888    0.478116   -0.031489
      7          6           0       -0.236654    1.850603    0.003334
      8          8           0       -1.273200    2.478062   -0.047165
      9          8           0        0.871806    2.619425    0.114503
     10          8           0        2.192699    0.410805   -0.031443
     11          1           0       -2.262826    0.275744    0.001905
     12          1           0       -2.315726   -2.023930    0.030399
     13          1           0       -0.231086   -3.315854    0.018241
     14          1           0        1.887530   -2.099031   -0.010669
     15          1           0        0.626465    3.555655    0.170032
     16          1           0        2.200591    1.206522   -0.583324
 ---------------------------------------------------------------------
                    Distance matrix (angstroms):
                    1          2          3          4          5
     1  N    0.000000
     2  C    1.304108   0.000000
     3  C    2.315353   1.337234   0.000000
     4  C    2.650637   2.283531   1.337790   0.000000
     5  C    2.313383   2.655422   2.343188   1.346463   0.000000
     6  C    1.316707   2.276803   2.692567   2.322102   1.357916
     7  C    2.329315   3.529061   4.064856   3.584069   2.367182
     8  O    2.675670   3.979336   4.810744   4.582705   3.481715
     9  O    3.587722   4.678870   4.955113   4.156916   2.812952
    10  O    3.592947   4.020235   3.561059   2.314822   1.366557
    11  H    1.028969   1.999571   3.224909   3.678557   3.260992
    12  H    2.068167   1.104004   2.111088   3.291607   3.759221
    13  H    3.313807   2.129616   1.101879   2.131038   3.348043
    14  H    3.754018   3.286652   2.104119   1.103400   2.121329
    15  H    4.243522   5.428591   5.832946   5.103504   3.764473
    16  H    3.859868   4.499438   4.227980   3.071918   1.947959
                    6          7          8          9         10
     6  C    0.000000
     7  C    1.373057   0.000000
     8  O    2.261352   1.212717   0.000000
     9  O    2.407063   1.353562   2.155730   0.000000
    10  O    2.411527   2.824178   4.035623   2.577608   0.000000
    11  H    2.055199   2.566234   2.414948   3.915538   4.457696
    12  H    3.265729   4.397190   4.621775   5.632777   5.124222
    13  H    3.794319   5.166482   5.887253   6.037646   4.445806
    14  H    3.327898   4.484636   5.562493   4.828166   2.528406
    15  H    3.197622   1.918323   2.194791   0.969434   3.519057
    16  H    2.585370   2.588276   3.737848   2.061293   0.968401
                   11         12         13         14         15
    11  H    0.000000
    12  H    2.300459   0.000000
    13  H    4.126477   2.452537   0.000000
    14  H    4.781754   4.204127   2.443364   0.000000
    15  H    4.374253   6.309339   6.926476   5.796414   0.000000
    16  H    4.596839   5.586555   5.169799   3.369365   2.926405
                   16
    16  H    0.000000
 Stoichiometry    C6H6NO3(1+)
 Framework group  C1[X(C6H6NO3)]
 Deg. of freedom    42
 Full point group                 C1      NOp   1
 Largest Abelian subgroup         C1      NOp   1
 Largest concise Abelian subgroup C1      NOp   1
                         Standard orientation:                         
 ---------------------------------------------------------------------
 Center     Atomic      Atomic             Coordinates (Angstroms)
 Number     Number       Type             X           Y           Z
 ---------------------------------------------------------------------
      1          7           0       -0.609359   -1.358745    0.006680
      2          6           0       -1.908229   -1.244454   -0.017210
      3          6           0       -2.524299   -0.057602   -0.023142
      4          6           0       -1.750486    1.033614   -0.011295
      5          6           0       -0.406976    0.945766    0.003786
      6          6           0        0.157798   -0.288858    0.029682
      7          6           0        1.523968   -0.423542    0.002758
      8          8           0        2.061482   -1.508912    0.063843
      9          8           0        2.384114    0.615307   -0.111578
     10          8           0        0.294088    2.118756    0.012893
     11          1           0       -0.216194   -2.309636    0.009024
     12          1           0       -2.511959   -2.168636   -0.032128
     13          1           0       -3.623460    0.017553   -0.041434
     14          1           0       -2.232408    2.026170   -0.020018
     15          1           0        3.296579    0.291498   -0.160140
     16          1           0        1.084827    2.063518    0.569203
 ---------------------------------------------------------------------
 Rotational constants (GHZ):      2.4697744      1.2958925      0.8517609
 Standard basis: 6-31+G(d,p) (6D, 7F)
 There are   220 symmetry adapted cartesian basis functions of A   symmetry.
 There are   220 symmetry adapted basis functions of A   symmetry.
   220 basis functions,   362 primitive gaussians,   220 cartesian basis functions
    36 alpha electrons       36 beta electrons
       nuclear repulsion energy       533.4518174147 Hartrees.
 NAtoms=   16 NActive=   16 NUniq=   16 SFac= 1.00D+00 NAtFMM=   60 NAOKFM=F Big=F
 Integral buffers will be    131072 words long.
 Raffenetti 2 integral format.
 Two-electron integral symmetry is turned on.
 One-electron integrals computed using PRISM.
 NBasis=   220 RedAO= T EigKep=  4.17D-06  NBF=   220
 NBsUse=   220 1.00D-06 EigRej= -1.00D+00 NBFU=   220
 ExpMin= 4.38D-02 ExpMax= 5.48D+03 ExpMxC= 8.25D+02 IAcc=2 IRadAn=         4 AccDes= 0.00D+00
 Harris functional with IExCor=  402 and IRadAn=       4 diagonalized for initial guess.
 HarFok:  IExCor=  402 AccDes= 0.00D+00 IRadAn=         4 IDoV= 1 UseB2=F ITyADJ=14
 ICtDFT=  3500011 ScaDFX=  1.000000  1.000000  1.000000  1.000000
 FoFCou: FMM=F IPFlag=           0 FMFlag=      100000 FMFlg1=           0
         NFxFlg=           0 DoJE=T BraDBF=F KetDBF=T FulRan=T
         wScrn=  0.000000 ICntrl=     500 IOpCl=  0 I1Cent=   200000004 NGrid=           0
         NMat0=    1 NMatS0=      1 NMatT0=    0 NMatD0=    1 NMtDS0=    0 NMtDT0=    0
 Petite list used in FoFCou.
 Keep R1 ints in memory in canonical form, NReq=301066375.
 Requested convergence on RMS density matrix=1.00D-08 within 128 cycles.
 Requested convergence on MAX density matrix=1.00D-06.
 Requested convergence on             energy=1.00D-06.
 No special actions if energy rises.
 SCF Done:  E(RB3LYP) =  -512.431203122     A.U. after   14 cycles
            NFock= 14  Conv=0.71D-08     -V/T= 2.0072

 **********************************************************************

            Population analysis using the SCF density.

 **********************************************************************

 Orbital symmetries:
       Occupied  (A) (A) (A) (A) (A) (A) (A) (A) (A) (A) (A) (A)
                 (A) (A) (A) (A) (A) (A) (A) (A) (A) (A) (A) (A)
                 (A) (A) (A) (A) (A) (A) (A) (A) (A) (A) (A) (A)
       Virtual   (A) (A) (A) (A) (A) (A) (A) (A) (A) (A) (A) (A)
                 (A) (A) (A) (A) (A) (A) (A) (A) (A) (A) (A) (A)
                 (A) (A) (A) (A) (A) (A) (A) (A) (A) (A) (A) (A)
                 (A) (A) (A) (A) (A) (A) (A) (A) (A) (A) (A) (A)
                 (A) (A) (A) (A) (A) (A) (A) (A) (A) (A) (A) (A)
                 (A) (A) (A) (A) (A) (A) (A) (A) (A) (A) (A) (A)
                 (A) (A) (A) (A) (A) (A) (A) (A) (A) (A) (A) (A)
                 (A) (A) (A) (A) (A) (A) (A) (A) (A) (A) (A) (A)
                 (A) (A) (A) (A) (A) (A) (A) (A) (A) (A) (A) (A)
                 (A) (A) (A) (A) (A) (A) (A) (A) (A) (A) (A) (A)
                 (A) (A) (A) (A) (A) (A) (A) (A) (A) (A) (A) (A)
                 (A) (A) (A) (A) (A) (A) (A) (A) (A) (A) (A) (A)
                 (A) (A) (A) (A) (A) (A) (A) (A) (A) (A) (A) (A)
                 (A) (A) (A) (A) (A) (A) (A) (A) (A) (A) (A) (A)
                 (A) (A) (A) (A) (A) (A) (A) (A) (A) (A) (A) (A)
                 (A) (A) (A) (A)
 The electronic state is 1-A.
 Alpha  occ. eigenvalues --  -19.37385 -19.36987 -19.32178 -14.64911 -10.50885
 Alpha  occ. eigenvalues --  -10.47437 -10.46244 -10.45952 -10.41303 -10.41192
 Alpha  occ. eigenvalues --   -1.30184  -1.25962  -1.24653  -1.19069  -1.05732
 Alpha  occ. eigenvalues --   -1.03354  -0.91965  -0.88206  -0.85420  -0.79145
 Alpha  occ. eigenvalues --   -0.75986  -0.73139  -0.72001  -0.69382  -0.68710
 Alpha  occ. eigenvalues --   -0.65472  -0.62435  -0.61483  -0.60513  -0.59223
 Alpha  occ. eigenvalues --   -0.58275  -0.53766  -0.51864  -0.49665  -0.46308
 Alpha  occ. eigenvalues --   -0.46048
 Alpha virt. eigenvalues --   -0.28931  -0.22980  -0.16160  -0.14093  -0.13953
 Alpha virt. eigenvalues --   -0.12184  -0.11246  -0.10087  -0.09616  -0.08755
 Alpha virt. eigenvalues --   -0.06566  -0.05252  -0.04906  -0.04650  -0.03892
 Alpha virt. eigenvalues --   -0.03237  -0.02381  -0.01942  -0.00984  -0.00803
 Alpha virt. eigenvalues --   -0.00337   0.00242   0.01720   0.02302   0.02903
 Alpha virt. eigenvalues --    0.03593   0.04138   0.04563   0.05870   0.06251
 Alpha virt. eigenvalues --    0.07527   0.07977   0.08582   0.09359   0.10048
 Alpha virt. eigenvalues --    0.10328   0.11135   0.11719   0.12644   0.13100
 Alpha virt. eigenvalues --    0.14237   0.14366   0.15070   0.16109   0.16777
 Alpha virt. eigenvalues --    0.18118   0.18828   0.19171   0.20338   0.20960
 Alpha virt. eigenvalues --    0.22401   0.23178   0.24929   0.25486   0.28862
 Alpha virt. eigenvalues --    0.30680   0.31482   0.35392   0.42349   0.44128
 Alpha virt. eigenvalues --    0.46182   0.47820   0.50271   0.52140   0.52658
 Alpha virt. eigenvalues --    0.54216   0.56030   0.58147   0.59103   0.61453
 Alpha virt. eigenvalues --    0.64470   0.66463   0.69743   0.70655   0.73207
 Alpha virt. eigenvalues --    0.75191   0.75990   0.79007   0.83204   0.83671
 Alpha virt. eigenvalues --    0.84313   0.87224   0.88550   0.90323   0.93696
 Alpha virt. eigenvalues --    0.96445   0.97528   0.98260   1.00860   1.02113
 Alpha virt. eigenvalues --    1.02601   1.04879   1.06782   1.08194   1.10731
 Alpha virt. eigenvalues --    1.12653   1.13651   1.14979   1.15105   1.17664
 Alpha virt. eigenvalues --    1.18526   1.19954   1.20191   1.23095   1.23320
 Alpha virt. eigenvalues --    1.25238   1.27652   1.35662   1.39238   1.40864
 Alpha virt. eigenvalues --    1.44691   1.53275   1.54369   1.57946   1.59112
 Alpha virt. eigenvalues --    1.60416   1.64825   1.66187   1.67801   1.71257
 Alpha virt. eigenvalues --    1.72481   1.73464   1.77684   1.79821   1.82802
 Alpha virt. eigenvalues --    1.84676   1.86892   1.88621   1.89805   1.92206
 Alpha virt. eigenvalues --    1.95412   1.99255   2.03966   2.07657   2.10783
 Alpha virt. eigenvalues --    2.14405   2.15177   2.16651   2.19756   2.21872
 Alpha virt. eigenvalues --    2.22341   2.24467   2.28831   2.31119   2.31951
 Alpha virt. eigenvalues --    2.33205   2.35024   2.36927   2.39340   2.42970
 Alpha virt. eigenvalues --    2.46250   2.48806   2.50293   2.54145   2.56686
 Alpha virt. eigenvalues --    2.58745   2.60516   2.64507   2.66414   2.74210
 Alpha virt. eigenvalues --    2.79898   2.86278   2.93752   2.98530   3.00238
 Alpha virt. eigenvalues --    3.03417   3.05615   3.08717   3.23131   3.25013
 Alpha virt. eigenvalues --    3.30574   3.36640   3.41336   3.77833   4.02559
 Alpha virt. eigenvalues --    4.08101   4.13500   4.19144   4.26949   4.29896
 Alpha virt. eigenvalues --    4.36969   4.55263   4.61451   4.77193
          Condensed to atoms (all electrons):
               1          2          3          4          5          6
     1  N    6.791324   0.046845   0.056808  -0.143569  -0.035498   0.226686
     2  C    0.046845   6.203886  -0.058440   0.317745   0.040053  -0.914978
     3  C    0.056808  -0.058440   5.293399  -0.381374   0.709055   0.014644
     4  C   -0.143569   0.317745  -0.381374   9.662465  -4.776432   1.093747
     5  C   -0.035498   0.040053   0.709055  -4.776432  15.625053  -4.742649
     6  C    0.226686  -0.914978   0.014644   1.093747  -4.742649  10.955398
     7  C    0.007122   0.165990  -0.173912   0.129490  -1.711024  -0.221333
     8  O    0.010573   0.046315  -0.012987   0.061067   0.082905  -0.415032
     9  O    0.021155   0.013726  -0.001018   0.078882   0.106695  -0.360344
    10  O    0.018624  -0.002754   0.033282  -0.292388   0.233002   0.046873
    11  H    0.310882  -0.058527   0.040332  -0.024175   0.085721  -0.018501
    12  H   -0.063513   0.335516  -0.012987   0.057338  -0.069285   0.054999
    13  H    0.003836   0.030467   0.279629   0.012773   0.006856  -0.004536
    14  H    0.004797  -0.021135   0.055238   0.146037   0.186771  -0.043478
    15  H   -0.000267  -0.000998   0.000664  -0.006277   0.011097   0.049953
    16  H   -0.000710   0.000129  -0.012966   0.103795  -0.029396  -0.035181
               7          8          9         10         11         12
     1  N    0.007122   0.010573   0.021155   0.018624   0.310882  -0.063513
     2  C    0.165990   0.046315   0.013726  -0.002754  -0.058527   0.335516
     3  C   -0.173912  -0.012987  -0.001018   0.033282   0.040332  -0.012987
     4  C    0.129490   0.061067   0.078882  -0.292388  -0.024175   0.057338
     5  C   -1.711024   0.082905   0.106695   0.233002   0.085721  -0.069285
     6  C   -0.221333  -0.415032  -0.360344   0.046873  -0.018501   0.054999
     7  C    6.963350   0.500104   0.183944  -0.040955  -0.066098   0.019109
     8  O    0.500104   8.319471  -0.190653  -0.001460   0.019848   0.000134
     9  O    0.183944  -0.190653   8.519441  -0.031909   0.001191   0.000002
    10  O   -0.040955  -0.001460  -0.031909   8.271822  -0.000156   0.000206
    11  H   -0.066098   0.019848   0.001191  -0.000156   0.338246  -0.004958
    12  H    0.019109   0.000134   0.000002   0.000206  -0.004958   0.475730
    13  H    0.001908  -0.000006   0.000014  -0.000661  -0.000130  -0.003993
    14  H   -0.001495   0.000025   0.000191  -0.010735   0.000019  -0.000154
    15  H   -0.029988   0.007287   0.212904   0.002263  -0.000028  -0.000000
    16  H   -0.010236   0.001525   0.012278   0.226153  -0.000009  -0.000000
              13         14         15         16
     1  N    0.003836   0.004797  -0.000267  -0.000710
     2  C    0.030467  -0.021135  -0.000998   0.000129
     3  C    0.279629   0.055238   0.000664  -0.012966
     4  C    0.012773   0.146037  -0.006277   0.103795
     5  C    0.006856   0.186771   0.011097  -0.029396
     6  C   -0.004536  -0.043478   0.049953  -0.035181
     7  C    0.001908  -0.001495  -0.029988  -0.010236
     8  O   -0.000006   0.000025   0.007287   0.001525
     9  O    0.000014   0.000191   0.212904   0.012278
    10  O   -0.000661  -0.010735   0.002263   0.226153
    11  H   -0.000130   0.000019  -0.000028  -0.000009
    12  H   -0.003993  -0.000154  -0.000000  -0.000000
    13  H    0.465863  -0.005420   0.000000   0.000003
    14  H   -0.005420   0.476009   0.000000   0.000096
    15  H    0.000000   0.000000   0.314448   0.000100
    16  H    0.000003   0.000096   0.000100   0.358682
 Mulliken charges:
               1
     1  N   -0.255095
     2  C   -0.143840
     3  C    0.170634
     4  C   -0.039123
     5  C    0.277076
     6  C    0.313732
     7  C    0.284023
     8  O   -0.429116
     9  O   -0.566499
    10  O   -0.451207
    11  H    0.376343
    12  H    0.211859
    13  H    0.213397
    14  H    0.213236
    15  H    0.438841
    16  H    0.385739
 Sum of Mulliken charges =   1.00000
 Mulliken charges with hydrogens summed into heavy atoms:
               1
     1  N    0.121249
     2  C    0.068018
     3  C    0.384032
     4  C    0.174112
     5  C    0.277076
     6  C    0.313732
     7  C    0.284023
     8  O   -0.429116
     9  O   -0.127658
    10  O   -0.065469
 Electronic spatial extent (au):  <R**2>=           1253.7902
 Charge=              1.0000 electrons
 Dipole moment (field-independent basis, Debye):
    X=             -4.2828    Y=             -1.5741    Z=              0.6702  Tot=              4.6119
 Quadrupole moment (field-independent basis, Debye-Ang):
   XX=            -27.3203   YY=            -45.6505   ZZ=            -54.5482
   XY=              7.8085   XZ=              0.8137   YZ=              2.4936
 Traceless Quadrupole moment (field-independent basis, Debye-Ang):
   XX=             15.1860   YY=             -3.1442   ZZ=            -12.0419
   XY=              7.8085   XZ=              0.8137   YZ=              2.4936
 Octapole moment (field-independent basis, Debye-Ang**2):
  XXX=              1.5056  YYY=            -16.4894  ZZZ=              0.6191  XYY=            -18.3752
  XXY=             11.7743  XXZ=             -2.4181  XZZ=              8.1375  YZZ=              1.6341
  YYZ=              4.1702  XYZ=              3.6036
 Hexadecapole moment (field-independent basis, Debye-Ang**3):
 XXXX=           -631.2645 YYYY=           -459.5866 ZZZZ=            -52.8570 XXXY=             46.7008
 XXXZ=             -7.7377 YYYX=             41.8166 YYYZ=             11.2794 ZZZX=              0.4432
 ZZZY=              1.8208 XXYY=           -222.4900 XXZZ=           -176.4052 YYZZ=            -94.5057
 XXYZ=              4.3058 YYXZ=              6.6275 ZZXY=              1.4448
 N-N= 5.334518174147D+02 E-N=-2.249953947156D+03  KE= 5.087723519521D+02
 Calling FoFJK, ICntrl=      2127 FMM=F ISym2X=0 I1Cent= 0 IOpClX= 0 NMat=1 NMatS=1 NMatT=0.
 ***** Axes restored to original set *****
 -------------------------------------------------------------------
 Center     Atomic                   Forces (Hartrees/Bohr)
 Number     Number              X              Y              Z
 -------------------------------------------------------------------
      1        7          -0.039291084    0.005587866   -0.001298929
      2        6          -0.079200117   -0.033382270    0.000914902
      3        6           0.008171273   -0.056285532    0.001794040
      4        6           0.063595348   -0.053175130    0.004492326
      5        6           0.057328450    0.032934736   -0.008480640
      6        6           0.033921787   -0.015912616    0.003383874
      7        6          -0.022222012    0.133443072    0.003648406
      8        8          -0.037875639   -0.009058382   -0.001872733
      9        8           0.029271478   -0.035325203   -0.001891623
     10        8          -0.015301023   -0.019452620   -0.004510345
     11        1           0.010313419    0.008349390   -0.000477372
     12        1           0.007510657    0.011358613   -0.000244242
     13        1          -0.001790396    0.012220346   -0.000568147
     14        1          -0.006553037    0.009494674   -0.000398590
     15        1          -0.008382749    0.001043611   -0.001374206
     16        1           0.000503645    0.008159445    0.006883279
 -------------------------------------------------------------------
 Cartesian Forces:  Max     0.133443072 RMS     0.031742485

 GradGradGradGradGradGradGradGradGradGradGradGradGradGradGradGradGradGrad
 Berny optimization.
 FormGI is forming the generalized inverse of G from B-inverse, IUseBI=4.
 Internal  Forces:  Max     0.090563863 RMS     0.023189309
 Search for a local minimum.
 Step number   1 out of a maximum of   81
 All quantities printed in internal units (Hartrees-Bohrs-Radians)
 Mixed Optimization -- RFO/linear search
 Second derivative matrix not updated -- first step.
 ITU=  0
     Eigenvalues ---    0.02134   0.02306   0.02404   0.02445   0.02613
     Eigenvalues ---    0.02655   0.02717   0.02850   0.02855   0.02869
     Eigenvalues ---    0.02915   0.02923   0.02941   0.16000   0.16000
     Eigenvalues ---    0.16000   0.16000   0.16000   0.16000   0.22000
     Eigenvalues ---    0.22483   0.24458   0.24947   0.24996   0.24999
     Eigenvalues ---    0.25000   0.33243   0.33309   0.33475   0.42937
     Eigenvalues ---    0.49581   0.50394   0.51644   0.51719   0.53493
     Eigenvalues ---    0.53705   0.54270   0.55569   0.57226   0.61222
     Eigenvalues ---    0.64470   0.98684
 RFO step:  Lambda=-7.58782675D-02 EMin= 2.13416289D-02
 Linear search not attempted -- first point.
 Maximum step size (   0.300) exceeded in Quadratic search.
    -- Step size scaled by   0.747
 Iteration  1 RMS(Cart)=  0.07303171 RMS(Int)=  0.00215932
 Iteration  2 RMS(Cart)=  0.00303002 RMS(Int)=  0.00019996
 Iteration  3 RMS(Cart)=  0.00000617 RMS(Int)=  0.00019992
 Iteration  4 RMS(Cart)=  0.00000000 RMS(Int)=  0.00019992
 Variable       Old X    -DE/DX   Delta X   Delta X   Delta X     New X
                                 (Linear)    (Quad)   (Total)
    R1        2.46441   0.04347   0.00000   0.04348   0.04347   2.50788
    R2        2.48822   0.04909   0.00000   0.05129   0.05131   2.53953
    R3        1.94447  -0.00534   0.00000  -0.00789  -0.00789   1.93658
    R4        2.52701   0.06312   0.00000   0.07224   0.07221   2.59921
    R5        2.08626  -0.01200   0.00000  -0.02195  -0.02195   2.06431
    R6        2.52806   0.05861   0.00000   0.06792   0.06790   2.59596
    R7        2.08225  -0.01220   0.00000  -0.02218  -0.02218   2.06007
    R8        2.54445   0.06624   0.00000   0.07876   0.07877   2.62321
    R9        2.08512  -0.01048   0.00000  -0.01914  -0.01914   2.06598
   R10        2.56609   0.06101   0.00000   0.07449   0.07451   2.64060
   R11        2.58242  -0.01828   0.00000  -0.02304  -0.02304   2.55938
   R12        2.59470   0.09056   0.00000   0.11664   0.11664   2.71134
   R13        2.29170   0.02777   0.00000   0.01951   0.01951   2.31121
   R14        2.55786  -0.00264   0.00000  -0.00318  -0.00318   2.55468
   R15        1.83196   0.00305   0.00000   0.00373   0.00373   1.83570
   R16        1.83001   0.00279   0.00000   0.00340   0.00340   1.83341
    A1        2.10529   0.01793   0.00000   0.04165   0.04168   2.14697
    A2        2.05059   0.00285   0.00000   0.01658   0.01656   2.06715
    A3        2.12731  -0.02078   0.00000  -0.05823  -0.05825   2.06906
    A4        2.13734  -0.01206   0.00000  -0.03173  -0.03175   2.10559
    A5        2.06183  -0.00068   0.00000  -0.00538  -0.00537   2.05647
    A6        2.08401   0.01274   0.00000   0.03711   0.03712   2.12113
    A7        2.04590   0.00646   0.00000   0.01834   0.01831   2.06421
    A8        2.11786  -0.00529   0.00000  -0.01570  -0.01568   2.10217
    A9        2.11942  -0.00116   0.00000  -0.00264  -0.00262   2.11679
   A10        2.12238  -0.00558   0.00000  -0.01110  -0.01109   2.11130
   A11        2.07264   0.00781   0.00000   0.02143   0.02143   2.09407
   A12        2.08815  -0.00223   0.00000  -0.01034  -0.01035   2.07780
   A13        2.06523   0.00052   0.00000   0.00186   0.00183   2.06706
   A14        2.04425  -0.00521   0.00000  -0.01216  -0.01227   2.03198
   A15        2.17356   0.00475   0.00000   0.01069   0.01057   2.18413
   A16        2.08991  -0.00725   0.00000  -0.01887  -0.01885   2.07107
   A17        2.09401  -0.03277   0.00000  -0.07376  -0.07387   2.02014
   A18        2.09744   0.04014   0.00000   0.09358   0.09355   2.19099
   A19        2.12682  -0.01256   0.00000  -0.02873  -0.02876   2.09806
   A20        2.16356  -0.03757   0.00000  -0.08605  -0.08608   2.07748
   A21        1.99270   0.05015   0.00000   0.11498   0.11495   2.10765
   A22        1.92410  -0.01453   0.00000  -0.04601  -0.04601   1.87809
   A23        1.95386   0.00576   0.00000   0.01824   0.01824   1.97210
    D1        0.00306  -0.00021   0.00000  -0.00048  -0.00037   0.00270
    D2       -3.13766   0.00004   0.00000   0.00009   0.00007  -3.13759
    D3       -3.14102  -0.00083   0.00000  -0.00350  -0.00327   3.13889
    D4        0.00144  -0.00058   0.00000  -0.00293  -0.00284  -0.00140
    D5       -0.02101   0.00080   0.00000   0.00530   0.00523  -0.01577
    D6       -3.09792  -0.00304   0.00000  -0.01517  -0.01433  -3.11225
    D7        3.12319   0.00142   0.00000   0.00833   0.00804   3.13123
    D8        0.04628  -0.00243   0.00000  -0.01214  -0.01153   0.03475
    D9        0.00665  -0.00016   0.00000  -0.00183  -0.00194   0.00471
   D10       -3.13944   0.00010   0.00000   0.00006  -0.00001  -3.13945
   D11       -3.13582  -0.00041   0.00000  -0.00243  -0.00241  -3.13823
   D12        0.00127  -0.00015   0.00000  -0.00054  -0.00048   0.00079
   D13        0.00184   0.00003   0.00000  -0.00042  -0.00045   0.00140
   D14        3.13726  -0.00040   0.00000  -0.00214  -0.00201   3.13525
   D15       -3.13525  -0.00022   0.00000  -0.00227  -0.00236  -3.13761
   D16        0.00017  -0.00065   0.00000  -0.00400  -0.00392  -0.00375
   D17       -0.01913   0.00047   0.00000   0.00480   0.00495  -0.01419
   D18        3.13984  -0.00293   0.00000  -0.01882  -0.01838   3.12145
   D19        3.12869   0.00087   0.00000   0.00642   0.00639   3.13507
   D20        0.00447  -0.00254   0.00000  -0.01719  -0.01694  -0.01247
   D21        0.02858  -0.00102   0.00000  -0.00754  -0.00756   0.02102
   D22        3.10537   0.00010   0.00000   0.00667   0.00731   3.11268
   D23       -3.13178   0.00255   0.00000   0.01772   0.01773  -3.11405
   D24       -0.05500   0.00367   0.00000   0.03193   0.03260  -0.02240
   D25        2.48625   0.01013   0.00000   0.07661   0.07653   2.56278
   D26       -0.63678   0.00655   0.00000   0.05149   0.05156  -0.58521
   D27       -0.10305   0.00214   0.00000   0.01674   0.01691  -0.08614
   D28        3.02133   0.00447   0.00000   0.03331   0.03313   3.05446
   D29        3.10350   0.00006   0.00000   0.00042   0.00060   3.10410
   D30       -0.05530   0.00239   0.00000   0.01699   0.01681  -0.03849
   D31       -3.08589  -0.00172   0.00000  -0.01382  -0.01417  -3.10006
   D32        0.03968  -0.00004   0.00000   0.00049   0.00085   0.04053
         Item               Value     Threshold  Converged?
 Maximum Force            0.090564     0.000450     NO 
 RMS     Force            0.023189     0.000300     NO 
 Maximum Displacement     0.241456     0.001800     NO 
 RMS     Displacement     0.073636     0.001200     NO 
 Predicted change in Energy=-3.940841D-02
 GradGradGradGradGradGradGradGradGradGradGradGradGradGradGradGradGradGrad

                          Input orientation:                          
 ---------------------------------------------------------------------
 Center     Atomic      Atomic             Coordinates (Angstroms)
 Number     Number       Type             X           Y           Z
 ---------------------------------------------------------------------
      1          7           0       -1.325530   -0.185826    0.007887
      2          6           0       -1.377341   -1.511892    0.017418
      3          6           0       -0.222476   -2.258722   -0.001997
      4          6           0        0.980598   -1.596030   -0.025698
      5          6           0        1.032043   -0.208842   -0.028326
      6          6           0       -0.171223    0.501586   -0.023693
      7          6           0       -0.295781    1.930591    0.008222
      8          8           0       -1.400973    2.452997   -0.030170
      9          8           0        0.823450    2.685187    0.082230
     10          8           0        2.266417    0.348495   -0.028067
     11          1           0       -2.206770    0.337107    0.020563
     12          1           0       -2.362392   -1.983573    0.039782
     13          1           0       -0.268799   -3.347865    0.003894
     14          1           0        1.915947   -2.161949   -0.035510
     15          1           0        0.547925    3.615365    0.132123
     16          1           0        2.304687    1.184906   -0.518208
 ---------------------------------------------------------------------
                    Distance matrix (angstroms):
                    1          2          3          4          5
     1  N    0.000000
     2  C    1.327112   0.000000
     3  C    2.348132   1.375443   0.000000
     4  C    2.703337   2.359833   1.373722   0.000000
     5  C    2.357964   2.739555   2.403440   1.388144   0.000000
     6  C    1.343859   2.347446   2.760869   2.393050   1.397347
     7  C    2.353637   3.608400   4.189967   3.750647   2.518259
     8  O    2.640176   3.965246   4.856949   4.697502   3.606239
     9  O    3.586971   4.739531   5.054038   4.285460   2.903642
    10  O    3.631649   4.091465   3.604560   2.331204   1.354365
    11  H    1.024794   2.026514   3.267454   3.728065   3.284868
    12  H    2.075571   1.092387   2.157937   3.366015   3.830992
    13  H    3.333944   2.144724   1.090143   2.151928   3.398042
    14  H    3.796593   3.357249   2.140874   1.093270   2.143820
    15  H    4.239614   5.478009   5.925910   5.231707   3.858066
    16  H    3.915885   4.595317   4.302511   3.119195   1.949907
                    6          7          8          9         10
     6  C    0.000000
     7  C    1.434779   0.000000
     8  O    2.306585   1.223041   0.000000
     9  O    2.401814   1.351877   2.239331   0.000000
    10  O    2.442446   3.011512   4.228319   2.748536   0.000000
    11  H    2.042661   2.488217   2.264702   3.833995   4.473465
    12  H    3.313799   4.426348   4.540086   5.652319   5.183533
    13  H    3.850786   5.278527   5.910413   6.131628   4.482345
    14  H    3.383908   4.652154   5.683284   4.970125   2.534801
    15  H    3.199543   1.888294   2.275004   0.971408   3.694769
    16  H    2.615645   2.756013   3.946917   2.192130   0.970198
                   11         12         13         14         15
    11  H    0.000000
    12  H    2.325972   0.000000
    13  H    4.163535   2.499142   0.000000
    14  H    4.821329   4.282718   2.486175   0.000000
    15  H    4.283430   6.310831   7.012136   5.939440   0.000000
    16  H    4.621934   5.668530   5.238457   3.403756   3.068595
                   16
    16  H    0.000000
 Stoichiometry    C6H6NO3(1+)
 Framework group  C1[X(C6H6NO3)]
 Deg. of freedom    42
 Full point group                 C1      NOp   1
 Largest Abelian subgroup         C1      NOp   1
 Largest concise Abelian subgroup C1      NOp   1
                         Standard orientation:                         
 ---------------------------------------------------------------------
 Center     Atomic      Atomic             Coordinates (Angstroms)
 Number     Number       Type             X           Y           Z
 ---------------------------------------------------------------------
      1          7           0       -0.524995   -1.361198    0.000673
      2          6           0       -1.851984   -1.368261   -0.016007
      3          6           0       -2.559350   -0.188652   -0.015508
      4          6           0       -1.856414    0.991533   -0.003040
      5          6           0       -0.468314    0.996076    0.007103
      6          6           0        0.200950   -0.230483    0.021779
      7          6           0        1.625068   -0.403683   -0.000159
      8          8           0        2.109510   -1.525326    0.055199
      9          8           0        2.417546    0.688358   -0.083795
     10          8           0        0.130520    2.210796   -0.005399
     11          1           0       -0.032160   -2.259704    0.002156
     12          1           0       -2.356641   -2.337006   -0.028757
     13          1           0       -3.649388   -0.198195   -0.027225
     14          1           0       -2.390361    1.945530   -0.008320
     15          1           0        3.338112    0.380927   -0.124746
     16          1           0        0.965061    2.227019    0.489134
 ---------------------------------------------------------------------
 Rotational constants (GHZ):      2.3177389      1.2568196      0.8160416
 Standard basis: 6-31+G(d,p) (6D, 7F)
 There are   220 symmetry adapted cartesian basis functions of A   symmetry.
 There are   220 symmetry adapted basis functions of A   symmetry.
   220 basis functions,   362 primitive gaussians,   220 cartesian basis functions
    36 alpha electrons       36 beta electrons
       nuclear repulsion energy       523.1558502862 Hartrees.
 NAtoms=   16 NActive=   16 NUniq=   16 SFac= 1.00D+00 NAtFMM=   60 NAOKFM=F Big=F
 Integral buffers will be    131072 words long.
 Raffenetti 2 integral format.
 Two-electron integral symmetry is turned on.
 One-electron integrals computed using PRISM.
 NBasis=   220 RedAO= T EigKep=  4.87D-06  NBF=   220
 NBsUse=   220 1.00D-06 EigRej= -1.00D+00 NBFU=   220
 Initial guess from the checkpoint file:  "b3lyp3HPAyanggd3.chk"
 B after Tr=    -0.000000    0.000000   -0.000000
         Rot=    0.999769    0.000572    0.000311   -0.021490 Ang=   2.46 deg.
 ExpMin= 4.38D-02 ExpMax= 5.48D+03 ExpMxC= 8.25D+02 IAcc=2 IRadAn=         4 AccDes= 0.00D+00
 Harris functional with IExCor=  402 and IRadAn=       4 diagonalized for initial guess.
 HarFok:  IExCor=  402 AccDes= 0.00D+00 IRadAn=         4 IDoV= 1 UseB2=F ITyADJ=14
 ICtDFT=  3500011 ScaDFX=  1.000000  1.000000  1.000000  1.000000
 FoFCou: FMM=F IPFlag=           0 FMFlag=      100000 FMFlg1=           0
         NFxFlg=           0 DoJE=T BraDBF=F KetDBF=T FulRan=T
         wScrn=  0.000000 ICntrl=     500 IOpCl=  0 I1Cent=   200000004 NGrid=           0
         NMat0=    1 NMatS0=      1 NMatT0=    0 NMatD0=    1 NMtDS0=    0 NMtDT0=    0
 Petite list used in FoFCou.
 Keep R1 ints in memory in canonical form, NReq=301066375.
 Requested convergence on RMS density matrix=1.00D-08 within 128 cycles.
 Requested convergence on MAX density matrix=1.00D-06.
 Requested convergence on             energy=1.00D-06.
 No special actions if energy rises.
 SCF Done:  E(RB3LYP) =  -512.468463127     A.U. after   13 cycles
            NFock= 13  Conv=0.71D-08     -V/T= 2.0088
 Calling FoFJK, ICntrl=      2127 FMM=F ISym2X=0 I1Cent= 0 IOpClX= 0 NMat=1 NMatS=1 NMatT=0.
 ***** Axes restored to original set *****
 -------------------------------------------------------------------
 Center     Atomic                   Forces (Hartrees/Bohr)
 Number     Number              X              Y              Z
 -------------------------------------------------------------------
      1        7          -0.012729624   -0.005097111   -0.001547377
      2        6          -0.028262120   -0.013133718    0.000308243
      3        6           0.006305473   -0.013262091    0.000999215
      4        6           0.016478285   -0.022426992    0.003482115
      5        6           0.019856887    0.016425115   -0.004739058
      6        6           0.026132624   -0.012606793    0.003293782
      7        6          -0.022887349    0.060433802   -0.000719188
      8        8           0.002277255   -0.008663948    0.001427289
      9        8           0.002584902   -0.023155305   -0.001859705
     10        8          -0.012264300   -0.009577170   -0.005580790
     11        1           0.004981739    0.006388794   -0.000337966
     12        1           0.003533584    0.005680261   -0.000057106
     13        1          -0.000724171    0.004596382   -0.000346719
     14        1          -0.002795024    0.004923404   -0.000321166
     15        1          -0.001247928    0.003570080   -0.000767964
     16        1          -0.001240233    0.005905289    0.006766395
 -------------------------------------------------------------------
 Cartesian Forces:  Max     0.060433802 RMS     0.013726680

 GradGradGradGradGradGradGradGradGradGradGradGradGradGradGradGradGradGrad
 Berny optimization.
 Using GEDIIS/GDIIS optimizer.
 FormGI is forming the generalized inverse of G from B-inverse, IUseBI=4.
 Internal  Forces:  Max     0.033686097 RMS     0.008153855
 Search for a local minimum.
 Step number   2 out of a maximum of   81
 All quantities printed in internal units (Hartrees-Bohrs-Radians)
 Mixed Optimization -- RFO/linear search
 Update second derivatives using D2CorX and points    1    2
 DE= -3.73D-02 DEPred=-3.94D-02 R= 9.45D-01
 TightC=F SS=  1.41D+00  RLast= 3.21D-01 DXNew= 5.0454D-01 9.6248D-01
 Trust test= 9.45D-01 RLast= 3.21D-01 DXMaxT set to 5.05D-01
 ITU=  1  0
 Use linear search instead of GDIIS.
     Eigenvalues ---    0.02125   0.02306   0.02400   0.02445   0.02617
     Eigenvalues ---    0.02644   0.02719   0.02850   0.02856   0.02873
     Eigenvalues ---    0.02915   0.02922   0.02941   0.15720   0.16000
     Eigenvalues ---    0.16000   0.16000   0.16000   0.16227   0.21738
     Eigenvalues ---    0.22501   0.23405   0.24473   0.24985   0.25000
     Eigenvalues ---    0.27646   0.33183   0.33291   0.33483   0.42949
     Eigenvalues ---    0.47626   0.50655   0.51459   0.52218   0.53489
     Eigenvalues ---    0.53701   0.54170   0.56637   0.58401   0.62689
     Eigenvalues ---    0.65344   1.01321
 RFO step:  Lambda=-1.34042381D-02 EMin= 2.12473927D-02
 Quartic linear search produced a step of  0.63196.
 Iteration  1 RMS(Cart)=  0.09303681 RMS(Int)=  0.02234064
 Iteration  2 RMS(Cart)=  0.02567662 RMS(Int)=  0.00172285
 Iteration  3 RMS(Cart)=  0.00164187 RMS(Int)=  0.00053100
 Iteration  4 RMS(Cart)=  0.00000533 RMS(Int)=  0.00053099
 Iteration  5 RMS(Cart)=  0.00000000 RMS(Int)=  0.00053099
 Variable       Old X    -DE/DX   Delta X   Delta X   Delta X     New X
                                 (Linear)    (Quad)   (Total)
    R1        2.50788   0.01223   0.02747  -0.00374   0.02369   2.53156
    R2        2.53953   0.01526   0.03243  -0.00153   0.03098   2.57050
    R3        1.93658  -0.00103  -0.00499   0.00229  -0.00270   1.93388
    R4        2.59921   0.02023   0.04563   0.00132   0.04681   2.64602
    R5        2.06431  -0.00564  -0.01387  -0.00934  -0.02321   2.04110
    R6        2.59596   0.01554   0.04291  -0.00801   0.03481   2.63077
    R7        2.06007  -0.00456  -0.01402  -0.00401  -0.01803   2.04205
    R8        2.62321   0.02159   0.04978   0.00114   0.05098   2.67419
    R9        2.06598  -0.00494  -0.01210  -0.00818  -0.02028   2.04570
   R10        2.64060   0.00836   0.04709  -0.03318   0.01405   2.65465
   R11        2.55938  -0.01382  -0.01456  -0.02448  -0.03904   2.52034
   R12        2.71134   0.03369   0.07371   0.01608   0.08979   2.80113
   R13        2.31121  -0.00580   0.01233  -0.02400  -0.01167   2.29954
   R14        2.55468  -0.00997  -0.00201  -0.02646  -0.02848   2.52620
   R15        1.83570   0.00373   0.00236   0.00813   0.01049   1.84619
   R16        1.83341   0.00163   0.00215   0.00218   0.00432   1.83773
    A1        2.14697   0.00609   0.02634   0.00623   0.03280   2.17977
    A2        2.06715   0.00474   0.01047   0.03919   0.04954   2.11668
    A3        2.06906  -0.01083  -0.03681  -0.04544  -0.08238   1.98667
    A4        2.10559  -0.00684  -0.02006  -0.01993  -0.03999   2.06560
    A5        2.05647  -0.00029  -0.00339  -0.00747  -0.01087   2.04560
    A6        2.12113   0.00713   0.02346   0.02741   0.05086   2.17198
    A7        2.06421   0.00316   0.01157   0.01278   0.02432   2.08853
    A8        2.10217  -0.00252  -0.00991  -0.00986  -0.01977   2.08241
    A9        2.11679  -0.00064  -0.00166  -0.00291  -0.00456   2.11223
   A10        2.11130  -0.00241  -0.00701  -0.00519  -0.01202   2.09928
   A11        2.09407   0.00406   0.01354   0.01642   0.02987   2.12394
   A12        2.07780  -0.00166  -0.00654  -0.01125  -0.01788   2.05992
   A13        2.06706   0.00041   0.00116  -0.00149  -0.00085   2.06621
   A14        2.03198   0.00381  -0.00776   0.03407   0.02514   2.05712
   A15        2.18413  -0.00423   0.00668  -0.03292  -0.02732   2.15681
   A16        2.07107  -0.00041  -0.01191   0.00794  -0.00410   2.06696
   A17        2.02014  -0.00829  -0.04668   0.01020  -0.03727   1.98286
   A18        2.19099   0.00877   0.05912  -0.01601   0.04228   2.23327
   A19        2.09806   0.00383  -0.01817   0.04590   0.02751   2.12556
   A20        2.07748  -0.02338  -0.05440  -0.07570  -0.13034   1.94715
   A21        2.10765   0.01955   0.07264   0.02982   0.10220   2.20984
   A22        1.87809  -0.00041  -0.02908   0.03302   0.00395   1.88204
   A23        1.97210   0.00133   0.01153  -0.00230   0.00922   1.98132
    D1        0.00270  -0.00012  -0.00023  -0.00315  -0.00286  -0.00017
    D2       -3.13759  -0.00006   0.00004  -0.00245  -0.00224  -3.13983
    D3        3.13889  -0.00037  -0.00207  -0.00773  -0.00938   3.12951
    D4       -0.00140  -0.00031  -0.00179  -0.00704  -0.00875  -0.01015
    D5       -0.01577   0.00052   0.00331   0.01629   0.01915   0.00338
    D6       -3.11225  -0.00132  -0.00906  -0.03171  -0.03900   3.13193
    D7        3.13123   0.00073   0.00508   0.02063   0.02488  -3.12708
    D8        0.03475  -0.00111  -0.00729  -0.02737  -0.03328   0.00147
    D9        0.00471  -0.00019  -0.00122  -0.00565  -0.00698  -0.00227
   D10       -3.13945   0.00005  -0.00001   0.00128   0.00097  -3.13848
   D11       -3.13823  -0.00025  -0.00152  -0.00640  -0.00771   3.13725
   D12        0.00079  -0.00002  -0.00031   0.00053   0.00024   0.00103
   D13        0.00140   0.00003  -0.00028   0.00063   0.00002   0.00142
   D14        3.13525  -0.00012  -0.00127  -0.00182  -0.00329   3.13196
   D15       -3.13761  -0.00021  -0.00149  -0.00635  -0.00804   3.13754
   D16       -0.00375  -0.00036  -0.00248  -0.00880  -0.01135  -0.01510
   D17       -0.01419   0.00037   0.00313   0.01230   0.01594   0.00176
   D18        3.12145  -0.00169  -0.01162  -0.04697  -0.05892   3.06253
   D19        3.13507   0.00049   0.00404   0.01461   0.01893  -3.12918
   D20       -0.01247  -0.00157  -0.01071  -0.04466  -0.05594  -0.06841
   D21        0.02102  -0.00067  -0.00478  -0.02043  -0.02507  -0.00404
   D22        3.11268   0.00086   0.00462   0.03354   0.04003  -3.13048
   D23       -3.11405   0.00155   0.01121   0.04421   0.05419  -3.05987
   D24       -0.02240   0.00308   0.02060   0.09818   0.11928   0.09688
   D25        2.56278   0.00860   0.04837   0.31288   0.36104   2.92382
   D26       -0.58521   0.00641   0.03259   0.24929   0.28209  -0.30313
   D27       -0.08614   0.00222   0.01069   0.07599   0.08732   0.00118
   D28        3.05446   0.00324   0.02094   0.10347   0.12411  -3.10462
   D29        3.10410   0.00055   0.00038   0.02345   0.02413   3.12823
   D30       -0.03849   0.00157   0.01062   0.05094   0.06092   0.02243
   D31       -3.10006  -0.00134  -0.00896  -0.04384  -0.05368   3.12944
   D32        0.04053  -0.00033   0.00054  -0.01619  -0.01477   0.02576
         Item               Value     Threshold  Converged?
 Maximum Force            0.033686     0.000450     NO 
 RMS     Force            0.008154     0.000300     NO 
 Maximum Displacement     0.616751     0.001800     NO 
 RMS     Displacement     0.111552     0.001200     NO 
 Predicted change in Energy=-1.045848D-02
 GradGradGradGradGradGradGradGradGradGradGradGradGradGradGradGradGradGrad

                          Input orientation:                          
 ---------------------------------------------------------------------
 Center     Atomic      Atomic             Coordinates (Angstroms)
 Number     Number       Type             X           Y           Z
 ---------------------------------------------------------------------
      1          7           0       -1.315889   -0.204027    0.038616
      2          6           0       -1.406226   -1.540564    0.025976
      3          6           0       -0.222525   -2.286507   -0.028909
      4          6           0        1.004310   -1.629892   -0.071270
      5          6           0        1.057658   -0.215848   -0.057300
      6          6           0       -0.151067    0.497502    0.002130
      7          6           0       -0.342637    1.967316    0.014126
      8          8           0       -1.450533    2.469007    0.054475
      9          8           0        0.823595    2.615479   -0.068597
     10          8           0        2.258525    0.362159   -0.006294
     11          1           0       -2.152397    0.384783    0.067572
     12          1           0       -2.397312   -1.968801    0.057359
     13          1           0       -0.277393   -3.365628   -0.042751
     14          1           0        1.939631   -2.173864   -0.105297
     15          1           0        0.633969    3.573859   -0.067548
     16          1           0        2.238072    1.316562   -0.191837
 ---------------------------------------------------------------------
                    Distance matrix (angstroms):
                    1          2          3          4          5
     1  N    0.000000
     2  C    1.339646   0.000000
     3  C    2.353025   1.400212   0.000000
     4  C    2.725526   2.414150   1.392142   0.000000
     5  C    2.375513   2.798666   2.434605   1.415119   0.000000
     6  C    1.360252   2.393680   2.785098   2.422001   1.404783
     7  C    2.379611   3.665594   4.255735   3.842065   2.594635
     8  O    2.676470   4.009917   4.912217   4.779440   3.675863
     9  O    3.540974   4.717387   5.012525   4.249217   2.841008
    10  O    3.619256   4.129382   3.629263   2.354898   1.333707
    11  H    1.023367   2.065299   3.296893   3.747398   3.268150
    12  H    2.069844   1.080103   2.199563   3.420882   3.875926
    13  H    3.328786   2.147056   1.080604   2.157859   3.421065
    14  H    3.807805   3.407795   2.166435   1.082538   2.148024
    15  H    4.252721   5.507128   5.922749   5.216914   3.813331
    16  H    3.872459   4.635895   4.366141   3.196607   1.939010
                    6          7          8          9         10
     6  C    0.000000
     7  C    1.482294   0.000000
     8  O    2.361819   1.216864   0.000000
     9  O    2.332551   1.336808   2.282161   0.000000
    10  O    2.413404   3.056630   4.266100   2.672144   0.000000
    11  H    2.005570   2.404682   2.199267   3.721703   4.411598
    12  H    3.336362   4.440334   4.537680   5.604081   5.207133
    13  H    3.865456   5.333646   5.952200   6.081652   4.508726
    14  H    3.393929   4.729945   5.751087   4.917793   2.557911
    15  H    3.175706   1.881863   2.362358   0.976960   3.599715
    16  H    2.533075   2.669449   3.872287   1.924349   0.972486
                   11         12         13         14         15
    11  H    0.000000
    12  H    2.366314   0.000000
    13  H    4.194448   2.540710   0.000000
    14  H    4.829208   4.344834   2.517819   0.000000
    15  H    4.237015   6.318650   6.999120   5.894276   0.000000
    16  H    4.495745   5.687046   5.317208   3.504230   2.772000
                   16
    16  H    0.000000
 Stoichiometry    C6H6NO3(1+)
 Framework group  C1[X(C6H6NO3)]
 Deg. of freedom    42
 Full point group                 C1      NOp   1
 Largest Abelian subgroup         C1      NOp   1
 Largest concise Abelian subgroup C1      NOp   1
                         Standard orientation:                         
 ---------------------------------------------------------------------
 Center     Atomic      Atomic             Coordinates (Angstroms)
 Number     Number       Type             X           Y           Z
 ---------------------------------------------------------------------
      1          7           0       -0.516894   -1.353193   -0.012853
      2          6           0       -1.855129   -1.413754   -0.002282
      3          6           0       -2.574941   -0.212865    0.015833
      4          6           0       -1.891555    0.999966    0.025085
      5          6           0       -0.476645    1.021822    0.014524
      6          6           0        0.210044   -0.203490   -0.007526
      7          6           0        1.675304   -0.427559   -0.008856
      8          8           0        2.152555   -1.546909   -0.015480
      9          8           0        2.348789    0.726062    0.042460
     10          8           0        0.127848    2.207729   -0.069076
     11          1           0        0.053406   -2.202917   -0.015612
     12          1           0       -2.305026   -2.395689   -0.006564
     13          1           0       -3.655045   -0.243599    0.027480
     14          1           0       -2.414864    1.947600    0.030220
     15          1           0        3.302753    0.515484    0.050230
     16          1           0        1.081033    2.171695    0.120314
 ---------------------------------------------------------------------
 Rotational constants (GHZ):      2.2805157      1.2504205      0.8079778
 Standard basis: 6-31+G(d,p) (6D, 7F)
 There are   220 symmetry adapted cartesian basis functions of A   symmetry.
 There are   220 symmetry adapted basis functions of A   symmetry.
   220 basis functions,   362 primitive gaussians,   220 cartesian basis functions
    36 alpha electrons       36 beta electrons
       nuclear repulsion energy       520.8806271664 Hartrees.
 NAtoms=   16 NActive=   16 NUniq=   16 SFac= 1.00D+00 NAtFMM=   60 NAOKFM=F Big=F
 Integral buffers will be    131072 words long.
 Raffenetti 2 integral format.
 Two-electron integral symmetry is turned on.
 One-electron integrals computed using PRISM.
 NBasis=   220 RedAO= T EigKep=  4.98D-06  NBF=   220
 NBsUse=   220 1.00D-06 EigRej= -1.00D+00 NBFU=   220
 Initial guess from the checkpoint file:  "b3lyp3HPAyanggd3.chk"
 B after Tr=     0.000000   -0.000000    0.000000
         Rot=    0.999990   -0.000202   -0.000226   -0.004468 Ang=  -0.51 deg.
 ExpMin= 4.38D-02 ExpMax= 5.48D+03 ExpMxC= 8.25D+02 IAcc=2 IRadAn=         4 AccDes= 0.00D+00
 Harris functional with IExCor=  402 and IRadAn=       4 diagonalized for initial guess.
 HarFok:  IExCor=  402 AccDes= 0.00D+00 IRadAn=         4 IDoV= 1 UseB2=F ITyADJ=14
 ICtDFT=  3500011 ScaDFX=  1.000000  1.000000  1.000000  1.000000
 FoFCou: FMM=F IPFlag=           0 FMFlag=      100000 FMFlg1=           0
         NFxFlg=           0 DoJE=T BraDBF=F KetDBF=T FulRan=T
         wScrn=  0.000000 ICntrl=     500 IOpCl=  0 I1Cent=   200000004 NGrid=           0
         NMat0=    1 NMatS0=      1 NMatT0=    0 NMatD0=    1 NMtDS0=    0 NMtDT0=    0
 Petite list used in FoFCou.
 Keep R1 ints in memory in canonical form, NReq=301066375.
 Requested convergence on RMS density matrix=1.00D-08 within 128 cycles.
 Requested convergence on MAX density matrix=1.00D-06.
 Requested convergence on             energy=1.00D-06.
 No special actions if energy rises.
 SCF Done:  E(RB3LYP) =  -512.479953080     A.U. after   14 cycles
            NFock= 14  Conv=0.38D-08     -V/T= 2.0092
 Calling FoFJK, ICntrl=      2127 FMM=F ISym2X=0 I1Cent= 0 IOpClX= 0 NMat=1 NMatS=1 NMatT=0.
 ***** Axes restored to original set *****
 -------------------------------------------------------------------
 Center     Atomic                   Forces (Hartrees/Bohr)
 Number     Number              X              Y              Z
 -------------------------------------------------------------------
      1        7           0.000215834   -0.002150040   -0.001787550
      2        6           0.004159886    0.004839024    0.000017154
      3        6           0.004117533    0.005535099   -0.000928749
      4        6          -0.007260047   -0.000922375    0.001018426
      5        6           0.003683485    0.007194731    0.007149655
      6        6          -0.001039388   -0.009120786   -0.000976374
      7        6          -0.013754929   -0.001924015   -0.003221977
      8        8           0.011818524   -0.002531781    0.001277084
      9        8          -0.002360788    0.010887710    0.001059730
     10        8           0.001152186   -0.009463465   -0.007252542
     11        1          -0.002052147   -0.000270452    0.000477946
     12        1          -0.001700874   -0.001173297    0.000140371
     13        1           0.000219976   -0.002292119    0.000182717
     14        1           0.001459068   -0.001395415   -0.000214956
     15        1           0.003915447    0.001343715   -0.000463025
     16        1          -0.002573766    0.001443465    0.003522091
 -------------------------------------------------------------------
 Cartesian Forces:  Max     0.013754929 RMS     0.004631760

 GradGradGradGradGradGradGradGradGradGradGradGradGradGradGradGradGradGrad
 Berny optimization.
 Using GEDIIS/GDIIS optimizer.
 FormGI is forming the generalized inverse of G from B-inverse, IUseBI=4.
 Internal  Forces:  Max     0.011760278 RMS     0.003318974
 Search for a local minimum.
 Step number   3 out of a maximum of   81
 All quantities printed in internal units (Hartrees-Bohrs-Radians)
 Mixed Optimization -- RFO/linear search
 Update second derivatives using D2CorX and points    2    3
 DE= -1.15D-02 DEPred=-1.05D-02 R= 1.10D+00
 TightC=F SS=  1.41D+00  RLast= 5.84D-01 DXNew= 8.4853D-01 1.7507D+00
 Trust test= 1.10D+00 RLast= 5.84D-01 DXMaxT set to 8.49D-01
 ITU=  1  1  0
 Use linear search instead of GDIIS.
     Eigenvalues ---    0.01830   0.02306   0.02410   0.02444   0.02624
     Eigenvalues ---    0.02707   0.02745   0.02851   0.02859   0.02882
     Eigenvalues ---    0.02916   0.02922   0.02940   0.15154   0.15999
     Eigenvalues ---    0.16000   0.16000   0.16009   0.16518   0.21720
     Eigenvalues ---    0.22455   0.23908   0.24534   0.24940   0.26244
     Eigenvalues ---    0.28938   0.33262   0.33354   0.33620   0.42944
     Eigenvalues ---    0.44005   0.50702   0.51688   0.52441   0.53495
     Eigenvalues ---    0.53700   0.55605   0.56628   0.58029   0.62097
     Eigenvalues ---    0.65504   1.02016
 RFO step:  Lambda=-3.49729696D-03 EMin= 1.83030072D-02
 Quartic linear search produced a step of -0.00868.
 Iteration  1 RMS(Cart)=  0.03878591 RMS(Int)=  0.00260611
 Iteration  2 RMS(Cart)=  0.00293638 RMS(Int)=  0.00017645
 Iteration  3 RMS(Cart)=  0.00002386 RMS(Int)=  0.00017558
 Iteration  4 RMS(Cart)=  0.00000000 RMS(Int)=  0.00017558
 Variable       Old X    -DE/DX   Delta X   Delta X   Delta X     New X
                                 (Linear)    (Quad)   (Total)
    R1        2.53156  -0.00424  -0.00021  -0.00325  -0.00349   2.52807
    R2        2.57050   0.00023  -0.00027   0.00472   0.00445   2.57496
    R3        1.93388   0.00153   0.00002   0.00309   0.00311   1.93700
    R4        2.64602  -0.00199  -0.00041   0.00205   0.00160   2.64761
    R5        2.04110   0.00203   0.00020   0.00296   0.00316   2.04426
    R6        2.63077  -0.00689  -0.00030  -0.00758  -0.00788   2.62288
    R7        2.04205   0.00228   0.00016   0.00425   0.00441   2.04645
    R8        2.67419  -0.00040  -0.00044   0.00586   0.00546   2.67965
    R9        2.04570   0.00197   0.00018   0.00314   0.00332   2.04902
   R10        2.65465   0.00250  -0.00012   0.00715   0.00707   2.66173
   R11        2.52034  -0.00490   0.00034  -0.01400  -0.01366   2.50668
   R12        2.80113   0.00775  -0.00078   0.02624   0.02546   2.82659
   R13        2.29954  -0.01176   0.00010  -0.01294  -0.01283   2.28670
   R14        2.52620   0.00725   0.00025   0.00947   0.00972   2.53592
   R15        1.84619   0.00056  -0.00009   0.00230   0.00220   1.84839
   R16        1.83773   0.00080  -0.00004   0.00198   0.00194   1.83968
    A1        2.17977  -0.00039  -0.00028   0.00329   0.00301   2.18278
    A2        2.11668  -0.00117  -0.00043  -0.00145  -0.00188   2.11480
    A3        1.98667   0.00156   0.00071  -0.00179  -0.00109   1.98559
    A4        2.06560   0.00107   0.00035  -0.00239  -0.00209   2.06352
    A5        2.04560  -0.00012   0.00009  -0.00029  -0.00018   2.04542
    A6        2.17198  -0.00095  -0.00044   0.00267   0.00225   2.17423
    A7        2.08853   0.00051  -0.00021   0.00220   0.00198   2.09051
    A8        2.08241   0.00008   0.00017  -0.00008   0.00010   2.08251
    A9        2.11223  -0.00059   0.00004  -0.00212  -0.00207   2.11016
   A10        2.09928   0.00153   0.00010   0.00375   0.00393   2.10320
   A11        2.12394  -0.00124  -0.00026  -0.00166  -0.00196   2.12198
   A12        2.05992  -0.00029   0.00016  -0.00205  -0.00194   2.05799
   A13        2.06621  -0.00193   0.00001  -0.00523  -0.00538   2.06083
   A14        2.05712  -0.00532  -0.00022  -0.01720  -0.01777   2.03934
   A15        2.15681   0.00737   0.00024   0.02559   0.02551   2.18232
   A16        2.06696  -0.00079   0.00004  -0.00159  -0.00151   2.06546
   A17        1.98286  -0.00453   0.00032  -0.02363  -0.02340   1.95947
   A18        2.23327   0.00531  -0.00037   0.02500   0.02455   2.25782
   A19        2.12556  -0.00196  -0.00024  -0.00383  -0.00457   2.12100
   A20        1.94715   0.00978   0.00113   0.02188   0.02251   1.96965
   A21        2.20984  -0.00776  -0.00089  -0.01611  -0.01749   2.19235
   A22        1.88204   0.00761  -0.00003   0.04531   0.04527   1.92731
   A23        1.98132  -0.00376  -0.00008  -0.02112  -0.02120   1.96012
    D1       -0.00017  -0.00030   0.00002  -0.00912  -0.00899  -0.00916
    D2       -3.13983  -0.00017   0.00002  -0.00452  -0.00444   3.13892
    D3        3.12951  -0.00004   0.00008  -0.00381  -0.00368   3.12583
    D4       -0.01015   0.00010   0.00008   0.00079   0.00087  -0.00928
    D5        0.00338  -0.00000  -0.00017   0.00086   0.00055   0.00393
    D6        3.13193  -0.00022   0.00034  -0.01579  -0.01538   3.11655
    D7       -3.12708  -0.00023  -0.00022  -0.00410  -0.00440  -3.13149
    D8        0.00147  -0.00045   0.00029  -0.02075  -0.02034  -0.01886
    D9       -0.00227   0.00020   0.00006   0.00602   0.00612   0.00386
   D10       -3.13848   0.00019  -0.00001   0.00549   0.00542  -3.13306
   D11        3.13725   0.00005   0.00007   0.00105   0.00120   3.13845
   D12        0.00103   0.00004  -0.00000   0.00052   0.00049   0.00152
   D13        0.00142   0.00019  -0.00000   0.00483   0.00470   0.00612
   D14        3.13196   0.00040   0.00003   0.00922   0.00906   3.14102
   D15        3.13754   0.00020   0.00007   0.00537   0.00543  -3.14021
   D16       -0.01510   0.00042   0.00010   0.00976   0.00979  -0.00532
   D17        0.00176  -0.00049  -0.00014  -0.01289  -0.01292  -0.01116
   D18        3.06253   0.00145   0.00051   0.03010   0.03012   3.09265
   D19       -3.12918  -0.00069  -0.00016  -0.01712  -0.01712   3.13689
   D20       -0.06841   0.00125   0.00049   0.02587   0.02592  -0.04249
   D21       -0.00404   0.00040   0.00022   0.01016   0.01038   0.00633
   D22       -3.13048   0.00074  -0.00035   0.02997   0.02990  -3.10058
   D23       -3.05987  -0.00100  -0.00047  -0.03323  -0.03422  -3.09408
   D24        0.09688  -0.00065  -0.00104  -0.01343  -0.01469   0.08219
   D25        2.92382   0.00263  -0.00313   0.15103   0.14778   3.07160
   D26       -0.30313   0.00417  -0.00245   0.19474   0.19241  -0.11071
   D27        0.00118   0.00135  -0.00076   0.05945   0.05884   0.06003
   D28       -3.10462  -0.00028  -0.00108   0.00456   0.00345  -3.10116
   D29        3.12823   0.00105  -0.00021   0.04058   0.04041  -3.11455
   D30        0.02243  -0.00059  -0.00053  -0.01430  -0.01498   0.00745
   D31        3.12944   0.00078   0.00047   0.01872   0.01900  -3.13474
   D32        0.02576  -0.00112   0.00013  -0.03977  -0.03945  -0.01369
         Item               Value     Threshold  Converged?
 Maximum Force            0.011760     0.000450     NO 
 RMS     Force            0.003319     0.000300     NO 
 Maximum Displacement     0.192209     0.001800     NO 
 RMS     Displacement     0.039724     0.001200     NO 
 Predicted change in Energy=-1.884905D-03
 GradGradGradGradGradGradGradGradGradGradGradGradGradGradGradGradGradGrad

                          Input orientation:                          
 ---------------------------------------------------------------------
 Center     Atomic      Atomic             Coordinates (Angstroms)
 Number     Number       Type             X           Y           Z
 ---------------------------------------------------------------------
      1          7           0       -1.303466   -0.201438    0.040389
      2          6           0       -1.403592   -1.535456    0.031502
      3          6           0       -0.223598   -2.288216   -0.031143
      4          6           0        1.004238   -1.642645   -0.077158
      5          6           0        1.074229   -0.226558   -0.053786
      6          6           0       -0.133484    0.496028    0.003173
      7          6           0       -0.355489    1.975175   -0.009179
      8          8           0       -1.465784    2.449032    0.074357
      9          8           0        0.787468    2.673021   -0.095736
     10          8           0        2.285870    0.313217   -0.043049
     11          1           0       -2.137931    0.393002    0.071479
     12          1           0       -2.399319   -1.956734    0.067384
     13          1           0       -0.284508   -3.369318   -0.047350
     14          1           0        1.935352   -2.196162   -0.125521
     15          1           0        0.601980    3.633399   -0.094786
     16          1           0        2.257816    1.285188   -0.090124
 ---------------------------------------------------------------------
                    Distance matrix (angstroms):
                    1          2          3          4          5
     1  N    0.000000
     2  C    1.337799   0.000000
     3  C    2.350718   1.401056   0.000000
     4  C    2.723305   2.412662   1.387970   0.000000
     5  C    2.379692   2.803584   2.436248   1.418008   0.000000
     6  C    1.362608   2.396018   2.785914   2.423795   1.408526
     7  C    2.374608   3.663974   4.265488   3.865501   2.625588
     8  O    2.655653   3.985203   4.898538   4.781818   3.691459
     9  O    3.557113   4.746390   5.063626   4.321147   2.914027
    10  O    3.627005   4.127382   3.614558   2.338620   1.326479
    11  H    1.025016   2.063929   3.296078   3.746888   3.273762
    12  H    2.069465   1.081775   2.203032   3.421074   3.882490
    13  H    3.328879   2.149794   1.082937   2.154797   3.423908
    14  H    3.807413   3.407306   2.162972   1.084295   2.150818
    15  H    4.284270   5.545748   5.979227   5.291385   3.888954
    16  H    3.861323   4.623497   4.350875   3.184938   1.920306
                    6          7          8          9         10
     6  C    0.000000
     7  C    1.495766   0.000000
     8  O    2.365230   1.210072   0.000000
     9  O    2.365848   1.341951   2.270738   0.000000
    10  O    2.426691   3.120902   4.318611   2.795829   0.000000
    11  H    2.008255   2.384718   2.163111   3.712736   4.426002
    12  H    3.339786   4.432044   4.503588   5.622887   5.207291
    13  H    3.868625   5.345100   5.938301   6.136883   4.490871
    14  H    3.397725   4.760414   5.760686   5.002747   2.535084
    15  H    3.223910   1.916710   2.388929   0.978126   3.723139
    16  H    2.519879   2.704070   3.904713   2.021889   0.973514
                   11         12         13         14         15
    11  H    0.000000
    12  H    2.364233   0.000000
    13  H    4.195753   2.545778   0.000000
    14  H    4.830550   4.345563   2.512007   0.000000
    15  H    4.246754   6.346942   7.058764   5.980184   0.000000
    16  H    4.488284   5.676599   5.303740   3.496432   2.873309
                   16
    16  H    0.000000
 Stoichiometry    C6H6NO3(1+)
 Framework group  C1[X(C6H6NO3)]
 Deg. of freedom    42
 Full point group                 C1      NOp   1
 Largest Abelian subgroup         C1      NOp   1
 Largest concise Abelian subgroup C1      NOp   1
                         Standard orientation:                         
 ---------------------------------------------------------------------
 Center     Atomic      Atomic             Coordinates (Angstroms)
 Number     Number       Type             X           Y           Z
 ---------------------------------------------------------------------
      1          7           0       -0.487750   -1.350569   -0.009590
      2          6           0       -1.822151   -1.445297    0.000765
      3          6           0       -2.570502   -0.260991    0.019401
      4          6           0       -1.920325    0.965273    0.021943
      5          6           0       -0.503949    1.029055   -0.001663
      6          6           0        0.214113   -0.182634   -0.013661
      7          6           0        1.692384   -0.409597    0.009116
      8          8           0        2.162129   -1.523962   -0.033373
      9          8           0        2.394452    0.733118    0.055333
     10          8           0        0.040455    2.237476   -0.055419
     11          1           0        0.103551   -2.187838   -0.009466
     12          1           0       -2.247167   -2.440083    0.000302
     13          1           0       -3.651850   -0.317214    0.036058
     14          1           0       -2.470361    1.899600    0.035645
     15          1           0        3.354116    0.544112    0.062654
     16          1           0        1.012242    2.207496   -0.005789
 ---------------------------------------------------------------------
 Rotational constants (GHZ):      2.2634423      1.2372819      0.8003298
 Standard basis: 6-31+G(d,p) (6D, 7F)
 There are   220 symmetry adapted cartesian basis functions of A   symmetry.
 There are   220 symmetry adapted basis functions of A   symmetry.
   220 basis functions,   362 primitive gaussians,   220 cartesian basis functions
    36 alpha electrons       36 beta electrons
       nuclear repulsion energy       519.2674231440 Hartrees.
 NAtoms=   16 NActive=   16 NUniq=   16 SFac= 1.00D+00 NAtFMM=   60 NAOKFM=F Big=F
 Integral buffers will be    131072 words long.
 Raffenetti 2 integral format.
 Two-electron integral symmetry is turned on.
 One-electron integrals computed using PRISM.
 NBasis=   220 RedAO= T EigKep=  4.89D-06  NBF=   220
 NBsUse=   220 1.00D-06 EigRej= -1.00D+00 NBFU=   220
 Initial guess from the checkpoint file:  "b3lyp3HPAyanggd3.chk"
 B after Tr=     0.000000   -0.000000   -0.000000
         Rot=    0.999966   -0.000230   -0.000220   -0.008289 Ang=  -0.95 deg.
 ExpMin= 4.38D-02 ExpMax= 5.48D+03 ExpMxC= 8.25D+02 IAcc=2 IRadAn=         4 AccDes= 0.00D+00
 Harris functional with IExCor=  402 and IRadAn=       4 diagonalized for initial guess.
 HarFok:  IExCor=  402 AccDes= 0.00D+00 IRadAn=         4 IDoV= 1 UseB2=F ITyADJ=14
 ICtDFT=  3500011 ScaDFX=  1.000000  1.000000  1.000000  1.000000
 FoFCou: FMM=F IPFlag=           0 FMFlag=      100000 FMFlg1=           0
         NFxFlg=           0 DoJE=T BraDBF=F KetDBF=T FulRan=T
         wScrn=  0.000000 ICntrl=     500 IOpCl=  0 I1Cent=   200000004 NGrid=           0
         NMat0=    1 NMatS0=      1 NMatT0=    0 NMatD0=    1 NMtDS0=    0 NMtDT0=    0
 Petite list used in FoFCou.
 Keep R1 ints in memory in canonical form, NReq=301066375.
 Requested convergence on RMS density matrix=1.00D-08 within 128 cycles.
 Requested convergence on MAX density matrix=1.00D-06.
 Requested convergence on             energy=1.00D-06.
 No special actions if energy rises.
 SCF Done:  E(RB3LYP) =  -512.481388781     A.U. after   12 cycles
            NFock= 12  Conv=0.69D-08     -V/T= 2.0093
 Calling FoFJK, ICntrl=      2127 FMM=F ISym2X=0 I1Cent= 0 IOpClX= 0 NMat=1 NMatS=1 NMatT=0.
 ***** Axes restored to original set *****
 -------------------------------------------------------------------
 Center     Atomic                   Forces (Hartrees/Bohr)
[...]
 ! D5    D(2,1,6,5)             -0.0011         -DE/DX =    0.0                 !
 ! D6    D(2,1,6,7)           -179.9947         -DE/DX =    0.0                 !
 ! D7    D(11,1,6,5)           179.9984         -DE/DX =    0.0                 !
 ! D8    D(11,1,6,7)             0.0048         -DE/DX =    0.0                 !
 ! D9    D(1,2,3,4)              0.0042         -DE/DX =    0.0                 !
 ! D10   D(1,2,3,13)           180.0053         -DE/DX =    0.0                 !
 ! D11   D(12,2,3,4)          -179.9974         -DE/DX =    0.0                 !
 ! D12   D(12,2,3,13)            0.0037         -DE/DX =    0.0                 !
 ! D13   D(2,3,4,5)              0.0            -DE/DX =    0.0                 !
 ! D14   D(2,3,4,14)          -180.0023         -DE/DX =    0.0                 !
 ! D15   D(13,3,4,5)          -180.0011         -DE/DX =    0.0                 !
 ! D16   D(13,3,4,14)           -0.0034         -DE/DX =    0.0                 !
 ! D17   D(3,4,5,6)             -0.0047         -DE/DX =    0.0                 !
 ! D18   D(3,4,5,10)           179.9787         -DE/DX =    0.0                 !
 ! D19   D(14,4,5,6)           179.9975         -DE/DX =    0.0                 !
 ! D20   D(14,4,5,10)           -0.0191         -DE/DX =    0.0                 !
 ! D21   D(4,5,6,1)              0.0053         -DE/DX =    0.0                 !
 ! D22   D(4,5,6,7)            179.9978         -DE/DX =    0.0                 !
 ! D23   D(10,5,6,1)          -179.9768         -DE/DX =    0.0                 !
 ! D24   D(10,5,6,7)             0.0157         -DE/DX =    0.0                 !
 ! D25   D(4,5,10,16)         -179.9915         -DE/DX =    0.0                 !
 ! D26   D(6,5,10,16)           -0.0093         -DE/DX =    0.0                 !
 ! D27   D(1,6,7,8)             -0.0061         -DE/DX =    0.0                 !
 ! D28   D(1,6,7,9)           -180.0072         -DE/DX =    0.0                 !
 ! D29   D(5,6,7,8)           -179.999          -DE/DX =    0.0                 !
 ! D30   D(5,6,7,9)             -0.0001         -DE/DX =    0.0                 !
 ! D31   D(6,7,9,15)           180.0009         -DE/DX =    0.0                 !
 ! D32   D(8,7,9,15)            -0.0003         -DE/DX =    0.0                 !
 --------------------------------------------------------------------------------
 GradGradGradGradGradGradGradGradGradGradGradGradGradGradGradGradGradGrad

 1\1\ WCSS.PL-BEM-QINLAB\Freq\RB3LYP\6-31+G(d,p)\C6H6N1O3(1+)\PHZD\20-J
 un-2024\0\\#N Geom=AllCheck Guess=TCheck SCRF=Check GenChk RB3LYP/6-31
 +G(d,p) Freq\\[No Title]\\1,1\N,-1.3151097919,-0.2060860484,0.02835224
 57\C,-1.4022433565,-1.537870338,0.0291699518\C,-0.2194771635,-2.285101
 1849,-0.019121993\C,0.9998065866,-1.6335513822,-0.0660066676\C,1.06176
 91875,-0.2173245556,-0.0655700607\C,-0.1477277494,0.49308055,-0.016398
 7751\C,-0.3494631853,1.9705743567,-0.0053873379\O,-1.4508644586,2.4659
 877596,0.0390942061\O,0.814595078,2.6433824364,-0.0499034718\O,2.26682
 54802,0.3378298602,-0.1116499695\H,-2.1574325827,0.3767360214,0.062794
 4965\H,-2.3936737262,-1.9722219928,0.0675285511\H,-0.2738761404,-3.367
 5743766,-0.0191949935\H,1.9348827104,-2.1835855614,-0.1040658076\H,0.6
 474914686,3.6049431495,-0.0413107777\H,2.2242796433,1.3123173062,-0.10
 78785968\\Version=ES64L-G09RevE.01\State=1-A\HF=-512.4819735\RMSD=3.38
 0e-09\RMSF=2.640e-05\ZeroPoint=0.1219776\Thermal=0.1299357\Dipole=-0.4
 674777,-1.0397662,0.0164159\DipoleDeriv=-0.2883825,0.5771828,0.0083231
 ,0.1693456,0.1196674,-0.006256,0.0075487,-0.0223561,-0.1071733,0.24384
 15,0.1268304,-0.0065146,-0.1664828,-0.2564854,0.0059237,-0.0070795,-0.
 0056958,0.073517,-0.1187935,-0.3188803,0.0020608,0.0476397,0.2073137,-
 0.0013652,0.0027845,0.0131551,-0.0511827,0.1003242,0.0167203,-0.005119
 2,-0.339669,0.1611146,0.0137426,-0.0058493,-0.0002931,-0.0293673,1.357
 7767,0.5789125,-0.0442364,0.6715028,0.0514775,-0.0266889,-0.0438968,-0
 .0230653,0.2043923,-0.1990784,-0.4990426,0.0102453,0.2743509,-0.573774
 3,-0.0121523,0.0117592,0.0183835,0.0866988,1.6008656,0.0448767,-0.0489
 292,-0.0826843,2.0570104,0.0067113,-0.0492143,0.0017089,0.3595363,-0.9
 692499,0.2503597,0.0260778,0.2848915,-0.9080005,-0.0124251,0.0261805,-
 0.0111024,-0.3218292,-0.908619,-0.4318603,0.021193,-0.4333327,-1.00716
 49,0.0157603,0.0211762,0.0157007,-0.3495616,-1.1767546,-0.3901835,0.03
 28754,-0.6010376,-0.5015801,0.0232644,0.0322898,0.0149468,-0.3222101,0
 .3606295,-0.0906396,-0.0033997,-0.028236,0.3512471,0.0012631,-0.003269
 6,0.0037509,0.2792435,0.1181368,0.0328605,0.0018451,0.0401564,0.118661
 9,-0.0016763,0.0018482,-0.0013943,0.1630183,0.1098061,-0.009271,0.0015
 747,-0.0051894,0.1107265,0.0001298,0.0015986,0.0002733,0.1500589,0.107
 5259,-0.0139518,0.0014567,-0.0115622,0.1164657,0.000398,0.0014411,0.00
 04974,0.1451232,0.2806639,0.1019628,0.0041106,0.0865714,0.4832466,-0.0
 032054,0.0040767,-0.0038053,0.3794333,0.3813078,0.0241232,-0.0015634,0
 .0937358,0.4700737,-0.003424,-0.001394,-0.0007042,0.3403027\Polar=94.3
 993566,1.6724256,110.9071918,-2.0957299,0.0755824,41.2899671\PG=C01 [X
 (C6H6N1O3)]\NImag=0\\0.78474728,-0.05469324,0.85187303,-0.02615104,0.0
 0359769,0.12691227,-0.15313712,-0.04864185,0.00360927,0.78835414,0.011
 67158,-0.38280443,-0.00109622,0.04509722,0.71266911,0.00372941,0.00128
 514,-0.05955246,-0.02561458,-0.00064283,0.13961557,0.02748680,0.079167
 19,-0.00062371,-0.27671661,0.05627820,0.00852388,0.68098221,0.03249078
 ,-0.04994893,-0.00139980,0.11194585,-0.18309079,-0.00466718,0.02205070
 ,0.77455445,-0.00071660,-0.00324272,0.00769132,0.00863658,-0.00247111,
 -0.06448891,-0.02160410,0.00043467,0.13441192,-0.01350443,-0.02963143,
 0.00039100,-0.05433502,0.02082371,0.00235846,-0.32846028,-0.12955621,0
 .01050522,0.78118058,-0.02506587,-0.04590631,0.00090210,-0.00887218,0.
 06190560,0.00046421,-0.07900603,-0.19006124,0.00285781,-0.00505258,0.6
 6374277,0.00040110,0.00108354,-0.00212146,0.00229818,-0.00070800,0.004
 16882,0.01060228,0.00485400,-0.05653481,-0.02554480,0.00128242,0.13574
 926,-0.06293794,-0.00937778,0.00237226,0.00070187,0.02315676,-0.000098
 09,0.01620569,-0.03880407,-0.00080263,-0.11884560,-0.00730483,0.002064
 78,0.74189459,0.02321143,0.06307688,-0.00078328,0.01247411,-0.04575129
 ,-0.00057797,-0.06058495,-0.01239909,0.00236997,0.04207925,-0.29351512
 ,-0.00212567,0.03330833,0.68757788,0.00243995,0.00051183,-0.00247604,-
 0.00011282,-0.00100562,-0.00293675,-0.00085264,0.00150901,-0.00212266,
 0.00216125,-0.00017486,-0.06639017,-0.02302117,-0.00019046,0.15608399,
 -0.27727608,-0.04937406,0.00875205,0.00954666,-0.07668331,-0.00027369,
 -0.04526605,0.01370154,0.00168668,0.03096813,0.05097863,-0.00097712,-0
 .24857145,0.06066438,0.00765548,0.72505162,-0.09401610,-0.17206132,0.0
 0347822,-0.02588834,-0.05718759,0.00089698,-0.02332054,0.00340526,0.00
 093553,0.03346542,-0.00972087,-0.00134726,0.08949620,-0.20192395,-0.00
 383224,-0.01661237,0.65000507,0.00865529,0.00170856,-0.05384322,-0.000
 17384,0.00290679,0.00650131,0.00161588,-0.00052855,-0.00331762,-0.0010
 0988,-0.00204374,0.00374970,0.00772353,-0.00268410,-0.05782965,-0.0238
 2357,0.00172749,0.12334987,0.00387277,-0.02866264,-0.00031799,-0.00868
 305,-0.00625745,0.00056324,-0.00222112,0.00202985,0.00006982,-0.005539
 17,0.00167104,0.00051958,0.01734379,0.03272740,-0.00056221,-0.09034545
 ,0.00784878,0.00083055,0.94873446,-0.02536411,-0.05210142,0.00090309,-
 0.00549466,0.02242562,0.00024991,0.01491236,-0.00282571,-0.00059394,-0
 .00554321,-0.00971350,0.00018316,0.03461064,0.01063656,-0.00134024,0.0
 0790430,-0.18038522,-0.00054169,-0.13106549,0.65519339,-0.00030924,0.0
 0103438,-0.00267900,0.00056462,0.00027934,0.00585655,0.00009490,-0.000
 08471,-0.00056244,0.00050445,-0.00009966,0.00752620,-0.00055793,-0.001
 27589,0.00131164,0.00082812,-0.00053839,-0.06970921,-0.03016699,0.0061
 3122,0.19220603,-0.00376215,-0.01558643,0.00017149,0.00133500,0.007596
 51,-0.00005942,0.00360419,-0.00196338,-0.00015235,-0.00153978,-0.00104
 402,-0.00000665,0.00194660,0.00020797,0.00001853,-0.02178217,0.0386683
 8,0.00171357,-0.61936224,0.24100303,0.02206895,0.73199547,0.00705176,-
 0.00117025,-0.00028357,0.00337239,-0.00327031,-0.00013898,-0.00263764,
 -0.00024355,0.00010410,0.00329887,0.00101721,-0.00012469,-0.01195375,-
 0.00959439,0.00044575,0.04704864,-0.03507754,-0.00196853,0.24551396,-0
 .22743787,-0.01000708,-0.28410335,0.23538519,0.00021667,0.00061053,0.0
 0136633,-0.00006760,-0.00030556,-0.00054841,-0.00015360,0.00007741,-0.
 00014203,0.00000225,0.00004657,-0.00166186,-0.00000668,-0.00003257,0.0
 0243387,0.00173169,-0.00163926,0.01953130,0.02207821,-0.00982906,-0.07
 355570,-0.02816805,0.01162786,0.03407741,0.00514934,0.00106723,-0.0001
 3881,0.00226769,-0.00171589,-0.00009116,-0.00294113,0.00001069,0.00012
 541,0.00213609,0.00330431,-0.00010163,-0.01550169,-0.00767260,0.000620
 44,0.00053306,-0.01802576,0.00022517,-0.23871538,-0.05669050,0.0069909
 7,-0.09615922,-0.02298142,0.00477241,0.40242078,0.00558654,-0.00625792
 ,-0.00023747,-0.00116713,-0.00305319,0.00003999,-0.00306502,0.00042382
 ,0.00012143,0.00083680,0.00255237,-0.00002617,-0.00384348,-0.00338994,
 0.00014303,-0.03990871,-0.03372484,0.00148995,-0.10268987,-0.18752359,
 0.00378256,-0.00032457,0.03577512,0.00003302,0.02621531,0.67297726,-0.
 00012830,-0.00005851,0.00159438,-0.00008985,0.00006127,0.00005656,0.00
 011876,0.,0.00022863,-0.00010649,-0.00012348,-0.00061128,0.00062988,0.
 00029386,0.00069296,0.00017837,0.00062588,0.00715296,0.00689597,0.0019
 6990,-0.05875931,0.00481837,0.00092622,0.02583916,-0.01427164,0.000282
 38,0.03974020,-0.00355415,-0.00125610,0.00046591,-0.00825204,0.0055633
 6,0.00028054,0.01059330,0.00389527,-0.00022880,-0.01276445,-0.02900234
 ,0.00066243,-0.32759994,-0.08199789,0.01092541,-0.05293367,-0.00428746
 ,0.00233594,-0.00518445,-0.01910435,0.00007914,0.00020105,0.00461676,-
 0.00000318,0.00738279,0.01028672,-0.00020868,0.43989226,-0.00377209,-0
 .01267333,0.00010671,-0.00600568,0.00932514,0.00025886,0.01464028,-0.0
 0689378,-0.00060167,-0.06267003,-0.03892999,0.00236958,-0.12195310,-0.
 15981598,0.00454275,0.01045091,0.02819921,-0.00037166,-0.01227338,-0.0
 1936237,0.00044921,0.00397446,0.00469416,-0.00014677,0.01525215,-0.005
 18452,-0.00061368,0.10438739,0.66666161,0.00046022,0.00000313,0.008336
 61,0.00025379,-0.00019389,-0.00144748,-0.00020084,-0.00017657,0.004636
 34,0.00059404,0.00104550,0.00572208,0.01082858,0.00297322,-0.04545138,
 0.00237627,0.00021408,0.00677099,0.00009043,0.00071315,-0.00219671,-0.
 00000447,-0.00017105,-0.00012745,-0.00019688,-0.00041762,0.00154352,-0
 .01563367,-0.00274409,0.03663443,-0.30665568,0.15492635,0.01120171,0.0
 1152923,-0.00191327,-0.00046497,0.00241297,-0.00272633,0.00019973,-0.0
 0022631,-0.00068567,-0.00004256,-0.00265530,-0.00490058,0.00031128,-0.
 02663858,0.01388819,0.00108181,-0.00244186,-0.00166964,0.00002017,0.00
 022942,0.00295952,-0.00011546,-0.00010188,0.00106129,0.00002193,-0.000
 00890,0.00142813,0.00002702,0.32294916,0.15510853,-0.17244153,-0.00640
 909,0.02794187,-0.01616205,-0.00113623,-0.00381698,-0.00481220,0.00012
 653,-0.00044463,-0.00008051,0.00001997,-0.00296386,-0.00215669,0.00010
 182,-0.01275760,0.01719211,0.00053859,-0.01454745,0.00377077,0.0005854
 4,0.00884089,0.00061164,-0.00034232,0.00573233,0.00032151,-0.00022589,
 -0.00221183,-0.00058703,0.00008436,-0.16099135,0.17295924,0.01120237,-
 0.00640041,-0.03146530,-0.00040583,0.00004265,-0.00012141,0.00019736,0
 .00008296,0.00759734,-0.00004169,0.00002997,-0.00126711,0.00031592,0.0
 0017859,0.00547918,0.00102867,-0.00051551,-0.00000951,-0.00000593,0.00
 007723,-0.00184514,-0.00010377,-0.00010996,-0.00284285,0.00003128,-0.0
 0004215,0.00039765,0.00001976,-0.00005908,0.00059402,-0.01201260,0.006
 65067,0.02756592,0.00520281,0.00168019,-0.00018876,-0.31520611,-0.1095
 7896,0.01078527,-0.01216963,-0.01070147,0.00067083,-0.00233628,0.00282
 647,0.00032806,-0.00086503,0.00117203,0.00002521,0.00275000,0.00187048
 ,0.00019868,0.00037460,-0.00060180,0.00005451,-0.00025534,0.00017862,0
 .00000741,0.00009149,0.00029609,-0.00001718,0.00055547,0.00001369,-0.0
 0004752,0.00099439,-0.00012775,-0.00020174,0.32078743,-0.03599323,-0.0
 1870097,0.00138579,-0.09937076,-0.10284988,0.00380031,0.01592282,0.013
 27246,-0.00061387,0.00342826,-0.00276603,-0.00015280,-0.00040021,-0.00
 023231,0.00001584,0.00409835,-0.00341131,-0.00018388,-0.00150108,0.000
 00501,0.00005584,0.00018476,0.00002223,-0.00000710,0.00008874,-0.00056
 829,-0.00000399,0.00019989,0.00040542,-0.00000576,-0.00089870,0.000756
 55,0.00004513,0.11385204,0.11302430,-0.00026277,-0.00010271,0.00036226
 ,0.01080561,0.00420377,-0.03749017,0.00072435,0.00043905,0.00530153,0.
 00032877,-0.00012975,0.00579406,0.00002273,-0.00004660,-0.00028133,0.0
 0020091,-0.00009618,0.00766624,0.00005277,0.00002019,0.00177942,0.0000
 0751,-0.00000686,-0.00007722,-0.00001757,-0.00001193,-0.00035764,-0.00
 004735,0.00000136,-0.00064856,-0.00020303,0.00001446,-0.00408973,-0.01
 146249,-0.00432973,0.02575845,-0.00548725,0.00404238,0.00049136,0.0068
 5144,0.02707470,-0.00015734,-0.06017138,-0.01438940,0.00076753,0.00324
 167,-0.02909016,-0.00000289,-0.00477154,-0.00107992,0.00054478,-0.0011
 8263,-0.00086240,0.00001912,-0.00029257,0.00037806,-0.00002463,0.00037
 241,0.00005902,-0.00001000,0.00012760,-0.00000701,-0.00000648,0.000220
 98,-0.00170694,-0.00002320,0.00053147,0.00099722,0.00000221,0.00063459
 ,-0.00033809,-0.00013965,0.05926826,0.00252419,0.00051450,-0.00011276,
 -0.00287675,-0.00982228,0.00009095,-0.01317708,-0.35412735,-0.00012269
 ,0.00034872,-0.00713343,-0.00003778,-0.00126349,0.00081955,0.00003269,
 -0.00011622,0.00076469,0.00000753,0.00006554,-0.00041561,-0.00000151,-
 0.00012098,0.00008236,0.00000471,0.00004356,0.00010320,-0.00000143,0.0
 0014464,-0.00034048,-0.00000576,-0.00034413,-0.00014597,0.00001214,-0.
 00006723,0.00054718,0.00000977,0.01470550,0.36837181,0.00048810,-0.000
 17255,0.00671186,-0.00021875,-0.00109288,0.00148768,0.00077083,-0.0000
 7645,-0.04005917,0.00005502,0.00112694,0.00464184,0.00054448,0.0000256
 0,0.00905477,0.00002125,0.00003688,-0.00065873,-0.00002501,-0.00001369
 ,-0.00093100,-0.00001045,-0.00000243,0.00011623,-0.00000650,0.00000044
 ,-0.00003657,-0.00001905,0.00006824,-0.00027679,-0.00000043,-0.0000408
 2,0.00054043,-0.00013915,0.00002017,-0.00287122,-0.00123564,0.00011740
 ,0.02731819,0.00073940,-0.00081038,-0.00006870,-0.00318102,-0.00281919
 ,0.00047450,-0.01579590,0.01362937,0.00088085,-0.27315118,0.12903111,0
 .00936626,0.00667706,-0.00300895,0.00001802,-0.00032819,-0.00113106,0.
 00023132,0.00030780,0.00011241,-0.00006367,0.00014691,-0.00027312,0.00
 000110,-0.00004499,-0.00015747,0.00000322,-0.00004154,0.00000731,-0.00
 010480,-0.00008040,0.00009436,-0.00002850,-0.00050755,0.00076833,-0.00
 000206,0.00101024,0.00023630,-0.00022198,0.28415398,-0.00143291,-0.000
 85937,0.00005678,-0.00386279,-0.00113151,0.00013247,-0.01510093,0.0132
 8193,0.00061148,0.12791863,-0.13643116,-0.00524408,0.02826655,-0.01181
 641,-0.00115523,-0.00103123,-0.00533540,0.00001829,0.00141608,0.000648
 54,-0.00005168,0.00024117,-0.00068590,-0.00001135,-0.00031911,0.000026
 19,0.00001251,0.00014477,0.00290226,0.00000615,0.00008852,-0.00009010,
 -0.00000207,-0.00068846,0.00066132,0.00002996,0.00026431,0.00078335,0.
 00000038,-0.13577927,0.13805257,-0.00007114,0.00003066,-0.00095116,0.0
 0047180,0.00009258,0.00895196,0.00082605,-0.00052262,0.00577534,0.0093
 6239,-0.00529262,-0.04307767,0.00007942,0.00008517,0.00727367,0.000232
 98,0.00002225,0.00557660,-0.00006120,-0.00000072,-0.00131055,0.0000022
 1,0.00000905,0.00018933,0.00000305,0.00000627,0.00004503,-0.00010365,0
 .00001070,-0.00268832,-0.00002854,-0.00000239,-0.00080591,-0.00000520,
 -0.00002775,-0.00060191,-0.00022206,0.00000183,-0.00461322,-0.01046754
 ,0.00559058,0.02660085,0.00012542,-0.00144098,0.00002763,-0.00045449,0
 .00001175,0.00000791,-0.00002696,0.00007840,0.00000521,0.00018934,0.00
 018475,-0.00001763,-0.00144656,-0.00071095,0.00003060,-0.00494630,-0.0
 0217922,0.00038068,0.01223571,-0.04876124,-0.00046690,-0.00019106,0.00
 710075,-0.00018184,-0.06650884,0.10855926,0.00225337,-0.00074706,0.002
 82988,0.00005418,0.00008941,-0.00051977,0.00000666,0.00000946,-0.00011
 630,-0.00000796,0.00001073,-0.00000141,0.00000220,0.00002251,-0.000028
 70,0.00000076,0.05830562,-0.00017859,-0.00072982,0.00000357,-0.0005851
 1,0.00086568,0.00002539,0.00069026,-0.00002997,-0.00002758,-0.00016142
 ,-0.00048851,0.00000592,0.00000666,0.00054578,0.00000219,-0.00239451,0
 .00141603,0.00008742,-0.00485222,-0.02990737,0.00012309,0.00751550,0.0
 0344670,-0.00027853,0.06238068,-0.46280543,-0.00339307,-0.00022438,0.0
 0145110,0.00001092,-0.00015095,-0.00048243,0.00000440,-0.00002960,-0.0
 0006405,0.00000146,0.00000719,-0.00002448,-0.00000046,0.00005534,-0.00
 000682,-0.00000230,-0.06373326,0.48885638,0.00003032,0.00005317,0.0009
 0251,0.00000649,0.00000202,-0.00025746,0.00000663,-0.00000338,0.000102
 09,-0.00001839,-0.00000781,-0.00026905,0.00003223,0.00003047,-0.000627
 51,0.00038031,0.00007917,0.00480311,-0.00037447,0.00185494,0.00299277,
 -0.00018143,-0.00026209,-0.00517099,0.00215717,-0.00521447,-0.01516391
 ,0.00004744,-0.00010920,0.00048251,0.00000744,0.00001896,0.00028510,-0
 .00000785,0.00000481,-0.00018695,0.00000224,-0.00000013,0.00006663,0.0
 0000095,0.00000101,0.00004360,-0.00195123,0.00350615,0.01226367,-0.001
 00905,-0.00140846,0.00000633,-0.00062056,0.00169428,0.00003604,0.00248
 391,-0.00169159,-0.00004337,-0.00701332,-0.00287263,0.00045061,-0.0015
 7456,-0.04588906,-0.00020211,0.00042109,0.00108581,-0.00000424,-0.0100
 8385,-0.00462581,0.00038353,0.00322089,0.00074899,-0.00010333,-0.00013
 572,-0.00167873,-0.00009126,-0.04775964,0.05539703,0.00152686,0.000072
 84,-0.00033398,-0.00000417,-0.00006030,0.00007518,0.00000023,-0.000364
 03,-0.00010117,-0.00000493,0.00007287,-0.00009663,-0.00001933,0.003333
 06,0.00165440,-0.00013786,0.05901635,0.00287132,0.00019117,-0.00011176
 ,0.00193380,-0.00206785,-0.00008101,-0.00295263,-0.00050531,0.00011206
 ,0.00085984,0.00552873,-0.00003214,-0.01098056,-0.02206148,0.00039373,
 0.00403126,-0.00215431,-0.00016247,0.01057694,0.01699277,-0.00038215,-
 0.00508995,-0.00355482,0.00019243,-0.00668971,-0.00967175,0.00024805,0
 .00884556,-0.46985142,-0.00133577,-0.00007140,0.00134670,0.00000543,-0
 .00009432,-0.00010163,0.00000374,-0.00005446,0.00002294,0.00000322,0.0
 0004491,0.00000048,-0.00000071,-0.00127297,-0.00204279,0.00004639,-0.0
 0195763,0.48792858,0.00001566,0.00005826,-0.00078890,0.00003692,-0.000
 07230,0.00020460,-0.00004603,0.00006217,0.00148311,0.00045840,0.000116
 40,0.00458145,-0.00012731,0.00175967,-0.00421460,0.00000161,-0.0000476
 4,0.00026587,0.00041322,0.00021654,-0.00012355,-0.00011401,-0.00003774
 ,0.00057287,-0.00010172,0.00005073,-0.00236233,0.00142781,-0.00316126,
 -0.01188382,-0.00000350,0.00001596,-0.00001271,-0.00000009,-0.00000302
 ,-0.00005721,-0.00000536,0.00000503,-0.00049095,-0.00001896,0.00000481
 ,-0.00040765,-0.00014365,-0.00006856,-0.00026612,-0.00179299,0.0011009
 6,0.01349992\\0.00003217,0.00005720,0.00000296,-0.00001063,-0.00003902
 ,0.00000488,-0.00002662,-0.00000629,0.00000604,0.00003873,0.00001394,0
 .00000448,-0.00001228,0.00002665,-0.00003176,0.00001750,-0.00009286,-0
 .00000266,-0.00004728,0.00009399,0.00000145,0.00001926,-0.00001783,-0.
 00000040,0.00001460,-0.00003251,-0.00000050,-0.00001120,-0.00000708,0.
 00001575,0.00000504,-0.00000443,-0.00000098,0.00000758,0.00000066,0.00
 000032,0.00000038,0.00000553,-0.00000319,-0.00000177,0.00000429,-0.000
 00120,-0.00001035,0.00000867,0.00000074,-0.00001514,-0.00001091,0.0000
 0407\\\@


 Everywhere is walking distance if you have the time.
                                    -- Steven Wright
 Job cpu time:       0 days  0 hours 19 minutes  0.4 seconds.
 File lengths (MBytes):  RWF=     85 Int=      0 D2E=      0 Chk=      5 Scr=      1
 Normal termination of Gaussian 09 at Thu Jun 20 12:18:45 2024.
