 Entering Gaussian System, Link 0=g09
 Input=B3PW913HPA2.gjf
 Output=B3PW913HPA2.log
 Initial command:
 /home/phzd/g09E/g09/l1.exe "/home/phzd/g09E/scratch/Gau-1279897.inp" -scrdir="/home/phzd/g09E/scratch/"
 Default is to use a total of  18 processors:
                               18 via shared-memory
                                1 via Linda
 Entering Link 1 = /home/phzd/g09E/g09/l1.exe PID=   1279899.
  
 Copyright (c) 1988,1990,1992,1993,1995,1998,2003,2009,2015,
            Gaussian, Inc.  All Rights Reserved.
  
 This is part of the Gaussian(R) 09 program.  It is based on
 the Gaussian(R) 03 system (copyright 2003, Gaussian, Inc.),
 the Gaussian(R) 98 system (copyright 1998, Gaussian, Inc.),
 the Gaussian(R) 94 system (copyright 1995, Gaussian, Inc.),
 the Gaussian 92(TM) system (copyright 1992, Gaussian, Inc.),
 the Gaussian 90(TM) system (copyright 1990, Gaussian, Inc.),
 the Gaussian 88(TM) system (copyright 1988, Gaussian, Inc.),
 the Gaussian 86(TM) system (copyright 1986, Carnegie Mellon
 University), and the Gaussian 82(TM) system (copyright 1983,
 Carnegie Mellon University). Gaussian is a federally registered
 trademark of Gaussian, Inc.
  
 This software contains proprietary and confidential information,
 including trade secrets, belonging to Gaussian, Inc.
  
 This software is provided under written license and may be
 used, copied, transmitted, or stored only in accord with that
 written license.
  
 The following legend is applicable only to US Government
 contracts under FAR:
  
                    RESTRICTED RIGHTS LEGEND
  
 Use, reproduction and disclosure by the US Government is
 subject to restrictions as set forth in subparagraphs (a)
 and (c) of the Commercial Computer Software - Restricted
 Rights clause in FAR 52.227-19.
  
 Gaussian, Inc.
 340 Quinnipiac St., Bldg. 40, Wallingford CT 06492
  
  
 ---------------------------------------------------------------
 Warning -- This program may not be used in any manner that
 competes with the business of Gaussian, Inc. or will provide
 assistance to any competitor of Gaussian, Inc.  The licensee
 of this program is prohibited from giving any competitor of
 Gaussian, Inc. access to this program.  By using this program,
 the user acknowledges that Gaussian, Inc. is engaged in the
 business of creating and licensing software in the field of
 computational chemistry and represents and warrants to the
 licensee that it is not a competitor of Gaussian, Inc. and that
 it will not use this program in any manner prohibited above.
 ---------------------------------------------------------------
  

 Cite this work as:
 Gaussian 09, Revision E.01,
 M. J. Frisch, G. W. Trucks, H. B. Schlegel, G. E. Scuseria, 
 M. A. Robb, J. R. Cheeseman, G. Scalmani, V. Barone, B. Mennucci, 
 G. A. Petersson, H. Nakatsuji, M. Caricato, X. Li, H. P. Hratchian, 
 A. F. Izmaylov, J. Bloino, G. Zheng, J. L. Sonnenberg, M. Hada, 
 M. Ehara, K. Toyota, R. Fukuda, J. Hasegawa, M. Ishida, T. Nakajima, 
 Y. Honda, O. Kitao, H. Nakai, T. Vreven, J. A. Montgomery, Jr., 
 J. E. Peralta, F. Ogliaro, M. Bearpark, J. J. Heyd, E. Brothers, 
 K. N. Kudin, V. N. Staroverov, T. Keith, R. Kobayashi, J. Normand, 
 K. Raghavachari, A. Rendell, J. C. Burant, S. S. Iyengar, J. Tomasi, 
 M. Cossi, N. Rega, J. M. Millam, M. Klene, J. E. Knox, J. B. Cross, 
 V. Bakken, C. Adamo, J. Jaramillo, R. Gomperts, R. E. Stratmann, 
 O. Yazyev, A. J. Austin, R. Cammi, C. Pomelli, J. W. Ochterski, 
 R. L. Martin, K. Morokuma, V. G. Zakrzewski, G. A. Voth, 
 P. Salvador, J. J. Dannenberg, S. Dapprich, A. D. Daniels, 
 O. Farkas, J. B. Foresman, J. V. Ortiz, J. Cioslowski, 
 and D. J. Fox, Gaussian, Inc., Wallingford CT, 2013.
 
 ******************************************
 Gaussian 09:  ES64L-G09RevE.01 30-Nov-2015
                14-Dec-2024 
 ******************************************
 %chk=B3PW913HPA2.chk
 -----------------------------
 # opt freq b3pw91/6-31+g(d,p)
 -----------------------------
 1/14=-1,18=20,19=15,26=3,38=1/1,3;
 2/9=110,12=2,17=6,18=5,40=1/2;
 3/5=1,6=6,7=111,11=2,16=1,25=1,30=1,71=1,74=-6/1,2,3;
 4//1;
 5/5=2,38=5/2;
 6/7=2,8=2,9=2,10=2,28=1/1;
 7//1,2,3,16;
 1/14=-1,18=20,19=15,26=3/3(2);
 2/9=110/2;
 99//99;
 2/9=110/2;
 3/5=1,6=6,7=111,11=2,16=1,25=1,30=1,71=1,74=-6/1,2,3;
 4/5=5,16=3,69=1/1;
 5/5=2,38=5/2;
 7//1,2,3,16;
 1/14=-1,18=20,19=15,26=3/3(-5);
 2/9=110/2;
 6/7=2,8=2,9=2,10=2,19=2,28=1/1;
 99/9=1/99;
 ----------
 [No Title]
 ----------
 Symbolic Z-matrix:
 Charge =  1 Multiplicity = 1
 N                     0.50673  -1.34953   0.00015 
 C                     1.83326  -1.41998  -0.00004 
 C                     2.56341  -0.22743  -0.00023 
 C                     1.8956    0.97864  -0.00018 
 C                     0.481     1.02118   0.00004 
 C                    -0.20371  -0.19495   0.00021 
 C                    -1.68028  -0.42234   0.00048 
 O                    -2.14635  -1.52889  -0.00006 
 O                    -2.36721   0.72174  -0.00023 
 O                    -0.08549   2.21606   0.00006 
 H                    -0.06455  -2.20101   0.00031 
 H                     2.28022  -2.40666  -0.00005 
 H                     3.64614  -0.26705  -0.00039 
 H                     2.42863   1.92471  -0.00032 
 H                    -3.32442   0.54041  -0.00066 
 H                    -1.05652   2.17433   0.00023 
 

 GradGradGradGradGradGradGradGradGradGradGradGradGradGradGradGradGradGrad
 Berny optimization.
 Initialization pass.
                           ----------------------------
                           !    Initial Parameters    !
                           ! (Angstroms and Degrees)  !
 --------------------------                            --------------------------
 ! Name  Definition              Value          Derivative Info.                !
 --------------------------------------------------------------------------------
 ! R1    R(1,2)                  1.3284         estimate D2E/DX2                !
 ! R2    R(1,6)                  1.3556         estimate D2E/DX2                !
 ! R3    R(1,11)                 1.0254         estimate D2E/DX2                !
 ! R4    R(2,3)                  1.3983         estimate D2E/DX2                !
 ! R5    R(2,12)                 1.0832         estimate D2E/DX2                !
 ! R6    R(3,4)                  1.3786         estimate D2E/DX2                !
 ! R7    R(3,13)                 1.0835         estimate D2E/DX2                !
 ! R8    R(4,5)                  1.4152         estimate D2E/DX2                !
 ! R9    R(4,14)                 1.0859         estimate D2E/DX2                !
 ! R10   R(5,6)                  1.3956         estimate D2E/DX2                !
 ! R11   R(5,10)                 1.3224         estimate D2E/DX2                !
 ! R12   R(6,7)                  1.494          estimate D2E/DX2                !
 ! R13   R(7,8)                  1.2007         estimate D2E/DX2                !
 ! R14   R(7,9)                  1.3345         estimate D2E/DX2                !
 ! R15   R(9,15)                 0.9742         estimate D2E/DX2                !
 ! R16   R(10,16)                0.9719         estimate D2E/DX2                !
 ! A1    A(2,1,6)              124.6452         estimate D2E/DX2                !
 ! A2    A(2,1,11)             120.8187         estimate D2E/DX2                !
 ! A3    A(6,1,11)             114.5362         estimate D2E/DX2                !
 ! A4    A(1,2,3)              118.4375         estimate D2E/DX2                !
 ! A5    A(1,2,12)             117.4106         estimate D2E/DX2                !
 ! A6    A(3,2,12)             124.1518         estimate D2E/DX2                !
 ! A7    A(2,3,4)              119.549          estimate D2E/DX2                !
 ! A8    A(2,3,13)             119.3819         estimate D2E/DX2                !
 ! A9    A(4,3,13)             121.0691         estimate D2E/DX2                !
 ! A10   A(3,4,5)              120.696          estimate D2E/DX2                !
 ! A11   A(3,4,14)             121.6292         estimate D2E/DX2                !
 ! A12   A(5,4,14)             117.6748         estimate D2E/DX2                !
 ! A13   A(4,5,6)              117.6582         estimate D2E/DX2                !
 ! A14   A(4,5,10)             117.088          estimate D2E/DX2                !
 ! A15   A(6,5,10)             125.2538         estimate D2E/DX2                !
 ! A16   A(1,6,5)              119.0141         estimate D2E/DX2                !
 ! A17   A(1,6,7)              112.8505         estimate D2E/DX2                !
 ! A18   A(5,6,7)              128.1354         estimate D2E/DX2                !
 ! A19   A(6,7,8)              121.5948         estimate D2E/DX2                !
 ! A20   A(6,7,9)              112.2266         estimate D2E/DX2                !
 ! A21   A(8,7,9)              126.1786         estimate D2E/DX2                !
 ! A22   A(7,9,15)             110.2551         estimate D2E/DX2                !
 ! A23   A(5,10,16)            112.9045         estimate D2E/DX2                !
 ! D1    D(6,1,2,3)             -0.0009         estimate D2E/DX2                !
 ! D2    D(6,1,2,12)           179.9989         estimate D2E/DX2                !
 ! D3    D(11,1,2,3)          -179.9989         estimate D2E/DX2                !
 ! D4    D(11,1,2,12)            0.0009         estimate D2E/DX2                !
 ! D5    D(2,1,6,5)              0.0007         estimate D2E/DX2                !
 ! D6    D(2,1,6,7)           -179.9986         estimate D2E/DX2                !
 ! D7    D(11,1,6,5)           179.9988         estimate D2E/DX2                !
 ! D8    D(11,1,6,7)            -0.0005         estimate D2E/DX2                !
 ! D9    D(1,2,3,4)              0.0007         estimate D2E/DX2                !
 ! D10   D(1,2,3,13)          -179.9997         estimate D2E/DX2                !
 ! D11   D(12,2,3,4)          -179.9991         estimate D2E/DX2                !
 ! D12   D(12,2,3,13)            0.0005         estimate D2E/DX2                !
 ! D13   D(2,3,4,5)             -0.0002         estimate D2E/DX2                !
 ! D14   D(2,3,4,14)          -180.0            estimate D2E/DX2                !
 ! D15   D(13,3,4,5)          -179.9999         estimate D2E/DX2                !
 ! D16   D(13,3,4,14)            0.0004         estimate D2E/DX2                !
 ! D17   D(3,4,5,6)              0.0            estimate D2E/DX2                !
 ! D18   D(3,4,5,10)          -179.9999         estimate D2E/DX2                !
 ! D19   D(14,4,5,6)           179.9998         estimate D2E/DX2                !
 ! D20   D(14,4,5,10)           -0.0001         estimate D2E/DX2                !
 ! D21   D(4,5,6,1)             -0.0003         estimate D2E/DX2                !
 ! D22   D(4,5,6,7)            179.9989         estimate D2E/DX2                !
 ! D23   D(10,5,6,1)           179.9996         estimate D2E/DX2                !
 ! D24   D(10,5,6,7)            -0.0011         estimate D2E/DX2                !
 ! D25   D(4,5,10,16)         -179.9994         estimate D2E/DX2                !
 ! D26   D(6,5,10,16)            0.0007         estimate D2E/DX2                !
 ! D27   D(1,6,7,8)             -0.038          estimate D2E/DX2                !
 ! D28   D(1,6,7,9)           -179.9648         estimate D2E/DX2                !
 ! D29   D(5,6,7,8)            179.9628         estimate D2E/DX2                !
 ! D30   D(5,6,7,9)              0.0359         estimate D2E/DX2                !
 ! D31   D(6,7,9,15)           179.9605         estimate D2E/DX2                !
 ! D32   D(8,7,9,15)             0.0377         estimate D2E/DX2                !
 --------------------------------------------------------------------------------
 Trust Radius=3.00D-01 FncErr=1.00D-07 GrdErr=1.00D-06
 Number of steps in this run=     81 maximum allowed number of steps=    100.
 GradGradGradGradGradGradGradGradGradGradGradGradGradGradGradGradGradGrad

                          Input orientation:                          
 ---------------------------------------------------------------------
 Center     Atomic      Atomic             Coordinates (Angstroms)
 Number     Number       Type             X           Y           Z
 ---------------------------------------------------------------------
      1          7           0        0.506731   -1.349528    0.000154
      2          6           0        1.833257   -1.419977   -0.000043
      3          6           0        2.563408   -0.227430   -0.000226
      4          6           0        1.895603    0.978638   -0.000184
      5          6           0        0.481004    1.021179    0.000037
      6          6           0       -0.203712   -0.194953    0.000210
      7          6           0       -1.680283   -0.422342    0.000477
      8          8           0       -2.146345   -1.528889   -0.000057
      9          8           0       -2.367205    0.721735   -0.000229
     10          8           0       -0.085486    2.216063    0.000061
     11          1           0       -0.064552   -2.201013    0.000309
     12          1           0        2.280224   -2.406655   -0.000048
     13          1           0        3.646137   -0.267049   -0.000393
     14          1           0        2.428629    1.924710   -0.000322
     15          1           0       -3.324418    0.540414   -0.000663
     16          1           0       -1.056517    2.174330    0.000226
 ---------------------------------------------------------------------
                    Distance matrix (angstroms):
                    1          2          3          4          5
     1  N    0.000000
     2  C    1.328395   0.000000
     3  C    2.342867   1.398316   0.000000
     4  C    2.710963   2.399425   1.378609   0.000000
     5  C    2.370847   2.790669   2.428051   1.415239   0.000000
     6  C    1.355645   2.376957   2.767311   2.405086   1.395641
     7  C    2.375438   3.652429   4.248165   3.840535   2.599022
     8  O    2.659132   3.981092   4.886263   4.756578   3.661394
     9  O    3.542547   4.714956   5.021141   4.270542   2.863907
    10  O    3.614438   4.111248   3.603789   2.335794   1.322369
    11  H    1.025374   2.052242   3.286519   3.735290   3.268050
    12  H    2.064654   1.083196   2.197547   3.407072   3.871335
    13  H    3.320788   2.148436   1.083454   2.148512   3.417250
    14  H    3.796620   3.397263   2.156356   1.085895   2.147001
    15  H    4.271953   5.517676   5.937683   5.238383   3.835671
    16  H    3.855038   4.611923   4.344227   3.185073   1.921907
                    6          7          8          9         10
     6  C    0.000000
     7  C    1.493977   0.000000
     8  O    2.356525   1.200692   0.000000
     9  O    2.349685   1.334457   2.261435   0.000000
    10  O    2.413913   3.082946   4.274553   2.727500   0.000000
    11  H    2.010881   2.402968   2.187604   3.720842   4.417126
    12  H    3.325893   4.429798   4.512758   5.602269   5.192890
    13  H    3.850524   5.328683   5.928329   6.094094   4.482282
    14  H    3.379673   4.731999   5.732167   4.944408   2.530941
    15  H    3.206177   1.905277   2.381149   0.974235   3.646708
    16  H    2.518090   2.670541   3.860253   1.956511   0.971927
                   11         12         13         14         15
    11  H    0.000000
    12  H    2.353776   0.000000
    13  H    4.184427   2.538431   0.000000
    14  H    4.820533   4.333907   2.507216   0.000000
    15  H    4.259360   6.332237   7.017167   5.917248   0.000000
    16  H    4.486382   5.667386   5.298612   3.494074   2.795185
                   16
    16  H    0.000000
 Stoichiometry    C6H6NO3(1+)
 Framework group  C1[X(C6H6NO3)]
 Deg. of freedom    42
 Full point group                 C1      NOp   1
 Largest Abelian subgroup         C1      NOp   1
 Largest concise Abelian subgroup C1      NOp   1
                         Standard orientation:                         
 ---------------------------------------------------------------------
 Center     Atomic      Atomic             Coordinates (Angstroms)
 Number     Number       Type             X           Y           Z
 ---------------------------------------------------------------------
      1          7           0       -0.506731   -1.349528   -0.000154
      2          6           0       -1.833257   -1.419977    0.000043
      3          6           0       -2.563408   -0.227430    0.000226
      4          6           0       -1.895603    0.978638    0.000184
      5          6           0       -0.481004    1.021179   -0.000037
      6          6           0        0.203712   -0.194953   -0.000210
      7          6           0        1.680283   -0.422342   -0.000477
      8          8           0        2.146345   -1.528889    0.000057
      9          8           0        2.367205    0.721735    0.000229
     10          8           0        0.085486    2.216063   -0.000061
     11          1           0        0.064552   -2.201013   -0.000309
     12          1           0       -2.280224   -2.406655    0.000048
     13          1           0       -3.646137   -0.267049    0.000393
     14          1           0       -2.428629    1.924710    0.000322
     15          1           0        3.324418    0.540414    0.000663
     16          1           0        1.056517    2.174330   -0.000226
 ---------------------------------------------------------------------
 Rotational constants (GHZ):      2.2909417      1.2527788      0.8098955
 Standard basis: 6-31+G(d,p) (6D, 7F)
 There are   220 symmetry adapted cartesian basis functions of A   symmetry.
 There are   220 symmetry adapted basis functions of A   symmetry.
   220 basis functions,   362 primitive gaussians,   220 cartesian basis functions
    36 alpha electrons       36 beta electrons
       nuclear repulsion energy       522.0839323505 Hartrees.
 NAtoms=   16 NActive=   16 NUniq=   16 SFac= 1.00D+00 NAtFMM=   60 NAOKFM=F Big=F
 Integral buffers will be    131072 words long.
 Raffenetti 2 integral format.
 Two-electron integral symmetry is turned on.
 One-electron integrals computed using PRISM.
 NBasis=   220 RedAO= T EigKep=  4.70D-06  NBF=   220
 NBsUse=   220 1.00D-06 EigRej= -1.00D+00 NBFU=   220
 ExpMin= 4.38D-02 ExpMax= 5.48D+03 ExpMxC= 8.25D+02 IAcc=2 IRadAn=         4 AccDes= 0.00D+00
 Harris functional with IExCor=  408 and IRadAn=       4 diagonalized for initial guess.
 HarFok:  IExCor=  408 AccDes= 0.00D+00 IRadAn=         4 IDoV= 1 UseB2=F ITyADJ=14
 ICtDFT=  3500011 ScaDFX=  1.000000  1.000000  1.000000  1.000000
 FoFCou: FMM=F IPFlag=           0 FMFlag=      100000 FMFlg1=           0
         NFxFlg=           0 DoJE=T BraDBF=F KetDBF=T FulRan=T
         wScrn=  0.000000 ICntrl=     500 IOpCl=  0 I1Cent=   200000004 NGrid=           0
         NMat0=    1 NMatS0=      1 NMatT0=    0 NMatD0=    1 NMtDS0=    0 NMtDT0=    0
 Petite list used in FoFCou.
 Keep R1 ints in memory in canonical form, NReq=301066375.
 Requested convergence on RMS density matrix=1.00D-08 within 128 cycles.
 Requested convergence on MAX density matrix=1.00D-06.
 Requested convergence on             energy=1.00D-06.
 No special actions if energy rises.
 SCF Done:  E(RB3PW91) =  -512.282890207     A.U. after   14 cycles
            NFock= 14  Conv=0.67D-08     -V/T= 2.0089

 **********************************************************************

            Population analysis using the SCF density.

 **********************************************************************

 Orbital symmetries:
       Occupied  (A) (A) (A) (A) (A) (A) (A) (A) (A) (A) (A) (A)
                 (A) (A) (A) (A) (A) (A) (A) (A) (A) (A) (A) (A)
                 (A) (A) (A) (A) (A) (A) (A) (A) (A) (A) (A) (A)
       Virtual   (A) (A) (A) (A) (A) (A) (A) (A) (A) (A) (A) (A)
                 (A) (A) (A) (A) (A) (A) (A) (A) (A) (A) (A) (A)
                 (A) (A) (A) (A) (A) (A) (A) (A) (A) (A) (A) (A)
                 (A) (A) (A) (A) (A) (A) (A) (A) (A) (A) (A) (A)
                 (A) (A) (A) (A) (A) (A) (A) (A) (A) (A) (A) (A)
                 (A) (A) (A) (A) (A) (A) (A) (A) (A) (A) (A) (A)
                 (A) (A) (A) (A) (A) (A) (A) (A) (A) (A) (A) (A)
                 (A) (A) (A) (A) (A) (A) (A) (A) (A) (A) (A) (A)
                 (A) (A) (A) (A) (A) (A) (A) (A) (A) (A) (A) (A)
                 (A) (A) (A) (A) (A) (A) (A) (A) (A) (A) (A) (A)
                 (A) (A) (A) (A) (A) (A) (A) (A) (A) (A) (A) (A)
                 (A) (A) (A) (A) (A) (A) (A) (A) (A) (A) (A) (A)
                 (A) (A) (A) (A) (A) (A) (A) (A) (A) (A) (A) (A)
                 (A) (A) (A) (A) (A) (A) (A) (A) (A) (A) (A) (A)
                 (A) (A) (A) (A) (A) (A) (A) (A) (A) (A) (A) (A)
                 (A) (A) (A) (A)
 The electronic state is 1-A.
 Alpha  occ. eigenvalues --  -19.39085 -19.36986 -19.32854 -14.62667 -10.51073
 Alpha  occ. eigenvalues --  -10.46817 -10.44622 -10.44287 -10.40170 -10.39971
 Alpha  occ. eigenvalues --   -1.31670  -1.27676  -1.23542  -1.21417  -1.02969
 Alpha  occ. eigenvalues --   -1.00719  -0.90009  -0.87022  -0.84372  -0.78955
 Alpha  occ. eigenvalues --   -0.75897  -0.72198  -0.70263  -0.67931  -0.67498
 Alpha  occ. eigenvalues --   -0.67359  -0.63007  -0.61385  -0.60469  -0.59712
 Alpha  occ. eigenvalues --   -0.59489  -0.55021  -0.52161  -0.50003  -0.48431
 Alpha  occ. eigenvalues --   -0.45076
 Alpha virt. eigenvalues --   -0.27669  -0.22606  -0.14970  -0.14029  -0.12511
 Alpha virt. eigenvalues --   -0.10236  -0.09890  -0.08624  -0.07784  -0.07342
 Alpha virt. eigenvalues --   -0.05115  -0.04925  -0.04219  -0.03537  -0.03137
 Alpha virt. eigenvalues --   -0.02694  -0.01130  -0.00823   0.00219   0.00347
 Alpha virt. eigenvalues --    0.00496   0.01752   0.02456   0.02852   0.03700
 Alpha virt. eigenvalues --    0.04021   0.04864   0.05232   0.06203   0.06805
 Alpha virt. eigenvalues --    0.08182   0.08850   0.09351   0.09642   0.10418
 Alpha virt. eigenvalues --    0.10729   0.11603   0.12033   0.12693   0.13599
 Alpha virt. eigenvalues --    0.14000   0.14739   0.15229   0.15564   0.16481
 Alpha virt. eigenvalues --    0.17990   0.18373   0.18902   0.19842   0.20491
 Alpha virt. eigenvalues --    0.22639   0.23634   0.25046   0.25550   0.26230
 Alpha virt. eigenvalues --    0.30617   0.33472   0.35605   0.40990   0.44173
 Alpha virt. eigenvalues --    0.47288   0.47879   0.51944   0.52228   0.53882
 Alpha virt. eigenvalues --    0.55156   0.56535   0.58002   0.58722   0.63299
 Alpha virt. eigenvalues --    0.63743   0.66078   0.70446   0.71245   0.74335
 Alpha virt. eigenvalues --    0.77619   0.78425   0.81342   0.83647   0.86281
 Alpha virt. eigenvalues --    0.87065   0.90386   0.92192   0.94106   0.95653
 Alpha virt. eigenvalues --    0.96704   0.98149   0.99550   1.00721   1.02206
 Alpha virt. eigenvalues --    1.02242   1.05672   1.05737   1.08614   1.11003
 Alpha virt. eigenvalues --    1.11462   1.12629   1.14674   1.16276   1.17493
 Alpha virt. eigenvalues --    1.17531   1.19187   1.19927   1.20735   1.22046
 Alpha virt. eigenvalues --    1.23978   1.28121   1.34547   1.37058   1.39537
 Alpha virt. eigenvalues --    1.41636   1.42350   1.52756   1.54881   1.56445
 Alpha virt. eigenvalues --    1.56864   1.59027   1.61875   1.64792   1.69114
 Alpha virt. eigenvalues --    1.72371   1.73262   1.73924   1.76781   1.79553
 Alpha virt. eigenvalues --    1.79857   1.83766   1.87555   1.87824   1.89841
 Alpha virt. eigenvalues --    1.91627   1.94394   2.03879   2.05619   2.08420
 Alpha virt. eigenvalues --    2.10977   2.14937   2.16967   2.18009   2.19264
 Alpha virt. eigenvalues --    2.20129   2.21500   2.27507   2.30440   2.33043
 Alpha virt. eigenvalues --    2.33618   2.35160   2.35601   2.38320   2.39837
 Alpha virt. eigenvalues --    2.40365   2.46608   2.47898   2.50543   2.55805
 Alpha virt. eigenvalues --    2.56909   2.57447   2.60209   2.63361   2.69997
 Alpha virt. eigenvalues --    2.78214   2.86567   2.91230   2.93843   3.00341
 Alpha virt. eigenvalues --    3.05166   3.08464   3.09083   3.18376   3.23516
 Alpha virt. eigenvalues --    3.29158   3.34773   3.42322   3.69828   4.00894
 Alpha virt. eigenvalues --    4.09226   4.14192   4.18212   4.22000   4.29157
 Alpha virt. eigenvalues --    4.36483   4.49430   4.71896   4.76149
          Condensed to atoms (all electrons):
               1          2          3          4          5          6
     1  N    6.651359   0.130292  -0.016702  -0.084496  -0.208021   0.391764
     2  C    0.130292   5.938185  -0.062299   0.451458  -0.499244  -0.271035
     3  C   -0.016702  -0.062299   5.479315  -0.728456   1.437221  -0.413232
     4  C   -0.084496   0.451458  -0.728456   8.226547  -3.296272   1.195158
     5  C   -0.208021  -0.499244   1.437221  -3.296272  13.617468  -4.292365
     6  C    0.391764  -0.271035  -0.413232   1.195158  -4.292365   9.525205
     7  C   -0.008833   0.143397  -0.216453   0.244562  -1.641520   0.276512
     8  O    0.022218   0.044192  -0.010414   0.031257   0.028554  -0.352657
     9  O    0.020181   0.006268  -0.002148   0.030858  -0.042606  -0.031535
    10  O    0.014859   0.004921   0.025202  -0.351332   0.328092   0.011284
    11  H    0.297350  -0.044120   0.034391  -0.022411   0.095715  -0.022825
    12  H   -0.069546   0.362327  -0.002250   0.029219  -0.035757   0.030389
    13  H    0.000711   0.042804   0.260802   0.051866  -0.038444   0.016735
    14  H    0.003609  -0.022001   0.092861   0.136867   0.172871  -0.046847
    15  H   -0.001455  -0.001600   0.000802  -0.000918   0.014504   0.018659
    16  H   -0.000822  -0.002212  -0.006621   0.069103   0.007560  -0.083616
               7          8          9         10         11         12
     1  N   -0.008833   0.022218   0.020181   0.014859   0.297350  -0.069546
     2  C    0.143397   0.044192   0.006268   0.004921  -0.044120   0.362327
     3  C   -0.216453  -0.010414  -0.002148   0.025202   0.034391  -0.002250
     4  C    0.244562   0.031257   0.030858  -0.351332  -0.022411   0.029219
     5  C   -1.641520   0.028554  -0.042606   0.328092   0.095715  -0.035757
     6  C    0.276512  -0.352657  -0.031535   0.011284  -0.022825   0.030389
     7  C    6.342440   0.551184   0.054449  -0.024209  -0.075791   0.017589
     8  O    0.551184   8.218168  -0.147688  -0.002561   0.029141  -0.000134
     9  O    0.054449  -0.147688   8.423480   0.001072   0.002556   0.000029
    10  O   -0.024209  -0.002561   0.001072   8.274863  -0.000301   0.000128
    11  H   -0.075791   0.029141   0.002556  -0.000301   0.324916  -0.003274
    12  H    0.017589  -0.000134   0.000029   0.000128  -0.003274   0.441093
    13  H    0.003507   0.000006   0.000002  -0.000440  -0.000112  -0.002394
    14  H    0.001164   0.000002   0.000163  -0.010880   0.000013  -0.000085
    15  H   -0.008353   0.006061   0.219538   0.000840  -0.000051  -0.000000
    16  H    0.021625   0.001321   0.028166   0.211498  -0.000020  -0.000000
              13         14         15         16
     1  N    0.000711   0.003609  -0.001455  -0.000822
     2  C    0.042804  -0.022001  -0.001600  -0.002212
     3  C    0.260802   0.092861   0.000802  -0.006621
     4  C    0.051866   0.136867  -0.000918   0.069103
     5  C   -0.038444   0.172871   0.014504   0.007560
     6  C    0.016735  -0.046847   0.018659  -0.083616
     7  C    0.003507   0.001164  -0.008353   0.021625
     8  O    0.000006   0.000002   0.006061   0.001321
     9  O    0.000002   0.000163   0.219538   0.028166
    10  O   -0.000440  -0.010880   0.000840   0.211498
    11  H   -0.000112   0.000013  -0.000051  -0.000020
    12  H   -0.002394  -0.000085  -0.000000  -0.000000
    13  H    0.436271  -0.003790   0.000000   0.000003
    14  H   -0.003790   0.444641  -0.000000  -0.000021
    15  H    0.000000  -0.000000   0.301325   0.000821
    16  H    0.000003  -0.000021   0.000821   0.320503
 Mulliken charges:
               1
     1  N   -0.142469
     2  C   -0.221334
     3  C    0.127981
     4  C    0.016989
     5  C    0.352243
     6  C    0.048404
     7  C    0.318728
     8  O   -0.418652
     9  O   -0.562786
    10  O   -0.483038
    11  H    0.384822
    12  H    0.232667
    13  H    0.232473
    14  H    0.231433
    15  H    0.449826
    16  H    0.432712
 Sum of Mulliken charges =   1.00000
 Mulliken charges with hydrogens summed into heavy atoms:
               1
     1  N    0.242353
     2  C    0.011333
     3  C    0.360454
     4  C    0.248422
     5  C    0.352243
     6  C    0.048404
     7  C    0.318728
     8  O   -0.418652
     9  O   -0.112960
    10  O   -0.050326
 Electronic spatial extent (au):  <R**2>=           1306.4293
 Charge=              1.0000 electrons
 Dipole moment (field-independent basis, Debye):
    X=             -2.4913    Y=             -1.0970    Z=             -0.0003  Tot=              2.7221
 Quadrupole moment (field-independent basis, Debye-Ang):
   XX=            -24.8646   YY=            -43.9258   ZZ=            -55.9013
   XY=              9.7710   XZ=             -0.0006   YZ=              0.0014
 Traceless Quadrupole moment (field-independent basis, Debye-Ang):
   XX=             16.6993   YY=             -2.3619   ZZ=            -14.3374
   XY=              9.7710   XZ=             -0.0006   YZ=              0.0014
 Octapole moment (field-independent basis, Debye-Ang**2):
  XXX=             10.8504  YYY=            -14.8960  ZZZ=              0.0003  XYY=            -13.3548
  XXY=             16.9177  XXZ=              0.0173  XZZ=              8.6305  YZZ=              0.5758
  YYZ=             -0.0016  XYZ=              0.0011
 Hexadecapole moment (field-independent basis, Debye-Ang**3):
 XXXX=           -639.3896 YYYY=           -483.5552 ZZZZ=            -52.1811 XXXY=             69.5896
 XXXZ=              0.0431 YYYX=             49.2465 YYYZ=             -0.0045 ZZZX=              0.0178
 ZZZY=             -0.0082 XXYY=           -221.1791 XXZZ=           -183.0094 YYZZ=           -103.3869
 XXYZ=              0.0081 YYXZ=              0.0019 ZZXY=             -0.7048
 N-N= 5.220839323505D+02 E-N=-2.226560710013D+03  KE= 5.077701727000D+02
 Calling FoFJK, ICntrl=      2127 FMM=F ISym2X=0 I1Cent= 0 IOpClX= 0 NMat=1 NMatS=1 NMatT=0.
 ***** Axes restored to original set *****
 -------------------------------------------------------------------
 Center     Atomic                   Forces (Hartrees/Bohr)
 Number     Number              X              Y              Z
 -------------------------------------------------------------------
      1        7          -0.001428133   -0.001263761    0.000009116
      2        6           0.002580843    0.000386899   -0.000002545
      3        6           0.000340433   -0.001957786    0.000001005
      4        6          -0.000512558    0.002052745   -0.000004672
      5        6           0.001909945    0.002989959    0.000001516
      6        6          -0.006206313   -0.002397163    0.000050319
      7        6           0.008133461    0.005567719   -0.000168226
      8        8          -0.004366333   -0.009600980    0.000063784
      9        8          -0.002041812    0.004014118    0.000050087
     10        8           0.001671431    0.001479850    0.000003263
     11        1          -0.000370474    0.001006666   -0.000003058
     12        1           0.000244303   -0.000141681   -0.000001601
     13        1           0.000540673    0.000053320    0.000000233
     14        1           0.000447553   -0.000125485    0.000000542
     15        1           0.000282919   -0.000218881    0.000003218
     16        1          -0.001225937   -0.001845539   -0.000002983
 -------------------------------------------------------------------
 Cartesian Forces:  Max     0.009600980 RMS     0.002566625

 GradGradGradGradGradGradGradGradGradGradGradGradGradGradGradGradGradGrad
 Berny optimization.
 FormGI is forming the generalized inverse of G from B-inverse, IUseBI=4.
 Internal  Forces:  Max     0.010544327 RMS     0.001604986
 Search for a local minimum.
 Step number   1 out of a maximum of   81
 All quantities printed in internal units (Hartrees-Bohrs-Radians)
 Mixed Optimization -- RFO/linear search
 Second derivative matrix not updated -- first step.
 ITU=  0
     Eigenvalues ---    0.00846   0.01458   0.01765   0.02040   0.02136
     Eigenvalues ---    0.02185   0.02228   0.02247   0.02353   0.02412
     Eigenvalues ---    0.02493   0.02559   0.02719   0.16000   0.16000
     Eigenvalues ---    0.16000   0.16000   0.16000   0.16000   0.22000
     Eigenvalues ---    0.22479   0.24469   0.25000   0.25000   0.25000
     Eigenvalues ---    0.25000   0.33017   0.35291   0.35580   0.35611
     Eigenvalues ---    0.41260   0.43086   0.43492   0.46127   0.47647
     Eigenvalues ---    0.52521   0.52554   0.52985   0.58169   0.58465
     Eigenvalues ---    0.61345   1.04476
 RFO step:  Lambda=-3.17309006D-04 EMin= 8.45618101D-03
 Linear search not attempted -- first point.
 Iteration  1 RMS(Cart)=  0.00659910 RMS(Int)=  0.00006806
 Iteration  2 RMS(Cart)=  0.00006634 RMS(Int)=  0.00000141
 Iteration  3 RMS(Cart)=  0.00000000 RMS(Int)=  0.00000141
 Variable       Old X    -DE/DX   Delta X   Delta X   Delta X     New X
                                 (Linear)    (Quad)   (Total)
    R1        2.51030   0.00288   0.00000   0.00481   0.00481   2.51511
    R2        2.56180   0.00063   0.00000   0.00128   0.00128   2.56308
    R3        1.93768  -0.00063   0.00000  -0.00145  -0.00145   1.93623
    R4        2.64244  -0.00001   0.00000  -0.00016  -0.00016   2.64227
    R5        2.04694   0.00023   0.00000   0.00064   0.00064   2.04759
    R6        2.60519   0.00201   0.00000   0.00395   0.00395   2.60914
    R7        2.04743   0.00054   0.00000   0.00151   0.00151   2.04894
    R8        2.67441   0.00075   0.00000   0.00173   0.00173   2.67614
    R9        2.05205   0.00011   0.00000   0.00031   0.00031   2.05236
   R10        2.63738   0.00388   0.00000   0.00850   0.00850   2.64588
   R11        2.49891  -0.00052   0.00000  -0.00085  -0.00085   2.49807
   R12        2.82321  -0.00195   0.00000  -0.00589  -0.00589   2.81731
   R13        2.26898   0.01054   0.00000   0.01009   0.01009   2.27907
   R14        2.52176   0.00416   0.00000   0.00710   0.00710   2.52886
   R15        1.84104  -0.00024   0.00000  -0.00045  -0.00045   1.84059
   R16        1.83668   0.00131   0.00000   0.00246   0.00246   1.83914
    A1        2.17547   0.00014   0.00000   0.00087   0.00087   2.17634
    A2        2.10868   0.00077   0.00000   0.00480   0.00480   2.11349
    A3        1.99903  -0.00091   0.00000  -0.00567  -0.00567   1.99336
    A4        2.06713   0.00027   0.00000   0.00094   0.00094   2.06807
    A5        2.04920   0.00003   0.00000   0.00059   0.00059   2.04979
    A6        2.16686  -0.00031   0.00000  -0.00153  -0.00153   2.16532
    A7        2.08652   0.00029   0.00000   0.00074   0.00074   2.08726
    A8        2.08361  -0.00007   0.00000   0.00011   0.00012   2.08372
    A9        2.11305  -0.00022   0.00000  -0.00085  -0.00085   2.11220
   A10        2.10654  -0.00028   0.00000  -0.00156  -0.00156   2.10498
   A11        2.12283  -0.00032   0.00000  -0.00210  -0.00210   2.12073
   A12        2.05381   0.00060   0.00000   0.00365   0.00366   2.05747
   A13        2.05352   0.00050   0.00000   0.00224   0.00224   2.05577
   A14        2.04357   0.00109   0.00000   0.00424   0.00424   2.04782
   A15        2.18609  -0.00159   0.00000  -0.00649  -0.00649   2.17960
   A16        2.07719  -0.00093   0.00000  -0.00324  -0.00324   2.07395
   A17        1.96961   0.00033   0.00000   0.00109   0.00109   1.97070
   A18        2.23638   0.00060   0.00000   0.00215   0.00214   2.23853
   A19        2.12223   0.00065   0.00000   0.00261   0.00260   2.12483
   A20        1.95872  -0.00063   0.00000  -0.00253  -0.00254   1.95618
   A21        2.20223  -0.00002   0.00000  -0.00007  -0.00007   2.20216
   A22        1.92431  -0.00050   0.00000  -0.00311  -0.00311   1.92121
   A23        1.97056  -0.00329   0.00000  -0.02053  -0.02053   1.95002
    D1       -0.00002   0.00000   0.00000   0.00006   0.00006   0.00004
    D2        3.14157   0.00000   0.00000   0.00008   0.00008  -3.14154
    D3       -3.14157  -0.00000   0.00000  -0.00007  -0.00007   3.14155
    D4        0.00002  -0.00000   0.00000  -0.00005  -0.00005  -0.00003
    D5        0.00001  -0.00000   0.00000  -0.00005  -0.00005  -0.00004
    D6       -3.14157  -0.00000   0.00000  -0.00008  -0.00008   3.14153
    D7        3.14157   0.00000   0.00000   0.00006   0.00006  -3.14155
    D8       -0.00001   0.00000   0.00000   0.00003   0.00003   0.00002
    D9        0.00001  -0.00000   0.00000  -0.00004  -0.00004  -0.00003
   D10       -3.14159  -0.00000   0.00000  -0.00002  -0.00002   3.14158
   D11       -3.14158  -0.00000   0.00000  -0.00006  -0.00006   3.14155
   D12        0.00001  -0.00000   0.00000  -0.00004  -0.00004  -0.00003
   D13       -0.00000   0.00000   0.00000   0.00002   0.00002   0.00001
   D14       -3.14159   0.00000   0.00000   0.00000   0.00000  -3.14159
   D15       -3.14159  -0.00000   0.00000  -0.00000  -0.00000   3.14159
   D16        0.00001  -0.00000   0.00000  -0.00002  -0.00002  -0.00001
   D17        0.00000  -0.00000   0.00000  -0.00001  -0.00001  -0.00001
   D18       -3.14159   0.00000   0.00000   0.00003   0.00003  -3.14156
   D19        3.14159  -0.00000   0.00000  -0.00000  -0.00000   3.14159
   D20       -0.00000   0.00000   0.00000   0.00004   0.00004   0.00004
   D21       -0.00000   0.00000   0.00000   0.00003   0.00003   0.00003
   D22        3.14157   0.00000   0.00000   0.00007   0.00007  -3.14155
   D23        3.14159  -0.00000   0.00000  -0.00001  -0.00001   3.14157
   D24       -0.00002   0.00000   0.00000   0.00002   0.00002   0.00000
   D25       -3.14158  -0.00000   0.00000  -0.00012  -0.00012   3.14148
   D26        0.00001  -0.00000   0.00000  -0.00008  -0.00008  -0.00007
   D27       -0.00066   0.00004   0.00000   0.00297   0.00297   0.00231
   D28       -3.14098  -0.00004   0.00000  -0.00279  -0.00279   3.13942
   D29        3.14094   0.00004   0.00000   0.00293   0.00294  -3.13931
   D30        0.00063  -0.00004   0.00000  -0.00282  -0.00282  -0.00220
   D31        3.14090   0.00005   0.00000   0.00314   0.00313  -3.13915
   D32        0.00066  -0.00004   0.00000  -0.00294  -0.00293  -0.00228
         Item               Value     Threshold  Converged?
 Maximum Force            0.010544     0.000450     NO 
 RMS     Force            0.001605     0.000300     NO 
 Maximum Displacement     0.045773     0.001800     NO 
 RMS     Displacement     0.006604     0.001200     NO 
 Predicted change in Energy=-1.588082D-04
 GradGradGradGradGradGradGradGradGradGradGradGradGradGradGradGradGradGrad

                          Input orientation:                          
 ---------------------------------------------------------------------
 Center     Atomic      Atomic             Coordinates (Angstroms)
 Number     Number       Type             X           Y           Z
 ---------------------------------------------------------------------
      1          7           0        0.505372   -1.348790   -0.000512
      2          6           0        1.834458   -1.418999    0.000071
      3          6           0        2.565351   -0.227006    0.000403
      4          6           0        1.898223    0.981822    0.000091
      5          6           0        0.482704    1.024160   -0.000546
      6          6           0       -0.206758   -0.194459   -0.000859
      7          6           0       -1.680232   -0.421465   -0.001578
      8          8           0       -2.151190   -1.531737    0.000560
      9          8           0       -2.366246    0.727534    0.000785
     10          8           0       -0.088851    2.216131   -0.000850
     11          1           0       -0.069325   -2.197049   -0.000813
     12          1           0        2.282428   -2.405595    0.000244
     13          1           0        3.648858   -0.267244    0.000889
     14          1           0        2.434632    1.926171    0.000330
     15          1           0       -3.323109    0.545652    0.002482
     16          1           0       -1.059840    2.150108   -0.001385
 ---------------------------------------------------------------------
                    Distance matrix (angstroms):
                    1          2          3          4          5
     1  N    0.000000
     2  C    1.330940   0.000000
     3  C    2.345617   1.398231   0.000000
     4  C    2.715103   2.401667   1.380697   0.000000
     5  C    2.373058   2.792179   2.429575   1.416151   0.000000
     6  C    1.356322   2.380349   2.772300   2.411344   1.400139
     7  C    2.374193   3.653508   4.250035   3.843768   2.601562
     8  O    2.662854   3.987243   4.893678   4.766102   3.670152
     9  O    3.543630   4.717364   5.023127   4.272044   2.864351
    10  O    3.614106   4.112577   3.607452   2.339227   1.321919
    11  H    1.024607   2.056637   3.289771   3.738511   3.268168
    12  H    2.067551   1.083536   2.196884   3.409136   3.873271
    13  H    3.324342   2.149089   1.084254   2.150556   3.419394
    14  H    3.800976   3.398583   2.157141   1.086062   2.150266
    15  H    4.271555   5.519090   5.938937   5.239519   3.835778
    16  H    3.833038   4.595159   4.335053   3.180414   1.909765
                    6          7          8          9         10
     6  C    0.000000
     7  C    1.490858   0.000000
     8  O    2.359901   1.206031   0.000000
     9  O    2.348077   1.338216   2.269484   0.000000
    10  O    2.413472   3.080488   4.277822   2.720744   0.000000
    11  H    2.007300   2.397440   2.185590   3.718741   4.413223
    12  H    3.329440   4.431642   4.518916   5.605950   5.194547
    13  H    3.856303   5.331321   5.936287   6.096808   4.487497
    14  H    3.387331   4.737457   5.743422   4.948248   2.540088
    15  H    3.203033   1.906405   2.385150   0.973997   3.640183
    16  H    2.494944   2.645350   3.840187   1.931429   0.973231
                   11         12         13         14         15
    11  H    0.000000
    12  H    2.360982   0.000000
    13  H    4.189157   2.537652   0.000000
    14  H    4.823976   4.334439   2.507073   0.000000
    15  H    4.255529   6.334976   7.019197   5.920931   0.000000
    16  H    4.458576   5.650239   5.292961   3.501640   2.774289
                   16
    16  H    0.000000
 Stoichiometry    C6H6NO3(1+)
 Framework group  C1[X(C6H6NO3)]
 Deg. of freedom    42
 Full point group                 C1      NOp   1
 Largest Abelian subgroup         C1      NOp   1
 Largest concise Abelian subgroup C1      NOp   1
                         Standard orientation:                         
 ---------------------------------------------------------------------
 Center     Atomic      Atomic             Coordinates (Angstroms)
 Number     Number       Type             X           Y           Z
 ---------------------------------------------------------------------
      1          7           0       -0.505176   -1.350013    0.000342
      2          6           0       -1.834226   -1.420908   -0.000240
      3          6           0       -2.565734   -0.229293   -0.000573
      4          6           0       -1.899230    0.979879   -0.000260
      5          6           0       -0.483734    1.022948    0.000376
      6          6           0        0.206357   -0.195315    0.000690
      7          6           0        1.679949   -0.421561    0.001408
      8          8           0        2.151480   -1.531589   -0.000729
      9          8           0        2.365370    0.727793   -0.000954
     10          8           0        0.087207    2.215214    0.000680
     11          1           0        0.069959   -2.197976    0.000644
     12          1           0       -2.281687   -2.407736   -0.000413
     13          1           0       -3.649220   -0.270090   -0.001058
     14          1           0       -2.436126    1.923951   -0.000500
     15          1           0        3.322326    0.546405   -0.002652
     16          1           0        1.058230    2.149692    0.001216
 ---------------------------------------------------------------------
 Rotational constants (GHZ):      2.2885584      1.2508124      0.8087759
 Standard basis: 6-31+G(d,p) (6D, 7F)
 There are   220 symmetry adapted cartesian basis functions of A   symmetry.
 There are   220 symmetry adapted basis functions of A   symmetry.
   220 basis functions,   362 primitive gaussians,   220 cartesian basis functions
    36 alpha electrons       36 beta electrons
       nuclear repulsion energy       521.6788492454 Hartrees.
 NAtoms=   16 NActive=   16 NUniq=   16 SFac= 1.00D+00 NAtFMM=   60 NAOKFM=F Big=F
 Integral buffers will be    131072 words long.
 Raffenetti 2 integral format.
 Two-electron integral symmetry is turned on.
 One-electron integrals computed using PRISM.
 NBasis=   220 RedAO= T EigKep=  4.76D-06  NBF=   220
 NBsUse=   220 1.00D-06 EigRej= -1.00D+00 NBFU=   220
 Initial guess from the checkpoint file:  "B3PW913HPA2.chk"
 B after Tr=     0.000000    0.000000   -0.000000
         Rot=    1.000000   -0.000033    0.000003   -0.000312 Ang=  -0.04 deg.
 ExpMin= 4.38D-02 ExpMax= 5.48D+03 ExpMxC= 8.25D+02 IAcc=2 IRadAn=         4 AccDes= 0.00D+00
 Harris functional with IExCor=  408 and IRadAn=       4 diagonalized for initial guess.
 HarFok:  IExCor=  408 AccDes= 0.00D+00 IRadAn=         4 IDoV= 1 UseB2=F ITyADJ=14
 ICtDFT=  3500011 ScaDFX=  1.000000  1.000000  1.000000  1.000000
 FoFCou: FMM=F IPFlag=           0 FMFlag=      100000 FMFlg1=           0
         NFxFlg=           0 DoJE=T BraDBF=F KetDBF=T FulRan=T
         wScrn=  0.000000 ICntrl=     500 IOpCl=  0 I1Cent=   200000004 NGrid=           0
         NMat0=    1 NMatS0=      1 NMatT0=    0 NMatD0=    1 NMtDS0=    0 NMtDT0=    0
 Petite list used in FoFCou.
 Keep R1 ints in memory in canonical form, NReq=301066375.
 Requested convergence on RMS density matrix=1.00D-08 within 128 cycles.
 Requested convergence on MAX density matrix=1.00D-06.
 Requested convergence on             energy=1.00D-06.
 No special actions if energy rises.
 SCF Done:  E(RB3PW91) =  -512.283056521     A.U. after   11 cycles
            NFock= 11  Conv=0.40D-08     -V/T= 2.0090
 Calling FoFJK, ICntrl=      2127 FMM=F ISym2X=0 I1Cent= 0 IOpClX= 0 NMat=1 NMatS=1 NMatT=0.
 ***** Axes restored to original set *****
 -------------------------------------------------------------------
 Center     Atomic                   Forces (Hartrees/Bohr)
 Number     Number              X              Y              Z
 -------------------------------------------------------------------
      1        7           0.000275021   -0.000007710   -0.000028457
      2        6           0.000352053    0.000230220    0.000006400
      3        6          -0.000339719   -0.000521426   -0.000002300
      4        6          -0.000681521    0.000148492    0.000016762
      5        6           0.001639441    0.000661568   -0.000012593
      6        6          -0.001732210   -0.000977923   -0.000170373
      7        6           0.002873757    0.000341797    0.000601990
      8        8          -0.000725841   -0.000659797   -0.000234072
      9        8          -0.000720035    0.000497055   -0.000179952
     10        8           0.000171516    0.000074593   -0.000012225
     11        1          -0.000075447   -0.000096969    0.000009874
     12        1          -0.000084736   -0.000010459    0.000005347
     13        1          -0.000021960    0.000030074   -0.000001318
     14        1           0.000076745   -0.000107112   -0.000001972
     15        1          -0.000141279    0.000055846   -0.000011133
     16        1          -0.000865786    0.000341752    0.000014022
 -------------------------------------------------------------------
 Cartesian Forces:  Max     0.002873757 RMS     0.000641577

 GradGradGradGradGradGradGradGradGradGradGradGradGradGradGradGradGradGrad
 Berny optimization.
 Using GEDIIS/GDIIS optimizer.
 FormGI is forming the generalized inverse of G from B-inverse, IUseBI=4.
 Internal  Forces:  Max     0.001306734 RMS     0.000329462
 Search for a local minimum.
 Step number   2 out of a maximum of   81
 All quantities printed in internal units (Hartrees-Bohrs-Radians)
 Mixed Optimization -- En-DIIS/RFO-DIIS
 Update second derivatives using D2CorX and points    1    2
 DE= -1.66D-04 DEPred=-1.59D-04 R= 1.05D+00
 TightC=F SS=  1.41D+00  RLast= 3.12D-02 DXNew= 5.0454D-01 9.3585D-02
 Trust test= 1.05D+00 RLast= 3.12D-02 DXMaxT set to 3.00D-01
 ITU=  1  0
 Use linear search instead of GDIIS.
     Eigenvalues ---    0.00846   0.01481   0.01763   0.02040   0.02136
     Eigenvalues ---    0.02184   0.02228   0.02247   0.02353   0.02413
     Eigenvalues ---    0.02494   0.02559   0.02719   0.15822   0.16000
     Eigenvalues ---    0.16000   0.16000   0.16000   0.17622   0.21955
     Eigenvalues ---    0.22487   0.23999   0.24636   0.25000   0.25000
     Eigenvalues ---    0.25810   0.31270   0.35296   0.35597   0.35628
     Eigenvalues ---    0.41213   0.41876   0.43564   0.45688   0.47210
     Eigenvalues ---    0.52050   0.52536   0.52843   0.57009   0.58725
     Eigenvalues ---    0.61983   1.01539
 RFO step:  Lambda=-3.22180413D-05 EMin= 8.45620290D-03
 Quartic linear search produced a step of  0.05069.
 Iteration  1 RMS(Cart)=  0.00429114 RMS(Int)=  0.00002550
 Iteration  2 RMS(Cart)=  0.00002970 RMS(Int)=  0.00001537
 Iteration  3 RMS(Cart)=  0.00000000 RMS(Int)=  0.00001537
 Variable       Old X    -DE/DX   Delta X   Delta X   Delta X     New X
                                 (Linear)    (Quad)   (Total)
    R1        2.51511  -0.00014   0.00024  -0.00000   0.00024   2.51535
    R2        2.56308   0.00013   0.00006   0.00037   0.00044   2.56351
    R3        1.93623   0.00012  -0.00007   0.00022   0.00015   1.93637
    R4        2.64227  -0.00041  -0.00001  -0.00103  -0.00104   2.64124
    R5        2.04759  -0.00003   0.00003  -0.00004  -0.00001   2.04757
    R6        2.60914   0.00025   0.00020   0.00067   0.00087   2.61001
    R7        2.04894  -0.00002   0.00008   0.00001   0.00009   2.04903
    R8        2.67614  -0.00055   0.00009  -0.00124  -0.00116   2.67498
    R9        2.05236  -0.00005   0.00002  -0.00015  -0.00013   2.05223
   R10        2.64588   0.00094   0.00043   0.00264   0.00308   2.64896
   R11        2.49807   0.00068  -0.00004   0.00111   0.00107   2.49914
   R12        2.81731  -0.00131  -0.00030  -0.00446  -0.00476   2.81256
   R13        2.27907   0.00089   0.00051   0.00141   0.00192   2.28099
   R14        2.52886   0.00091   0.00036   0.00200   0.00236   2.53122
   R15        1.84059   0.00013  -0.00002   0.00024   0.00021   1.84080
   R16        1.83914   0.00084   0.00012   0.00180   0.00192   1.84106
    A1        2.17634   0.00000   0.00004   0.00012   0.00017   2.17651
    A2        2.11349   0.00001   0.00024   0.00025   0.00049   2.11398
    A3        1.99336  -0.00001  -0.00029  -0.00037  -0.00066   1.99270
    A4        2.06807  -0.00009   0.00005  -0.00058  -0.00053   2.06754
    A5        2.04979  -0.00004   0.00003  -0.00019  -0.00016   2.04963
    A6        2.16532   0.00012  -0.00008   0.00077   0.00069   2.16602
    A7        2.08726   0.00028   0.00004   0.00106   0.00109   2.08835
    A8        2.08372  -0.00011   0.00001  -0.00029  -0.00029   2.08344
    A9        2.11220  -0.00017  -0.00004  -0.00076  -0.00081   2.11139
   A10        2.10498   0.00008  -0.00008   0.00016   0.00009   2.10507
   A11        2.12073  -0.00016  -0.00011  -0.00102  -0.00113   2.11960
   A12        2.05747   0.00008   0.00019   0.00086   0.00104   2.05851
   A13        2.05577  -0.00028   0.00011  -0.00091  -0.00079   2.05497
   A14        2.04782   0.00034   0.00022   0.00154   0.00176   2.04957
   A15        2.17960  -0.00005  -0.00033  -0.00064  -0.00097   2.17864
   A16        2.07395   0.00001  -0.00016   0.00014  -0.00002   2.07393
   A17        1.97070  -0.00001   0.00006  -0.00010  -0.00004   1.97066
   A18        2.23853  -0.00001   0.00011  -0.00004   0.00007   2.23860
   A19        2.12483   0.00028   0.00013   0.00135   0.00141   2.12624
   A20        1.95618   0.00037  -0.00013   0.00144   0.00124   1.95743
   A21        2.20216  -0.00065  -0.00000  -0.00270  -0.00277   2.19938
   A22        1.92121   0.00015  -0.00016   0.00080   0.00064   1.92185
   A23        1.95002   0.00073  -0.00104   0.00377   0.00273   1.95275
    D1        0.00004  -0.00000   0.00000  -0.00019  -0.00019  -0.00015
    D2       -3.14154  -0.00001   0.00000  -0.00026  -0.00026   3.14139
    D3        3.14155   0.00001  -0.00000   0.00022   0.00022  -3.14142
    D4       -0.00003   0.00000  -0.00000   0.00015   0.00015   0.00012
    D5       -0.00004   0.00000  -0.00000   0.00020   0.00019   0.00015
    D6        3.14153   0.00001  -0.00000   0.00026   0.00026  -3.14140
    D7       -3.14155  -0.00000   0.00000  -0.00020  -0.00019   3.14144
    D8        0.00002  -0.00000   0.00000  -0.00013  -0.00013  -0.00011
    D9       -0.00003   0.00000  -0.00000   0.00012   0.00012   0.00010
   D10        3.14158   0.00000  -0.00000   0.00005   0.00005  -3.14155
   D11        3.14155   0.00000  -0.00000   0.00020   0.00019  -3.14144
   D12       -0.00003   0.00000  -0.00000   0.00012   0.00012   0.00010
   D13        0.00001  -0.00000   0.00000  -0.00007  -0.00007  -0.00005
   D14       -3.14159  -0.00000   0.00000  -0.00003  -0.00003   3.14157
   D15        3.14159   0.00000  -0.00000   0.00001   0.00001  -3.14159
   D16       -0.00001   0.00000  -0.00000   0.00004   0.00004   0.00003
   D17       -0.00001   0.00000  -0.00000   0.00007   0.00006   0.00005
   D18       -3.14156  -0.00000   0.00000  -0.00018  -0.00018   3.14144
   D19        3.14159   0.00000  -0.00000   0.00003   0.00003  -3.14157
   D20        0.00004  -0.00000   0.00000  -0.00021  -0.00021  -0.00017
   D21        0.00003  -0.00000   0.00000  -0.00012  -0.00012  -0.00009
   D22       -3.14155  -0.00000   0.00000  -0.00020  -0.00020   3.14144
   D23        3.14157   0.00000  -0.00000   0.00014   0.00014  -3.14147
   D24        0.00000   0.00000   0.00000   0.00007   0.00007   0.00007
   D25        3.14148   0.00002  -0.00001   0.00061   0.00060  -3.14111
   D26       -0.00007   0.00001  -0.00000   0.00034   0.00034   0.00027
   D27        0.00231  -0.00015   0.00015  -0.01084  -0.01070  -0.00839
   D28        3.13942   0.00015  -0.00014   0.01043   0.01030  -3.13347
   D29       -3.13931  -0.00015   0.00015  -0.01076  -0.01063   3.13325
   D30       -0.00220   0.00015  -0.00014   0.01050   0.01037   0.00817
   D31       -3.13915  -0.00017   0.00016  -0.01161  -0.01143   3.13261
   D32       -0.00228   0.00015  -0.00015   0.01081   0.01064   0.00836
         Item               Value     Threshold  Converged?
 Maximum Force            0.001307     0.000450     NO 
 RMS     Force            0.000329     0.000300     NO 
 Maximum Displacement     0.022006     0.001800     NO 
 RMS     Displacement     0.004293     0.001200     NO 
 Predicted change in Energy=-1.651701D-05
 GradGradGradGradGradGradGradGradGradGradGradGradGradGradGradGradGradGrad

                          Input orientation:                          
 ---------------------------------------------------------------------
 Center     Atomic      Atomic             Coordinates (Angstroms)
 Number     Number       Type             X           Y           Z
 ---------------------------------------------------------------------
      1          7           0        0.505440   -1.349189    0.001946
      2          6           0        1.834648   -1.419466   -0.000352
      3          6           0        2.564678   -0.227587   -0.001917
      4          6           0        1.898067    0.982050   -0.000939
      5          6           0        0.483192    1.025355    0.001569
      6          6           0       -0.206950   -0.194748    0.003069
      7          6           0       -1.677896   -0.421616    0.005911
      8          8           0       -2.150653   -1.532206   -0.001572
      9          8           0       -2.366181    0.727450   -0.003084
     10          8           0       -0.089875    2.217229    0.002559
     11          1           0       -0.069755   -2.197204    0.003309
     12          1           0        2.282411   -2.406150   -0.000838
     13          1           0        3.648236   -0.267613   -0.003831
     14          1           0        2.436083    1.925404   -0.002081
     15          1           0       -3.322988    0.544766   -0.009164
     16          1           0       -1.061984    2.152756    0.004724
 ---------------------------------------------------------------------
                    Distance matrix (angstroms):
                    1          2          3          4          5
     1  N    0.000000
     2  C    1.331067   0.000000
     3  C    2.344881   1.397684   0.000000
     4  C    2.715528   2.402352   1.381156   0.000000
     5  C    2.374649   2.793490   2.429498   1.415539   0.000000
     6  C    1.356553   2.380771   2.771827   2.411631   1.401767
     7  C    2.372207   3.651535   4.247015   3.841593   2.600778
     8  O    2.662394   3.986896   4.892482   4.765881   3.671277
     9  O    3.543820   4.717650   5.022496   4.271842   2.864908
    10  O    3.615763   4.114529   3.608850   2.340426   1.322486
    11  H    1.024685   2.057095   3.289324   3.738983   3.269654
    12  H    2.067558   1.083530   2.196773   3.409929   3.874587
    13  H    3.323704   2.148459   1.084299   2.150525   3.418962
    14  H    3.801363   3.398511   2.156828   1.085993   2.150322
    15  H    4.271305   5.519012   5.938113   5.239341   3.836416
    16  H    3.836724   4.599052   4.338059   3.183157   1.912750
                    6          7          8          9         10
     6  C    0.000000
     7  C    1.488341   0.000000
     8  O    2.359406   1.207049   0.000000
     9  O    2.347927   1.339466   2.269912   0.000000
    10  O    2.414816   3.079825   4.278445   2.720485   0.000000
    11  H    2.007150   2.395587   2.184578   3.718496   4.414478
    12  H    3.329750   4.429723   4.518388   5.606145   5.196478
    13  H    3.855881   5.328367   5.935176   6.096176   4.488648
    14  H    3.388317   4.736390   5.743972   4.949427   2.542764
    15  H    3.202611   1.907996   2.385003   0.974110   3.640094
    16  H    2.498372   2.647025   3.842420   1.931965   0.974247
                   11         12         13         14         15
    11  H    0.000000
    12  H    2.361432   0.000000
    13  H    4.188893   2.537484   0.000000
    14  H    4.824432   4.334279   2.505722   0.000000
    15  H    4.254653   6.334703   7.018401   5.922255   0.000000
    16  H    4.461689   5.654081   5.295700   3.505454   2.774520
                   16
    16  H    0.000000
 Stoichiometry    C6H6NO3(1+)
 Framework group  C1[X(C6H6NO3)]
 Deg. of freedom    42
 Full point group                 C1      NOp   1
 Largest Abelian subgroup         C1      NOp   1
 Largest concise Abelian subgroup C1      NOp   1
                         Standard orientation:                         
 ---------------------------------------------------------------------
 Center     Atomic      Atomic             Coordinates (Angstroms)
 Number     Number       Type             X           Y           Z
 ---------------------------------------------------------------------
      1          7           0       -0.505586   -1.350261   -0.001494
      2          6           0       -1.834781   -1.420787    0.000804
      3          6           0       -2.565034   -0.229045    0.002369
      4          6           0       -1.898650    0.980716    0.001392
      5          6           0       -0.483784    1.024287   -0.001117
      6          6           0        0.206588   -0.195686   -0.002617
      7          6           0        1.677576   -0.422279   -0.005459
      8          8           0        2.150541   -1.532781    0.002024
      9          8           0        2.365645    0.726916    0.003536
     10          8           0        0.089060    2.216268   -0.002107
     11          1           0        0.069768   -2.198168   -0.002857
     12          1           0       -2.282359   -2.407555    0.001290
     13          1           0       -3.648585   -0.269275    0.004283
     14          1           0       -2.436843    1.923970    0.002534
     15          1           0        3.322486    0.544412    0.009616
     16          1           0        1.061181    2.151978   -0.004271
 ---------------------------------------------------------------------
 Rotational constants (GHZ):      2.2866297      1.2513111      0.8087458
 Standard basis: 6-31+G(d,p) (6D, 7F)
 There are   220 symmetry adapted cartesian basis functions of A   symmetry.
 There are   220 symmetry adapted basis functions of A   symmetry.
   220 basis functions,   362 primitive gaussians,   220 cartesian basis functions
    36 alpha electrons       36 beta electrons
       nuclear repulsion energy       521.6163319996 Hartrees.
 NAtoms=   16 NActive=   16 NUniq=   16 SFac= 1.00D+00 NAtFMM=   60 NAOKFM=F Big=F
 Integral buffers will be    131072 words long.
 Raffenetti 2 integral format.
 Two-electron integral symmetry is turned on.
 One-electron integrals computed using PRISM.
 NBasis=   220 RedAO= T EigKep=  4.77D-06  NBF=   220
 NBsUse=   220 1.00D-06 EigRej= -1.00D+00 NBFU=   220
 Initial guess from the checkpoint file:  "B3PW913HPA2.chk"
 B after Tr=     0.000000   -0.000000    0.000000
         Rot=    1.000000    0.000116   -0.000008    0.000204 Ang=   0.03 deg.
 ExpMin= 4.38D-02 ExpMax= 5.48D+03 ExpMxC= 8.25D+02 IAcc=2 IRadAn=         4 AccDes= 0.00D+00
 Harris functional with IExCor=  408 and IRadAn=       4 diagonalized for initial guess.
 HarFok:  IExCor=  408 AccDes= 0.00D+00 IRadAn=         4 IDoV= 1 UseB2=F ITyADJ=14
 ICtDFT=  3500011 ScaDFX=  1.000000  1.000000  1.000000  1.000000
 FoFCou: FMM=F IPFlag=           0 FMFlag=      100000 FMFlg1=           0
         NFxFlg=           0 DoJE=T BraDBF=F KetDBF=T FulRan=T
         wScrn=  0.000000 ICntrl=     500 IOpCl=  0 I1Cent=   200000004 NGrid=           0
         NMat0=    1 NMatS0=      1 NMatT0=    0 NMatD0=    1 NMtDS0=    0 NMtDT0=    0
 Petite list used in FoFCou.
 Keep R1 ints in memory in canonical form, NReq=301066375.
 Requested convergence on RMS density matrix=1.00D-08 within 128 cycles.
 Requested convergence on MAX density matrix=1.00D-06.
 Requested convergence on             energy=1.00D-06.
 No special actions if energy rises.
 SCF Done:  E(RB3PW91) =  -512.283054750     A.U. after   11 cycles
            NFock= 11  Conv=0.51D-08     -V/T= 2.0090
 Calling FoFJK, ICntrl=      2127 FMM=F ISym2X=0 I1Cent= 0 IOpClX= 0 NMat=1 NMatS=1 NMatT=0.
 ***** Axes restored to original set *****
 -------------------------------------------------------------------
 Center     Atomic                   Forces (Hartrees/Bohr)
 Number     Number              X              Y              Z
 -------------------------------------------------------------------
      1        7           0.000134695    0.000186280    0.000104721
      2        6          -0.000052340    0.000068378   -0.000022386
      3        6          -0.000082691   -0.000020575    0.000007146
      4        6          -0.000292860   -0.000027773   -0.000062343
      5        6           0.000074564    0.000115956    0.000054177
      6        6          -0.000008454   -0.000149250    0.000620012
      7        6           0.000051767   -0.000305215   -0.002226847
      8        8           0.000150783    0.000572416    0.000869056
      9        8          -0.000066046    0.000000907    0.000668758
     10        8          -0.000022365   -0.000309261    0.000045073
     11        1          -0.000023807   -0.000093966   -0.000036232
     12        1          -0.000049225    0.000006943   -0.000019612
     13        1          -0.000041286    0.000043760    0.000004982
     14        1           0.000034560   -0.000029799    0.000007118
     15        1           0.000061840   -0.000075439    0.000042773
     16        1           0.000130865    0.000016640   -0.000056396
 -------------------------------------------------------------------
 Cartesian Forces:  Max     0.002226847 RMS     0.000391566

 GradGradGradGradGradGradGradGradGradGradGradGradGradGradGradGradGradGrad
 Berny optimization.
 Using GEDIIS/GDIIS optimizer.
 FormGI is forming the generalized inverse of G from B-inverse, IUseBI=4.
 Internal  Forces:  Max     0.000615975 RMS     0.000197747
 Search for a local minimum.
 Step number   3 out of a maximum of   81
 All quantities printed in internal units (Hartrees-Bohrs-Radians)
 Mixed Optimization -- En-DIIS/RFO-DIIS
 Swapping is turned off.
 Update second derivatives using D2CorX and points    1    2    3
 DE=  1.77D-06 DEPred=-1.65D-05 R=-1.07D-01
 Trust test=-1.07D-01 RLast= 2.77D-02 DXMaxT set to 1.50D-01
 ITU= -1  1  0
     Eigenvalues ---    0.00846   0.01763   0.02040   0.02135   0.02184
     Eigenvalues ---    0.02228   0.02247   0.02353   0.02411   0.02494
     Eigenvalues ---    0.02556   0.02713   0.04139   0.14101   0.16000
     Eigenvalues ---    0.16000   0.16000   0.16095   0.17294   0.19348
     Eigenvalues ---    0.22200   0.22498   0.24632   0.24999   0.25135
     Eigenvalues ---    0.25726   0.28256   0.35294   0.35598   0.35630
     Eigenvalues ---    0.40311   0.41622   0.43554   0.45833   0.46995
     Eigenvalues ---    0.51879   0.52542   0.52767   0.56445   0.58855
     Eigenvalues ---    0.62211   0.99910
 En-DIIS/RFO-DIIS IScMMF=        0 using points:     3    2
 RFO step:  Lambda=-9.59023836D-06.
 DidBck=T Rises=F RFO-DIIS coefs:    0.47528    0.52472
 Iteration  1 RMS(Cart)=  0.00484292 RMS(Int)=  0.00002939
 Iteration  2 RMS(Cart)=  0.00003918 RMS(Int)=  0.00001324
 Iteration  3 RMS(Cart)=  0.00000000 RMS(Int)=  0.00001324
 Variable       Old X    -DE/DX   Delta X   Delta X   Delta X     New X
                                 (Linear)    (Quad)   (Total)
    R1        2.51535  -0.00016  -0.00013   0.00044   0.00031   2.51566
    R2        2.56351  -0.00012  -0.00023   0.00048   0.00025   2.56377
    R3        1.93637   0.00009  -0.00008   0.00019   0.00011   1.93649
    R4        2.64124  -0.00009   0.00054  -0.00132  -0.00077   2.64047
    R5        2.04757  -0.00003   0.00001  -0.00001  -0.00001   2.04757
    R6        2.61001  -0.00011  -0.00045   0.00115   0.00069   2.61070
    R7        2.04903  -0.00004  -0.00005   0.00013   0.00009   2.04911
    R8        2.67498  -0.00032   0.00061  -0.00164  -0.00103   2.67395
    R9        2.05223  -0.00001   0.00007  -0.00015  -0.00008   2.05215
   R10        2.64896  -0.00019  -0.00161   0.00391   0.00230   2.65125
   R11        2.49914  -0.00031  -0.00056   0.00096   0.00040   2.49953
   R12        2.81256  -0.00023   0.00250  -0.00629  -0.00380   2.80876
   R13        2.28099  -0.00059  -0.00101   0.00258   0.00157   2.28256
   R14        2.53122  -0.00007  -0.00124   0.00314   0.00190   2.53313
   R15        1.84080  -0.00005  -0.00011   0.00018   0.00007   1.84087
   R16        1.84106  -0.00013  -0.00101   0.00229   0.00128   1.84234
    A1        2.17651  -0.00004  -0.00009   0.00018   0.00009   2.17660
    A2        2.11398  -0.00002  -0.00026   0.00079   0.00054   2.11452
    A3        1.99270   0.00005   0.00035  -0.00097  -0.00063   1.99207
    A4        2.06754  -0.00003   0.00028  -0.00061  -0.00033   2.06720
    A5        2.04963  -0.00003   0.00008  -0.00026  -0.00018   2.04946
    A6        2.16602   0.00006  -0.00036   0.00087   0.00051   2.16652
    A7        2.08835   0.00001  -0.00057   0.00137   0.00079   2.08915
    A8        2.08344   0.00004   0.00015  -0.00021  -0.00006   2.08338
    A9        2.11139  -0.00005   0.00042  -0.00116  -0.00074   2.11066
   A10        2.10507  -0.00001  -0.00005  -0.00001  -0.00006   2.10501
   A11        2.11960  -0.00004   0.00059  -0.00158  -0.00099   2.11862
   A12        2.05851   0.00005  -0.00055   0.00159   0.00105   2.05956
   A13        2.05497   0.00003   0.00042  -0.00076  -0.00034   2.05463
   A14        2.04957   0.00002  -0.00092   0.00237   0.00145   2.05102
   A15        2.17864  -0.00005   0.00051  -0.00161  -0.00110   2.17753
   A16        2.07393   0.00003   0.00001  -0.00016  -0.00015   2.07378
   A17        1.97066   0.00016   0.00002   0.00033   0.00035   1.97101
   A18        2.23860  -0.00019  -0.00004  -0.00016  -0.00020   2.23840
   A19        2.12624   0.00004  -0.00074   0.00200   0.00120   2.12744
   A20        1.95743   0.00013  -0.00065   0.00167   0.00096   1.95839
   A21        2.19938  -0.00015   0.00146  -0.00346  -0.00206   2.19732
   A22        1.92185  -0.00016  -0.00033   0.00006  -0.00027   1.92157
   A23        1.95275   0.00001  -0.00143   0.00204   0.00061   1.95336
    D1       -0.00015   0.00002   0.00010   0.00012   0.00022   0.00007
    D2        3.14139   0.00002   0.00014   0.00016   0.00030  -3.14150
    D3       -3.14142  -0.00002  -0.00012  -0.00013  -0.00025   3.14152
    D4        0.00012  -0.00001  -0.00008  -0.00009  -0.00017  -0.00005
    D5        0.00015  -0.00002  -0.00010  -0.00012  -0.00022  -0.00007
    D6       -3.14140  -0.00002  -0.00013  -0.00014  -0.00027   3.14152
    D7        3.14144   0.00002   0.00010   0.00011   0.00022  -3.14153
    D8       -0.00011   0.00001   0.00007   0.00010   0.00017   0.00006
    D9        0.00010  -0.00001  -0.00006  -0.00007  -0.00014  -0.00004
   D10       -3.14155  -0.00000  -0.00003  -0.00003  -0.00005   3.14158
   D11       -3.14144  -0.00002  -0.00010  -0.00012  -0.00022   3.14152
   D12        0.00010  -0.00001  -0.00006  -0.00007  -0.00014  -0.00004
   D13       -0.00005   0.00000   0.00003   0.00004   0.00007   0.00002
   D14        3.14157   0.00000   0.00002   0.00003   0.00004  -3.14157
   D15       -3.14159  -0.00000  -0.00000  -0.00001  -0.00001   3.14159
   D16        0.00003  -0.00000  -0.00002  -0.00002  -0.00004  -0.00001
   D17        0.00005  -0.00001  -0.00003  -0.00004  -0.00007  -0.00002
   D18        3.14144   0.00002   0.00009   0.00015   0.00024  -3.14150
   D19       -3.14157  -0.00000  -0.00002  -0.00003  -0.00005   3.14157
   D20       -0.00017   0.00002   0.00011   0.00016   0.00027   0.00010
   D21       -0.00009   0.00001   0.00006   0.00008   0.00014   0.00005
   D22        3.14144   0.00001   0.00010   0.00010   0.00020  -3.14154
   D23       -3.14147  -0.00001  -0.00008  -0.00013  -0.00020   3.14151
   D24        0.00007  -0.00001  -0.00004  -0.00011  -0.00014  -0.00007
   D25       -3.14111  -0.00006  -0.00031  -0.00043  -0.00075   3.14133
   D26        0.00027  -0.00004  -0.00018  -0.00023  -0.00041  -0.00014
   D27       -0.00839   0.00056   0.00561   0.00658   0.01221   0.00382
   D28       -3.13347  -0.00055  -0.00540  -0.00654  -0.01195   3.13776
   D29        3.13325   0.00055   0.00558   0.00656   0.01215  -3.13778
   D30        0.00817  -0.00055  -0.00544  -0.00656  -0.01201  -0.00384
   D31        3.13261   0.00062   0.00600   0.00717   0.01313  -3.13744
   D32        0.00836  -0.00054  -0.00558  -0.00668  -0.01223  -0.00387
         Item               Value     Threshold  Converged?
 Maximum Force            0.000616     0.000450     NO 
 RMS     Force            0.000198     0.000300     YES
 Maximum Displacement     0.025516     0.001800     NO 
 RMS     Displacement     0.004845     0.001200     NO 
 Predicted change in Energy=-2.081140D-05
 GradGradGradGradGradGradGradGradGradGradGradGradGradGradGradGradGradGrad

                          Input orientation:                          
 ---------------------------------------------------------------------
 Center     Atomic      Atomic             Coordinates (Angstroms)
 Number     Number       Type             X           Y           Z
 ---------------------------------------------------------------------
      1          7           0        0.505488   -1.349499   -0.000895
      2          6           0        1.834866   -1.419698    0.000140
      3          6           0        2.564210   -0.227879    0.000771
      4          6           0        1.897902    0.982343    0.000261
      5          6           0        0.483584    1.026110   -0.000867
      6          6           0       -0.207154   -0.195054   -0.001470
      7          6           0       -1.676161   -0.421330   -0.002713
      8          8           0       -2.150777   -1.532053    0.000777
      9          8           0       -2.365837    0.728105    0.001489
     10          8           0       -0.090895    2.217538   -0.001412
     11          1           0       -0.070142   -2.197291   -0.001454
     12          1           0        2.282518   -2.406429    0.000416
     13          1           0        3.647829   -0.267537    0.001631
     14          1           0        2.437203    1.924916    0.000713
     15          1           0       -3.322512    0.544456    0.004339
     16          1           0       -1.063648    2.152534   -0.002416
 ---------------------------------------------------------------------
                    Distance matrix (angstroms):
                    1          2          3          4          5
     1  N    0.000000
     2  C    1.331231   0.000000
     3  C    2.344433   1.397274   0.000000
     4  C    2.715935   2.402868   1.381522   0.000000
     5  C    2.375710   2.794270   2.429299   1.414995   0.000000
     6  C    1.356688   2.381093   2.771559   2.411955   1.402983
     7  C    2.370884   3.650214   4.244782   3.839822   2.599920
     8  O    2.662531   3.987227   4.892031   4.765919   3.672065
     9  O    3.544143   4.717941   5.021879   4.271312   2.864963
    10  O    3.616549   4.115586   3.609660   2.341158   1.322697
    11  H    1.024745   2.057599   3.289134   3.739421   3.270616
    12  H    2.067592   1.083526   2.196686   3.410528   3.875370
    13  H    3.323394   2.148094   1.084345   2.150452   3.418475
    14  H    3.801752   3.398420   2.156538   1.085951   2.150461
    15  H    4.270910   5.518738   5.937171   5.238748   3.836454
    16  H    3.837502   4.600243   4.339093   3.184357   1.913834
                    6          7          8          9         10
     6  C    0.000000
     7  C    1.486332   0.000000
     8  O    2.359076   1.207881   0.000000
     9  O    2.347796   1.340474   2.270366   0.000000
    10  O    2.415392   3.078424   4.278148   2.719151   0.000000
    11  H    2.006919   2.394438   2.184396   3.718624   4.414878
    12  H    3.329962   4.428517   4.518698   5.606470   5.197515
    13  H    3.855665   5.326212   5.934882   6.095529   4.489283
    14  H    3.389233   4.735467   5.744579   4.949904   2.544977
    15  H    3.201931   1.908734   2.384295   0.974146   3.639036
    16  H    2.498950   2.645741   3.841619   1.929951   0.974923
                   11         12         13         14         15
    11  H    0.000000
    12  H    2.361938   0.000000
    13  H    4.188946   2.537505   0.000000
    14  H    4.824871   4.334106   2.504489   0.000000
    15  H    4.253835   6.334358   7.017477   5.922837   0.000000
    16  H    4.461842   5.655172   5.296675   3.508244   2.772801
                   16
    16  H    0.000000
 Stoichiometry    C6H6NO3(1+)
 Framework group  C1[X(C6H6NO3)]
 Deg. of freedom    42
 Full point group                 C1      NOp   1
 Largest Abelian subgroup         C1      NOp   1
 Largest concise Abelian subgroup C1      NOp   1
                         Standard orientation:                         
 ---------------------------------------------------------------------
 Center     Atomic      Atomic             Coordinates (Angstroms)
 Number     Number       Type             X           Y           Z
 ---------------------------------------------------------------------
      1          7           0       -0.506146   -1.350484    0.000628
      2          6           0       -1.835539   -1.420400   -0.000407
      3          6           0       -2.564627   -0.228424   -0.001038
      4          6           0       -1.898061    0.981655   -0.000528
      5          6           0       -0.483734    1.025120    0.000601
      6          6           0        0.206743   -0.196192    0.001204
      7          6           0        1.675702   -0.422782    0.002447
      8          8           0        2.150080   -1.533606   -0.001044
      9          8           0        2.365624    0.726506   -0.001756
     10          8           0        0.090999    2.216425    0.001145
     11          1           0        0.069304   -2.198399    0.001187
     12          1           0       -2.283401   -2.407035   -0.000683
     13          1           0       -3.648255   -0.267851   -0.001897
     14          1           0       -2.437161    1.924343   -0.000979
     15          1           0        3.322259    0.542653   -0.004606
     16          1           0        1.063739    2.151213    0.002149
 ---------------------------------------------------------------------
 Rotational constants (GHZ):      2.2858311      1.2516418      0.8087819
 Standard basis: 6-31+G(d,p) (6D, 7F)
 There are   220 symmetry adapted cartesian basis functions of A   symmetry.
 There are   220 symmetry adapted basis functions of A   symmetry.
   220 basis functions,   362 primitive gaussians,   220 cartesian basis functions
    36 alpha electrons       36 beta electrons
       nuclear repulsion energy       521.5917002547 Hartrees.
 NAtoms=   16 NActive=   16 NUniq=   16 SFac= 1.00D+00 NAtFMM=   60 NAOKFM=F Big=F
 Integral buffers will be    131072 words long.
 Raffenetti 2 integral format.
 Two-electron integral symmetry is turned on.
 One-electron integrals computed using PRISM.
 NBasis=   220 RedAO= T EigKep=  4.77D-06  NBF=   220
 NBsUse=   220 1.00D-06 EigRej= -1.00D+00 NBFU=   220
 Initial guess from the checkpoint file:  "B3PW913HPA2.chk"
 B after Tr=     0.000000    0.000000   -0.000000
         Rot=    1.000000   -0.000129    0.000010    0.000199 Ang=  -0.03 deg.
 ExpMin= 4.38D-02 ExpMax= 5.48D+03 ExpMxC= 8.25D+02 IAcc=2 IRadAn=         4 AccDes= 0.00D+00
 Harris functional with IExCor=  408 and IRadAn=       4 diagonalized for initial guess.
 HarFok:  IExCor=  408 AccDes= 0.00D+00 IRadAn=         4 IDoV= 1 UseB2=F ITyADJ=14
 ICtDFT=  3500011 ScaDFX=  1.000000  1.000000  1.000000  1.000000
 FoFCou: FMM=F IPFlag=           0 FMFlag=      100000 FMFlg1=           0
         NFxFlg=           0 DoJE=T BraDBF=F KetDBF=T FulRan=T
         wScrn=  0.000000 ICntrl=     500 IOpCl=  0 I1Cent=   200000004 NGrid=           0
         NMat0=    1 NMatS0=      1 NMatT0=    0 NMatD0=    1 NMtDS0=    0 NMtDT0=    0
 Petite list used in FoFCou.
 Keep R1 ints in memory in canonical form, NReq=301066375.
 Requested convergence on RMS density matrix=1.00D-08 within 128 cycles.
 Requested convergence on MAX density matrix=1.00D-06.
 Requested convergence on             energy=1.00D-06.
 No special actions if energy rises.
 SCF Done:  E(RB3PW91) =  -512.283059824     A.U. after   11 cycles
            NFock= 11  Conv=0.62D-08     -V/T= 2.0090
 Calling FoFJK, ICntrl=      2127 FMM=F ISym2X=0 I1Cent= 0 IOpClX= 0 NMat=1 NMatS=1 NMatT=0.
 ***** Axes restored to original set *****
 -------------------------------------------------------------------
 Center     Atomic                   Forces (Hartrees/Bohr)
 Number     Number              X              Y              Z
 -------------------------------------------------------------------
      1        7           0.000046882    0.000304777   -0.000048473
      2        6          -0.000409198   -0.000083587    0.000009895
      3        6           0.000098423    0.000386908   -0.000002814
      4        6           0.000089108   -0.000231473    0.000029018
[...]
 ! A22   A(7,9,15)             110.0612         -DE/DX =    0.0                 !
 ! A23   A(5,10,16)            111.902          -DE/DX =    0.0                 !
 ! D1    D(6,1,2,3)              0.0            -DE/DX =    0.0                 !
 ! D2    D(6,1,2,12)           180.0001         -DE/DX =    0.0                 !
 ! D3    D(11,1,2,3)          -180.0002         -DE/DX =    0.0                 !
 ! D4    D(11,1,2,12)           -0.0001         -DE/DX =    0.0                 !
 ! D5    D(2,1,6,5)              0.0            -DE/DX =    0.0                 !
 ! D6    D(2,1,6,7)           -180.0002         -DE/DX =    0.0                 !
 ! D7    D(11,1,6,5)           180.0002         -DE/DX =    0.0                 !
 ! D8    D(11,1,6,7)            -0.0001         -DE/DX =    0.0                 !
 ! D9    D(1,2,3,4)             -0.0001         -DE/DX =    0.0                 !
 ! D10   D(1,2,3,13)           180.0            -DE/DX =    0.0                 !
 ! D11   D(12,2,3,4)          -180.0001         -DE/DX =    0.0                 !
 ! D12   D(12,2,3,13)           -0.0001         -DE/DX =    0.0                 !
 ! D13   D(2,3,4,5)              0.0            -DE/DX =    0.0                 !
 ! D14   D(2,3,4,14)          -180.0001         -DE/DX =    0.0                 !
 ! D15   D(13,3,4,5)          -180.0            -DE/DX =    0.0                 !
 ! D16   D(13,3,4,14)           -0.0001         -DE/DX =    0.0                 !
 ! D17   D(3,4,5,6)              0.0            -DE/DX =    0.0                 !
 ! D18   D(3,4,5,10)           179.9998         -DE/DX =    0.0                 !
 ! D19   D(14,4,5,6)           180.0001         -DE/DX =    0.0                 !
 ! D20   D(14,4,5,10)           -0.0001         -DE/DX =    0.0                 !
 ! D21   D(4,5,6,1)              0.0            -DE/DX =    0.0                 !
 ! D22   D(4,5,6,7)            180.0003         -DE/DX =    0.0                 !
 ! D23   D(10,5,6,1)          -179.9998         -DE/DX =    0.0                 !
 ! D24   D(10,5,6,7)             0.0005         -DE/DX =    0.0                 !
 ! D25   D(4,5,10,16)         -179.9995         -DE/DX =    0.0                 !
 ! D26   D(6,5,10,16)            0.0002         -DE/DX =    0.0                 !
 ! D27   D(1,6,7,8)              0.0031         -DE/DX =    0.0                 !
 ! D28   D(1,6,7,9)           -180.0009         -DE/DX =    0.0                 !
 ! D29   D(5,6,7,8)           -179.9971         -DE/DX =    0.0                 !
 ! D30   D(5,6,7,9)             -0.0011         -DE/DX =    0.0                 !
 ! D31   D(6,7,9,15)           180.0021         -DE/DX =    0.0                 !
 ! D32   D(8,7,9,15)            -0.0021         -DE/DX =    0.0                 !
 --------------------------------------------------------------------------------
 GradGradGradGradGradGradGradGradGradGradGradGradGradGradGradGradGradGrad

 1\1\ WCSS.PL-BEM-C612-X99\Freq\RB3PW91\6-31+G(d,p)\C6H6N1O3(1+)\PHZD\1
 4-Dec-2024\0\\#N Geom=AllCheck Guess=TCheck SCRF=Check GenChk RB3PW91/
 6-31+G(d,p) Freq\\[No Title]\\1,1\N,0.5055834178,-1.3493655431,0.00000
 28662\C,1.8346717694,-1.4194602435,-0.0000191953\C,2.5643766881,-0.227
 4994232,-0.0000839076\C,1.8976451865,0.9819599364,-0.0001240972\C,0.48
 31422964,1.0250308079,-0.0000993794\C,-0.2067676526,-0.1950246401,-0.0
 000334662\C,-1.6774615506,-0.4210297185,-0.0000014248\O,-2.1509259522,
 -1.5310502595,0.0001072968\O,-2.3657419966,0.7280456172,-0.0000191034\
 O,-0.0901313037,2.2165464478,-0.0001355336\H,-0.069430636,-2.197629329
 5,0.0000476681\H,2.2823443765,-2.4061432678,0.0000140449\H,3.647895535
 3,-0.2670223712,-0.000102178\H,2.4357962419,1.9252224048,-0.0001734959
 \H,-3.3223711776,0.5445239544,0.0000358893\H,-1.0621502425,2.152128627
 9,-0.0001069839\\Version=ES64L-G09RevE.01\State=1-A\HF=-512.2830698\RM
 SD=6.544e-09\RMSF=3.195e-05\ZeroPoint=0.1225465\Thermal=0.1304976\Dipo
 le=1.00338,-0.4381944,-0.0000197\DipoleDeriv=0.1336165,-0.160423,0.000
 0008,-0.5746645,-0.2944786,0.0000208,0.0000196,0.0000092,-0.107596,-0.
 2649078,0.1521409,0.0000021,-0.1338946,0.2347794,-0.000004,0.0000112,-
 0.0000107,0.0675966,0.1964233,-0.0434669,-0.0000026,0.3237453,-0.10897
 ,-0.0000059,-0.0000186,0.0000028,-0.057108,0.1455141,0.3442527,-0.0000
 198,-0.019268,0.0945652,-0.0000047,-0.0000008,-0.0000127,-0.0388385,0.
 0762998,-0.6931847,0.000034,-0.6023918,1.3387958,-0.0000362,0.0000203,
 -0.0000335,0.2015944,-0.5830151,-0.2792789,0.0000286,0.4936908,-0.2014
 913,0.0000029,-0.0000187,0.000018,0.0862223,2.0562211,0.0878254,-0.000
 0429,-0.0390878,1.596502,-0.0000611,-0.0000398,-0.0000688,0.3514644,-0
 .8999837,-0.2794892,0.0000262,-0.2481986,-0.974157,0.0000336,0.0000369
 ,0.0000606,-0.3171522,-1.0265901,0.4294185,-0.0000065,0.4316323,-0.895
 795,0.0000189,0.0000047,0.0000012,-0.3450967,-0.5212008,0.6102936,-0.0
 000219,0.4049384,-1.1584366,0.0000279,-0.0000122,0.0000233,-0.3154341,
 0.3576184,0.0241759,-0.0000031,0.0927453,0.3647491,-0.0000047,-0.00000
 66,-0.0000023,0.281018,0.1226851,-0.0404824,0.0000027,-0.0336011,0.120
 2198,0.0000027,0.0000027,0.0000034,0.1668222,0.1157544,0.0053921,0.000
 0005,0.0091562,0.1133485,0.0000015,0.0000003,0.0000022,0.154981,0.1192
 571,0.0128997,0.0000001,0.0148233,0.1107384,0.0000015,0.0000004,0.0000
 001,0.1500924,0.4945182,-0.0825866,0.0000014,-0.0982112,0.2785096,0.00
 00085,0.000002,0.000008,0.3812901,0.4777894,-0.0874869,0.0000004,-0.02
 14139,0.3811207,-0.0000016,-0.0000012,-0.0000008,0.3401439\Polar=109.4
 894497,-1.4324483,93.3602175,-0.001611,-0.0024512,40.4037684\PG=C01 [X
 (C6H6N1O3)]\NImag=0\\0.87057203,0.04883902,0.79794907,-0.00001512,-0.0
 0002871,0.12747935,-0.39823249,-0.01368203,0.00000672,0.73127724,0.046
 71299,-0.15161400,0.00000281,-0.04414859,0.79500960,0.00000431,0.00000
 386,-0.05988206,-0.00000923,-0.00002701,0.13877791,-0.04839655,-0.0334
 7263,0.00000240,-0.18239527,-0.11572811,0.00000720,0.78030861,-0.08030
 800,0.02590580,0.00000084,-0.05988997,-0.28594230,0.00001062,-0.020677
 25,0.69453511,0.00000451,-0.00000018,0.00782823,0.00000471,0.00001166,
 -0.06411339,-0.00001095,-0.00002384,0.13323837,-0.04690563,0.02483975,
 -0.00000024,0.06196149,0.01059951,-0.00000144,-0.19411790,0.08556728,-
 0.00000126,0.67417993,0.02974784,-0.01280795,-0.00000012,-0.01928936,-
 0.05395665,0.00000289,0.13672013,-0.33361181,0.00000961,-0.00060698,0.
 78948767,-0.00000043,0.00000012,-0.00222942,-0.00000027,0.00000219,0.0
 0427217,-0.00000346,0.00001041,-0.05546314,-0.00001003,-0.00002773,0.1
 3331403,0.06371397,-0.02130426,-0.00000038,-0.04572572,-0.01352655,0.0
 0000131,-0.01310231,0.06020043,-0.00000238,-0.30225434,-0.04445516,0.0
 0000657,0.70209381,0.01140596,-0.06249545,0.00000242,-0.02429144,0.000
 20098,0.00000025,0.03827257,0.01787185,-0.00000160,0.00576661,-0.11866
 639,0.00000229,-0.03802331,0.76165346,-0.00000152,0.00000285,-0.002613
 83,0.00000164,0.00000004,-0.00317284,-0.00000146,-0.00000183,-0.002561
 46,0.00000436,0.00000318,-0.06534938,-0.00000941,-0.00002429,0.1544177
 9,-0.17766117,0.10315029,-0.00000221,-0.05924956,0.02522089,0.00000005
 ,0.00352600,0.02437685,-0.00000111,-0.00814823,-0.03399423,0.00000158,
 -0.20079473,-0.09324703,0.00000623,0.66210409,0.05837552,-0.28770961,0
 .00000878,0.07609816,0.01074778,-0.00000139,-0.01323374,-0.04556649,0.
 00000207,-0.05129871,0.03009628,-0.00000027,-0.06385968,-0.25815004,0.
 00000979,0.01254358,0.74698504,-0.00000072,0.00000811,-0.05391749,-0.0
 0000193,-0.00000042,0.00663540,0.00000050,0.00000130,-0.00341273,0.000
 00244,-0.00000086,0.00341782,0.00000486,0.00001060,-0.05645674,-0.0000
 1107,-0.00002763,0.12165217,-0.05338880,0.02465921,-0.00000015,0.02249
 450,0.00592451,-0.00000045,-0.00260266,-0.01511958,0.00000065,-0.00983
 389,0.00557342,0.00000019,0.01222403,-0.03487112,0.00000153,-0.1875690
 6,-0.01044156,0.00000060,0.66570209,0.02748427,0.00467949,-0.00000048,
 0.00696536,-0.00869735,0.00000059,-0.00209705,-0.00260551,0.00000009,-
 0.00188338,-0.00556858,0.00000061,-0.03271863,0.01657323,-0.00000021,-
 0.01073080,-0.09043738,0.00000036,0.12424420,0.98352479,0.00000018,-0.
 00000096,-0.00276431,-0.00000053,0.00000068,0.00613211,0.00000023,0.00
 000029,-0.00064012,0.00000025,0.00000041,0.00766234,0.00000140,0.00000
 051,0.00115901,0.00000227,0.00000008,-0.06998504,-0.00002929,-0.000058
 60,0.19304250,-0.00168708,-0.00765139,0.00000058,-0.00306963,-0.003519
 31,0.00000018,-0.00035470,0.00255061,-0.00000012,0.00097832,-0.0033213
 2,-0.00000004,-0.00987859,0.01190128,-0.00000019,-0.03363392,-0.047119
 81,0.00000519,-0.22172331,-0.24434053,0.00002524,0.22820826,0.01622166
 ,-0.00359796,-0.00000029,-0.00772863,0.00125844,-0.00000002,0.00194910
 ,0.00372396,-0.00000018,0.00106704,-0.00162693,-0.00000013,-0.00046986
 ,0.00213778,0.00000004,-0.03881641,-0.02349741,0.00000444,-0.23889630,
 -0.64400890,0.00005395,0.28096399,0.75829932,-0.00000098,0.00000060,0.
 00141406,0.00000048,-0.00000005,-0.00057662,-0.00000014,-0.00000023,-0
 .00013952,-0.00000001,0.00000020,-0.00171370,0.00000037,-0.00000052,0.
 00242658,0.00000390,0.00000465,0.01986349,0.00002550,0.00005519,-0.073
 54903,-0.00002915,-0.00006560,0.03344057,-0.00620048,-0.00590290,0.000
 00040,-0.00318845,0.00113300,-0.00000002,0.00038439,0.00317252,-0.0000
 0011,0.00264409,-0.00082967,-0.00000003,-0.00335611,0.00414986,-0.0000
 0017,-0.03492527,0.03959979,0.,-0.19576059,0.11152063,0.00000054,0.035
 77629,0.00208359,-0.00000050,0.68628370,-0.00118908,0.00521370,-0.0000
 0021,0.00168935,0.00235739,-0.00000012,0.00004438,-0.00293958,0.000000
 14,-0.00333066,0.00210979,-0.00000006,0.00803166,-0.01554055,0.0000006
 4,0.01768802,0.00134544,-0.00000051,0.06414482,-0.24963995,0.00000660,
 0.02610888,-0.09585385,0.00000577,-0.02797358,0.41549003,0.00000037,0.
 00000002,0.00158264,-0.00000001,-0.00000016,0.00004655,-0.00000002,0.0
 0000003,0.00024864,0.00000004,-0.00000005,-0.00065928,-0.00000007,0.00
 000034,0.00083451,0.00000022,-0.00000083,0.00725669,0.00000313,0.00000
 299,-0.05935239,-0.00000185,0.00000770,0.02641826,-0.00002832,-0.00001
 768,0.03957688,-0.01288366,0.00360558,0.00000029,0.00946009,0.00636026
 ,-0.00000046,-0.00676601,-0.01508632,0.00000088,-0.04010863,0.06251902
 ,-0.00000172,-0.16676064,0.13190646,-0.00000259,0.02837047,-0.00919944
 ,0.00000003,-0.02035108,0.01234660,-0.00000015,0.00495495,-0.00402749,
 0.00000020,-0.00508837,-0.01609290,0.00000070,0.67877091,0.00083547,-0
 .00351561,0.00000043,-0.00523481,-0.00819724,0.00000038,-0.00423139,0.
 01026873,-0.00000017,0.02833162,-0.01106252,0.,0.09152203,-0.33928948,
 0.00001028,0.00602959,-0.05347893,0.00000237,0.01910952,-0.00470678,-0
 .00000037,-0.00457677,0.00008289,0.00000010,-0.01059125,0.00706202,0.0
 0000025,-0.10473125,0.45192739,0.00000032,0.00000042,0.00858348,0.,0.0
 0000017,-0.00148497,0.00000042,0.00000007,0.00478561,-0.00000023,-0.00
 000060,0.00557817,-0.00000095,0.00000875,-0.04551586,-0.00000040,0.000
 00296,0.00678761,-0.00000046,-0.00000016,-0.00215945,0.00000008,0.0000
 0010,-0.00013369,0.00000055,0.00000017,0.00151846,-0.00001212,-0.00001
 500,0.03678802,-0.16924032,-0.15481053,0.00000857,-0.01580949,-0.02803
 816,0.00000144,-0.00489251,0.00374594,0.00000006,-0.00008334,0.0004271
 4,-0.00000004,-0.00233962,0.00291444,-0.00000002,0.01707961,0.01312444
 ,-0.00000079,0.00398285,0.01538411,-0.00000107,0.00121489,-0.00961540,
 0.00000035,0.00042760,-0.00611452,0.00000028,-0.00064031,0.00227567,-0
 .00000006,0.16893005,-0.15525999,-0.31172595,0.00001418,0.00161743,0.0
 1115677,-0.00000048,0.00269850,0.00251864,0.00000016,0.00068413,-0.000
 23211,-0.00000006,0.00491303,-0.00260813,0.00000025,-0.01331518,-0.027
 05005,0.00000133,0.00188080,-0.00227545,0.00000005,-0.00288213,-0.0001
 2214,-0.00000009,-0.00108273,-0.00027057,0.00000009,-0.00145953,-0.000
 00648,0.00000005,0.16077478,0.32898338,0.00000844,0.00001412,-0.031559
 33,0.00000037,0.00000002,-0.00007306,0.00000010,0.00000007,0.00768930,
 -0.00000011,-0.00000004,-0.00132799,0.,0.00000037,0.00560797,0.0000002
 8,0.00000086,0.00021393,-0.00000040,-0.00000038,-0.00196939,-0.0000000
 3,0.00000022,-0.00297512,0.00000008,0.00000026,0.00042582,0.00000009,-
 0.00000002,0.00057911,-0.00000865,-0.00001523,0.02752706,-0.01868907,0
 .03546712,-0.00000116,-0.10591098,0.10333006,-0.00000303,0.01316843,-0
 .01548130,0.00000051,-0.00263372,-0.00351202,0.00000031,-0.00026958,0.
 00039280,-0.00000002,-0.00345090,-0.00404578,0.00000037,0.00001199,0.0
 0152710,-0.00000005,0.00001992,-0.00019974,0.00000002,-0.00058373,-0.0
 0009962,0.00000002,0.00042065,-0.00021173,-0.00000001,0.00069679,0.000
 95039,-0.00000013,0.11619957,-0.00242062,0.00551208,-0.00000018,0.1138
 3930,-0.31455532,0.00000959,0.01114188,-0.01198959,0.00000053,-0.00282
 997,-0.00246386,0.00000041,-0.00117050,-0.00090194,0.00000004,-0.00200
 405,0.00270212,0.00000024,0.00061657,0.00040975,0.00000004,-0.00016775
 ,-0.00026295,0.00000002,-0.00030998,0.00008824,0.,-0.00002057,0.000560
 65,-0.00000005,0.00007700,0.00099256,-0.00000021,-0.11767595,0.3198665
 1,0.00000052,-0.00000088,0.00023661,-0.00000354,0.00000974,-0.03704414
 ,-0.00000061,0.00000107,0.00528894,0.00000029,0.00000040,0.00582993,0.
 00000004,-0.00000002,-0.00031892,0.00000025,0.00000033,0.00785948,0.00
 000005,0.00000005,0.00177819,0.00000002,0.,-0.00007295,0.,-0.00000001,
 -0.00036863,-0.00000003,-0.00000004,-0.00067492,-0.00000009,-0.0000002
 3,-0.00412470,0.00000325,-0.00001024,0.02532319,0.00055487,-0.00245084
 ,0.00000022,-0.00926155,0.00308980,0.00000007,-0.35716837,0.00917269,0
 .00000544,-0.00732151,-0.00088343,0.00000026,0.00077473,0.00134959,0.0
 0000011,0.00076172,0.00012716,-0.00000004,-0.00043380,-0.00007198,0.,0
 .00008162,0.00012515,0.,0.00010827,-0.00004564,0.,-0.00036745,-0.00015
 555,0.00000001,-0.00012602,0.00033166,0.,0.00052507,0.00008729,-0.0000
 0007,0.37111055,-0.00410835,-0.00563252,0.00000060,-0.02702935,0.00654
 643,0.00000030,0.01043072,-0.05932127,0.00000064,0.02870188,0.00360696
 ,-0.00000047,0.00121196,-0.00479400,0.00000058,0.00091760,-0.00118803,
 0.,-0.00039688,-0.00031402,-0.00000002,-0.00006850,0.00038742,-0.00000
 002,0.00000763,0.00013006,0.,0.00172300,0.00024879,-0.00000006,-0.0009
 9220,0.00053593,0.00000001,0.00028258,0.00060724,-0.00000016,-0.010521
 76,0.05856682,0.00000025,0.00000062,0.00679756,0.00000142,-0.00000024,
 0.00146547,0.00000540,0.00000065,-0.03997521,-0.00000101,0.00000001,0.
 00459915,0.00000008,0.00000056,0.00921379,-0.00000005,0.,-0.00073277,-
 0.00000001,-0.00000004,-0.00094821,0.,0.,0.00011926,0.,0.,-0.00004014,
 -0.00000008,0.,-0.00029578,0.00000006,0.,0.00053641,-0.00000008,-0.000
 00015,-0.00287774,-0.00000588,-0.00000118,0.02720952,-0.00092702,0.001
 43961,-0.00000007,-0.00117945,0.00396022,0.00000002,0.01302355,0.01550
 956,-0.00000079,-0.13343578,-0.12762493,0.00000707,-0.01110074,-0.0285
 0719,0.00000159,-0.00542953,0.00090936,0.00000011,0.00067472,-0.001434
 21,0.,-0.00070385,-0.00026995,0.00000006,0.00002550,0.00032542,0.,0.00
 293226,-0.00001604,-0.00000011,-0.00009969,-0.00008874,-0.00000001,0.0
 0066965,0.00071190,-0.00000006,0.00076823,-0.00021270,-0.00000009,0.13
 479269,0.00079879,0.00077789,-0.00000009,0.00284788,-0.00315532,0.0000
 0046,-0.01339171,-0.01542344,0.00000114,-0.12857212,-0.27842960,0.0000
 1227,0.00306312,0.00629303,-0.00000002,0.00107136,-0.00029460,0.000000
 25,-0.00011157,0.00029758,-0.00000005,0.00026943,0.00015138,-0.0000000
 2,0.00015292,-0.00004209,0.,-0.00010258,-0.00009577,-0.00000011,-0.000
 09591,-0.00008469,-0.00000003,-0.00076033,-0.00051706,0.,-0.00026561,0
 .00097300,-0.00000023,0.13518325,0.28947911,-0.00000005,-0.00000012,-0
 .00104249,0.00000010,0.00000050,0.00908650,0.00000044,0.00000060,0.005
 64990,0.00000713,0.00001218,-0.04236781,0.00000015,0.00000063,0.007169
 10,0.00000017,0.00000017,0.00571518,-0.00000006,-0.00000002,-0.0013640
 4,0.00000003,0.00000003,0.00020069,0.,0.,0.00003346,-0.00000009,-0.000
 00012,-0.00267810,0.,-0.00000002,-0.00083559,0.00000001,-0.00000001,-0
 .00059039,-0.00000009,-0.00000023,-0.00464194,-0.00000771,-0.00001355,
 0.02601520,-0.00077809,0.00018758,0.00000004,0.00088172,0.00061907,-0.
 00000006,-0.00001670,-0.00070859,0.00000004,-0.00049692,0.00015673,-0.
 00000002,0.00053168,0.00004919,-0.00000005,0.00123962,0.00255794,0.000
 00031,-0.03117330,0.00430202,0.00000098,0.00360087,-0.00761002,0.00000
 016,-0.46718053,-0.07040534,0.00002543,0.00154061,0.00026104,0.,-0.000
 52512,0.00014164,0.00000003,-0.00006740,0.00003037,-0.00000001,-0.0000
 2606,-0.00000879,0.,-0.00000730,-0.00005634,0.,0.49462452,0.00141085,0
 .00013508,0.00000002,0.00001386,-0.00045347,0.00000001,-0.00008263,-0.
 00004187,0.,-0.00020309,0.00018803,-0.00000002,0.00075465,-0.00146518,
 0.00000001,0.00231202,-0.00490905,0.00000039,0.04836266,0.01320191,-0.
 00000287,-0.00724014,-0.00048693,0.00000020,-0.11680612,-0.06966988,0.
 00000755,-0.00291894,-0.00079368,0.00000010,0.00055496,0.00010353,-0.0
 0000001,0.00011771,0.00001237,-0.00000001,0.00000145,0.00001065,0.,0.0
 0002745,0.00002125,0.,0.07232525,0.06069784,-0.00000004,0.00000005,0.0
 0091539,-0.00000005,-0.00000001,-0.00028175,0.,0.00000004,0.00010505,0
 .00000002,-0.00000001,-0.00025174,-0.00000003,-0.00000003,-0.00073211,
 -0.00000013,0.00000042,0.00491700,-0.00000017,-0.00000063,0.00311166,-
 0.00000010,-0.00000007,-0.00531682,0.00002736,0.00000550,-0.01517075,-
 0.00000001,0.00000001,0.00050789,0.,0.,0.00029964,0.,0.,-0.00018879,0.
 ,0.,0.00007057,0.,0.,0.00004916,-0.00002694,-0.00000527,0.01226333,0.0
 0014949,-0.00291358,0.00000010,-0.00205245,-0.00198959,0.00000013,-0.0
 0059799,0.00297513,-0.00000008,0.00557606,-0.00062719,0.00000006,-0.02
 375584,0.01083134,0.,-0.00221915,-0.00413724,0.00000013,0.01774632,-0.
 01049770,0.,-0.00378405,0.00522327,-0.00000025,-0.00936632,0.00721881,
 0.00000008,-0.47348380,-0.01861616,0.00001298,0.00142461,0.00009594,-0
 .00000005,-0.00010670,0.00009509,0.,0.00001971,0.00006317,-0.00000002,
 -0.00000324,-0.00003059,-0.00000002,-0.00214761,0.00137005,0.00000008,
 0.49260095,0.00145368,-0.00107407,-0.00000001,-0.00177717,-0.00070575,
 0.00000007,0.00165723,0.00261778,-0.00000007,0.00316710,-0.00706232,0.
 00000044,0.04583104,-0.00081916,-0.00000135,-0.00120250,0.00040492,0.0
 0000003,0.00532130,-0.01043283,0.00000024,-0.00090655,0.00341589,-0.00
 000022,0.00167630,0.00015979,-0.00000022,-0.06482190,-0.04900398,0.000
 00320,0.00038825,0.00008476,-0.00000002,-0.00008131,-0.00006080,0.,0.0
 0011003,-0.00036348,0.,0.00008701,0.00004933,-0.00000003,-0.00184174,0
 .00344938,0.00000002,0.01093923,0.05934054,-0.00000005,0.00000008,-0.0
 0082839,0.00000012,0.00000008,0.00021271,-0.00000004,-0.00000010,0.001
 47153,-0.00000019,0.00000053,0.00468884,-0.00000155,-0.00000026,-0.004
 10761,0.00000002,0.00000002,0.00018600,-0.00000066,0.00000064,-0.00015
 382,0.00000016,-0.00000020,0.00059453,0.00000024,-0.00000046,-0.002350
 72,0.00001508,0.00000189,-0.01218561,-0.00000005,0.,-0.00001408,0.,0.,
 -0.00005516,-0.00000002,0.,-0.00049994,0.,-0.00000002,-0.00039883,0.00
 000010,-0.00000011,-0.00029774,-0.00001315,-0.00000208,0.01373831\\0.0
 0004675,-0.00003604,0.00000051,-0.00001826,-0.00000072,-0.00000009,-0.
 00001838,0.00002164,0.00000009,0.00002989,-0.00001647,-0.00000028,0.00
 003532,-0.00009948,-0.00000033,0.,0.00008428,0.00000312,-0.00003289,0.
 00008583,-0.00000972,-0.00000853,-0.00006709,0.00000396,0.00003917,-0.
 00005667,0.00000268,-0.00001139,0.00006917,0.00000012,-0.00000871,-0.0
 0000066,-0.00000034,0.00000598,0.00000334,-0.00000008,-0.00000075,-0.0
 0000915,0.,-0.00001910,0.00001004,0.00000009,-0.00000423,0.00001528,0.
 00000010,-0.00003485,-0.00000331,0.00000017\\\@


 VIRTUE IS LEARNED AT YOUR MOTHER'S KNEE,
 VICES ARE PICKED UP AT SOME OTHER JOINT.
 Job cpu time:       0 days  0 hours 17 minutes 36.8 seconds.
 File lengths (MBytes):  RWF=     85 Int=      0 D2E=      0 Chk=      5 Scr=      1
 Normal termination of Gaussian 09 at Sat Dec 14 18:24:28 2024.
