 Entering Gaussian System, Link 0=g09
 Input=camb3lyp3HPAgd3.gjf
 Output=camb3lyp3HPAgd3.log
 Initial command:
 /home/phzd/g09E/g09/l1.exe "/home/phzd/g09E/scratch/Gau-131747.inp" -scrdir="/home/phzd/g09E/scratch/"
 Default is to use a total of  18 processors:
                               18 via shared-memory
                                1 via Linda
 Entering Link 1 = /home/phzd/g09E/g09/l1.exe PID=    131749.
  
 Copyright (c) 1988,1990,1992,1993,1995,1998,2003,2009,2015,
            Gaussian, Inc.  All Rights Reserved.
  
 This is part of the Gaussian(R) 09 program.  It is based on
 the Gaussian(R) 03 system (copyright 2003, Gaussian, Inc.),
 the Gaussian(R) 98 system (copyright 1998, Gaussian, Inc.),
 the Gaussian(R) 94 system (copyright 1995, Gaussian, Inc.),
 the Gaussian 92(TM) system (copyright 1992, Gaussian, Inc.),
 the Gaussian 90(TM) system (copyright 1990, Gaussian, Inc.),
 the Gaussian 88(TM) system (copyright 1988, Gaussian, Inc.),
 the Gaussian 86(TM) system (copyright 1986, Carnegie Mellon
 University), and the Gaussian 82(TM) system (copyright 1983,
 Carnegie Mellon University). Gaussian is a federally registered
 trademark of Gaussian, Inc.
  
 This software contains proprietary and confidential information,
 including trade secrets, belonging to Gaussian, Inc.
  
 This software is provided under written license and may be
 used, copied, transmitted, or stored only in accord with that
 written license.
  
 The following legend is applicable only to US Government
 contracts under FAR:
  
                    RESTRICTED RIGHTS LEGEND
  
 Use, reproduction and disclosure by the US Government is
 subject to restrictions as set forth in subparagraphs (a)
 and (c) of the Commercial Computer Software - Restricted
 Rights clause in FAR 52.227-19.
  
 Gaussian, Inc.
 340 Quinnipiac St., Bldg. 40, Wallingford CT 06492
  
  
 ---------------------------------------------------------------
 Warning -- This program may not be used in any manner that
 competes with the business of Gaussian, Inc. or will provide
 assistance to any competitor of Gaussian, Inc.  The licensee
 of this program is prohibited from giving any competitor of
 Gaussian, Inc. access to this program.  By using this program,
 the user acknowledges that Gaussian, Inc. is engaged in the
 business of creating and licensing software in the field of
 computational chemistry and represents and warrants to the
 licensee that it is not a competitor of Gaussian, Inc. and that
 it will not use this program in any manner prohibited above.
 ---------------------------------------------------------------
  

 Cite this work as:
 Gaussian 09, Revision E.01,
 M. J. Frisch, G. W. Trucks, H. B. Schlegel, G. E. Scuseria, 
 M. A. Robb, J. R. Cheeseman, G. Scalmani, V. Barone, B. Mennucci, 
 G. A. Petersson, H. Nakatsuji, M. Caricato, X. Li, H. P. Hratchian, 
 A. F. Izmaylov, J. Bloino, G. Zheng, J. L. Sonnenberg, M. Hada, 
 M. Ehara, K. Toyota, R. Fukuda, J. Hasegawa, M. Ishida, T. Nakajima, 
 Y. Honda, O. Kitao, H. Nakai, T. Vreven, J. A. Montgomery, Jr., 
 J. E. Peralta, F. Ogliaro, M. Bearpark, J. J. Heyd, E. Brothers, 
 K. N. Kudin, V. N. Staroverov, T. Keith, R. Kobayashi, J. Normand, 
 K. Raghavachari, A. Rendell, J. C. Burant, S. S. Iyengar, J. Tomasi, 
 M. Cossi, N. Rega, J. M. Millam, M. Klene, J. E. Knox, J. B. Cross, 
 V. Bakken, C. Adamo, J. Jaramillo, R. Gomperts, R. E. Stratmann, 
 O. Yazyev, A. J. Austin, R. Cammi, C. Pomelli, J. W. Ochterski, 
 R. L. Martin, K. Morokuma, V. G. Zakrzewski, G. A. Voth, 
 P. Salvador, J. J. Dannenberg, S. Dapprich, A. D. Daniels, 
 O. Farkas, J. B. Foresman, J. V. Ortiz, J. Cioslowski, 
 and D. J. Fox, Gaussian, Inc., Wallingford CT, 2013.
 
 ******************************************
 Gaussian 09:  ES64L-G09RevE.01 30-Nov-2015
                20-Jun-2024 
 ******************************************
 %chk=camb3lyp3HPAgd3.chk
 --------------------------------
 # opt freq cam-b3lyp/6-31+g(d,p)
 --------------------------------
 1/14=-1,18=20,19=15,26=3,38=1/1,3;
 2/9=110,12=2,17=6,18=5,40=1/2;
 3/5=1,6=6,7=111,11=2,16=1,25=1,30=1,71=1,74=-40/1,2,3;
 4//1;
 5/5=2,38=5/2;
 6/7=2,8=2,9=2,10=2,28=1/1;
 7//1,2,3,16;
 1/14=-1,18=20,19=15,26=3/3(2);
 2/9=110/2;
 99//99;
 2/9=110/2;
 3/5=1,6=6,7=111,11=2,16=1,25=1,30=1,71=1,74=-40/1,2,3;
 4/5=5,16=3,69=1/1;
 5/5=2,38=5/2;
 7//1,2,3,16;
 1/14=-1,18=20,19=15,26=3/3(-5);
 2/9=110/2;
 6/7=2,8=2,9=2,10=2,19=2,28=1/1;
 99/9=1/99;
 ----------
 [No Title]
 ----------
 Symbolic Z-matrix:
 Charge =  0 Multiplicity = 1
 N                    -0.44038  -1.45173   0.00005 
 C                    -1.7662   -1.48386   0.00003 
 C                    -2.55618  -0.31852  -0.00002 
 C                    -1.93657   0.91906  -0.00004 
 C                    -0.53188   0.97362  -0.00001 
 C                     0.17572  -0.25489   0.00003 
 C                     1.65381  -0.22317   0.00008 
 O                     2.30057   0.82888   0.00009 
 O                     2.25747  -1.41628  -0.00013 
 O                     0.0621    2.17746  -0.00005 
 H                    -2.22848  -2.4677    0.00005 
 H                    -3.63926  -0.39552  -0.00002 
 H                    -2.49619   1.84855  -0.00007 
 H                     3.21502  -1.24602  -0.00015 
 H                     1.03829   2.02893   0.00004 
 

 GradGradGradGradGradGradGradGradGradGradGradGradGradGradGradGradGradGrad
 Berny optimization.
 Initialization pass.
                           ----------------------------
                           !    Initial Parameters    !
                           ! (Angstroms and Degrees)  !
 --------------------------                            --------------------------
 ! Name  Definition              Value          Derivative Info.                !
 --------------------------------------------------------------------------------
 ! R1    R(1,2)                  1.3262         estimate D2E/DX2                !
 ! R2    R(1,6)                  1.3461         estimate D2E/DX2                !
 ! R3    R(2,3)                  1.4079         estimate D2E/DX2                !
 ! R4    R(2,11)                 1.087          estimate D2E/DX2                !
 ! R5    R(3,4)                  1.384          estimate D2E/DX2                !
 ! R6    R(3,12)                 1.0858         estimate D2E/DX2                !
 ! R7    R(4,5)                  1.4057         estimate D2E/DX2                !
 ! R8    R(4,13)                 1.085          estimate D2E/DX2                !
 ! R9    R(5,6)                  1.4177         estimate D2E/DX2                !
 ! R10   R(5,10)                 1.3424         estimate D2E/DX2                !
 ! R11   R(6,7)                  1.4784         estimate D2E/DX2                !
 ! R12   R(7,8)                  1.2349         estimate D2E/DX2                !
 ! R13   R(7,9)                  1.3371         estimate D2E/DX2                !
 ! R14   R(9,14)                 0.9726         estimate D2E/DX2                !
 ! R15   R(10,15)                0.9874         estimate D2E/DX2                !
 ! A1    A(2,1,6)              118.6261         estimate D2E/DX2                !
 ! A2    A(1,2,3)              122.7448         estimate D2E/DX2                !
 ! A3    A(1,2,11)             116.5556         estimate D2E/DX2                !
 ! A4    A(3,2,11)             120.6995         estimate D2E/DX2                !
 ! A5    A(2,3,4)              119.2719         estimate D2E/DX2                !
 ! A6    A(2,3,12)             120.0668         estimate D2E/DX2                !
 ! A7    A(4,3,12)             120.6613         estimate D2E/DX2                !
 ! A8    A(3,4,5)              118.8192         estimate D2E/DX2                !
 ! A9    A(3,4,13)             122.3536         estimate D2E/DX2                !
 ! A10   A(5,4,13)             118.8272         estimate D2E/DX2                !
 ! A11   A(4,5,6)              117.7173         estimate D2E/DX2                !
 ! A12   A(4,5,10)             118.4858         estimate D2E/DX2                !
 ! A13   A(6,5,10)             123.7969         estimate D2E/DX2                !
 ! A14   A(1,6,5)              122.8207         estimate D2E/DX2                !
 ! A15   A(1,6,7)              118.4676         estimate D2E/DX2                !
 ! A16   A(5,6,7)              118.7117         estimate D2E/DX2                !
 ! A17   A(6,7,8)              122.8114         estimate D2E/DX2                !
 ! A18   A(6,7,9)              115.6078         estimate D2E/DX2                !
 ! A19   A(8,7,9)              121.5807         estimate D2E/DX2                !
 ! A20   A(7,9,14)             106.7552         estimate D2E/DX2                !
 ! A21   A(5,10,15)            107.6105         estimate D2E/DX2                !
 ! D1    D(6,1,2,3)              0.0003         estimate D2E/DX2                !
 ! D2    D(6,1,2,11)          -179.9999         estimate D2E/DX2                !
 ! D3    D(2,1,6,5)             -0.0001         estimate D2E/DX2                !
 ! D4    D(2,1,6,7)            179.9988         estimate D2E/DX2                !
 ! D5    D(1,2,3,4)             -0.0003         estimate D2E/DX2                !
 ! D6    D(1,2,3,12)          -179.9996         estimate D2E/DX2                !
 ! D7    D(11,2,3,4)           180.0            estimate D2E/DX2                !
 ! D8    D(11,2,3,12)            0.0006         estimate D2E/DX2                !
 ! D9    D(2,3,4,5)              0.0            estimate D2E/DX2                !
 ! D10   D(2,3,4,13)          -179.9993         estimate D2E/DX2                !
 ! D11   D(12,3,4,5)           179.9994         estimate D2E/DX2                !
 ! D12   D(12,3,4,13)            0.0            estimate D2E/DX2                !
 ! D13   D(3,4,5,6)              0.0002         estimate D2E/DX2                !
 ! D14   D(3,4,5,10)           179.9996         estimate D2E/DX2                !
 ! D15   D(13,4,5,6)           179.9995         estimate D2E/DX2                !
 ! D16   D(13,4,5,10)           -0.001          estimate D2E/DX2                !
 ! D17   D(4,5,6,1)             -0.0001         estimate D2E/DX2                !
 ! D18   D(4,5,6,7)           -179.9991         estimate D2E/DX2                !
 ! D19   D(10,5,6,1)          -179.9995         estimate D2E/DX2                !
 ! D20   D(10,5,6,7)             0.0016         estimate D2E/DX2                !
 ! D21   D(4,5,10,15)          179.9965         estimate D2E/DX2                !
 ! D22   D(6,5,10,15)           -0.0041         estimate D2E/DX2                !
 ! D23   D(1,6,7,8)           -179.9985         estimate D2E/DX2                !
 ! D24   D(1,6,7,9)              0.0128         estimate D2E/DX2                !
 ! D25   D(5,6,7,8)              0.0005         estimate D2E/DX2                !
 ! D26   D(5,6,7,9)           -179.9882         estimate D2E/DX2                !
 ! D27   D(6,7,9,14)           179.9951         estimate D2E/DX2                !
 ! D28   D(8,7,9,14)             0.0063         estimate D2E/DX2                !
 --------------------------------------------------------------------------------
 Trust Radius=3.00D-01 FncErr=1.00D-07 GrdErr=1.00D-06
 Number of steps in this run=     74 maximum allowed number of steps=    100.
 GradGradGradGradGradGradGradGradGradGradGradGradGradGradGradGradGradGrad

                          Input orientation:                          
 ---------------------------------------------------------------------
 Center     Atomic      Atomic             Coordinates (Angstroms)
 Number     Number       Type             X           Y           Z
 ---------------------------------------------------------------------
      1          7           0       -0.440380   -1.451734    0.000053
      2          6           0       -1.766204   -1.483861    0.000034
      3          6           0       -2.556175   -0.318523   -0.000015
      4          6           0       -1.936569    0.919063   -0.000039
      5          6           0       -0.531883    0.973615   -0.000014
      6          6           0        0.175718   -0.254891    0.000031
      7          6           0        1.653809   -0.223165    0.000079
      8          8           0        2.300569    0.828876    0.000090
      9          8           0        2.257473   -1.416279   -0.000129
     10          8           0        0.062097    2.177460   -0.000046
     11          1           0       -2.228482   -2.467699    0.000054
     12          1           0       -3.639261   -0.395516   -0.000023
     13          1           0       -2.496193    1.848551   -0.000066
     14          1           0        3.215021   -1.246020   -0.000150
     15          1           0        1.038285    2.028931    0.000035
 ---------------------------------------------------------------------
                    Distance matrix (angstroms):
                    1          2          3          4          5
     1  N    0.000000
     2  C    1.326213   0.000000
     3  C    2.400157   1.407859   0.000000
     4  C    2.803437   2.408956   1.384027   0.000000
     5  C    2.427074   2.750043   2.401537   1.405745   0.000000
     6  C    1.346109   2.298136   2.732634   2.416594   1.417719
     7  C    2.427964   3.644975   4.211064   3.767691   2.491893
     8  O    3.565667   4.678397   4.990440   4.238098   2.836148
     9  O    2.698086   4.024245   4.937234   4.800397   3.673159
    10  O    3.663814   4.092427   3.617358   2.361827   1.342406
    11  H    2.056573   1.087032   2.174015   3.399319   3.836807
    12  H    3.368744   2.166296   1.085819   2.151111   3.395632
    13  H    3.888219   3.411430   2.167904   1.084955   2.150355
    14  H    3.661185   4.986900   5.845251   5.588064   4.355005
    15  H    3.781730   4.494982   4.293097   3.175148   1.891856
                    6          7          8          9         10
     6  C    0.000000
     7  C    1.478431   0.000000
     8  O    2.385276   1.234945   0.000000
     9  O    2.383805   1.337135   2.245569   0.000000
    10  O    2.435003   2.880373   2.613319   4.211251   0.000000
    11  H    3.267522   4.484430   5.601760   4.607524   5.179214
    12  H    3.817570   5.295875   6.064711   5.984432   4.507800
    13  H    3.400526   4.638375   4.903944   5.766841   2.579347
    14  H    3.196826   1.866445   2.267469   0.972567   4.654154
    15  H    2.441283   2.334696   1.741693   3.654571   0.987423
                   11         12         13         14         15
    11  H    0.000000
    12  H    2.506839   0.000000
    13  H    4.324544   2.518420   0.000000
    14  H    5.578909   6.906847   6.495717   0.000000
    15  H    5.558008   5.268527   3.539078   3.932364   0.000000
 Stoichiometry    C6H5NO3
 Framework group  C1[X(C6H5NO3)]
 Deg. of freedom    39
 Full point group                 C1      NOp   1
 Largest Abelian subgroup         C1      NOp   1
 Largest concise Abelian subgroup C1      NOp   1
                         Standard orientation:                         
 ---------------------------------------------------------------------
 Center     Atomic      Atomic             Coordinates (Angstroms)
 Number     Number       Type             X           Y           Z
 ---------------------------------------------------------------------
      1          7           0        0.440380   -1.451734   -0.000053
      2          6           0        1.766204   -1.483861   -0.000034
      3          6           0        2.556175   -0.318523    0.000015
      4          6           0        1.936569    0.919063    0.000039
      5          6           0        0.531883    0.973615    0.000014
      6          6           0       -0.175718   -0.254891   -0.000031
      7          6           0       -1.653809   -0.223165   -0.000079
      8          8           0       -2.300569    0.828876   -0.000090
      9          8           0       -2.257473   -1.416279    0.000129
     10          8           0       -0.062097    2.177460    0.000046
     11          1           0        2.228482   -2.467699   -0.000054
     12          1           0        3.639261   -0.395517    0.000023
     13          1           0        2.496193    1.848551    0.000066
     14          1           0       -3.215021   -1.246019    0.000150
     15          1           0       -1.038285    2.028931   -0.000035
 ---------------------------------------------------------------------
 Rotational constants (GHZ):      2.3571719      1.2559232      0.8193604
 Standard basis: 6-31+G(d,p) (6D, 7F)
 There are   215 symmetry adapted cartesian basis functions of A   symmetry.
 There are   215 symmetry adapted basis functions of A   symmetry.
   215 basis functions,   355 primitive gaussians,   215 cartesian basis functions
    36 alpha electrons       36 beta electrons
       nuclear repulsion energy       506.5529492593 Hartrees.
 NAtoms=   15 NActive=   15 NUniq=   15 SFac= 1.00D+00 NAtFMM=   60 NAOKFM=F Big=F
 Integral buffers will be    131072 words long.
 Raffenetti 2 integral format.
 Two-electron integral symmetry is turned on.
 One-electron integrals computed using PRISM.
 NBasis=   215 RedAO= T EigKep=  5.86D-06  NBF=   215
 NBsUse=   215 1.00D-06 EigRej= -1.00D+00 NBFU=   215
 ExpMin= 4.38D-02 ExpMax= 5.48D+03 ExpMxC= 8.25D+02 IAcc=2 IRadAn=         4 AccDes= 0.00D+00
 Harris functional with IExCor=20419 and IRadAn=       4 diagonalized for initial guess.
 HarFok:  IExCor=20419 AccDes= 0.00D+00 IRadAn=         4 IDoV= 1 UseB2=F ITyADJ=14
 ICtDFT=  3500011 ScaDFX=  1.000000  1.000000  1.000000  1.000000
 FoFCou: FMM=F IPFlag=           0 FMFlag=      100000 FMFlg1=           0
         NFxFlg=           0 DoJE=T BraDBF=F KetDBF=T FulRan=T
         wScrn=  0.000000 ICntrl=     500 IOpCl=  0 I1Cent=   200000004 NGrid=           0
         NMat0=    1 NMatS0=      1 NMatT0=    0 NMatD0=    1 NMtDS0=    0 NMtDT0=    0
 Petite list used in FoFCou.
 Keep R1 ints in memory in canonical form, NReq=544393055.
 Requested convergence on RMS density matrix=1.00D-08 within 128 cycles.
 Requested convergence on MAX density matrix=1.00D-06.
 Requested convergence on             energy=1.00D-06.
 No special actions if energy rises.
 SCF Done:  E(RCAM-B3LYP) =  -511.899195359     A.U. after   16 cycles
            NFock= 16  Conv=0.48D-08     -V/T= 2.0091

 **********************************************************************

            Population analysis using the SCF density.

 **********************************************************************

 Orbital symmetries:
       Occupied  (A) (A) (A) (A) (A) (A) (A) (A) (A) (A) (A) (A)
                 (A) (A) (A) (A) (A) (A) (A) (A) (A) (A) (A) (A)
                 (A) (A) (A) (A) (A) (A) (A) (A) (A) (A) (A) (A)
       Virtual   (A) (A) (A) (A) (A) (A) (A) (A) (A) (A) (A) (A)
                 (A) (A) (A) (A) (A) (A) (A) (A) (A) (A) (A) (A)
                 (A) (A) (A) (A) (A) (A) (A) (A) (A) (A) (A) (A)
                 (A) (A) (A) (A) (A) (A) (A) (A) (A) (A) (A) (A)
                 (A) (A) (A) (A) (A) (A) (A) (A) (A) (A) (A) (A)
                 (A) (A) (A) (A) (A) (A) (A) (A) (A) (A) (A) (A)
                 (A) (A) (A) (A) (A) (A) (A) (A) (A) (A) (A) (A)
                 (A) (A) (A) (A) (A) (A) (A) (A) (A) (A) (A) (A)
                 (A) (A) (A) (A) (A) (A) (A) (A) (A) (A) (A) (A)
                 (A) (A) (A) (A) (A) (A) (A) (A) (A) (A) (A) (A)
                 (A) (A) (A) (A) (A) (A) (A) (A) (A) (A) (A) (A)
                 (A) (A) (A) (A) (A) (A) (A) (A) (A) (A) (A) (A)
                 (A) (A) (A) (A) (A) (A) (A) (A) (A) (A) (A) (A)
                 (A) (A) (A) (A) (A) (A) (A) (A) (A) (A) (A) (A)
                 (A) (A) (A) (A) (A) (A) (A) (A) (A) (A) (A)
 The electronic state is 1-A.
 Alpha  occ. eigenvalues --  -19.29942 -19.26977 -19.25137 -14.43560 -10.43239
 Alpha  occ. eigenvalues --  -10.36515 -10.32883 -10.31379 -10.30281 -10.29951
 Alpha  occ. eigenvalues --   -1.22158  -1.16746  -1.12259  -1.04992  -0.90610
 Alpha  occ. eigenvalues --   -0.87339  -0.77962  -0.72679  -0.71349  -0.63709
 Alpha  occ. eigenvalues --   -0.62862  -0.59350  -0.57419  -0.55777  -0.55431
 Alpha  occ. eigenvalues --   -0.50588  -0.50295  -0.49124  -0.47719  -0.47032
 Alpha  occ. eigenvalues --   -0.45206  -0.41364  -0.38482  -0.36087  -0.34005
 Alpha  occ. eigenvalues --   -0.31026
 Alpha virt. eigenvalues --   -0.03636   0.01442   0.02394   0.03200   0.05128
 Alpha virt. eigenvalues --    0.05623   0.06979   0.07386   0.07508   0.07974
 Alpha virt. eigenvalues --    0.09881   0.10276   0.10990   0.11525   0.12742
 Alpha virt. eigenvalues --    0.14117   0.15061   0.16082   0.16334   0.17127
 Alpha virt. eigenvalues --    0.17385   0.19297   0.19668   0.19992   0.21232
 Alpha virt. eigenvalues --    0.21850   0.22076   0.22928   0.24302   0.24559
 Alpha virt. eigenvalues --    0.26201   0.26415   0.27324   0.27700   0.28658
 Alpha virt. eigenvalues --    0.29287   0.29752   0.30727   0.31235   0.32166
 Alpha virt. eigenvalues --    0.32286   0.32649   0.33005   0.34224   0.36146
 Alpha virt. eigenvalues --    0.36247   0.37592   0.38048   0.39188   0.40236
 Alpha virt. eigenvalues --    0.41920   0.43175   0.44555   0.46385   0.48632
 Alpha virt. eigenvalues --    0.50702   0.55862   0.64300   0.67331   0.70221
 Alpha virt. eigenvalues --    0.70314   0.73277   0.75741   0.76749   0.77063
 Alpha virt. eigenvalues --    0.77205   0.79361   0.80789   0.85341   0.87344
 Alpha virt. eigenvalues --    0.90804   0.93641   0.94503   0.98853   1.00733
 Alpha virt. eigenvalues --    1.02702   1.06828   1.07639   1.10186   1.13294
 Alpha virt. eigenvalues --    1.14238   1.15718   1.17141   1.19039   1.19978
 Alpha virt. eigenvalues --    1.22854   1.24951   1.25259   1.26716   1.27966
 Alpha virt. eigenvalues --    1.29690   1.30016   1.33821   1.35689   1.35727
 Alpha virt. eigenvalues --    1.36789   1.37846   1.39567   1.43257   1.44254
 Alpha virt. eigenvalues --    1.44441   1.46892   1.47243   1.48698   1.52547
 Alpha virt. eigenvalues --    1.53663   1.62482   1.63172   1.65238   1.68125
 Alpha virt. eigenvalues --    1.71343   1.80691   1.80806   1.82512   1.84815
 Alpha virt. eigenvalues --    1.88566   1.89465   1.92555   1.94150   1.95851
 Alpha virt. eigenvalues --    1.97277   2.01275   2.03752   2.04498   2.05970
 Alpha virt. eigenvalues --    2.08617   2.11142   2.15134   2.21066   2.24819
 Alpha virt. eigenvalues --    2.33058   2.33464   2.35657   2.40398   2.40843
 Alpha virt. eigenvalues --    2.41804   2.44559   2.47633   2.50538   2.54864
 Alpha virt. eigenvalues --    2.55470   2.56252   2.59176   2.60092   2.60457
 Alpha virt. eigenvalues --    2.63724   2.67964   2.70148   2.72964   2.72985
 Alpha virt. eigenvalues --    2.77715   2.80249   2.82239   2.83739   2.90169
 Alpha virt. eigenvalues --    2.94950   3.01038   3.10450   3.13486   3.15999
 Alpha virt. eigenvalues --    3.25106   3.25650   3.33037   3.38519   3.44425
 Alpha virt. eigenvalues --    3.48165   3.58910   3.65309   3.87671   4.22349
 Alpha virt. eigenvalues --    4.32599   4.38005   4.39665   4.42670   4.53813
 Alpha virt. eigenvalues --    4.64131   4.75307   4.88197   4.91452
          Condensed to atoms (all electrons):
               1          2          3          4          5          6
     1  N    6.990498  -0.119774   0.232523  -0.139985   0.159650   0.355217
     2  C   -0.119774   6.215898  -0.311873   0.248316  -0.350542  -0.136376
     3  C    0.232523  -0.311873   5.802505  -0.734299   1.484717  -0.672566
     4  C   -0.139985   0.248316  -0.734299   9.680297  -4.231841   1.293789
     5  C    0.159650  -0.350542   1.484717  -4.231841  13.073533  -4.108740
     6  C    0.355217  -0.136376  -0.672566   1.293789  -4.108740   9.557778
     7  C   -0.222262   0.200609  -0.137829  -0.009004  -0.637446   0.048675
     8  O    0.013908  -0.015782   0.013443  -0.000877   0.091294  -0.230058
     9  O    0.039174  -0.025096   0.014163  -0.002240   0.146579  -0.258372
    10  O    0.005565  -0.018903   0.031316  -0.506329   0.290588   0.176412
    11  H   -0.102946   0.473653  -0.125359   0.035960  -0.036478   0.030197
    12  H    0.004464   0.023901   0.293166   0.018945  -0.006691  -0.008927
    13  H    0.001748  -0.018985   0.018590   0.237835   0.089026  -0.004028
    14  H    0.003689   0.004398  -0.002175   0.007675  -0.028935   0.017828
    15  H   -0.000311   0.003190  -0.009150   0.134688  -0.014853  -0.100344
               7          8          9         10         11         12
     1  N   -0.222262   0.013908   0.039174   0.005565  -0.102946   0.004464
     2  C    0.200609  -0.015782  -0.025096  -0.018903   0.473653   0.023901
     3  C   -0.137829   0.013443   0.014163   0.031316  -0.125359   0.293166
     4  C   -0.009004  -0.000877  -0.002240  -0.506329   0.035960   0.018945
     5  C   -0.637446   0.091294   0.146579   0.290588  -0.036478  -0.006691
     6  C    0.048675  -0.230058  -0.258372   0.176412   0.030197  -0.008927
     7  C    5.652002   0.372637   0.206320  -0.044027   0.012569  -0.001036
     8  O    0.372637   8.477883  -0.162225  -0.042011   0.000004   0.000003
     9  O    0.206320  -0.162225   8.294041  -0.003833  -0.000352  -0.000006
    10  O   -0.044027  -0.042011  -0.003833   8.499626   0.000139  -0.000597
    11  H    0.012569   0.000004  -0.000352   0.000139   0.575838  -0.002214
    12  H   -0.001036   0.000003  -0.000006  -0.000597  -0.002214   0.534297
    13  H    0.000262   0.000079   0.000016  -0.007063  -0.000110  -0.004395
    14  H    0.036186   0.000099   0.186744   0.000188  -0.000001   0.000000
    15  H    0.000649   0.050361   0.003393   0.184426  -0.000000   0.000003
              13         14         15
     1  N    0.001748   0.003689  -0.000311
     2  C   -0.018985   0.004398   0.003190
     3  C    0.018590  -0.002175  -0.009150
     4  C    0.237835   0.007675   0.134688
     5  C    0.089026  -0.028935  -0.014853
     6  C   -0.004028   0.017828  -0.100344
     7  C    0.000262   0.036186   0.000649
     8  O    0.000079   0.000099   0.050361
     9  O    0.000016   0.186744   0.003393
    10  O   -0.007063   0.000188   0.184426
    11  H   -0.000110  -0.000001  -0.000000
    12  H   -0.004395   0.000000   0.000003
    13  H    0.526166  -0.000000   0.000056
    14  H   -0.000000   0.383543   0.000009
    15  H    0.000056   0.000009   0.332515
 Mulliken charges:
               1
     1  N   -0.221158
     2  C   -0.172635
     3  C    0.102827
     4  C   -0.032930
     5  C    0.080140
     6  C    0.039514
     7  C    0.521695
     8  O   -0.568758
     9  O   -0.438306
    10  O   -0.565498
    11  H    0.139098
    12  H    0.149086
    13  H    0.160803
    14  H    0.390753
    15  H    0.415368
 Sum of Mulliken charges =  -0.00000
 Mulliken charges with hydrogens summed into heavy atoms:
               1
     1  N   -0.221158
     2  C   -0.033537
     3  C    0.251913
     4  C    0.127874
     5  C    0.080140
     6  C    0.039514
     7  C    0.521695
     8  O   -0.568758
     9  O   -0.047553
    10  O   -0.150129
 Electronic spatial extent (au):  <R**2>=           1315.4693
 Charge=             -0.0000 electrons
 Dipole moment (field-independent basis, Debye):
    X=              1.3343    Y=             -0.4928    Z=              0.0000  Tot=              1.4224
 Quadrupole moment (field-independent basis, Debye-Ang):
   XX=            -43.7222   YY=            -63.2873   ZZ=            -58.5841
   XY=              2.2945   XZ=             -0.0004   YZ=             -0.0001
 Traceless Quadrupole moment (field-independent basis, Debye-Ang):
   XX=             11.4757   YY=             -8.0894   ZZ=             -3.3862
   XY=              2.2945   XZ=             -0.0004   YZ=             -0.0001
 Octapole moment (field-independent basis, Debye-Ang**2):
  XXX=            -17.0217  YYY=              2.1845  ZZZ=              0.0003  XYY=              1.0711
  XXY=            -18.4911  XXZ=              0.0028  XZZ=            -10.6085  YZZ=              1.7271
  YYZ=             -0.0002  XYZ=              0.0003
 Hexadecapole moment (field-independent basis, Debye-Ang**3):
 XXXX=           -866.7984 YYYY=           -605.5207 ZZZZ=            -61.1705 XXXY=             76.5504
 XXXZ=             -0.0096 YYYX=            -17.9526 YYYZ=             -0.0023 ZZZX=             -0.0008
 ZZZY=             -0.0007 XXYY=           -237.6176 XXZZ=           -197.3328 YYZZ=           -111.2280
 XXYZ=             -0.0003 YYXZ=             -0.0008 ZZXY=              2.6073
 N-N= 5.065529492593D+02 E-N=-2.208450678480D+03  KE= 5.072933116978D+02
 Calling FoFJK, ICntrl=      2127 FMM=F ISym2X=0 I1Cent= 0 IOpClX= 0 NMat=1 NMatS=1 NMatT=0.
 ***** Axes restored to original set *****
 -------------------------------------------------------------------
 Center     Atomic                   Forces (Hartrees/Bohr)
 Number     Number              X              Y              Z
 -------------------------------------------------------------------
      1        7          -0.003696511    0.005736415    0.000000919
      2        6           0.003875839    0.003466879   -0.000001637
      3        6           0.005540002    0.001583438    0.000000873
      4        6           0.002084297   -0.004849479   -0.000000173
      5        6           0.000673559   -0.002969751    0.000000001
      6        6          -0.005469386    0.001808011    0.000008479
      7        6           0.006109830    0.001560714   -0.000028804
      8        8          -0.006008566   -0.009315715    0.000009204
      9        8          -0.001998564    0.007928217    0.000010588
     10        8           0.000610384   -0.005641915    0.000002077
     11        1           0.000463851    0.000691902    0.000000064
     12        1           0.000754175   -0.000023703   -0.000000172
     13        1           0.000415251   -0.000393831   -0.000000370
     14        1          -0.001392081   -0.000239538   -0.000000035
     15        1          -0.001962082    0.000658357   -0.000001013
 -------------------------------------------------------------------
 Cartesian Forces:  Max     0.009315715 RMS     0.003150679

 GradGradGradGradGradGradGradGradGradGradGradGradGradGradGradGradGradGrad
 Berny optimization.
 FormGI is forming the generalized inverse of G from B-inverse, IUseBI=4.
 Internal  Forces:  Max     0.011083160 RMS     0.002883512
 Search for a local minimum.
 Step number   1 out of a maximum of   74
 All quantities printed in internal units (Hartrees-Bohrs-Radians)
 Mixed Optimization -- RFO/linear search
 Second derivative matrix not updated -- first step.
 ITU=  0
     Eigenvalues ---    0.01051   0.01533   0.01700   0.01946   0.02057
     Eigenvalues ---    0.02101   0.02140   0.02170   0.02232   0.02433
     Eigenvalues ---    0.02454   0.02523   0.16000   0.16000   0.16000
     Eigenvalues ---    0.16000   0.16000   0.22081   0.23320   0.24911
     Eigenvalues ---    0.25000   0.25000   0.25000   0.25000   0.34750
     Eigenvalues ---    0.35158   0.35300   0.35402   0.40369   0.43255
     Eigenvalues ---    0.43829   0.47078   0.49970   0.52856   0.54408
     Eigenvalues ---    0.56669   0.57852   0.58782   0.89057
 RFO step:  Lambda=-9.74154402D-04 EMin= 1.05125804D-02
 Linear search not attempted -- first point.
 Iteration  1 RMS(Cart)=  0.01273451 RMS(Int)=  0.00001531
 Iteration  2 RMS(Cart)=  0.00002832 RMS(Int)=  0.00000194
 Iteration  3 RMS(Cart)=  0.00000000 RMS(Int)=  0.00000194
 Variable       Old X    -DE/DX   Delta X   Delta X   Delta X     New X
                                 (Linear)    (Quad)   (Total)
    R1        2.50618  -0.00734   0.00000  -0.01226  -0.01226   2.49392
    R2        2.54378  -0.00693   0.00000  -0.01266  -0.01266   2.53112
    R3        2.66047  -0.00497   0.00000  -0.01104  -0.01104   2.64943
    R4        2.05419  -0.00082   0.00000  -0.00234  -0.00234   2.05186
    R5        2.61543  -0.00643   0.00000  -0.01294  -0.01294   2.60249
    R6        2.05190  -0.00075   0.00000  -0.00212  -0.00212   2.04978
    R7        2.65647  -0.00580   0.00000  -0.01277  -0.01277   2.64370
    R8        2.05027  -0.00055   0.00000  -0.00155  -0.00155   2.04871
    R9        2.67910  -0.00919   0.00000  -0.02161  -0.02160   2.65750
   R10        2.53678  -0.00507   0.00000  -0.00893  -0.00893   2.52785
   R11        2.79383  -0.00329   0.00000  -0.00944  -0.00944   2.78439
   R12        2.33371  -0.01108   0.00000  -0.01243  -0.01243   2.32128
   R13        2.52682  -0.00839   0.00000  -0.01448  -0.01448   2.51234
   R14        1.83789  -0.00141   0.00000  -0.00267  -0.00267   1.83522
   R15        1.86596  -0.00204   0.00000  -0.00407  -0.00407   1.86189
    A1        2.07042  -0.00032   0.00000  -0.00255  -0.00254   2.06787
    A2        2.14230  -0.00029   0.00000  -0.00127  -0.00128   2.14103
    A3        2.03428   0.00002   0.00000  -0.00016  -0.00016   2.03412
    A4        2.10660   0.00027   0.00000   0.00143   0.00144   2.10804
    A5        2.08169   0.00002   0.00000   0.00124   0.00123   2.08292
    A6        2.09556  -0.00009   0.00000  -0.00111  -0.00110   2.09446
    A7        2.10594   0.00007   0.00000  -0.00013  -0.00013   2.10581
    A8        2.07379  -0.00075   0.00000  -0.00215  -0.00215   2.07164
    A9        2.13547   0.00053   0.00000   0.00205   0.00205   2.13752
   A10        2.07393   0.00022   0.00000   0.00010   0.00010   2.07403
   A11        2.05455   0.00010   0.00000   0.00056   0.00056   2.05512
   A12        2.06797   0.00088   0.00000   0.00342   0.00342   2.07139
   A13        2.16066  -0.00098   0.00000  -0.00398  -0.00398   2.15668
   A14        2.14363   0.00125   0.00000   0.00417   0.00418   2.14780
   A15        2.06765   0.00023   0.00000   0.00130   0.00130   2.06895
   A16        2.07191  -0.00147   0.00000  -0.00547  -0.00548   2.06643
   A17        2.14346  -0.00075   0.00000  -0.00299  -0.00299   2.14047
   A18        2.01774   0.00094   0.00000   0.00376   0.00376   2.02150
   A19        2.12198  -0.00019   0.00000  -0.00077  -0.00077   2.12122
   A20        1.86323  -0.00001   0.00000  -0.00008  -0.00008   1.86315
   A21        1.87816   0.00066   0.00000   0.00412   0.00412   1.88228
    D1        0.00001  -0.00000   0.00000  -0.00002  -0.00002  -0.00001
    D2       -3.14159  -0.00000   0.00000  -0.00001  -0.00001   3.14159
    D3       -0.00000   0.00000   0.00000   0.00002   0.00002   0.00002
    D4        3.14157   0.00000   0.00000   0.00004   0.00004  -3.14157
    D5       -0.00000   0.00000   0.00000   0.00001   0.00001   0.00000
    D6       -3.14159   0.00000   0.00000   0.00000   0.00000  -3.14159
    D7        3.14159  -0.00000   0.00000  -0.00000  -0.00000   3.14159
    D8        0.00001  -0.00000   0.00000  -0.00001  -0.00001   0.00000
    D9        0.00000  -0.00000   0.00000  -0.00000  -0.00000  -0.00000
   D10       -3.14158  -0.00000   0.00000  -0.00001  -0.00001  -3.14159
   D11        3.14158   0.00000   0.00000   0.00001   0.00001   3.14159
   D12        0.00000  -0.00000   0.00000  -0.00000  -0.00000  -0.00000
   D13        0.00000   0.00000   0.00000   0.00000   0.00000   0.00001
   D14        3.14159   0.00000   0.00000   0.00001   0.00001   3.14159
   D15        3.14158   0.00000   0.00000   0.00001   0.00001  -3.14159
   D16       -0.00002   0.00000   0.00000   0.00001   0.00001  -0.00001
   D17       -0.00000  -0.00000   0.00000  -0.00001  -0.00001  -0.00002
   D18       -3.14158  -0.00000   0.00000  -0.00004  -0.00004   3.14157
   D19       -3.14158  -0.00000   0.00000  -0.00002  -0.00002   3.14158
   D20        0.00003  -0.00000   0.00000  -0.00004  -0.00004  -0.00001
   D21        3.14153   0.00000   0.00000   0.00003   0.00003   3.14156
   D22       -0.00007   0.00000   0.00000   0.00003   0.00003  -0.00004
   D23       -3.14157   0.00001   0.00000   0.00034   0.00033  -3.14123
   D24        0.00022  -0.00001   0.00000  -0.00047  -0.00047  -0.00025
   D25        0.00001   0.00001   0.00000   0.00036   0.00036   0.00036
   D26       -3.14139  -0.00001   0.00000  -0.00045  -0.00045   3.14135
   D27        3.14151   0.00001   0.00000   0.00040   0.00040  -3.14128
   D28        0.00011  -0.00001   0.00000  -0.00040  -0.00040  -0.00029
         Item               Value     Threshold  Converged?
 Maximum Force            0.011083     0.000450     NO 
 RMS     Force            0.002884     0.000300     NO 
 Maximum Displacement     0.041285     0.001800     NO 
 RMS     Displacement     0.012737     0.001200     NO 
 Predicted change in Energy=-4.880308D-04
 GradGradGradGradGradGradGradGradGradGradGradGradGradGradGradGradGradGrad

                          Input orientation:                          
 ---------------------------------------------------------------------
 Center     Atomic      Atomic             Coordinates (Angstroms)
 Number     Number       Type             X           Y           Z
 ---------------------------------------------------------------------
      1          7           0       -0.442937   -1.448156   -0.000099
      2          6           0       -1.762308   -1.478648   -0.000027
      3          6           0       -2.546218   -0.316266    0.000042
      4          6           0       -1.928244    0.914477    0.000032
      5          6           0       -0.530140    0.964133   -0.000046
      6          6           0        0.168397   -0.256396   -0.000120
      7          6           0        1.641401   -0.220764   -0.000227
      8          8           0        2.278722    0.829334    0.000120
      9          8           0        2.249286   -1.403124    0.000001
     10          8           0        0.069817    2.159728   -0.000057
     11          1           0       -2.225004   -2.460923   -0.000017
     12          1           0       -3.628283   -0.391780    0.000107
     13          1           0       -2.484455    1.845054    0.000087
     14          1           0        3.204307   -1.226837    0.000185
     15          1           0        1.043484    2.008976   -0.000085
 ---------------------------------------------------------------------
                    Distance matrix (angstroms):
                    1          2          3          4          5
     1  N    0.000000
     2  C    1.319723   0.000000
     3  C    2.388507   1.402015   0.000000
     4  C    2.790729   2.398871   1.377178   0.000000
     5  C    2.413864   2.735949   2.388303   1.398985   0.000000
     6  C    1.339411   2.285065   2.715275   2.401426   1.406287
     7  C    2.418875   3.628706   4.188707   3.745816   2.473777
     8  O    3.548857   4.653676   4.959077   4.207827   2.812094
     9  O    2.692600   4.012305   4.917125   4.777346   3.650906
    10  O    3.644137   4.073630   3.601969   2.354335   1.337683
    11  H    2.049747   1.085796   2.168579   3.388421   3.821462
    12  H    3.355944   2.159432   1.084697   2.143931   3.381862
    13  H    3.874664   3.401249   2.162202   1.084133   2.143681
    14  H    3.653953   4.972995   5.822171   5.561322   4.329716
    15  H    3.763138   4.476158   4.276998   3.166874   1.888912
                    6          7          8          9         10
     6  C    0.000000
     7  C    1.473435   0.000000
     8  O    2.373242   1.228366   0.000000
     9  O    2.375939   1.329474   2.232652   0.000000
    10  O    2.418134   2.852476   2.578606   4.176602   0.000000
    11  H    3.253969   4.468490   5.577575   4.597631   5.159129
    12  H    3.799093   5.272458   6.031901   5.963945   4.492898
    13  H    3.384334   4.614140   4.870271   5.740990   2.573581
    14  H    3.187241   1.858725   2.254894   0.971155   4.614526
    15  H    2.428515   2.308516   1.708030   3.618893   0.985268
                   11         12         13         14         15
    11  H    0.000000
    12  H    2.500109   0.000000
    13  H    4.313787   2.512324   0.000000
    14  H    5.567799   6.883430   6.465178   0.000000
    15  H    5.537419   5.252527   3.531745   3.890969   0.000000
 Stoichiometry    C6H5NO3
 Framework group  C1[X(C6H5NO3)]
 Deg. of freedom    39
 Full point group                 C1      NOp   1
 Largest Abelian subgroup         C1      NOp   1
 Largest concise Abelian subgroup C1      NOp   1
                         Standard orientation:                         
 ---------------------------------------------------------------------
 Center     Atomic      Atomic             Coordinates (Angstroms)
 Number     Number       Type             X           Y           Z
 ---------------------------------------------------------------------
      1          7           0        0.446877   -1.445807    0.000072
      2          6           0        1.766363   -1.470799   -0.000000
      3          6           0        2.545421   -0.305159   -0.000070
      4          6           0        1.922321    0.922997   -0.000059
      5          6           0        0.524023    0.966824    0.000019
      6          6           0       -0.169420   -0.256606    0.000092
      7          6           0       -1.642560   -0.227115    0.000200
      8          8           0       -2.284253    0.820317   -0.000148
      9          8           0       -2.245511   -1.411999   -0.000029
     10          8           0       -0.080913    2.159907    0.000030
     11          1           0        2.233150   -2.451137   -0.000010
     12          1           0        3.627791   -0.376161   -0.000134
     13          1           0        2.474648    1.855885   -0.000114
     14          1           0       -3.201258   -1.239695   -0.000213
     15          1           0       -1.053943    2.005098    0.000057
 ---------------------------------------------------------------------
 Rotational constants (GHZ):      2.3868104      1.2686658      0.8283640
 Standard basis: 6-31+G(d,p) (6D, 7F)
 There are   215 symmetry adapted cartesian basis functions of A   symmetry.
 There are   215 symmetry adapted basis functions of A   symmetry.
   215 basis functions,   355 primitive gaussians,   215 cartesian basis functions
    36 alpha electrons       36 beta electrons
       nuclear repulsion energy       509.2321668257 Hartrees.
 NAtoms=   15 NActive=   15 NUniq=   15 SFac= 1.00D+00 NAtFMM=   60 NAOKFM=F Big=F
 Integral buffers will be    131072 words long.
 Raffenetti 2 integral format.
 Two-electron integral symmetry is turned on.
 One-electron integrals computed using PRISM.
 NBasis=   215 RedAO= T EigKep=  5.61D-06  NBF=   215
 NBsUse=   215 1.00D-06 EigRej= -1.00D+00 NBFU=   215
 Initial guess from the checkpoint file:  "camb3lyp3HPAgd3.chk"
 B after Tr=     0.000000   -0.000000   -0.000000
         Rot=    0.999998    0.000005   -0.000001   -0.001946 Ang=   0.22 deg.
 ExpMin= 4.38D-02 ExpMax= 5.48D+03 ExpMxC= 8.25D+02 IAcc=2 IRadAn=         4 AccDes= 0.00D+00
 Harris functional with IExCor=20419 and IRadAn=       4 diagonalized for initial guess.
 HarFok:  IExCor=20419 AccDes= 0.00D+00 IRadAn=         4 IDoV= 1 UseB2=F ITyADJ=14
 ICtDFT=  3500011 ScaDFX=  1.000000  1.000000  1.000000  1.000000
 FoFCou: FMM=F IPFlag=           0 FMFlag=      100000 FMFlg1=           0
         NFxFlg=           0 DoJE=T BraDBF=F KetDBF=T FulRan=T
         wScrn=  0.000000 ICntrl=     500 IOpCl=  0 I1Cent=   200000004 NGrid=           0
         NMat0=    1 NMatS0=      1 NMatT0=    0 NMatD0=    1 NMtDS0=    0 NMtDT0=    0
 Petite list used in FoFCou.
 Keep R1 ints in memory in canonical form, NReq=544393055.
 Requested convergence on RMS density matrix=1.00D-08 within 128 cycles.
 Requested convergence on MAX density matrix=1.00D-06.
 Requested convergence on             energy=1.00D-06.
 No special actions if energy rises.
 SCF Done:  E(RCAM-B3LYP) =  -511.899589997     A.U. after   12 cycles
            NFock= 12  Conv=0.85D-08     -V/T= 2.0087
 Calling FoFJK, ICntrl=      2127 FMM=F ISym2X=0 I1Cent= 0 IOpClX= 0 NMat=1 NMatS=1 NMatT=0.
 ***** Axes restored to original set *****
 -------------------------------------------------------------------
 Center     Atomic                   Forces (Hartrees/Bohr)
 Number     Number              X              Y              Z
 -------------------------------------------------------------------
      1        7          -0.000490083    0.000079326   -0.000006233
      2        6           0.000418319   -0.001236209    0.000003611
      3        6          -0.000615762    0.000380386   -0.000000026
      4        6          -0.001089778    0.000145724    0.000002134
      5        6           0.001002243    0.001892286   -0.000003060
      6        6           0.000097042   -0.000280071   -0.000024269
      7        6           0.001219067   -0.001962261    0.000087880
      8        8           0.001622197   -0.000027390   -0.000034981
      9        8          -0.000173783    0.001279253   -0.000026303
     10        8          -0.001805780    0.000117203   -0.000001343
     11        1          -0.000292705   -0.000134062    0.000000292
     12        1          -0.000145891   -0.000095552   -0.000000626
     13        1          -0.000040881    0.000085402   -0.000000106
     14        1           0.000073193   -0.000407815   -0.000000135
     15        1           0.000222602    0.000163779    0.000003164
 -------------------------------------------------------------------
 Cartesian Forces:  Max     0.001962261 RMS     0.000693894

 GradGradGradGradGradGradGradGradGradGradGradGradGradGradGradGradGradGrad
 Berny optimization.
 Using GEDIIS/GDIIS optimizer.
 FormGI is forming the generalized inverse of G from B-inverse, IUseBI=4.
 Internal  Forces:  Max     0.003958897 RMS     0.001026958
 Search for a local minimum.
 Step number   2 out of a maximum of   74
 All quantities printed in internal units (Hartrees-Bohrs-Radians)
 Mixed Optimization -- RFO/linear search
 Update second derivatives using D2CorX and points    1    2
 DE= -3.95D-04 DEPred=-4.88D-04 R= 8.09D-01
 TightC=F SS=  1.41D+00  RLast= 4.40D-02 DXNew= 5.0454D-01 1.3212D-01
 Trust test= 8.09D-01 RLast= 4.40D-02 DXMaxT set to 3.00D-01
 ITU=  1  0
 Use linear search instead of GDIIS.
     Eigenvalues ---    0.01051   0.01534   0.01702   0.01946   0.02057
     Eigenvalues ---    0.02101   0.02140   0.02171   0.02232   0.02433
     Eigenvalues ---    0.02454   0.02523   0.15888   0.16000   0.16000
     Eigenvalues ---    0.16000   0.16024   0.22056   0.23302   0.24419
     Eigenvalues ---    0.24937   0.25000   0.25000   0.25434   0.35018
     Eigenvalues ---    0.35221   0.35359   0.35481   0.40897   0.43237
     Eigenvalues ---    0.46662   0.48800   0.50242   0.52862   0.55388
     Eigenvalues ---    0.57059   0.57765   0.60763   0.89851
 RFO step:  Lambda=-1.37225972D-04 EMin= 1.05125707D-02
 Quartic linear search produced a step of -0.16319.
 Iteration  1 RMS(Cart)=  0.01330070 RMS(Int)=  0.00005777
 Iteration  2 RMS(Cart)=  0.00007450 RMS(Int)=  0.00000105
 Iteration  3 RMS(Cart)=  0.00000000 RMS(Int)=  0.00000105
 Variable       Old X    -DE/DX   Delta X   Delta X   Delta X     New X
                                 (Linear)    (Quad)   (Total)
    R1        2.49392   0.00008   0.00200  -0.00372  -0.00172   2.49220
    R2        2.53112   0.00097   0.00207  -0.00237  -0.00031   2.53081
    R3        2.64943   0.00051   0.00180  -0.00263  -0.00083   2.64859
    R4        2.05186   0.00025   0.00038  -0.00014   0.00024   2.05210
    R5        2.60249   0.00043   0.00211  -0.00333  -0.00122   2.60127
    R6        2.04978   0.00015   0.00035  -0.00030   0.00005   2.04983
    R7        2.64370   0.00170   0.00208  -0.00068   0.00141   2.64511
    R8        2.04871   0.00009   0.00025  -0.00026  -0.00000   2.04871
    R9        2.65750   0.00305   0.00353  -0.00053   0.00299   2.66049
   R10        2.52785  -0.00046   0.00146  -0.00343  -0.00197   2.52589
   R11        2.78439   0.00271   0.00154   0.00360   0.00514   2.78953
   R12        2.32128   0.00082   0.00203  -0.00304  -0.00101   2.32026
   R13        2.51234  -0.00082   0.00236  -0.00564  -0.00328   2.50906
   R14        1.83522  -0.00000   0.00044  -0.00083  -0.00039   1.83483
   R15        1.86189   0.00020   0.00066  -0.00093  -0.00026   1.86162
    A1        2.06787   0.00155   0.00042   0.00438   0.00480   2.07267
    A2        2.14103  -0.00029   0.00021  -0.00204  -0.00183   2.13920
    A3        2.03412   0.00036   0.00003   0.00188   0.00191   2.03603
    A4        2.10804  -0.00007  -0.00023   0.00015  -0.00008   2.10796
    A5        2.08292  -0.00000  -0.00020  -0.00018  -0.00039   2.08253
    A6        2.09446  -0.00008   0.00018  -0.00051  -0.00033   2.09413
    A7        2.10581   0.00009   0.00002   0.00070   0.00072   2.10653
    A8        2.07164   0.00068   0.00035   0.00189   0.00224   2.07387
    A9        2.13752  -0.00033  -0.00033  -0.00058  -0.00091   2.13661
   A10        2.07403  -0.00035  -0.00002  -0.00131  -0.00132   2.07270
   A11        2.05512  -0.00056  -0.00009  -0.00124  -0.00134   2.05378
   A12        2.07139  -0.00185  -0.00056  -0.00534  -0.00590   2.06549
   A13        2.15668   0.00241   0.00065   0.00658   0.00723   2.16391
   A14        2.14780  -0.00137  -0.00068  -0.00280  -0.00349   2.14432
   A15        2.06895  -0.00259  -0.00021  -0.00850  -0.00871   2.06024
   A16        2.06643   0.00396   0.00089   0.01130   0.01220   2.07863
   A17        2.14047   0.00217   0.00049   0.00631   0.00680   2.14727
   A18        2.02150  -0.00108  -0.00061  -0.00243  -0.00305   2.01845
   A19        2.12122  -0.00109   0.00013  -0.00388  -0.00375   2.11746
   A20        1.86315   0.00076   0.00001   0.00396   0.00397   1.86712
   A21        1.88228   0.00036  -0.00067   0.00321   0.00254   1.88482
    D1       -0.00001   0.00000   0.00000   0.00005   0.00005   0.00004
    D2        3.14159   0.00000   0.00000   0.00002   0.00002  -3.14158
    D3        0.00002  -0.00000  -0.00000  -0.00004  -0.00005  -0.00003
    D4       -3.14157  -0.00000  -0.00001  -0.00002  -0.00003   3.14158
    D5        0.00000  -0.00000  -0.00000  -0.00003  -0.00003  -0.00002
    D6       -3.14159  -0.00000  -0.00000  -0.00003  -0.00003   3.14157
    D7        3.14159   0.00000   0.00000   0.00000   0.00000   3.14159
    D8        0.00000   0.00000   0.00000  -0.00000  -0.00000   0.00000
    D9       -0.00000   0.00000   0.00000   0.00000   0.00000  -0.00000
   D10       -3.14159   0.00000   0.00000   0.00001   0.00001  -3.14158
   D11        3.14159   0.00000  -0.00000   0.00001   0.00000   3.14159
   D12       -0.00000   0.00000   0.00000   0.00001   0.00001   0.00001
   D13        0.00001   0.00000  -0.00000   0.00000   0.00000   0.00001
   D14        3.14159   0.00000  -0.00000   0.00006   0.00006  -3.14153
   D15       -3.14159  -0.00000  -0.00000  -0.00001  -0.00001   3.14159
   D16       -0.00001   0.00000  -0.00000   0.00005   0.00005   0.00005
   D17       -0.00002   0.00000   0.00000   0.00002   0.00002   0.00000
   D18        3.14157   0.00000   0.00001  -0.00000   0.00001   3.14158
   D19        3.14158  -0.00000   0.00000  -0.00004  -0.00004   3.14154
   D20       -0.00001  -0.00000   0.00001  -0.00006  -0.00006  -0.00007
   D21        3.14156  -0.00000  -0.00000  -0.00012  -0.00012   3.14144
   D22       -0.00004  -0.00000  -0.00000  -0.00005  -0.00006  -0.00010
   D23       -3.14123  -0.00002  -0.00005  -0.00120  -0.00126   3.14070
   D24       -0.00025   0.00002   0.00008   0.00078   0.00086   0.00061
   D25        0.00036  -0.00002  -0.00006  -0.00118  -0.00124  -0.00088
   D26        3.14135   0.00002   0.00007   0.00080   0.00088  -3.14096
   D27       -3.14128  -0.00002  -0.00006  -0.00099  -0.00105   3.14086
   D28       -0.00029   0.00002   0.00007   0.00097   0.00104   0.00074
         Item               Value     Threshold  Converged?
 Maximum Force            0.003959     0.000450     NO 
 RMS     Force            0.001027     0.000300     NO 
 Maximum Displacement     0.048889     0.001800     NO 
 RMS     Displacement     0.013291     0.001200     NO 
 Predicted change in Energy=-8.460464D-05
 GradGradGradGradGradGradGradGradGradGradGradGradGradGradGradGradGradGrad

                          Input orientation:                          
 ---------------------------------------------------------------------
 Center     Atomic      Atomic             Coordinates (Angstroms)
 Number     Number       Type             X           Y           Z
 ---------------------------------------------------------------------
      1          7           0       -0.438765   -1.440082    0.000275
      2          6           0       -1.757049   -1.477458    0.000110
      3          6           0       -2.544672   -0.318121   -0.000114
      4          6           0       -1.930712    0.913910   -0.000139
      5          6           0       -0.532144    0.970951    0.000062
      6          6           0        0.171971   -0.248197    0.000269
      7          6           0        1.647937   -0.224705    0.000467
      8          8           0        2.300724    0.815217   -0.000443
      9          8           0        2.241630   -1.412316   -0.000098
     10          8           0        0.053979    2.172229    0.000107
     11          1           0       -2.216527   -2.461384    0.000136
     12          1           0       -3.626473   -0.397687   -0.000265
     13          1           0       -2.490584    1.842285   -0.000296
     14          1           0        3.199030   -1.250683   -0.000575
     15          1           0        1.029482    2.034847    0.000397
 ---------------------------------------------------------------------
                    Distance matrix (angstroms):
                    1          2          3          4          5
     1  N    0.000000
     2  C    1.318813   0.000000
     3  C    2.386135   1.401575   0.000000
     4  C    2.786966   2.397666   1.376534   0.000000
     5  C    2.412840   2.737718   2.389974   1.399731   0.000000
     6  C    1.339249   2.287401   2.717542   2.402450   1.407870
     7  C    2.414843   3.628130   4.193650   3.755420   2.486433
     8  O    3.548404   4.660674   4.976175   4.232587   2.837146
     9  O    2.680539   3.999209   4.909781   4.777003   3.657018
    10  O    3.645763   4.074315   3.599282   2.349972   1.336641
    11  H    2.050243   1.085923   2.168238   3.387373   3.823358
    12  H    3.353814   2.158854   1.084723   2.143803   3.383495
    13  H    3.870904   3.399820   2.161083   1.084130   2.143528
    14  H    3.642722   4.961264   5.818916   5.567738   4.342501
    15  H    3.772384   4.483419   4.279139   3.165320   1.889590
                    6          7          8          9         10
     6  C    0.000000
     7  C    1.476154   0.000000
     8  O    2.379588   1.227831   0.000000
     9  O    2.374587   1.327739   2.228316   0.000000
    10  O    2.423300   2.878541   2.624756   4.199378   0.000000
    11  H    3.256243   4.465066   5.580472   4.579924   5.159997
    12  H    3.801384   5.277246   6.050025   5.955174   4.488897
    13  H    3.385161   4.625993   4.900154   5.743368   2.565866
    14  H    3.188740   1.859709   2.252752   0.970948   4.648405
    15  H    2.438773   2.342662   1.761691   3.654071   0.985129
                   11         12         13         14         15
    11  H    0.000000
    12  H    2.499359   0.000000
    13  H    4.312386   2.511517   0.000000
    14  H    5.549239   6.878596   6.475968   0.000000
    15  H    5.545509   5.253107   3.525329   3.937213   0.000000
 Stoichiometry    C6H5NO3
 Framework group  C1[X(C6H5NO3)]
 Deg. of freedom    39
 Full point group                 C1      NOp   1
 Largest Abelian subgroup         C1      NOp   1
 Largest concise Abelian subgroup C1      NOp   1
                         Standard orientation:                         
 ---------------------------------------------------------------------
 Center     Atomic      Atomic             Coordinates (Angstroms)
 Number     Number       Type             X           Y           Z
 ---------------------------------------------------------------------
      1          7           0        0.433703   -1.441110   -0.000250
      2          6           0        1.751877   -1.482182   -0.000086
      3          6           0        2.542746   -0.325056    0.000139
      4          6           0        1.932242    0.908690    0.000164
      5          6           0        0.533839    0.969651   -0.000037
      6          6           0       -0.173690   -0.247518   -0.000244
      7          6           0       -1.649585   -0.219890   -0.000442
      8          8           0       -2.299454    0.821857    0.000468
      9          8           0       -2.246603   -1.405832    0.000123
     10          8           0       -0.048915    2.172567   -0.000082
     11          1           0        2.208595   -2.467391   -0.000111
     12          1           0        3.624320   -0.407654    0.000290
     13          1           0        2.494714    1.835493    0.000320
     14          1           0       -3.203546   -1.241516    0.000599
     15          1           0       -1.024799    2.037920   -0.000372
 ---------------------------------------------------------------------
 Rotational constants (GHZ):      2.3775052      1.2655335      0.8259074
 Standard basis: 6-31+G(d,p) (6D, 7F)
 There are   215 symmetry adapted cartesian basis functions of A   symmetry.
 There are   215 symmetry adapted basis functions of A   symmetry.
   215 basis functions,   355 primitive gaussians,   215 cartesian basis functions
    36 alpha electrons       36 beta electrons
       nuclear repulsion energy       508.6755173174 Hartrees.
 NAtoms=   15 NActive=   15 NUniq=   15 SFac= 1.00D+00 NAtFMM=   60 NAOKFM=F Big=F
 Integral buffers will be    131072 words long.
 Raffenetti 2 integral format.
 Two-electron integral symmetry is turned on.
 One-electron integrals computed using PRISM.
 NBasis=   215 RedAO= T EigKep=  5.60D-06  NBF=   215
 NBsUse=   215 1.00D-06 EigRej= -1.00D+00 NBFU=   215
 Initial guess from the checkpoint file:  "camb3lyp3HPAgd3.chk"
 B after Tr=     0.000000   -0.000000    0.000000
         Rot=    0.999995   -0.000023   -0.000008    0.003088 Ang=  -0.35 deg.
 ExpMin= 4.38D-02 ExpMax= 5.48D+03 ExpMxC= 8.25D+02 IAcc=2 IRadAn=         4 AccDes= 0.00D+00
 Harris functional with IExCor=20419 and IRadAn=       4 diagonalized for initial guess.
 HarFok:  IExCor=20419 AccDes= 0.00D+00 IRadAn=         4 IDoV= 1 UseB2=F ITyADJ=14
 ICtDFT=  3500011 ScaDFX=  1.000000  1.000000  1.000000  1.000000
 FoFCou: FMM=F IPFlag=           0 FMFlag=      100000 FMFlg1=           0
         NFxFlg=           0 DoJE=T BraDBF=F KetDBF=T FulRan=T
         wScrn=  0.000000 ICntrl=     500 IOpCl=  0 I1Cent=   200000004 NGrid=           0
         NMat0=    1 NMatS0=      1 NMatT0=    0 NMatD0=    1 NMtDS0=    0 NMtDT0=    0
 Petite list used in FoFCou.
 Keep R1 ints in memory in canonical form, NReq=544393055.
 Requested convergence on RMS density matrix=1.00D-08 within 128 cycles.
 Requested convergence on MAX density matrix=1.00D-06.
 Requested convergence on             energy=1.00D-06.
 No special actions if energy rises.
 SCF Done:  E(RCAM-B3LYP) =  -511.899593191     A.U. after   13 cycles
            NFock= 13  Conv=0.34D-08     -V/T= 2.0087
 Calling FoFJK, ICntrl=      2127 FMM=F ISym2X=0 I1Cent= 0 IOpClX= 0 NMat=1 NMatS=1 NMatT=0.
 ***** Axes restored to original set *****
 -------------------------------------------------------------------
 Center     Atomic                   Forces (Hartrees/Bohr)
 Number     Number              X              Y              Z
 -------------------------------------------------------------------
      1        7           0.000199404   -0.000473380    0.000014264
      2        6          -0.000252598   -0.000840622   -0.000009039
      3        6          -0.001122550   -0.000146253   -0.000000510
      4        6          -0.000283139    0.000545758   -0.000005168
      5        6          -0.000040584   -0.001003430    0.000011389
      6        6          -0.000067251    0.000247200    0.000057332
      7        6           0.001254193    0.000361351   -0.000214876
      8        8          -0.001453028    0.002035365    0.000090844
      9        8          -0.000148490   -0.001381624    0.000064576
     10        8           0.003093673    0.000272148    0.000008968
     11        1          -0.000125009   -0.000126619   -0.000000515
     12        1          -0.000153526    0.000016591    0.000001355
     13        1          -0.000000203    0.000138866    0.000000047
     14        1          -0.000012877    0.000089225   -0.000000163
     15        1          -0.000888016    0.000265424   -0.000018503
 -------------------------------------------------------------------
 Cartesian Forces:  Max     0.003093673 RMS     0.000734938

 GradGradGradGradGradGradGradGradGradGradGradGradGradGradGradGradGradGrad
 Berny optimization.
 Using GEDIIS/GDIIS optimizer.
 FormGI is forming the generalized inverse of G from B-inverse, IUseBI=4.
 Internal  Forces:  Max     0.003796937 RMS     0.000984806
 Search for a local minimum.
 Step number   3 out of a maximum of   74
 All quantities printed in internal units (Hartrees-Bohrs-Radians)
 Mixed Optimization -- En-DIIS/RFO-DIIS
 Update second derivatives using D2CorX and points    1    2    3
 DE= -3.19D-06 DEPred=-8.46D-05 R= 3.78D-02
 Trust test= 3.78D-02 RLast= 2.28D-02 DXMaxT set to 1.50D-01
 ITU= -1  1  0
 Use linear search instead of GDIIS.
     Eigenvalues ---    0.01051   0.01533   0.01700   0.01946   0.02057
     Eigenvalues ---    0.02101   0.02140   0.02171   0.02232   0.02433
     Eigenvalues ---    0.02454   0.02523   0.15412   0.16000   0.16000
     Eigenvalues ---    0.16004   0.16022   0.22062   0.22812   0.24658
     Eigenvalues ---    0.24940   0.25000   0.25036   0.34115   0.35166
     Eigenvalues ---    0.35315   0.35412   0.37135   0.42562   0.45687
     Eigenvalues ---    0.47139   0.48860   0.52733   0.54400   0.56067
     Eigenvalues ---    0.57184   0.59480   0.73965   0.88976
 RFO step:  Lambda=-1.78902773D-05 EMin= 1.05129828D-02
 Quartic linear search produced a step of -0.49578.
 Iteration  1 RMS(Cart)=  0.00631239 RMS(Int)=  0.00001526
 Iteration  2 RMS(Cart)=  0.00002071 RMS(Int)=  0.00000132
 Iteration  3 RMS(Cart)=  0.00000000 RMS(Int)=  0.00000132
 Variable       Old X    -DE/DX   Delta X   Delta X   Delta X     New X
                                 (Linear)    (Quad)   (Total)
    R1        2.49220   0.00117   0.00085   0.00079   0.00164   2.49383
    R2        2.53081   0.00080   0.00015   0.00125   0.00140   2.53221
    R3        2.64859   0.00130   0.00041   0.00164   0.00205   2.65065
    R4        2.05210   0.00017  -0.00012   0.00047   0.00036   2.05245
    R5        2.60127   0.00126   0.00060   0.00138   0.00198   2.60326
    R6        2.04983   0.00015  -0.00002   0.00035   0.00032   2.05015
    R7        2.64511   0.00078  -0.00070   0.00224   0.00154   2.64665
    R8        2.04871   0.00012   0.00000   0.00024   0.00024   2.04895
    R9        2.66049  -0.00152  -0.00148   0.00137  -0.00012   2.66037
   R10        2.52589   0.00145   0.00098   0.00066   0.00164   2.52753
   R11        2.78953  -0.00034  -0.00255   0.00276   0.00021   2.78973
   R12        2.32026   0.00095   0.00050   0.00074   0.00125   2.32151
   R13        2.50906   0.00108   0.00163   0.00009   0.00171   2.51078
   R14        1.83483   0.00000   0.00019  -0.00002   0.00018   1.83500
   R15        1.86162  -0.00092   0.00013  -0.00062  -0.00049   1.86113
    A1        2.07267  -0.00051  -0.00238   0.00165  -0.00073   2.07194
    A2        2.13920  -0.00013   0.00091  -0.00074   0.00017   2.13937
    A3        2.03603   0.00013  -0.00095   0.00104   0.00009   2.03612
    A4        2.10796   0.00001   0.00004  -0.00030  -0.00026   2.10769
    A5        2.08253  -0.00021   0.00019  -0.00036  -0.00016   2.08237
    A6        2.09413   0.00013   0.00016   0.00005   0.00021   2.09434
    A7        2.10653   0.00007  -0.00036   0.00031  -0.00005   2.10648
    A8        2.07387  -0.00029  -0.00111   0.00068  -0.00043   2.07344
    A9        2.13661   0.00022   0.00045  -0.00012   0.00033   2.13694
   A10        2.07270   0.00007   0.00065  -0.00055   0.00010   2.07281
   A11        2.05378   0.00036   0.00066  -0.00034   0.00032   2.05410
   A12        2.06549   0.00190   0.00292   0.00021   0.00313   2.06863
   A13        2.16391  -0.00226  -0.00359   0.00013  -0.00346   2.16045
   A14        2.14432   0.00078   0.00173  -0.00090   0.00083   2.14515
   A15        2.06024   0.00302   0.00432   0.00085   0.00517   2.06541
   A16        2.07863  -0.00380  -0.00605   0.00004  -0.00600   2.07263
   A17        2.14727  -0.00303  -0.00337  -0.00156  -0.00493   2.14234
   A18        2.01845   0.00069   0.00151  -0.00057   0.00093   2.01939
   A19        2.11746   0.00234   0.00186   0.00213   0.00399   2.12146
   A20        1.86712  -0.00016  -0.00197   0.00139  -0.00058   1.86654
   A21        1.88482   0.00026  -0.00126   0.00153   0.00027   1.88509
    D1        0.00004  -0.00000  -0.00002  -0.00007  -0.00009  -0.00005
    D2       -3.14158  -0.00000  -0.00001  -0.00002  -0.00003   3.14158
    D3       -0.00003   0.00000   0.00002   0.00004   0.00006   0.00003
    D4        3.14158  -0.00000   0.00002  -0.00003  -0.00001   3.14157
    D5       -0.00002   0.00000   0.00001   0.00005   0.00006   0.00004
    D6        3.14157   0.00000   0.00001   0.00004   0.00005  -3.14156
    D7        3.14159   0.00000  -0.00000   0.00000  -0.00000   3.14159
    D8        0.00000  -0.00000   0.00000  -0.00001  -0.00001  -0.00001
    D9       -0.00000  -0.00000  -0.00000  -0.00000  -0.00000  -0.00000
   D10       -3.14158  -0.00000  -0.00001  -0.00004  -0.00005   3.14156
   D11        3.14159   0.00000  -0.00000   0.00001   0.00001  -3.14158
   D12        0.00001  -0.00000  -0.00001  -0.00003  -0.00004  -0.00002
   D13        0.00001  -0.00000  -0.00000  -0.00003  -0.00003  -0.00002
   D14       -3.14153  -0.00001  -0.00003  -0.00015  -0.00018   3.14147
   D15        3.14159   0.00000   0.00000   0.00001   0.00002  -3.14158
   D16        0.00005  -0.00001  -0.00003  -0.00011  -0.00014  -0.00009
   D17        0.00000   0.00000  -0.00001   0.00001  -0.00000   0.00000
   D18        3.14158   0.00000  -0.00000   0.00008   0.00007  -3.14153
   D19        3.14154   0.00001   0.00002   0.00014   0.00016  -3.14148
   D20       -0.00007   0.00001   0.00003   0.00021   0.00024   0.00017
   D21        3.14144   0.00002   0.00006   0.00033   0.00039  -3.14136
   D22       -0.00010   0.00001   0.00003   0.00019   0.00022   0.00012
   D23        3.14070   0.00006   0.00062   0.00205   0.00267  -3.13982
   D24        0.00061  -0.00005  -0.00043  -0.00112  -0.00154  -0.00093
   D25       -0.00088   0.00006   0.00062   0.00198   0.00259   0.00172
   D26       -3.14096  -0.00005  -0.00043  -0.00118  -0.00161   3.14061
   D27        3.14086   0.00005   0.00052   0.00155   0.00207  -3.14026
   D28        0.00074  -0.00005  -0.00051  -0.00155  -0.00207  -0.00133
         Item               Value     Threshold  Converged?
 Maximum Force            0.003797     0.000450     NO 
 RMS     Force            0.000985     0.000300     NO 
 Maximum Displacement     0.019169     0.001800     NO 
 RMS     Displacement     0.006321     0.001200     NO 
 Predicted change in Energy=-4.609650D-05
 GradGradGradGradGradGradGradGradGradGradGradGradGradGradGradGradGradGrad

                          Input orientation:                          
 ---------------------------------------------------------------------
 Center     Atomic      Atomic             Coordinates (Angstroms)
 Number     Number       Type             X           Y           Z
 ---------------------------------------------------------------------
      1          7           0       -0.441491   -1.444148   -0.000502
      2          6           0       -1.760708   -1.479122   -0.000179
      3          6           0       -2.547004   -0.317571    0.000220
      4          6           0       -1.930316    0.914270    0.000234
      5          6           0       -0.530808    0.968174   -0.000150
      6          6           0        0.170907   -0.252285   -0.000510
      7          6           0        1.646877   -0.222798   -0.000844
      8          8           0        2.290635    0.823509    0.000954
      9          8           0        2.246902   -1.408239    0.000002
     10          8           0        0.062179    2.167047   -0.000277
     11          1           0       -2.222166   -2.462328   -0.000197
     12          1           0       -3.629122   -0.395113    0.000505
     13          1           0       -2.488246    1.843965    0.000503
     14          1           0        3.203478   -1.241256    0.000906
     15          1           0        1.036708    2.024704   -0.000770
 ---------------------------------------------------------------------
                    Distance matrix (angstroms):
                    1          2          3          4          5
     1  N    0.000000
     2  C    1.319681   0.000000
     3  C    2.387961   1.402662   0.000000
     4  C    2.789038   2.399394   1.377584   0.000000
     5  C    2.413975   2.738962   2.391273   1.400546   0.000000
     6  C    1.339989   2.288290   2.718695   2.403329   1.407808
     7  C    2.419293   3.631802   4.194952   3.753563   2.482081
     8  O    3.550604   4.659989   4.970394   4.221926   2.825149
     9  O    2.688633   4.008237   4.916410   4.779455   3.655545
    10  O    3.646151   4.076453   3.602938   2.353611   1.337509
    11  H    2.051218   1.086111   2.169217   3.389187   3.824792
    12  H    3.355811   2.160103   1.084893   2.144861   3.384982
    13  H    3.873099   3.401797   2.162335   1.084260   2.144429
    14  H    3.650612   4.969882   5.824194   5.567956   4.338949
    15  H    3.770677   4.483562   4.281266   3.168011   1.890334
                    6          7          8          9         10
     6  C    0.000000
     7  C    1.476264   0.000000
     8  O    2.377095   1.228490   0.000000
     9  O    2.376128   1.328646   2.232177   0.000000
    10  O    2.421774   2.867513   2.602136   4.189950   0.000000
    11  H    3.257467   4.470457   5.582303   4.591696   5.162301
    12  H    3.802713   5.278813   6.043887   5.962725   4.493370
    13  H    3.386054   4.622851   4.886618   5.744428   2.570807
    14  H    3.189757   1.860179   2.257552   0.971042   4.635115
    15  H    2.436039   2.328856   1.736434   3.640009   0.984870
                   11         12         13         14         15
    11  H    0.000000
    12  H    2.500580   0.000000
    13  H    4.314506   2.512981   0.000000
    14  H    5.561352   6.884794   6.474127   0.000000
    15  H    5.545603   5.255995   3.529585   3.919361   0.000000
 Stoichiometry    C6H5NO3
 Framework group  C1[X(C6H5NO3)]
 Deg. of freedom    39
 Full point group                 C1      NOp   1
 Largest Abelian subgroup         C1      NOp   1
 Largest concise Abelian subgroup C1      NOp   1
                         Standard orientation:                         
 ---------------------------------------------------------------------
 Center     Atomic      Atomic             Coordinates (Angstroms)
 Number     Number       Type             X           Y           Z
 ---------------------------------------------------------------------
      1          7           0        0.441585   -1.443473    0.000439
      2          6           0        1.760836   -1.477113    0.000116
      3          6           0        2.545957   -0.314768   -0.000283
      4          6           0        1.928024    0.916449   -0.000297
      5          6           0        0.528462    0.968938    0.000088
      6          6           0       -0.172019   -0.252229    0.000448
      7          6           0       -1.648017   -0.224235    0.000781
      8          8           0       -2.292833    0.821421   -0.001017
      9          8           0       -2.246844   -1.410281   -0.000065
     10          8           0       -0.065736    2.167211    0.000215
     11          1           0        2.223288   -2.459852    0.000135
     12          1           0        3.628154   -0.391216   -0.000567
     13          1           0        2.485014    1.846708   -0.000565
     14          1           0       -3.203588   -1.244266   -0.000968
     15          1           0       -1.040121    2.023883    0.000708
 ---------------------------------------------------------------------
 Rotational constants (GHZ):      2.3797550      1.2656079      0.8262105
 Standard basis: 6-31+G(d,p) (6D, 7F)
 There are   215 symmetry adapted cartesian basis functions of A   symmetry.
 There are   215 symmetry adapted basis functions of A   symmetry.
   215 basis functions,   355 primitive gaussians,   215 cartesian basis functions
    36 alpha electrons       36 beta electrons
       nuclear repulsion energy       508.6903604728 Hartrees.
 NAtoms=   15 NActive=   15 NUniq=   15 SFac= 1.00D+00 NAtFMM=   60 NAOKFM=F Big=F
 Integral buffers will be    131072 words long.
 Raffenetti 2 integral format.
 Two-electron integral symmetry is turned on.
 One-electron integrals computed using PRISM.
 NBasis=   215 RedAO= T EigKep=  5.64D-06  NBF=   215
 NBsUse=   215 1.00D-06 EigRej= -1.00D+00 NBFU=   215
 Initial guess from the checkpoint file:  "camb3lyp3HPAgd3.chk"
 B after Tr=     0.000000    0.000000   -0.000000
         Rot=    0.999999    0.000055    0.000022   -0.001681 Ang=   0.19 deg.
 Keep R1 ints in memory in canonical form, NReq=544393055.
 Requested convergence on RMS density matrix=1.00D-08 within 128 cycles.
 Requested convergence on MAX density matrix=1.00D-06.
 Requested convergence on             energy=1.00D-06.
 No special actions if energy rises.
 SCF Done:  E(RCAM-B3LYP) =  -511.899641304     A.U. after   12 cycles
            NFock= 12  Conv=0.62D-08     -V/T= 2.0087
 Calling FoFJK, ICntrl=      2127 FMM=F ISym2X=0 I1Cent= 0 IOpClX= 0 NMat=1 NMatS=1 NMatT=0.
 ***** Axes restored to original set *****
 -------------------------------------------------------------------
 Center     Atomic                   Forces (Hartrees/Bohr)
 Number     Number              X              Y              Z
 -------------------------------------------------------------------
      1        7          -0.000061099    0.000036910   -0.000024870
      2        6           0.000234627   -0.000170548    0.000015722
      3        6          -0.000136123    0.000163481    0.000000484
      4        6          -0.000097632   -0.000033219    0.000008028
      5        6           0.000201987   -0.000047005   -0.000020956
      6        6          -0.000255191   -0.000028591   -0.000102337
      7        6           0.000406388   -0.000166342    0.000385774
      8        8          -0.000088222    0.000058122   -0.000167033
      9        8          -0.000131358    0.000219337   -0.000114206
     10        8           0.000172657    0.000030667   -0.000016024
     11        1          -0.000019873    0.000004096    0.000000686
     12        1          -0.000013438    0.000011470   -0.000002035
     13        1           0.000010839    0.000028465    0.000000047
     14        1           0.000018056   -0.000064921    0.000000362
     15        1          -0.000241618   -0.000041922    0.000036358
 -------------------------------------------------------------------
 Cartesian Forces:  Max     0.000406388 RMS     0.000135293

 GradGradGradGradGradGradGradGradGradGradGradGradGradGradGradGradGradGrad
 Berny optimization.
 Using GEDIIS/GDIIS optimizer.
 FormGI is forming the generalized inverse of G from B-inverse, IUseBI=4.
 Internal  Forces:  Max     0.000232566 RMS     0.000073736
 Search for a local minimum.
 Step number   4 out of a maximum of   74
 All quantities printed in internal units (Hartrees-Bohrs-Radians)
 Mixed Optimization -- En-DIIS/RFO-DIIS
 Swapping is turned off.
 Update second derivatives using D2CorX and points    1    2    3    4
 DE= -4.81D-05 DEPred=-4.61D-05 R= 1.04D+00
 TightC=F SS=  1.41D+00  RLast= 1.34D-02 DXNew= 2.5227D-01 4.0096D-02
 Trust test= 1.04D+00 RLast= 1.34D-02 DXMaxT set to 1.50D-01
 ITU=  1 -1  1  0
     Eigenvalues ---    0.01053   0.01620   0.01701   0.01947   0.02057
     Eigenvalues ---    0.02101   0.02140   0.02171   0.02233   0.02433
     Eigenvalues ---    0.02456   0.02523   0.15639   0.15991   0.16000
     Eigenvalues ---    0.16005   0.16068   0.22078   0.23031   0.24509
     Eigenvalues ---    0.24947   0.24983   0.25001   0.33395   0.35167
     Eigenvalues ---    0.35307   0.35403   0.37376   0.42732   0.44218
     Eigenvalues ---    0.47269   0.49002   0.52780   0.54719   0.56665
     Eigenvalues ---    0.57391   0.59894   0.71184   0.89854
 En-DIIS/RFO-DIIS IScMMF=        0 using points:     4    3
 RFO step:  Lambda=-1.01884241D-06.
 DidBck=F Rises=F RFO-DIIS coefs:    1.00766   -0.00766
 Iteration  1 RMS(Cart)=  0.00245270 RMS(Int)=  0.00000972
 Iteration  2 RMS(Cart)=  0.00001069 RMS(Int)=  0.00000515
 Iteration  3 RMS(Cart)=  0.00000000 RMS(Int)=  0.00000515
 Variable       Old X    -DE/DX   Delta X   Delta X   Delta X     New X
                                 (Linear)    (Quad)   (Total)
    R1        2.49383  -0.00006   0.00001  -0.00007  -0.00006   2.49378
    R2        2.53221  -0.00002   0.00001   0.00002   0.00003   2.53224
    R3        2.65065   0.00022   0.00002   0.00065   0.00067   2.65132
    R4        2.05245   0.00000   0.00000   0.00006   0.00006   2.05251
    R5        2.60326  -0.00002   0.00002   0.00007   0.00008   2.60334
    R6        2.05015   0.00001   0.00000   0.00007   0.00007   2.05022
    R7        2.64665   0.00008   0.00001   0.00038   0.00039   2.64704
    R8        2.04895   0.00002   0.00000   0.00008   0.00008   2.04903
    R9        2.66037  -0.00007  -0.00000  -0.00013  -0.00013   2.66024
   R10        2.52753  -0.00004   0.00001  -0.00004  -0.00003   2.52750
   R11        2.78973   0.00021   0.00000   0.00088   0.00088   2.79062
   R12        2.32151   0.00000   0.00001   0.00002   0.00003   2.32154
   R13        2.51078  -0.00019   0.00001  -0.00040  -0.00039   2.51039
   R14        1.83500   0.00001   0.00000  -0.00001  -0.00000   1.83500
   R15        1.86113  -0.00023  -0.00000  -0.00057  -0.00058   1.86056
    A1        2.07194   0.00001  -0.00001   0.00017   0.00016   2.07211
    A2        2.13937   0.00000   0.00000  -0.00005  -0.00005   2.13932
    A3        2.03612   0.00002   0.00000   0.00023   0.00023   2.03636
    A4        2.10769  -0.00002  -0.00000  -0.00018  -0.00019   2.10751
    A5        2.08237  -0.00005  -0.00000  -0.00018  -0.00018   2.08219
    A6        2.09434   0.00004   0.00000   0.00016   0.00016   2.09450
    A7        2.10648   0.00001  -0.00000   0.00002   0.00002   2.10650
    A8        2.07344  -0.00002  -0.00000   0.00003   0.00003   2.07347
    A9        2.13694   0.00003   0.00000   0.00018   0.00018   2.13712
   A10        2.07281  -0.00002   0.00000  -0.00021  -0.00021   2.07260
   A11        2.05410   0.00003   0.00000   0.00006   0.00007   2.05417
   A12        2.06863  -0.00001   0.00002   0.00000   0.00003   2.06865
   A13        2.16045  -0.00002  -0.00003  -0.00006  -0.00009   2.16036
   A14        2.14515   0.00002   0.00001  -0.00003  -0.00003   2.14512
   A15        2.06541   0.00006   0.00004   0.00039   0.00043   2.06584
   A16        2.07263  -0.00009  -0.00005  -0.00036  -0.00041   2.07222
   A17        2.14234  -0.00009  -0.00004  -0.00058  -0.00065   2.14169
   A18        2.01939  -0.00006   0.00001  -0.00026  -0.00028   2.01911
   A19        2.12146   0.00015   0.00003   0.00088   0.00089   2.12234
   A20        1.86654   0.00012  -0.00000   0.00096   0.00095   1.86749
   A21        1.88509  -0.00014   0.00000  -0.00070  -0.00070   1.88439
[...]
 ! R11   R(6,7)                  1.4768         -DE/DX =    0.0                 !
 ! R12   R(7,8)                  1.2285         -DE/DX =    0.0                 !
 ! R13   R(7,9)                  1.3284         -DE/DX =    0.0                 !
 ! R14   R(9,14)                 0.971          -DE/DX =    0.0                 !
 ! R15   R(10,15)                0.9845         -DE/DX =    0.0001              !
 ! A1    A(2,1,6)              118.7217         -DE/DX =    0.0                 !
 ! A2    A(1,2,3)              122.5761         -DE/DX =    0.0                 !
 ! A3    A(1,2,11)             116.6744         -DE/DX =    0.0                 !
 ! A4    A(3,2,11)             120.7495         -DE/DX =    0.0                 !
 ! A5    A(2,3,4)              119.299          -DE/DX =    0.0                 !
 ! A6    A(2,3,12)             120.0075         -DE/DX =    0.0                 !
 ! A7    A(4,3,12)             120.6935         -DE/DX =    0.0                 !
 ! A8    A(3,4,5)              118.8012         -DE/DX =    0.0                 !
 ! A9    A(3,4,13)             122.4499         -DE/DX =    0.0                 !
 ! A10   A(5,4,13)             118.7489         -DE/DX =    0.0                 !
 ! A11   A(4,5,6)              117.6951         -DE/DX =    0.0                 !
 ! A12   A(4,5,10)             118.5149         -DE/DX =    0.0                 !
 ! A13   A(6,5,10)             123.79           -DE/DX =    0.0001              !
 ! A14   A(1,6,5)              122.907          -DE/DX =    0.0                 !
 ! A15   A(1,6,7)              118.3535         -DE/DX =    0.0                 !
 ! A16   A(5,6,7)              118.7396         -DE/DX =    0.0                 !
 ! A17   A(6,7,8)              122.7198         -DE/DX =    0.0                 !
 ! A18   A(6,7,9)              115.6821         -DE/DX =    0.0                 !
 ! A19   A(8,7,9)              121.5981         -DE/DX =    0.0                 !
 ! A20   A(7,9,14)             107.009          -DE/DX =    0.0                 !
 ! A21   A(5,10,15)            107.9614         -DE/DX =    0.0001              !
 ! D1    D(6,1,2,3)             -0.0008         -DE/DX =    0.0                 !
 ! D2    D(6,1,2,11)          -179.9998         -DE/DX =    0.0                 !
 ! D3    D(2,1,6,5)             -0.0001         -DE/DX =    0.0                 !
 ! D4    D(2,1,6,7)           -180.0039         -DE/DX =    0.0                 !
 ! D5    D(1,2,3,4)              0.0008         -DE/DX =    0.0                 !
 ! D6    D(1,2,3,12)          -179.9998         -DE/DX =    0.0                 !
 ! D7    D(11,2,3,4)           179.9998         -DE/DX =    0.0                 !
 ! D8    D(11,2,3,12)           -0.0008         -DE/DX =    0.0                 !
 ! D9    D(2,3,4,5)              0.0            -DE/DX =    0.0                 !
 ! D10   D(2,3,4,13)          -180.0014         -DE/DX =    0.0                 !
 ! D11   D(12,3,4,5)           180.0007         -DE/DX =    0.0                 !
 ! D12   D(12,3,4,13)           -0.0007         -DE/DX =    0.0                 !
 ! D13   D(3,4,5,6)             -0.0008         -DE/DX =    0.0                 !
 ! D14   D(3,4,5,10)          -180.0039         -DE/DX =    0.0                 !
 ! D15   D(13,4,5,6)           180.0006         -DE/DX =    0.0                 !
 ! D16   D(13,4,5,10)           -0.0025         -DE/DX =    0.0                 !
 ! D17   D(4,5,6,1)              0.0009         -DE/DX =    0.0                 !
 ! D18   D(4,5,6,7)            180.0048         -DE/DX =    0.0                 !
 ! D19   D(10,5,6,1)           180.0041         -DE/DX =    0.0                 !
 ! D20   D(10,5,6,7)             0.008          -DE/DX =    0.0                 !
 ! D21   D(4,5,10,15)          180.0073         -DE/DX =    0.0                 !
 ! D22   D(6,5,10,15)            0.0041         -DE/DX =    0.0                 !
 ! D23   D(1,6,7,8)           -179.9864         -DE/DX =    0.0                 !
 ! D24   D(1,6,7,9)              0.0064         -DE/DX =    0.0                 !
 ! D25   D(5,6,7,8)              0.0099         -DE/DX =    0.0                 !
 ! D26   D(5,6,7,9)           -179.9973         -DE/DX =    0.0                 !
 ! D27   D(6,7,9,14)          -179.9963         -DE/DX =    0.0                 !
 ! D28   D(8,7,9,14)            -0.0034         -DE/DX =    0.0                 !
 --------------------------------------------------------------------------------
 GradGradGradGradGradGradGradGradGradGradGradGradGradGradGradGradGradGrad

 1\1\ WCSS.PL-BEM-QINLAB\Freq\RCAM-B3LYP\6-31+G(d,p)\C6H5N1O3\PHZD\20-J
 un-2024\0\\#N Geom=AllCheck Guess=TCheck SCRF=Check GenChk RCAM-B3LYP/
 6-31+G(d,p) Freq\\[No Title]\\0,1\N,-0.4415243101,-1.4441397655,-0.000
 0582243\C,-1.7606488512,-1.4792463821,-0.0000250787\C,-2.5472507788,-0
 .3174672699,0.0000337476\C,-1.9304246303,0.9142836896,0.0000418628\C,-
 0.5307311749,0.9680740233,-0.0000100913\C,0.1709116529,-0.2523243471,-
 0.00005036\C,1.6473812731,-0.222523175,0.000001914\O,2.2904196298,0.82
 42133941,0.0002586691\O,2.2471019823,-1.4077948072,-0.0000967582\O,0.0
 621569989,2.1669480694,-0.0000809237\H,-2.2222412154,-2.4624108044,-0.
 0000300286\H,-3.6294052731,-0.3949059826,0.0000619577\H,-2.4880640993,
 1.8441992049,0.0000642846\H,3.2038857119,-1.2420240148,0.0000122711\H,
 1.0362580842,2.0239261672,-0.0002292421\\Version=ES64L-G09RevE.01\Stat
 e=1-A\HF=-511.8996422\RMSD=3.995e-09\RMSF=2.619e-05\ZeroPoint=0.110136
 4\Thermal=0.1177224\Dipole=-0.4979435,-0.1968365,-0.0001591\DipoleDeri
 v=0.1180881,-0.0679239,-0.0000133,0.4490407,-0.422361,-0.0000102,0.000
 0276,-0.0000078,-0.2452623,-0.3390451,0.1053189,-0.0000006,0.2925406,0
 .2630224,0.0000035,0.0000089,0.0000014,-0.0281184,0.1488992,0.0563077,
 -0.0000061,-0.3724488,0.075541,0.0000036,-0.00001,-0.000001,-0.0725898
 ,0.0799971,-0.4089888,0.0000025,0.0407936,-0.0314776,0.0000063,-0.0000
 108,0.0000282,-0.1470641,0.2072334,0.6754459,-0.0000327,0.4552071,1.15
 23865,-0.0000751,-0.0000186,-0.0000826,0.1747757,-0.5974198,0.2682969,
 -0.0000046,-0.453263,-0.118526,0.0000184,0.0000008,-0.0000116,0.027763
 3,2.1560407,-0.2713555,0.0000351,-0.1921521,1.7059373,0.0002156,0.0000
 499,0.0002,0.3366576,-1.174421,-0.2685106,-0.0000797,-0.2415081,-1.052
 9802,-0.0000819,-0.000139,-0.0001084,-0.3825439,-0.8705106,0.5892829,0
 .0000729,0.6033511,-1.0437167,-0.0000827,0.0000498,-0.0000318,-0.35920
 78,-0.6702213,-0.498361,0.0000123,-0.3484685,-1.2647575,0.0000692,0.00
 0008,0.000084,-0.362231,0.0143718,-0.0541892,0.0000003,-0.0819395,-0.0
 457996,-0.0000015,-0.0000013,0.0000039,0.1176555,-0.0601993,-0.0155705
 ,0.0000057,-0.015762,0.0896598,0.,0.0000078,-0.0000063,0.1320218,0.064
 6195,0.0354929,0.0000028,0.046645,0.0077871,-0.0000031,0.0000019,0.000
 0075,0.1447597,0.3540236,-0.0976771,-0.0000166,-0.1292926,0.2911434,-0
 .0000187,-0.0000301,-0.0000145,0.3517924,0.5685435,-0.0475684,0.000022
 ,-0.0527435,0.3941412,-0.0000435,0.0000549,-0.000061,0.3115913\Polar=1
 14.6115947,3.4171035,95.5635131,0.0000121,0.0014898,46.2527999\PG=C01 
 [X(C6H5N1O3)]\NImag=0\\0.66064585,0.11475977,0.46598201,-0.00001187,0.
 00000452,0.10015575,-0.39454371,0.01022666,0.00001000,0.72325841,-0.02
 888742,-0.12586736,-0.00000082,0.06159123,0.75179668,0.00000842,-0.000
 00098,-0.06730646,-0.00001651,0.00001255,0.15345731,-0.05505951,0.0232
 8825,0.00000283,-0.18332693,0.11407763,0.00000694,0.77095847,0.0993976
 2,0.05174606,-0.00000123,0.03451846,-0.26765175,-0.00000736,0.03546090
 ,0.69647149,0.00000381,-0.00000073,0.02447739,0.00000589,-0.00000977,-
 0.07207044,-0.00001866,0.00001339,0.14111227,-0.06338023,-0.03821443,0
 .,0.07964493,-0.01853689,-0.00000204,-0.19097289,-0.06681652,0.0000012
 2,0.69738961,-0.03997388,-0.02007604,0.00000055,0.03198930,-0.05692235
 ,-0.00000235,-0.13538345,-0.34611379,-0.00000274,-0.01158281,0.7998943
 8,0.00000089,0.00000057,-0.00675822,-0.00000130,-0.00000050,0.00859864
 ,0.00000028,-0.00000328,-0.05996438,-0.00002025,0.00000750,0.13394916,
 0.08802033,0.03340958,-0.00000104,-0.07211057,0.03000720,0.00000225,-0
 .01141064,-0.08987814,-0.00000080,-0.32064718,0.05385500,0.00001121,0.
 73342314,-0.02807524,-0.06950717,-0.00000001,0.03628384,-0.00705180,-0
 .00000071,-0.04134089,0.02787853,0.00000189,-0.01345571,-0.12855778,-0
 .00000161,0.03160259,0.72224516,-0.00000377,-0.00000270,0.01501372,0.0
 0000277,-0.00000156,-0.00879890,0.,0.00000338,-0.00174160,0.00001083,-
 0.00000294,-0.07158294,-0.00003120,-0.00000742,0.16906057,-0.14500989,
 -0.08725965,0.00000197,-0.06859211,-0.03481319,0.00000206,-0.00009040,
 -0.02176594,-0.00000029,-0.00917218,0.02933545,0.00000086,-0.20602325,
 0.09188425,0.00000604,0.67017269,-0.07380451,-0.29805272,-0.00000143,-
 0.09312077,0.00983022,0.00000133,0.01685248,-0.07104430,-0.00000141,0.
 06696171,0.04111445,-0.00000125,0.03766264,-0.23559321,-0.00000215,0.0
 1824661,0.71430279,0.00000219,-0.00000230,-0.06367254,-0.00000089,0.00
 000137,0.00581576,0.00000052,-0.00000125,-0.00853984,0.00000231,0.0000
 0041,0.00938498,0.00000214,-0.00000562,-0.07222925,0.00000263,0.000012
 56,0.14849511,-0.04503157,-0.03411315,-0.00000167,0.02631372,-0.010012
 35,-0.00000177,0.00019925,0.01820666,0.00000013,-0.01266642,-0.0029069
 3,-0.00000030,-0.00155031,0.04065231,-0.00000178,-0.20597778,0.0167086
 3,0.00000038,0.75198876,-0.03591014,-0.00426580,0.00000004,-0.00599714
 ,-0.00658010,-0.00000041,0.00027644,-0.00157949,-0.00000014,0.00197963
 ,-0.00681296,-0.00000079,0.03936001,0.02627905,-0.00000022,0.02554737,
 -0.09843232,0.00000302,0.11174221,0.88476969,0.00000084,-0.00000012,-0
 .01254862,0.00000098,-0.00000048,0.01250652,-0.00000010,0.00000080,0.0
 0056507,-0.00000040,-0.00000118,0.00694862,0.00000433,0.00000454,0.001
 25875,-0.00000975,0.00000208,-0.07931188,0.00006970,0.00010971,0.21305
 573,-0.00471135,0.00380409,-0.00000112,-0.00639962,0.00084277,0.000000
 98,-0.00018490,-0.00444074,0.,0.00271184,0.00009920,-0.00000026,-0.000
 10717,-0.00333613,-0.00000083,-0.02470775,-0.04443691,-0.00001112,-0.2
 9059636,-0.24994843,-0.00006677,0.30845549,0.00431201,0.00714637,-0.00
 000019,-0.00794302,0.00467060,0.00000101,0.00011113,-0.00751239,-0.000
 00009,0.00725507,0.00463050,0.00000024,-0.01317389,-0.02997045,0.00000
 206,-0.03543544,-0.00703369,-0.00000815,-0.23968066,-0.49330039,-0.000
 09537,0.28520612,0.61053135,-0.00000278,-0.00000034,0.00575515,0.00000
 027,-0.00000041,-0.00256174,0.,0.00000048,0.00004480,-0.00000108,-0.00
 000064,-0.00077142,0.00000095,0.00000054,0.00012974,-0.00000171,-0.000
 00757,0.01894614,-0.00007457,-0.00010243,-0.07704643,0.00007875,0.0001
 3044,0.03754283,0.00078485,0.00389240,0.00000057,-0.00355869,0.0027329
 2,-0.00000013,-0.00035836,-0.00257672,-0.00000013,0.00094106,0.0027653
 3,0.00000007,-0.00866972,-0.00963331,0.00000018,-0.03085927,0.04270342
 ,0.00000232,-0.18464623,0.10819565,0.00000298,0.03904138,-0.00903472,0
 .00000129,0.66785668,-0.00580212,-0.00157541,-0.00000083,0.00505021,-0
 .00085897,0.00000003,-0.00032128,0.00261726,0.00000012,-0.00096153,0.0
 0039726,0.00000003,-0.00249523,-0.00122426,-0.00000015,0.01559525,-0.0
 0339062,-0.00000063,0.07476966,-0.27764503,-0.00002050,0.00783523,-0.1
 1181119,-0.00001839,-0.02995524,0.45026401,-0.00000060,-0.00000051,0.0
 0171010,-0.00000022,0.00000014,-0.00126132,0.00000005,-0.00000025,-0.0
 0013145,0.00000024,0.00000050,-0.00101302,-0.00000113,-0.00000090,0.00
 209590,0.00000092,0.00000073,0.01086207,-0.00000031,-0.00001514,-0.066
 70378,0.00000240,-0.00002543,0.02821362,0.00005060,0.00005462,0.041519
 45,-0.01490060,-0.00399528,-0.00000003,0.01224840,-0.00984590,-0.00000
 061,-0.00603688,0.01799840,0.00000073,-0.04100881,-0.06393318,0.000003
 81,-0.15605550,-0.11124998,0.00001207,0.03125930,0.00992067,0.00000011
 ,-0.03143148,-0.02375508,-0.00000636,-0.01228994,0.04242582,-0.0000047
 7,0.00336311,0.00823957,0.00000201,0.62089061,-0.00157181,-0.00624037,
 -0.00000039,0.00436162,-0.00735111,-0.00000024,0.00420978,0.00813995,0
 .00000038,-0.02622691,-0.00782244,0.00000365,-0.07571023,-0.31380246,0
 .00000582,-0.00541228,-0.04640955,0.00000200,-0.02313370,-0.00656212,-
 0.00000238,0.01632053,0.00860755,0.00000274,0.00369605,-0.00102115,0.0
 0000028,0.05803133,0.43556715,0.00000154,0.00000126,0.00775124,-0.0000
 0143,0.00000044,-0.00058434,0.00000090,-0.00000149,0.00615647,0.000003
 55,0.00000500,0.00702478,0.00001233,0.00001480,-0.04899131,-0.00000137
 ,-0.00000109,0.00756516,0.00000267,0.00000015,-0.00066689,-0.00000328,
 -0.00000016,0.00460046,-0.00000047,0.00000111,-0.00083130,-0.00007628,
 -0.00000698,0.04058179,-0.02648015,-0.03255556,-0.00000014,-0.09743684
 ,-0.09992758,-0.00000025,0.01129496,0.01756188,0.00000024,-0.00217168,
 0.00305693,0.00000035,-0.00103947,0.00019369,0.00000005,-0.00388563,-0
 .00084838,0.00000048,0.00075122,-0.00108930,0.00000016,-0.00078310,-0.
 00022722,-0.00000018,-0.00028144,0.00020890,-0.00000001,0.00034133,-0.
 00039918,-0.00000003,0.11875560,-0.00544917,0.00604526,0.00000047,-0.1
 0148228,-0.29965490,-0.00000226,-0.01269840,-0.01692647,-0.00000003,0.
 00377396,-0.00268752,-0.00000034,0.00110222,0.00000234,-0.00000004,0.0
 0151637,0.00287806,-0.00000022,0.00022808,0.00019181,-0.00000002,-0.00
 012256,-0.00003711,-0.00000002,-0.00017666,0.00002606,0.00000001,-0.00
 011686,0.00014092,0.00000007,0.11377744,0.31037121,0.00000019,0.000001
 32,-0.00654270,-0.00000013,-0.00000177,-0.03960147,-0.00000052,-0.0000
 0169,0.00503896,0.00000075,-0.00000017,0.00575253,-0.00000001,-0.00000
 028,0.00110189,-0.00000002,-0.00000010,0.01116021,0.00000023,0.0000001
 4,0.00064271,0.00000011,-0.00000010,-0.00040653,0.00000001,0.,0.000041
 21,0.00000010,0.00000015,-0.00158754,-0.00000048,0.00000233,0.02716623
 ,-0.00165586,0.00363656,0.00000030,-0.01106591,-0.00643821,0.00000024,
 -0.34768918,-0.01933648,0.00000816,-0.00831903,0.00146642,0.00000041,0
 .00148644,-0.00160831,0.00000023,0.00143922,0.00047381,-0.00000003,-0.
 00002636,0.00005188,-0.00000002,-0.00015769,-0.00001339,-0.00000006,-0
 .00013160,0.00003668,0.,-0.00089529,-0.00016327,0.00000010,0.00048327,
 0.00030853,-0.00000008,0.36553649,0.00524400,-0.00407845,-0.00000045,0
 .02550823,0.01006764,-0.00000061,-0.01902553,-0.06319668,-0.00000012,-
 0.02945412,0.00352902,0.00000066,-0.00142210,-0.00474295,-0.00000021,-
 0.00119573,-0.00212720,-0.00000006,0.00045350,-0.00018518,0.00000003,-
 0.00004425,0.00016226,0.,-0.00006831,0.00020245,0.00000001,-0.00181304
 ,0.00026554,0.00000018,-0.00071126,0.00049146,0.00000014,0.02192266,0.
 05893254,0.00000040,-0.00000051,0.00632286,0.00000133,0.00000037,0.002
 65034,0.00000801,-0.00000006,-0.04073277,-0.00000037,0.00000022,0.0048
 0556,0.00000030,-0.00000015,0.00947351,-0.00000025,0.,-0.00007865,0.00
 000014,0.00000011,-0.00199245,0.,-0.00000011,0.00031190,0.00000004,-0.
 00000001,0.00027462,-0.00000023,-0.00000018,-0.00006774,-0.00000013,0.
 00000005,-0.00271279,-0.00000904,0.00000032,0.02696778,-0.00082361,-0.
 00100637,-0.00000010,-0.00074924,-0.00352415,0.00000020,0.01341119,-0.
 01391558,-0.00000033,-0.14009322,0.12852716,0.00000397,-0.01104920,0.0
 3017767,0.00000085,-0.00533892,-0.00174687,0.00000022,0.00032520,0.001
 84780,0.00000022,0.00008120,-0.00057729,0.00000006,-0.00075458,-0.0000
 5198,-0.00000008,0.00346887,-0.00042124,-0.00000037,0.00049291,-0.0007
 1718,-0.00000009,0.00078811,0.00057700,-0.00000015,0.14063177,-0.00042
 479,0.00026745,0.00000006,-0.00421854,-0.00284370,0.,0.01614936,-0.016
 82085,-0.00000067,0.13056139,-0.27120607,-0.00000547,-0.00277878,0.004
 11157,0.00000011,-0.00046216,0.00098534,0.00000002,-0.00058952,0.00003
 713,-0.00000008,0.00011492,0.00018327,0.00000005,0.00001161,-0.0000413
 6,-0.00000001,0.00047166,0.00070589,-0.00000004,0.00083113,-0.00081057
 ,-0.00000008,-0.00012003,0.00107038,0.00000003,-0.13948292,0.28428049,
 0.00000038,0.00000051,-0.00303625,-0.00000028,-0.00000007,0.00905090,-
 0.00000009,-0.00000058,0.00444735,0.00000469,-0.00000451,-0.03954712,-
 0.00000052,-0.00000102,0.00666143,0.00000040,-0.00000025,0.00602105,0.
 00000021,0.,-0.00058499,-0.00000010,-0.00000010,0.00002843,0.00000006,
 -0.00000003,-0.00000486,-0.00000026,-0.00000014,-0.00344835,0.,0.,-0.0
 0012553,-0.00000018,0.00000009,-0.00487642,-0.00000431,0.00000604,0.02
 586513,0.00042874,-0.00013846,-0.00000007,0.00060001,-0.00045592,0.000
 00001,0.00011039,0.00044865,0.00000001,-0.00027007,0.00031575,0.000000
 06,-0.00083299,-0.00052286,0.00000003,0.00191661,0.00292103,-0.0000005
 9,-0.03456820,0.00613578,-0.00000206,0.00310182,-0.00975600,-0.0000004
 4,-0.48085535,-0.06213870,-0.00005032,0.00114437,-0.00036325,0.0000001
 0,0.00001570,0.00002667,0.,0.00003163,0.00000244,0.,-0.00005944,-0.000
 01769,0.,0.51051990,-0.00146408,0.00017115,0.00000013,-0.00006603,0.00
 042088,0.00000004,-0.00019690,-0.00011367,0.,0.00013140,-0.00047131,0.
 00000003,0.00165663,0.00110384,-0.00000012,0.00091391,-0.00660028,-0.0
 0000125,0.05640170,0.00655128,0.00000554,-0.00775383,0.00170615,-0.000
 00017,-0.11240385,-0.06210316,-0.00001599,-0.00136954,0.00010488,-0.00
 000006,-0.00004808,-0.00003251,0.,-0.00003949,0.00002631,0.,0.00012388
 ,0.00001657,-0.00000002,0.06270325,0.06015312,0.00000003,0.00000010,-0
 .00035228,0.,-0.00000005,0.00001057,0.,-0.00000002,0.00003026,0.000000
 04,-0.00000005,-0.00040763,0.00000010,0.00000004,0.00061072,0.00000031
 ,-0.00000120,0.00507348,0.00000272,0.00000105,0.00443720,-0.00000012,0
 .00000055,-0.00631042,-0.00005685,-0.00001179,-0.01665334,-0.00000016,
 0.00000017,-0.00000109,0.,0.,0.00001268,0.,0.,-0.00000861,0.00000001,0
 .,0.00003051,0.00005366,0.00001138,0.01350482,0.00171671,0.00426559,0.
 00000036,-0.00428185,0.00318987,0.00000021,-0.00084456,-0.00486245,0.0
 0000003,0.00801429,0.00236972,0.00000020,-0.03343391,-0.02157194,0.000
 00451,-0.00513063,0.00150643,-0.00000066,0.02691656,0.02156331,0.00000
 626,-0.01345384,-0.02346852,0.00000428,-0.00187183,-0.01000942,-0.0000
 0354,-0.41009750,0.04678257,0.00006204,-0.00005668,0.00002983,-0.00000
 007,0.00017577,0.00002650,-0.00000005,-0.00033103,-0.00004563,0.,-0.00
 128312,0.00141100,0.00000025,0.43396162,-0.00235026,-0.00169499,-0.000
 00043,0.00329825,-0.00200398,-0.00000005,-0.00145954,0.00410610,-0.000
 00009,-0.00541424,-0.00889537,0.00000056,-0.04319750,0.00882958,0.0000
 0613,0.00330518,-0.00042695,0.00000009,-0.00872644,-0.02246558,-0.0000
 0258,-0.00414001,0.01202715,-0.00000431,-0.00014856,0.00616413,0.00000
 194,0.07899141,-0.06432268,-0.00001318,0.00017659,0.00000197,0.0000000
 9,-0.00017736,-0.00041711,-0.00000009,0.00019006,0.00006445,0.00000006
 ,0.00083931,-0.00093325,-0.00000018,-0.02118688,0.06996653,0.00000032,
 -0.00000010,-0.00096913,-0.00000049,0.00000055,0.00009464,-0.00000016,
 -0.00000084,0.00130793,0.00000050,0.00000038,0.00358046,0.00000111,-0.
 00000408,-0.00206223,-0.00000181,-0.00000024,0.00050822,0.00000420,0.0
 0000491,-0.00055954,0.00000138,-0.00000461,-0.00847652,-0.00000054,-0.
 00000359,0.00188209,0.00006987,-0.00000490,-0.01750134,-0.00000005,-0.
 00000001,0.00006013,-0.00000004,0.00000001,-0.00033715,-0.00000009,0.0
 0000002,-0.00048131,-0.00000038,0.00000047,0.00002312,-0.00007382,0.00
 001203,0.02293063\\0.00001771,0.00001339,0.00000139,-0.00001854,-0.000
 03821,-0.00000143,-0.00002657,-0.00001070,-0.00000015,0.00000414,0.000
 04223,0.00000021,0.00002815,0.00005159,0.00000659,-0.00000422,-0.00001
 762,0.,0.00005201,0.00001072,-0.00001569,-0.00001362,0.00004253,0.0000
 1342,0.00000109,-0.00003422,0.00000363,0.00006987,-0.00002130,0.000003
 78,-0.00000240,-0.00000795,0.00000043,-0.00001179,0.00000547,-0.000000
 24,-0.00000771,0.00000337,-0.00000031,0.00000512,-0.00000531,-0.000000
 20,-0.00009324,-0.00003400,-0.00001139\\\@


 LOGIC IS A SYSTEMATIC METHOD OF COMING TO THE
 WRONG CONCLUSION WITH CONFIDENCE.
 Job cpu time:       0 days  0 hours 24 minutes 33.5 seconds.
 File lengths (MBytes):  RWF=     79 Int=      0 D2E=      0 Chk=      5 Scr=      1
 Normal termination of Gaussian 09 at Thu Jun 20 11:53:37 2024.
