 Entering Gaussian System, Link 0=g09
 Input=m062x3HPA.gjf
 Output=m062x3HPA.log
 Initial command:
 /home/phzd/g09E/g09/l1.exe "/home/phzd/g09E/scratch/Gau-419986.inp" -scrdir="/home/phzd/g09E/scratch/"
 Default is to use a total of  18 processors:
                               18 via shared-memory
                                1 via Linda
 Entering Link 1 = /home/phzd/g09E/g09/l1.exe PID=    419988.
  
 Copyright (c) 1988,1990,1992,1993,1995,1998,2003,2009,2015,
            Gaussian, Inc.  All Rights Reserved.
  
 This is part of the Gaussian(R) 09 program.  It is based on
 the Gaussian(R) 03 system (copyright 2003, Gaussian, Inc.),
 the Gaussian(R) 98 system (copyright 1998, Gaussian, Inc.),
 the Gaussian(R) 94 system (copyright 1995, Gaussian, Inc.),
 the Gaussian 92(TM) system (copyright 1992, Gaussian, Inc.),
 the Gaussian 90(TM) system (copyright 1990, Gaussian, Inc.),
 the Gaussian 88(TM) system (copyright 1988, Gaussian, Inc.),
 the Gaussian 86(TM) system (copyright 1986, Carnegie Mellon
 University), and the Gaussian 82(TM) system (copyright 1983,
 Carnegie Mellon University). Gaussian is a federally registered
 trademark of Gaussian, Inc.
  
 This software contains proprietary and confidential information,
 including trade secrets, belonging to Gaussian, Inc.
  
 This software is provided under written license and may be
 used, copied, transmitted, or stored only in accord with that
 written license.
  
 The following legend is applicable only to US Government
 contracts under FAR:
  
                    RESTRICTED RIGHTS LEGEND
  
 Use, reproduction and disclosure by the US Government is
 subject to restrictions as set forth in subparagraphs (a)
 and (c) of the Commercial Computer Software - Restricted
 Rights clause in FAR 52.227-19.
  
 Gaussian, Inc.
 340 Quinnipiac St., Bldg. 40, Wallingford CT 06492
  
  
 ---------------------------------------------------------------
 Warning -- This program may not be used in any manner that
 competes with the business of Gaussian, Inc. or will provide
 assistance to any competitor of Gaussian, Inc.  The licensee
 of this program is prohibited from giving any competitor of
 Gaussian, Inc. access to this program.  By using this program,
 the user acknowledges that Gaussian, Inc. is engaged in the
 business of creating and licensing software in the field of
 computational chemistry and represents and warrants to the
 licensee that it is not a competitor of Gaussian, Inc. and that
 it will not use this program in any manner prohibited above.
 ---------------------------------------------------------------
  

 Cite this work as:
 Gaussian 09, Revision E.01,
 M. J. Frisch, G. W. Trucks, H. B. Schlegel, G. E. Scuseria, 
 M. A. Robb, J. R. Cheeseman, G. Scalmani, V. Barone, B. Mennucci, 
 G. A. Petersson, H. Nakatsuji, M. Caricato, X. Li, H. P. Hratchian, 
 A. F. Izmaylov, J. Bloino, G. Zheng, J. L. Sonnenberg, M. Hada, 
 M. Ehara, K. Toyota, R. Fukuda, J. Hasegawa, M. Ishida, T. Nakajima, 
 Y. Honda, O. Kitao, H. Nakai, T. Vreven, J. A. Montgomery, Jr., 
 J. E. Peralta, F. Ogliaro, M. Bearpark, J. J. Heyd, E. Brothers, 
 K. N. Kudin, V. N. Staroverov, T. Keith, R. Kobayashi, J. Normand, 
 K. Raghavachari, A. Rendell, J. C. Burant, S. S. Iyengar, J. Tomasi, 
 M. Cossi, N. Rega, J. M. Millam, M. Klene, J. E. Knox, J. B. Cross, 
 V. Bakken, C. Adamo, J. Jaramillo, R. Gomperts, R. E. Stratmann, 
 O. Yazyev, A. J. Austin, R. Cammi, C. Pomelli, J. W. Ochterski, 
 R. L. Martin, K. Morokuma, V. G. Zakrzewski, G. A. Voth, 
 P. Salvador, J. J. Dannenberg, S. Dapprich, A. D. Daniels, 
 O. Farkas, J. B. Foresman, J. V. Ortiz, J. Cioslowski, 
 and D. J. Fox, Gaussian, Inc., Wallingford CT, 2013.
 
 ******************************************
 Gaussian 09:  ES64L-G09RevE.01 30-Nov-2015
                28-Apr-2024 
 ******************************************
 %chk=m062x3HPA.chk
 ----------------------------
 # opt freq m062x/6-31+g(d,p)
 ----------------------------
 1/14=-1,18=20,19=15,26=3,38=1/1,3;
 2/9=110,12=2,17=6,18=5,40=1/2;
 3/5=1,6=6,7=111,11=2,16=1,25=1,30=1,71=1,74=-55/1,2,3;
 4//1;
 5/5=2,38=5/2;
 6/7=2,8=2,9=2,10=2,28=1/1;
 7//1,2,3,16;
 1/14=-1,18=20,19=15,26=3/3(2);
 2/9=110/2;
 99//99;
 2/9=110/2;
 3/5=1,6=6,7=111,11=2,16=1,25=1,30=1,71=1,74=-55/1,2,3;
 4/5=5,16=3,69=1/1;
 5/5=2,38=5/2;
 7//1,2,3,16;
 1/14=-1,18=20,19=15,26=3/3(-5);
 2/9=110/2;
 6/7=2,8=2,9=2,10=2,19=2,28=1/1;
 99/9=1/99;
 ----------
 [No Title]
 ----------
 Symbolic Z-matrix:
 Charge =  0 Multiplicity = 1
 N                    -0.44336  -1.45163   0.00001 
 C                    -1.76852  -1.47707   0.00002 
 C                    -2.55321  -0.3104    0.00001 
 C                    -1.93128   0.92416   0. 
 C                    -0.52709   0.97516  -0.00001 
 C                     0.1728   -0.25659   0. 
 C                     1.6482   -0.22488   0.00006 
 O                     2.29828   0.82405   0.00012 
 O                     2.24776  -1.41878  -0.0001 
 O                     0.07478   2.17028  -0.00007 
 H                    -2.23703  -2.45797   0.00003 
 H                    -3.6361   -0.38371   0.00002 
 H                    -2.48676   1.8554   -0.00001 
 H                     3.20294  -1.2372   -0.00009 
 H                     1.04855   1.99815  -0.00016 
 

 GradGradGradGradGradGradGradGradGradGradGradGradGradGradGradGradGradGrad
 Berny optimization.
 Initialization pass.
                           ----------------------------
                           !    Initial Parameters    !
                           ! (Angstroms and Degrees)  !
 --------------------------                            --------------------------
 ! Name  Definition              Value          Derivative Info.                !
 --------------------------------------------------------------------------------
 ! R1    R(1,2)                  1.3254         estimate D2E/DX2                !
 ! R2    R(1,6)                  1.3445         estimate D2E/DX2                !
 ! R3    R(2,3)                  1.406          estimate D2E/DX2                !
 ! R4    R(2,11)                 1.087          estimate D2E/DX2                !
 ! R5    R(3,4)                  1.3824         estimate D2E/DX2                !
 ! R6    R(3,12)                 1.0854         estimate D2E/DX2                !
 ! R7    R(4,5)                  1.4051         estimate D2E/DX2                !
 ! R8    R(4,13)                 1.0843         estimate D2E/DX2                !
 ! R9    R(5,6)                  1.4167         estimate D2E/DX2                !
 ! R10   R(5,10)                 1.3381         estimate D2E/DX2                !
 ! R11   R(6,7)                  1.4757         estimate D2E/DX2                !
 ! R12   R(7,8)                  1.234          estimate D2E/DX2                !
 ! R13   R(7,9)                  1.336          estimate D2E/DX2                !
 ! R14   R(9,14)                 0.9723         estimate D2E/DX2                !
 ! R15   R(10,15)                0.9889         estimate D2E/DX2                !
 ! A1    A(2,1,6)              118.3754         estimate D2E/DX2                !
 ! A2    A(1,2,3)              122.8242         estimate D2E/DX2                !
 ! A3    A(1,2,11)             116.6309         estimate D2E/DX2                !
 ! A4    A(3,2,11)             120.5449         estimate D2E/DX2                !
 ! A5    A(2,3,4)              119.3385         estimate D2E/DX2                !
 ! A6    A(2,3,12)             120.0511         estimate D2E/DX2                !
 ! A7    A(4,3,12)             120.6104         estimate D2E/DX2                !
 ! A8    A(3,4,5)              118.8174         estimate D2E/DX2                !
 ! A9    A(3,4,13)             122.4472         estimate D2E/DX2                !
 ! A10   A(5,4,13)             118.7355         estimate D2E/DX2                !
 ! A11   A(4,5,6)              117.5253         estimate D2E/DX2                !
 ! A12   A(4,5,10)             118.8102         estimate D2E/DX2                !
 ! A13   A(6,5,10)             123.6645         estimate D2E/DX2                !
 ! A14   A(1,6,5)              123.1193         estimate D2E/DX2                !
 ! A15   A(1,6,7)              118.5067         estimate D2E/DX2                !
 ! A16   A(5,6,7)              118.374          estimate D2E/DX2                !
 ! A17   A(6,7,8)              123.0203         estimate D2E/DX2                !
 ! A18   A(6,7,9)              115.4337         estimate D2E/DX2                !
 ! A19   A(8,7,9)              121.546          estimate D2E/DX2                !
 ! A20   A(7,9,14)             105.9013         estimate D2E/DX2                !
 ! A21   A(5,10,15)            106.7056         estimate D2E/DX2                !
 ! D1    D(6,1,2,3)             -0.0002         estimate D2E/DX2                !
 ! D2    D(6,1,2,11)          -179.9999         estimate D2E/DX2                !
 ! D3    D(2,1,6,5)             -0.0005         estimate D2E/DX2                !
 ! D4    D(2,1,6,7)            179.9972         estimate D2E/DX2                !
 ! D5    D(1,2,3,4)              0.0004         estimate D2E/DX2                !
 ! D6    D(1,2,3,12)          -179.9996         estimate D2E/DX2                !
 ! D7    D(11,2,3,4)          -179.9999         estimate D2E/DX2                !
 ! D8    D(11,2,3,12)            0.0001         estimate D2E/DX2                !
 ! D9    D(2,3,4,5)              0.0001         estimate D2E/DX2                !
 ! D10   D(2,3,4,13)           179.9997         estimate D2E/DX2                !
 ! D11   D(12,3,4,5)          -180.0            estimate D2E/DX2                !
 ! D12   D(12,3,4,13)           -0.0004         estimate D2E/DX2                !
 ! D13   D(3,4,5,6)             -0.0007         estimate D2E/DX2                !
 ! D14   D(3,4,5,10)           179.9978         estimate D2E/DX2                !
 ! D15   D(13,4,5,6)           179.9997         estimate D2E/DX2                !
 ! D16   D(13,4,5,10)           -0.0018         estimate D2E/DX2                !
 ! D17   D(4,5,6,1)              0.0009         estimate D2E/DX2                !
 ! D18   D(4,5,6,7)           -179.9968         estimate D2E/DX2                !
 ! D19   D(10,5,6,1)          -179.9975         estimate D2E/DX2                !
 ! D20   D(10,5,6,7)             0.0048         estimate D2E/DX2                !
 ! D21   D(4,5,10,15)         -179.9949         estimate D2E/DX2                !
 ! D22   D(6,5,10,15)            0.0035         estimate D2E/DX2                !
 ! D23   D(1,6,7,8)           -179.9964         estimate D2E/DX2                !
 ! D24   D(1,6,7,9)              0.0108         estimate D2E/DX2                !
 ! D25   D(5,6,7,8)              0.0013         estimate D2E/DX2                !
 ! D26   D(5,6,7,9)           -179.9914         estimate D2E/DX2                !
 ! D27   D(6,7,9,14)           179.9968         estimate D2E/DX2                !
 ! D28   D(8,7,9,14)             0.004          estimate D2E/DX2                !
 --------------------------------------------------------------------------------
 Trust Radius=3.00D-01 FncErr=1.00D-07 GrdErr=1.00D-06
 Number of steps in this run=     74 maximum allowed number of steps=    100.
 GradGradGradGradGradGradGradGradGradGradGradGradGradGradGradGradGradGrad

                          Input orientation:                          
 ---------------------------------------------------------------------
 Center     Atomic      Atomic             Coordinates (Angstroms)
 Number     Number       Type             X           Y           Z
 ---------------------------------------------------------------------
      1          7           0       -0.443356   -1.451626    0.000014
      2          6           0       -1.768517   -1.477073    0.000017
      3          6           0       -2.553208   -0.310399    0.000014
      4          6           0       -1.931284    0.924160    0.000000
      5          6           0       -0.527091    0.975162   -0.000013
      6          6           0        0.172796   -0.256591    0.000004
      7          6           0        1.648198   -0.224877    0.000064
      8          8           0        2.298278    0.824050    0.000124
      9          8           0        2.247759   -1.418782   -0.000104
     10          8           0        0.074778    2.170284   -0.000071
     11          1           0       -2.237028   -2.457970    0.000027
     12          1           0       -3.636101   -0.383714    0.000024
     13          1           0       -2.486758    1.855400   -0.000008
     14          1           0        3.202937   -1.237197   -0.000091
     15          1           0        1.048551    1.998153   -0.000155
 ---------------------------------------------------------------------
                    Distance matrix (angstroms):
                    1          2          3          4          5
     1  N    0.000000
     2  C    1.325405   0.000000
     3  C    2.398724   1.406011   0.000000
     4  C    2.803264   2.406743   1.382362   0.000000
     5  C    2.428232   2.748562   2.399545   1.405119   0.000000
     6  C    1.344527   2.293092   2.726535   2.412742   1.416706
     7  C    2.424770   3.638947   4.202276   3.759385   2.484346
     8  O    3.563041   4.672685   4.982358   4.230747   2.829407
     9  O    2.691315   4.016699   4.927250   4.791010   3.664800
    10  O    3.658783   4.086680   3.613876   2.361591   1.338119
    11  H    2.056693   1.087043   2.170721   3.395921   3.835398
    12  H    3.366609   2.164094   1.085372   2.148706   3.393006
    13  H    3.887404   3.408995   2.166818   1.084324   2.148282
    14  H    3.652593   4.977238   5.830280   5.570609   4.336778
    15  H    3.758558   4.473597   4.278093   3.167472   1.878605
                    6          7          8          9         10
     6  C    0.000000
     7  C    1.475743   0.000000
     8  O    2.384420   1.234039   0.000000
     9  O    2.378268   1.335995   2.243401   0.000000
    10  O    2.428854   2.865737   2.599288   4.195622   0.000000
    11  H    3.263943   4.481259   5.598273   4.603610   5.173508
    12  H    3.811018   5.286686   6.056034   5.974209   4.504834
    13  H    3.396135   4.628759   4.894921   5.756381   2.580817
    14  H    3.184861   1.855264   2.251032   0.972285   4.625614
    15  H    2.418846   2.302485   1.714741   3.621263   0.988870
                   11         12         13         14         15
    11  H    0.000000
    12  H    2.501988   0.000000
    13  H    4.320593   2.516867   0.000000
    14  H    5.575258   6.892088   6.475862   0.000000
    15  H    5.536430   5.255402   3.538190   3.887013   0.000000
 Stoichiometry    C6H5NO3
 Framework group  C1[X(C6H5NO3)]
 Deg. of freedom    39
 Full point group                 C1      NOp   1
 Largest Abelian subgroup         C1      NOp   1
 Largest concise Abelian subgroup C1      NOp   1
                         Standard orientation:                         
 ---------------------------------------------------------------------
 Center     Atomic      Atomic             Coordinates (Angstroms)
 Number     Number       Type             X           Y           Z
 ---------------------------------------------------------------------
      1          7           0        0.443356   -1.451626   -0.000014
      2          6           0        1.768517   -1.477073   -0.000017
      3          6           0        2.553208   -0.310399   -0.000014
      4          6           0        1.931284    0.924160    0.000000
      5          6           0        0.527091    0.975162    0.000013
      6          6           0       -0.172796   -0.256591   -0.000004
      7          6           0       -1.648198   -0.224877   -0.000064
      8          8           0       -2.298278    0.824050   -0.000124
      9          8           0       -2.247759   -1.418782    0.000104
     10          8           0       -0.074778    2.170284    0.000071
     11          1           0        2.237027   -2.457970   -0.000027
     12          1           0        3.636101   -0.383715   -0.000024
     13          1           0        2.486758    1.855400    0.000008
     14          1           0       -3.202937   -1.237196    0.000091
     15          1           0       -1.048551    1.998153    0.000155
 ---------------------------------------------------------------------
 Rotational constants (GHZ):      2.3663368      1.2606761      0.8224906
 Standard basis: 6-31+G(d,p) (6D, 7F)
 There are   215 symmetry adapted cartesian basis functions of A   symmetry.
 There are   215 symmetry adapted basis functions of A   symmetry.
   215 basis functions,   355 primitive gaussians,   215 cartesian basis functions
    36 alpha electrons       36 beta electrons
       nuclear repulsion energy       507.4244167356 Hartrees.
 NAtoms=   15 NActive=   15 NUniq=   15 SFac= 1.00D+00 NAtFMM=   60 NAOKFM=F Big=F
 Integral buffers will be    131072 words long.
 Raffenetti 2 integral format.
 Two-electron integral symmetry is turned on.
 One-electron integrals computed using PRISM.
 NBasis=   215 RedAO= T EigKep=  5.85D-06  NBF=   215
 NBsUse=   215 1.00D-06 EigRej= -1.00D+00 NBFU=   215
 ExpMin= 4.38D-02 ExpMax= 5.48D+03 ExpMxC= 8.25D+02 IAcc=2 IRadAn=         4 AccDes= 0.00D+00
 Harris functional with IExCor= 1009 and IRadAn=       4 diagonalized for initial guess.
 HarFok:  IExCor= 1009 AccDes= 0.00D+00 IRadAn=         4 IDoV= 1 UseB2=F ITyADJ=14
 ICtDFT=  3500011 ScaDFX=  1.000000  1.000000  1.000000  1.000000
 FoFCou: FMM=F IPFlag=           0 FMFlag=      100000 FMFlg1=           0
         NFxFlg=           0 DoJE=T BraDBF=F KetDBF=T FulRan=T
         wScrn=  0.000000 ICntrl=     500 IOpCl=  0 I1Cent=   200000004 NGrid=           0
         NMat0=    1 NMatS0=      1 NMatT0=    0 NMatD0=    1 NMtDS0=    0 NMtDT0=    0
 Petite list used in FoFCou.
 Keep R1 ints in memory in canonical form, NReq=274797245.
 Requested convergence on RMS density matrix=1.00D-08 within 128 cycles.
 Requested convergence on MAX density matrix=1.00D-06.
 Requested convergence on             energy=1.00D-06.
 No special actions if energy rises.
 SCF Done:  E(RM062X) =  -511.914496920     A.U. after   15 cycles
            NFock= 15  Conv=0.75D-08     -V/T= 2.0084

 **********************************************************************

            Population analysis using the SCF density.

 **********************************************************************

 Orbital symmetries:
       Occupied  (A) (A) (A) (A) (A) (A) (A) (A) (A) (A) (A) (A)
                 (A) (A) (A) (A) (A) (A) (A) (A) (A) (A) (A) (A)
                 (A) (A) (A) (A) (A) (A) (A) (A) (A) (A) (A) (A)
       Virtual   (A) (A) (A) (A) (A) (A) (A) (A) (A) (A) (A) (A)
                 (A) (A) (A) (A) (A) (A) (A) (A) (A) (A) (A) (A)
                 (A) (A) (A) (A) (A) (A) (A) (A) (A) (A) (A) (A)
                 (A) (A) (A) (A) (A) (A) (A) (A) (A) (A) (A) (A)
                 (A) (A) (A) (A) (A) (A) (A) (A) (A) (A) (A) (A)
                 (A) (A) (A) (A) (A) (A) (A) (A) (A) (A) (A) (A)
                 (A) (A) (A) (A) (A) (A) (A) (A) (A) (A) (A) (A)
                 (A) (A) (A) (A) (A) (A) (A) (A) (A) (A) (A) (A)
                 (A) (A) (A) (A) (A) (A) (A) (A) (A) (A) (A) (A)
                 (A) (A) (A) (A) (A) (A) (A) (A) (A) (A) (A) (A)
                 (A) (A) (A) (A) (A) (A) (A) (A) (A) (A) (A) (A)
                 (A) (A) (A) (A) (A) (A) (A) (A) (A) (A) (A) (A)
                 (A) (A) (A) (A) (A) (A) (A) (A) (A) (A) (A) (A)
                 (A) (A) (A) (A) (A) (A) (A) (A) (A) (A) (A) (A)
                 (A) (A) (A) (A) (A) (A) (A) (A) (A) (A) (A)
 The electronic state is 1-A.
 Alpha  occ. eigenvalues --  -19.71398 -19.68482 -19.67047 -14.78878 -10.71902
 Alpha  occ. eigenvalues --  -10.65063 -10.61450 -10.59945 -10.58778 -10.58459
 Alpha  occ. eigenvalues --   -1.26327  -1.20735  -1.16088  -1.07527  -0.92248
 Alpha  occ. eigenvalues --   -0.88898  -0.79000  -0.73435  -0.72101  -0.64031
 Alpha  occ. eigenvalues --   -0.63254  -0.60738  -0.57653  -0.56520  -0.55627
 Alpha  occ. eigenvalues --   -0.51214  -0.50684  -0.49363  -0.48149  -0.47015
 Alpha  occ. eigenvalues --   -0.45589  -0.41799  -0.39158  -0.35824  -0.34094
 Alpha  occ. eigenvalues --   -0.30669
 Alpha virt. eigenvalues --   -0.04495   0.00515   0.00768   0.01593   0.03244
 Alpha virt. eigenvalues --    0.03796   0.04841   0.05277   0.06017   0.06548
 Alpha virt. eigenvalues --    0.07761   0.08072   0.09032   0.09377   0.10636
 Alpha virt. eigenvalues --    0.11908   0.12951   0.13791   0.14268   0.15023
 Alpha virt. eigenvalues --    0.15181   0.17058   0.18084   0.18404   0.19216
 Alpha virt. eigenvalues --    0.20384   0.20809   0.20992   0.22560   0.22847
 Alpha virt. eigenvalues --    0.24493   0.24935   0.25601   0.25919   0.26612
 Alpha virt. eigenvalues --    0.27629   0.28195   0.29210   0.29453   0.30640
 Alpha virt. eigenvalues --    0.30787   0.31090   0.31471   0.32468   0.34700
 Alpha virt. eigenvalues --    0.35025   0.35704   0.36640   0.37557   0.38945
 Alpha virt. eigenvalues --    0.40586   0.41840   0.43801   0.44812   0.47792
 Alpha virt. eigenvalues --    0.49765   0.55111   0.63945   0.66906   0.69304
 Alpha virt. eigenvalues --    0.69429   0.72335   0.74855   0.75913   0.76420
 Alpha virt. eigenvalues --    0.76471   0.78337   0.79992   0.84473   0.86769
 Alpha virt. eigenvalues --    0.89997   0.93527   0.94321   0.98209   1.00089
 Alpha virt. eigenvalues --    1.02153   1.06228   1.06884   1.08344   1.11715
 Alpha virt. eigenvalues --    1.12334   1.14189   1.15428   1.17351   1.21093
 Alpha virt. eigenvalues --    1.21268   1.23021   1.25327   1.25721   1.26691
 Alpha virt. eigenvalues --    1.27698   1.30459   1.32170   1.34382   1.35232
 Alpha virt. eigenvalues --    1.36524   1.37433   1.38483   1.41947   1.43234
 Alpha virt. eigenvalues --    1.43845   1.45992   1.46045   1.47367   1.50847
 Alpha virt. eigenvalues --    1.51660   1.59878   1.61308   1.63256   1.66355
 Alpha virt. eigenvalues --    1.69019   1.77962   1.78819   1.79840   1.82721
 Alpha virt. eigenvalues --    1.86091   1.87554   1.90418   1.92350   1.93841
 Alpha virt. eigenvalues --    1.95413   1.98983   2.00935   2.02622   2.03663
 Alpha virt. eigenvalues --    2.05961   2.08261   2.12900   2.18491   2.22111
 Alpha virt. eigenvalues --    2.30086   2.30232   2.31952   2.36997   2.37951
 Alpha virt. eigenvalues --    2.37995   2.40747   2.44691   2.47335   2.51227
 Alpha virt. eigenvalues --    2.51402   2.52706   2.55538   2.56209   2.56543
 Alpha virt. eigenvalues --    2.59920   2.63509   2.66514   2.68603   2.68663
 Alpha virt. eigenvalues --    2.73093   2.76648   2.78088   2.80085   2.85848
 Alpha virt. eigenvalues --    2.90981   2.97058   3.05941   3.09471   3.11691
 Alpha virt. eigenvalues --    3.20119   3.20459   3.25485   3.32803   3.38353
 Alpha virt. eigenvalues --    3.41647   3.54194   3.59826   3.80405   4.17972
 Alpha virt. eigenvalues --    4.28771   4.33912   4.35654   4.39030   4.49499
 Alpha virt. eigenvalues --    4.60151   4.72269   4.85717   4.87952
          Condensed to atoms (all electrons):
               1          2          3          4          5          6
     1  N    6.858261  -0.082918   0.235399  -0.152992   0.183077   0.406375
     2  C   -0.082918   6.343304  -0.427361   0.403697  -0.644161  -0.084687
     3  C    0.235399  -0.427361   5.943380  -0.879047   1.747576  -0.750084
     4  C   -0.152992   0.403697  -0.879047  10.523625  -4.949918   1.221324
     5  C    0.183077  -0.644161   1.747576  -4.949918  13.964171  -4.005090
     6  C    0.406375  -0.084687  -0.750084   1.221324  -4.005090   9.453666
     7  C   -0.262257   0.256176  -0.190232  -0.027750  -0.893823   0.164626
     8  O    0.014065  -0.015677   0.015454   0.010822   0.090608  -0.264625
     9  O    0.049715  -0.022023   0.012733   0.003756   0.136988  -0.240862
    10  O    0.004776  -0.017076   0.027262  -0.531253   0.349202   0.161791
    11  H   -0.098564   0.455232  -0.105239   0.029237  -0.036048   0.033535
    12  H    0.002517   0.035245   0.268331   0.037825  -0.018765   0.002069
    13  H    0.001718  -0.023831   0.040977   0.209781   0.102048  -0.004709
    14  H    0.002625   0.004106  -0.002252   0.008169  -0.028685   0.013135
    15  H   -0.001138   0.002983  -0.009376   0.156173  -0.044258  -0.086778
               7          8          9         10         11         12
     1  N   -0.262257   0.014065   0.049715   0.004776  -0.098564   0.002517
     2  C    0.256176  -0.015677  -0.022023  -0.017076   0.455232   0.035245
     3  C   -0.190232   0.015454   0.012733   0.027262  -0.105239   0.268331
     4  C   -0.027750   0.010822   0.003756  -0.531253   0.029237   0.037825
     5  C   -0.893823   0.090608   0.136988   0.349202  -0.036048  -0.018765
     6  C    0.164626  -0.264625  -0.240862   0.161791   0.033535   0.002069
     7  C    5.803281   0.418849   0.209257  -0.042635   0.017946   0.000748
     8  O    0.418849   8.427576  -0.160233  -0.032092   0.000004   0.000004
     9  O    0.209257  -0.160233   8.259573  -0.003082  -0.000424  -0.000004
    10  O   -0.042635  -0.032092  -0.003082   8.448398   0.000142  -0.000567
    11  H    0.017946   0.000004  -0.000424   0.000142   0.548876  -0.001828
    12  H    0.000748   0.000004  -0.000004  -0.000567  -0.001828   0.505687
    13  H    0.003226   0.000088   0.000019  -0.006190  -0.000103  -0.003690
    14  H    0.037919   0.000027   0.196554   0.000167  -0.000001   0.000000
    15  H   -0.006579   0.048338   0.003415   0.193205  -0.000000   0.000003
              13         14         15
     1  N    0.001718   0.002625  -0.001138
     2  C   -0.023831   0.004106   0.002983
     3  C    0.040977  -0.002252  -0.009376
     4  C    0.209781   0.008169   0.156173
     5  C    0.102048  -0.028685  -0.044258
     6  C   -0.004709   0.013135  -0.086778
     7  C    0.003226   0.037919  -0.006579
     8  O    0.000088   0.000027   0.048338
     9  O    0.000019   0.196554   0.003415
    10  O   -0.006190   0.000167   0.193205
    11  H   -0.000103  -0.000001  -0.000000
    12  H   -0.003690   0.000000   0.000003
    13  H    0.497956  -0.000000   0.000047
    14  H   -0.000000   0.367721   0.000018
    15  H    0.000047   0.000018   0.310132
 Mulliken charges:
               1
     1  N   -0.160659
     2  C   -0.183010
     3  C    0.072479
     4  C   -0.063448
     5  C    0.047079
     6  C   -0.019688
     7  C    0.511249
     8  O   -0.553208
     9  O   -0.445381
    10  O   -0.552046
    11  H    0.157234
    12  H    0.172425
    13  H    0.182664
    14  H    0.400496
    15  H    0.433815
 Sum of Mulliken charges =  -0.00000
 Mulliken charges with hydrogens summed into heavy atoms:
               1
     1  N   -0.160659
     2  C   -0.025776
     3  C    0.244903
     4  C    0.119217
     5  C    0.047079
     6  C   -0.019688
     7  C    0.511249
     8  O   -0.553208
     9  O   -0.044886
    10  O   -0.118231
 Electronic spatial extent (au):  <R**2>=           1310.0596
 Charge=             -0.0000 electrons
 Dipole moment (field-independent basis, Debye):
    X=              1.2513    Y=             -0.4738    Z=              0.0002  Tot=              1.3379
 Quadrupole moment (field-independent basis, Debye-Ang):
   XX=            -43.2068   YY=            -62.7916   ZZ=            -58.5908
   XY=              2.2347   XZ=             -0.0008   YZ=              0.0007
 Traceless Quadrupole moment (field-independent basis, Debye-Ang):
   XX=             11.6563   YY=             -7.9285   ZZ=             -3.7277
   XY=              2.2347   XZ=             -0.0008   YZ=              0.0007
 Octapole moment (field-independent basis, Debye-Ang**2):
  XXX=            -17.5471  YYY=              2.1137  ZZZ=              0.0003  XYY=              1.3687
  XXY=            -17.9215  XXZ=              0.0022  XZZ=            -10.8361  YZZ=              1.7313
  YYZ=              0.0006  XYZ=             -0.0014
 Hexadecapole moment (field-independent basis, Debye-Ang**3):
 XXXX=           -852.1415 YYYY=           -596.0107 ZZZZ=            -59.9037 XXXY=             74.1043
 XXXZ=             -0.0085 YYYX=            -17.2025 YYYZ=              0.0009 ZZZX=             -0.0002
 ZZZY=             -0.0000 XXYY=           -233.9543 XXZZ=           -195.6811 YYZZ=           -109.7365
 XXYZ=              0.0019 YYXZ=             -0.0025 ZZXY=              2.5515
 N-N= 5.074244167356D+02 E-N=-2.210258218486D+03  KE= 5.076359839909D+02
 Calling FoFJK, ICntrl=      2127 FMM=F ISym2X=0 I1Cent= 0 IOpClX= 0 NMat=1 NMatS=1 NMatT=0.
 ***** Axes restored to original set *****
 -------------------------------------------------------------------
 Center     Atomic                   Forces (Hartrees/Bohr)
 Number     Number              X              Y              Z
 -------------------------------------------------------------------
      1        7          -0.001253819    0.003855037    0.000000905
      2        6           0.003410727    0.000448162   -0.000000737
      3        6           0.002055575    0.001771478    0.000000677
      4        6           0.001207751   -0.002077577   -0.000000407
      5        6           0.000300661   -0.002902579   -0.000002449
      6        6          -0.007830102    0.001673086    0.000007423
      7        6           0.010457531    0.001325504   -0.000019400
      8        8          -0.006347565   -0.011114893    0.000002396
      9        8          -0.000954100    0.009128278    0.000008050
     10        8           0.002848798   -0.004971605   -0.000002378
     11        1           0.000693874    0.000301615   -0.000000161
     12        1           0.000250491   -0.000094942    0.000000029
     13        1          -0.000036692    0.000339259   -0.000000112
     14        1          -0.001489986   -0.001794106   -0.000000151
     15        1          -0.003313144    0.004113282    0.000006317
 -------------------------------------------------------------------
 Cartesian Forces:  Max     0.011114893 RMS     0.003464565

 GradGradGradGradGradGradGradGradGradGradGradGradGradGradGradGradGradGrad
 Berny optimization.
 FormGI is forming the generalized inverse of G from B-inverse, IUseBI=4.
 Internal  Forces:  Max     0.012793737 RMS     0.002602261
 Search for a local minimum.
 Step number   1 out of a maximum of   74
 All quantities printed in internal units (Hartrees-Bohrs-Radians)
 Mixed Optimization -- RFO/linear search
 Second derivative matrix not updated -- first step.
 ITU=  0
     Eigenvalues ---    0.01087   0.01560   0.01725   0.01959   0.02079
     Eigenvalues ---    0.02121   0.02160   0.02189   0.02253   0.02448
     Eigenvalues ---    0.02510   0.02538   0.16000   0.16000   0.16000
     Eigenvalues ---    0.16000   0.16000   0.22081   0.23318   0.24912
     Eigenvalues ---    0.25000   0.25000   0.25000   0.25000   0.35062
     Eigenvalues ---    0.35157   0.35353   0.35477   0.40521   0.43373
     Eigenvalues ---    0.44068   0.47351   0.49700   0.52913   0.54735
     Eigenvalues ---    0.57629   0.58112   0.58971   0.89424
 RFO step:  Lambda=-1.02222248D-03 EMin= 1.08682355D-02
 Linear search not attempted -- first point.
 Iteration  1 RMS(Cart)=  0.02350565 RMS(Int)=  0.00040026
 Iteration  2 RMS(Cart)=  0.00039168 RMS(Int)=  0.00000106
 Iteration  3 RMS(Cart)=  0.00000008 RMS(Int)=  0.00000106
 Variable       Old X    -DE/DX   Delta X   Delta X   Delta X     New X
                                 (Linear)    (Quad)   (Total)
    R1        2.50465  -0.00513   0.00000  -0.00863  -0.00863   2.49603
    R2        2.54079  -0.00499   0.00000  -0.00914  -0.00914   2.53165
    R3        2.65698  -0.00140   0.00000  -0.00304  -0.00304   2.65393
    R4        2.05421  -0.00057   0.00000  -0.00162  -0.00162   2.05259
    R5        2.61229  -0.00296   0.00000  -0.00576  -0.00576   2.60653
    R6        2.05106  -0.00024   0.00000  -0.00069  -0.00069   2.05037
    R7        2.65529  -0.00248   0.00000  -0.00527  -0.00527   2.65002
    R8        2.04908   0.00031   0.00000   0.00087   0.00087   2.04995
    R9        2.67719  -0.00358   0.00000  -0.00844  -0.00844   2.66875
   R10        2.52868  -0.00098   0.00000  -0.00169  -0.00169   2.52699
   R11        2.78875   0.00161   0.00000   0.00458   0.00458   2.79333
   R12        2.33200  -0.01279   0.00000  -0.01429  -0.01429   2.31770
   R13        2.52466  -0.00765   0.00000  -0.01313  -0.01313   2.51153
   R14        1.83735  -0.00180   0.00000  -0.00340  -0.00340   1.83395
   R15        1.86869  -0.00398   0.00000  -0.00798  -0.00798   1.86071
    A1        2.06604   0.00073   0.00000   0.00144   0.00144   2.06748
    A2        2.14369  -0.00042   0.00000  -0.00210  -0.00210   2.14159
    A3        2.03559  -0.00029   0.00000  -0.00209  -0.00209   2.03350
    A4        2.10391   0.00072   0.00000   0.00419   0.00419   2.10809
    A5        2.08285  -0.00030   0.00000  -0.00027  -0.00027   2.08258
    A6        2.09529   0.00004   0.00000  -0.00055  -0.00055   2.09474
    A7        2.10505   0.00026   0.00000   0.00082   0.00082   2.10587
    A8        2.07375  -0.00015   0.00000   0.00072   0.00072   2.07448
    A9        2.13711   0.00022   0.00000   0.00057   0.00057   2.13767
   A10        2.07232  -0.00008   0.00000  -0.00129  -0.00129   2.07104
   A11        2.05120  -0.00071   0.00000  -0.00246  -0.00246   2.04875
   A12        2.07363  -0.00292   0.00000  -0.01181  -0.01181   2.06182
   A13        2.15835   0.00363   0.00000   0.01427   0.01427   2.17262
   A14        2.14884   0.00085   0.00000   0.00266   0.00266   2.15150
   A15        2.06833  -0.00443   0.00000  -0.01730  -0.01730   2.05103
   A16        2.06602   0.00359   0.00000   0.01464   0.01464   2.08066
   A17        2.14711   0.00070   0.00000   0.00281   0.00281   2.14991
   A18        2.01470  -0.00033   0.00000  -0.00132  -0.00132   2.01338
   A19        2.12138  -0.00037   0.00000  -0.00149  -0.00149   2.11989
   A20        1.84833   0.00273   0.00000   0.01698   0.01698   1.86531
   A21        1.86236   0.00649   0.00000   0.04030   0.04030   1.90266
    D1       -0.00000  -0.00000   0.00000   0.00001   0.00001   0.00000
    D2       -3.14159  -0.00000   0.00000  -0.00001  -0.00001   3.14159
    D3       -0.00001   0.00000   0.00000   0.00003   0.00003   0.00002
    D4        3.14154   0.00000   0.00000   0.00014   0.00014  -3.14150
    D5        0.00001  -0.00000   0.00000  -0.00002  -0.00002  -0.00001
    D6       -3.14158  -0.00000   0.00000  -0.00001  -0.00001  -3.14159
    D7       -3.14159  -0.00000   0.00000  -0.00000  -0.00000   3.14159
    D8        0.00000   0.00000   0.00000   0.00001   0.00001   0.00001
    D9        0.00000  -0.00000   0.00000  -0.00000  -0.00001  -0.00000
   D10        3.14159   0.00000   0.00000   0.00003   0.00003  -3.14156
   D11       -3.14159  -0.00000   0.00000  -0.00002  -0.00002   3.14157
   D12       -0.00001   0.00000   0.00000   0.00002   0.00002   0.00001
   D13       -0.00001   0.00000   0.00000   0.00004   0.00004   0.00003
   D14        3.14155   0.00000   0.00000   0.00011   0.00011  -3.14152
   D15        3.14159  -0.00000   0.00000   0.00000   0.00000   3.14159
   D16       -0.00003   0.00000   0.00000   0.00007   0.00007   0.00004
   D17        0.00002  -0.00000   0.00000  -0.00005  -0.00005  -0.00004
   D18       -3.14154  -0.00000   0.00000  -0.00016  -0.00016   3.14148
   D19       -3.14155  -0.00000   0.00000  -0.00013  -0.00013   3.14151
   D20        0.00008  -0.00000   0.00000  -0.00024  -0.00024  -0.00016
   D21       -3.14150  -0.00001   0.00000  -0.00025  -0.00025   3.14144
   D22        0.00006  -0.00000   0.00000  -0.00017  -0.00017  -0.00011
   D23       -3.14153   0.00000   0.00000  -0.00004  -0.00004  -3.14157
   D24        0.00019  -0.00001   0.00000  -0.00048  -0.00048  -0.00029
   D25        0.00002   0.00000   0.00000   0.00007   0.00007   0.00009
   D26       -3.14144  -0.00001   0.00000  -0.00037  -0.00037   3.14137
   D27        3.14154   0.00000   0.00000   0.00022   0.00022  -3.14143
   D28        0.00007  -0.00000   0.00000  -0.00021  -0.00021  -0.00014
         Item               Value     Threshold  Converged?
 Maximum Force            0.012794     0.000450     NO 
 RMS     Force            0.002602     0.000300     NO 
 Maximum Displacement     0.129440     0.001800     NO 
 RMS     Displacement     0.023551     0.001200     NO 
 Predicted change in Energy=-5.129593D-04
 GradGradGradGradGradGradGradGradGradGradGradGradGradGradGradGradGradGrad

                          Input orientation:                          
 ---------------------------------------------------------------------
 Center     Atomic      Atomic             Coordinates (Angstroms)
 Number     Number       Type             X           Y           Z
 ---------------------------------------------------------------------
      1          7           0       -0.436121   -1.441326   -0.000006
      2          6           0       -1.756531   -1.474988    0.000023
      3          6           0       -2.545200   -0.312945    0.000006
      4          6           0       -1.929478    0.921315   -0.000028
      5          6           0       -0.528325    0.978716   -0.000040
      6          6           0        0.172037   -0.247628   -0.000049
      7          6           0        1.650142   -0.234271   -0.000201
      8          8           0        2.312072    0.798247   -0.000227
      9          8           0        2.230173   -1.430066    0.000066
     10          8           0        0.053413    2.182773    0.000011
     11          1           0       -2.216444   -2.458998    0.000053
     12          1           0       -3.627371   -0.391364    0.000033
     13          1           0       -2.488308    1.851085   -0.000017
     14          1           0        3.188707   -1.278219    0.000079
     15          1           0        1.031187    2.066650    0.000141
 ---------------------------------------------------------------------
                    Distance matrix (angstroms):
                    1          2          3          4          5
     1  N    0.000000
     2  C    1.320840   0.000000
     3  C    2.391957   1.404400   0.000000
     4  C    2.795029   2.402536   1.379316   0.000000
     5  C    2.421798   2.743931   2.395031   1.402328   0.000000
     6  C    1.339690   2.285998   2.718021   2.404743   1.412242
     7  C    2.410285   3.625576   4.196079   3.761523   2.493402
     8  O    3.545173   4.660594   4.982754   4.243335   2.846125
     9  O    2.666317   3.986957   4.904298   4.778251   3.662177
    10  O    3.657012   4.081068   3.602971   2.350135   1.337225
    11  H    2.050660   1.086184   2.171088   3.392472   3.829834
    12  H    3.359538   2.162008   1.085009   2.146152   3.388393
    13  H    3.879619   3.405622   2.164778   1.084787   2.145358
    14  H    3.628495   4.949152   5.814588   5.570796   4.348573
    15  H    3.802484   4.507169   4.295697   3.174481   1.901493
                    6          7          8          9         10
     6  C    0.000000
     7  C    1.478166   0.000000
     8  O    2.381934   1.226477   0.000000
     9  O    2.373622   1.329045   2.229817   0.000000
    10  O    2.433295   2.896833   2.649236   4.217924   0.000000
    11  H    3.254996   4.460930   5.578271   4.564110   5.167039
    12  H    3.802125   5.279850   6.057405   5.948926   4.491587
    13  H    3.388514   4.634164   4.914480   5.747174   2.563272
    14  H    3.187855   1.859304   2.253930   0.970487   4.669961
    15  H    2.468607   2.382717   1.802640   3.696564   0.984645
                   11         12         13         14         15
    11  H    0.000000
    12  H    2.503163   0.000000
    13  H    4.318649   2.515163   0.000000
    14  H    5.532621   6.873531   6.482364   0.000000
    15  H    5.570332   5.267257   3.526090   3.980332   0.000000
 Stoichiometry    C6H5NO3
 Framework group  C1[X(C6H5NO3)]
 Deg. of freedom    39
 Full point group                 C1      NOp   1
 Largest Abelian subgroup         C1      NOp   1
 Largest concise Abelian subgroup C1      NOp   1
                         Standard orientation:                         
 ---------------------------------------------------------------------
 Center     Atomic      Atomic             Coordinates (Angstroms)
 Number     Number       Type             X           Y           Z
 ---------------------------------------------------------------------
      1          7           0        0.420073   -1.444444   -0.000031
      2          6           0        1.740039   -1.492492   -0.000061
      3          6           0        2.541323   -0.339112   -0.000043
      4          6           0        1.939087    0.901784   -0.000009
      5          6           0        0.538643    0.974451    0.000002
      6          6           0       -0.175040   -0.244190    0.000012
      7          6           0       -1.652912   -0.214726    0.000164
      8          8           0       -2.303552    0.824943    0.000190
      9          8           0       -2.245939   -1.404129   -0.000103
     10          8           0       -0.029940    2.184775   -0.000049
     11          1           0        2.189201   -2.481455   -0.000090
     12          1           0        3.622575   -0.429318   -0.000070
     13          1           0        2.508015    1.825410   -0.000020
     14          1           0       -3.202762   -1.241847   -0.000117
     15          1           0       -1.008921    2.079313   -0.000179
 ---------------------------------------------------------------------
 Rotational constants (GHZ):      2.3596431      1.2657486      0.8238324
 Standard basis: 6-31+G(d,p) (6D, 7F)
 There are   215 symmetry adapted cartesian basis functions of A   symmetry.
 There are   215 symmetry adapted basis functions of A   symmetry.
   215 basis functions,   355 primitive gaussians,   215 cartesian basis functions
    36 alpha electrons       36 beta electrons
       nuclear repulsion energy       507.9174551188 Hartrees.
 NAtoms=   15 NActive=   15 NUniq=   15 SFac= 1.00D+00 NAtFMM=   60 NAOKFM=F Big=F
 Integral buffers will be    131072 words long.
 Raffenetti 2 integral format.
 Two-electron integral symmetry is turned on.
 One-electron integrals computed using PRISM.
 NBasis=   215 RedAO= T EigKep=  5.66D-06  NBF=   215
 NBsUse=   215 1.00D-06 EigRej= -1.00D+00 NBFU=   215
 Initial guess from the checkpoint file:  "m062x3HPA.chk"
 B after Tr=    -0.000000   -0.000000   -0.000000
         Rot=    0.999988   -0.000010   -0.000011    0.004820 Ang=  -0.55 deg.
 ExpMin= 4.38D-02 ExpMax= 5.48D+03 ExpMxC= 8.25D+02 IAcc=2 IRadAn=         4 AccDes= 0.00D+00
 Harris functional with IExCor= 1009 and IRadAn=       4 diagonalized for initial guess.
 HarFok:  IExCor= 1009 AccDes= 0.00D+00 IRadAn=         4 IDoV= 1 UseB2=F ITyADJ=14
 ICtDFT=  3500011 ScaDFX=  1.000000  1.000000  1.000000  1.000000
 FoFCou: FMM=F IPFlag=           0 FMFlag=      100000 FMFlg1=           0
         NFxFlg=           0 DoJE=T BraDBF=F KetDBF=T FulRan=T
         wScrn=  0.000000 ICntrl=     500 IOpCl=  0 I1Cent=   200000004 NGrid=           0
         NMat0=    1 NMatS0=      1 NMatT0=    0 NMatD0=    1 NMtDS0=    0 NMtDT0=    0
 Petite list used in FoFCou.
 Keep R1 ints in memory in canonical form, NReq=274797245.
 Requested convergence on RMS density matrix=1.00D-08 within 128 cycles.
 Requested convergence on MAX density matrix=1.00D-06.
 Requested convergence on             energy=1.00D-06.
 No special actions if energy rises.
 SCF Done:  E(RM062X) =  -511.914933383     A.U. after   13 cycles
            NFock= 13  Conv=0.60D-08     -V/T= 2.0082
 Calling FoFJK, ICntrl=      2127 FMM=F ISym2X=0 I1Cent= 0 IOpClX= 0 NMat=1 NMatS=1 NMatT=0.
 ***** Axes restored to original set *****
 -------------------------------------------------------------------
 Center     Atomic                   Forces (Hartrees/Bohr)
 Number     Number              X              Y              Z
 -------------------------------------------------------------------
      1        7          -0.000191318    0.000729749   -0.000003514
      2        6          -0.000678660   -0.000522032    0.000001507
      3        6          -0.000605568   -0.000359992   -0.000000263
      4        6           0.000269062    0.000524055    0.000002095
      5        6           0.001295730   -0.002751372    0.000003962
      6        6          -0.002228102    0.001159263   -0.000016678
      7        6           0.005983981    0.002619376    0.000047340
      8        8          -0.002803005   -0.000727685   -0.000012338
      9        8          -0.000664739   -0.000156252   -0.000014761
     10        8           0.005554845    0.000043491    0.000002594
     11        1          -0.000198204   -0.000053470    0.000000610
     12        1          -0.000039988   -0.000030310   -0.000000787
     13        1           0.000065528    0.000062059   -0.000000391
     14        1          -0.000690629   -0.000024871   -0.000000559
     15        1          -0.005068930   -0.000512009   -0.000008818
 -------------------------------------------------------------------
 Cartesian Forces:  Max     0.005983981 RMS     0.001677117

 GradGradGradGradGradGradGradGradGradGradGradGradGradGradGradGradGradGrad
 Berny optimization.
 Using GEDIIS/GDIIS optimizer.
 FormGI is forming the generalized inverse of G from B-inverse, IUseBI=4.
 Internal  Forces:  Max     0.004975277 RMS     0.001199812
 Search for a local minimum.
 Step number   2 out of a maximum of   74
 All quantities printed in internal units (Hartrees-Bohrs-Radians)
 Mixed Optimization -- RFO/linear search
 Update second derivatives using D2CorX and points    1    2
 DE= -4.36D-04 DEPred=-5.13D-04 R= 8.51D-01
 TightC=F SS=  1.41D+00  RLast= 6.00D-02 DXNew= 5.0454D-01 1.8015D-01
 Trust test= 8.51D-01 RLast= 6.00D-02 DXMaxT set to 3.00D-01
 ITU=  1  0
 Use linear search instead of GDIIS.
     Eigenvalues ---    0.01087   0.01559   0.01724   0.01959   0.02078
     Eigenvalues ---    0.02121   0.02160   0.02189   0.02253   0.02448
     Eigenvalues ---    0.02510   0.02538   0.15618   0.16000   0.16000
     Eigenvalues ---    0.16000   0.16353   0.22075   0.23305   0.24305
     Eigenvalues ---    0.24914   0.25000   0.25000   0.31942   0.34908
     Eigenvalues ---    0.35317   0.35431   0.35560   0.38664   0.42920
     Eigenvalues ---    0.43826   0.46737   0.47557   0.52862   0.55922
     Eigenvalues ---    0.57617   0.58259   0.62810   0.85169
 RFO step:  Lambda=-2.01223884D-04 EMin= 1.08682721D-02
 Quartic linear search produced a step of -0.12559.
 Iteration  1 RMS(Cart)=  0.00893276 RMS(Int)=  0.00002940
 Iteration  2 RMS(Cart)=  0.00003206 RMS(Int)=  0.00000077
 Iteration  3 RMS(Cart)=  0.00000000 RMS(Int)=  0.00000077
 Variable       Old X    -DE/DX   Delta X   Delta X   Delta X     New X
                                 (Linear)    (Quad)   (Total)
    R1        2.49603   0.00110   0.00108  -0.00107   0.00001   2.49603
    R2        2.53165   0.00030   0.00115  -0.00259  -0.00144   2.53021
    R3        2.65393   0.00026   0.00038  -0.00019   0.00020   2.65413
    R4        2.05259   0.00013   0.00020  -0.00019   0.00001   2.05260
    R5        2.60653   0.00069   0.00072  -0.00049   0.00023   2.60676
    R6        2.05037   0.00004   0.00009  -0.00012  -0.00003   2.05034
    R7        2.65002   0.00010   0.00066  -0.00167  -0.00101   2.64901
    R8        2.04995   0.00002  -0.00011   0.00033   0.00022   2.05017
    R9        2.66875  -0.00361   0.00106  -0.01036  -0.00930   2.65945
   R10        2.52699  -0.00021   0.00021  -0.00086  -0.00065   2.52634
   R11        2.79333   0.00184  -0.00057   0.00607   0.00549   2.79882
   R12        2.31770  -0.00212   0.00179  -0.00669  -0.00489   2.31281
   R13        2.51153  -0.00043   0.00165  -0.00489  -0.00324   2.50830
   R14        1.83395  -0.00068   0.00043  -0.00223  -0.00180   1.83216
   R15        1.86071  -0.00498   0.00100  -0.01132  -0.01032   1.85039
    A1        2.06748   0.00013  -0.00018   0.00110   0.00092   2.06840
    A2        2.14159  -0.00045   0.00026  -0.00152  -0.00126   2.14033
    A3        2.03350   0.00038   0.00026   0.00061   0.00088   2.03438
    A4        2.10809   0.00007  -0.00053   0.00090   0.00038   2.10847
    A5        2.08258  -0.00052   0.00003  -0.00124  -0.00120   2.08138
    A6        2.09474   0.00023   0.00007   0.00023   0.00030   2.09504
    A7        2.10587   0.00029  -0.00010   0.00101   0.00090   2.10677
    A8        2.07448  -0.00025  -0.00009  -0.00075  -0.00084   2.07363
    A9        2.13767   0.00021  -0.00007   0.00115   0.00108   2.13875
   A10        2.07104   0.00004   0.00016  -0.00040  -0.00024   2.07080
   A11        2.04875   0.00108   0.00031   0.00222   0.00253   2.05127
   A12        2.06182   0.00129   0.00148   0.00110   0.00258   2.06440
   A13        2.17262  -0.00237  -0.00179  -0.00332  -0.00511   2.16751
   A14        2.15150  -0.00000  -0.00033   0.00019  -0.00014   2.15136
   A15        2.05103   0.00312   0.00217   0.00566   0.00783   2.05886
   A16        2.08066  -0.00312  -0.00184  -0.00585  -0.00769   2.07297
   A17        2.14991  -0.00201  -0.00035  -0.00613  -0.00648   2.14343
   A18        2.01338  -0.00054   0.00017  -0.00231  -0.00214   2.01124
   A19        2.11989   0.00255   0.00019   0.00844   0.00862   2.12851
   A20        1.86531  -0.00016  -0.00213   0.00459   0.00245   1.86776
   A21        1.90266  -0.00206  -0.00506   0.00172  -0.00335   1.89932
    D1        0.00000   0.00000  -0.00000   0.00000   0.00000   0.00001
    D2        3.14159   0.00000   0.00000   0.00001   0.00002  -3.14158
    D3        0.00002  -0.00000  -0.00000  -0.00004  -0.00005  -0.00003
    D4       -3.14150  -0.00000  -0.00002  -0.00017  -0.00018   3.14150
    D5       -0.00001   0.00000   0.00000   0.00002   0.00002   0.00001
    D6       -3.14159  -0.00000   0.00000  -0.00001  -0.00001   3.14158
    D7        3.14159   0.00000   0.00000   0.00000   0.00000  -3.14159
    D8        0.00001  -0.00000  -0.00000  -0.00003  -0.00003  -0.00002
    D9       -0.00000   0.00000   0.00000   0.00001   0.00001   0.00000
   D10       -3.14156  -0.00000  -0.00000  -0.00005  -0.00005   3.14157
   D11        3.14157   0.00000   0.00000   0.00004   0.00004  -3.14157
   D12        0.00001  -0.00000  -0.00000  -0.00002  -0.00002  -0.00001
   D13        0.00003  -0.00000  -0.00000  -0.00004  -0.00005  -0.00002
   D14       -3.14152  -0.00000  -0.00001  -0.00011  -0.00013   3.14154
   D15        3.14159   0.00000  -0.00000   0.00001   0.00001  -3.14159
   D16        0.00004  -0.00000  -0.00001  -0.00006  -0.00007  -0.00003
   D17       -0.00004   0.00000   0.00001   0.00007   0.00007   0.00003
   D18        3.14148   0.00001   0.00002   0.00019   0.00021  -3.14149
   D19        3.14151   0.00000   0.00002   0.00014   0.00016  -3.14152
   D20       -0.00016   0.00001   0.00003   0.00026   0.00029   0.00014
   D21        3.14144   0.00001   0.00003   0.00022   0.00025  -3.14150
   D22       -0.00011   0.00001   0.00002   0.00015   0.00017   0.00006
   D23       -3.14157  -0.00001   0.00000  -0.00028  -0.00027   3.14135
   D24       -0.00029   0.00001   0.00006   0.00070   0.00075   0.00047
   D25        0.00009  -0.00001  -0.00001  -0.00039  -0.00040  -0.00031
   D26        3.14137   0.00001   0.00005   0.00058   0.00062  -3.14119
   D27       -3.14143  -0.00001  -0.00003  -0.00049  -0.00052   3.14123
   D28       -0.00014   0.00001   0.00003   0.00046   0.00049   0.00035
         Item               Value     Threshold  Converged?
 Maximum Force            0.004975     0.000450     NO 
 RMS     Force            0.001200     0.000300     NO 
 Maximum Displacement     0.037886     0.001800     NO 
 RMS     Displacement     0.008929     0.001200     NO 
 Predicted change in Energy=-1.098230D-04
 GradGradGradGradGradGradGradGradGradGradGradGradGradGradGradGradGradGrad

                          Input orientation:                          
 ---------------------------------------------------------------------
 Center     Atomic      Atomic             Coordinates (Angstroms)
 Number     Number       Type             X           Y           Z
 ---------------------------------------------------------------------
      1          7           0       -0.440155   -1.443031    0.000095
      2          6           0       -1.760599   -1.475532    0.000043
      3          6           0       -2.546843   -0.311722   -0.000014
      4          6           0       -1.926952    0.920589   -0.000024
      5          6           0       -0.526106    0.972117    0.000020
      6          6           0        0.169797   -0.251104    0.000100
      7          6           0        1.650701   -0.228783    0.000280
      8          8           0        2.298287    0.809742    0.000044
      9          8           0        2.234629   -1.420773   -0.000138
     10          8           0        0.063608    2.171903   -0.000056
     11          1           0       -2.222242   -2.458738    0.000051
     12          1           0       -3.629185   -0.387509   -0.000065
     13          1           0       -2.481730    1.852917   -0.000090
     14          1           0        3.192003   -1.267698   -0.000299
     15          1           0        1.034742    2.046601   -0.000101
 ---------------------------------------------------------------------
                    Distance matrix (angstroms):
                    1          2          3          4          5
     1  N    0.000000
     2  C    1.320844   0.000000
     3  C    2.391233   1.404504   0.000000
     4  C    2.792359   2.401888   1.379440   0.000000
     5  C    2.416677   2.741342   2.394080   1.401794   0.000000
     6  C    1.338929   2.285968   2.717316   2.401920   1.407321
     7  C    2.417866   3.631990   4.198363   3.757747   2.486091
     8  O    3.545991   4.658007   4.973225   4.226693   2.829057
     9  O    2.674876   3.995603   4.908408   4.775011   3.653434
    10  O    3.649866   4.078175   3.603172   2.351195   1.336880
    11  H    2.051218   1.086190   2.171415   3.392204   3.827224
    12  H    3.359173   2.162269   1.084992   2.146792   3.387873
    13  H    3.877022   3.405672   2.165618   1.084903   2.144824
    14  H    3.636388   4.956962   5.817925   5.567074   4.340635
    15  H    3.788516   4.496593   4.288291   3.168523   1.894931
                    6          7          8          9         10
     6  C    0.000000
     7  C    1.481072   0.000000
     8  O    2.378206   1.223888   0.000000
     9  O    2.373111   1.327333   2.231423   0.000000
    10  O    2.425333   2.877873   2.617111   4.197696   0.000000
    11  H    3.255072   4.469048   5.578364   4.576141   5.164102
    12  H    3.801430   5.282271   6.047176   5.954154   4.493029
    13  H    3.384893   4.627144   4.892522   5.741175   2.565248
    14  H    3.188604   1.858752   2.261523   0.969535   4.649485
    15  H    2.455113   2.357282   1.768153   3.669116   0.979184
                   11         12         13         14         15
    11  H    0.000000
    12  H    2.503893   0.000000
    13  H    4.319457   2.517174   0.000000
    14  H    5.543702   6.877743   6.475298   0.000000
    15  H    5.559319   5.260904   3.521802   3.954536   0.000000
 Stoichiometry    C6H5NO3
 Framework group  C1[X(C6H5NO3)]
 Deg. of freedom    39
 Full point group                 C1      NOp   1
 Largest Abelian subgroup         C1      NOp   1
 Largest concise Abelian subgroup C1      NOp   1
                         Standard orientation:                         
 ---------------------------------------------------------------------
 Center     Atomic      Atomic             Coordinates (Angstroms)
 Number     Number       Type             X           Y           Z
 ---------------------------------------------------------------------
      1          7           0        0.432368   -1.444105   -0.000076
      2          6           0        1.752639   -1.483028   -0.000024
      3          6           0        2.544534   -0.323056    0.000033
      4          6           0        1.930644    0.912256    0.000043
      5          6           0        0.530065    0.970596   -0.000001
      6          6           0       -0.171779   -0.249226   -0.000080
      7          6           0       -1.652557   -0.219703   -0.000260
      8          8           0       -2.295085    0.821960   -0.000025
      9          8           0       -2.242276   -1.408839    0.000157
     10          8           0       -0.053808    2.173236    0.000075
     11          1           0        2.209494   -2.468468   -0.000032
     12          1           0        3.626494   -0.404106    0.000084
     13          1           0        2.489949    1.841874    0.000109
     14          1           0       -3.198895   -1.251109    0.000318
     15          1           0       -1.025539    2.052658    0.000121
 ---------------------------------------------------------------------
 Rotational constants (GHZ):      2.3714775      1.2672599      0.8259124
 Standard basis: 6-31+G(d,p) (6D, 7F)
 There are   215 symmetry adapted cartesian basis functions of A   symmetry.
 There are   215 symmetry adapted basis functions of A   symmetry.
   215 basis functions,   355 primitive gaussians,   215 cartesian basis functions
    36 alpha electrons       36 beta electrons
       nuclear repulsion energy       508.5477234368 Hartrees.
 NAtoms=   15 NActive=   15 NUniq=   15 SFac= 1.00D+00 NAtFMM=   60 NAOKFM=F Big=F
 Integral buffers will be    131072 words long.
 Raffenetti 2 integral format.
 Two-electron integral symmetry is turned on.
 One-electron integrals computed using PRISM.
 NBasis=   215 RedAO= T EigKep=  5.64D-06  NBF=   215
 NBsUse=   215 1.00D-06 EigRej= -1.00D+00 NBFU=   215
 Initial guess from the checkpoint file:  "m062x3HPA.chk"
 B after Tr=     0.000000   -0.000000    0.000000
         Rot=    0.999997    0.000005    0.000011   -0.002623 Ang=   0.30 deg.
 ExpMin= 4.38D-02 ExpMax= 5.48D+03 ExpMxC= 8.25D+02 IAcc=2 IRadAn=         4 AccDes= 0.00D+00
 Harris functional with IExCor= 1009 and IRadAn=       4 diagonalized for initial guess.
 HarFok:  IExCor= 1009 AccDes= 0.00D+00 IRadAn=         4 IDoV= 1 UseB2=F ITyADJ=14
 ICtDFT=  3500011 ScaDFX=  1.000000  1.000000  1.000000  1.000000
 FoFCou: FMM=F IPFlag=           0 FMFlag=      100000 FMFlg1=           0
         NFxFlg=           0 DoJE=T BraDBF=F KetDBF=T FulRan=T
         wScrn=  0.000000 ICntrl=     500 IOpCl=  0 I1Cent=   200000004 NGrid=           0
         NMat0=    1 NMatS0=      1 NMatT0=    0 NMatD0=    1 NMtDS0=    0 NMtDT0=    0
 Petite list used in FoFCou.
 Keep R1 ints in memory in canonical form, NReq=274797245.
 Requested convergence on RMS density matrix=1.00D-08 within 128 cycles.
 Requested convergence on MAX density matrix=1.00D-06.
 Requested convergence on             energy=1.00D-06.
 No special actions if energy rises.
 SCF Done:  E(RM062X) =  -511.915005372     A.U. after   12 cycles
            NFock= 12  Conv=0.54D-08     -V/T= 2.0082
 Calling FoFJK, ICntrl=      2127 FMM=F ISym2X=0 I1Cent= 0 IOpClX= 0 NMat=1 NMatS=1 NMatT=0.
 ***** Axes restored to original set *****
 -------------------------------------------------------------------
 Center     Atomic                   Forces (Hartrees/Bohr)
 Number     Number              X              Y              Z
 -------------------------------------------------------------------
      1        7           0.000342713   -0.000603755    0.000007162
      2        6          -0.000365241   -0.000283395   -0.000003890
      3        6          -0.000544571   -0.000086872    0.000000087
      4        6          -0.000635635    0.000476057   -0.000003510
      5        6           0.000229394    0.000548500   -0.000001374
      6        6           0.000423198   -0.000771516    0.000032426
      7        6          -0.000226544   -0.000262607   -0.000104093
      8        8           0.001717381    0.000777337    0.000036083
      9        8          -0.000166367   -0.000720311    0.000031903
     10        8          -0.001231579    0.001525089    0.000000242
     11        1          -0.000134627   -0.000066592   -0.000000764
     12        1          -0.000048942    0.000010980    0.000001201
     13        1           0.000022351   -0.000052119    0.000000449
     14        1           0.000366894   -0.000006368    0.000000363
     15        1           0.000251576   -0.000484428    0.000003717
 -------------------------------------------------------------------
 Cartesian Forces:  Max     0.001717381 RMS     0.000501035

 GradGradGradGradGradGradGradGradGradGradGradGradGradGradGradGradGradGrad
 Berny optimization.
 Using GEDIIS/GDIIS optimizer.
 FormGI is forming the generalized inverse of G from B-inverse, IUseBI=4.
 Internal  Forces:  Max     0.002381382 RMS     0.000698463
 Search for a local minimum.
 Step number   3 out of a maximum of   74
 All quantities printed in internal units (Hartrees-Bohrs-Radians)
 Mixed Optimization -- En-DIIS/RFO-DIIS
 Update second derivatives using D2CorX and points    1    2    3
 DE= -7.20D-05 DEPred=-1.10D-04 R= 6.56D-01
 TightC=F SS=  1.41D+00  RLast= 2.39D-02 DXNew= 5.0454D-01 7.1741D-02
 Trust test= 6.56D-01 RLast= 2.39D-02 DXMaxT set to 3.00D-01
 ITU=  1  1  0
 Use linear search instead of GDIIS.
     Eigenvalues ---    0.01087   0.01565   0.01725   0.01959   0.02078
     Eigenvalues ---    0.02121   0.02160   0.02189   0.02253   0.02449
     Eigenvalues ---    0.02510   0.02538   0.15207   0.16000   0.16000
     Eigenvalues ---    0.16002   0.17519   0.20986   0.22109   0.23390
     Eigenvalues ---    0.24947   0.25000   0.25478   0.29685   0.34947
     Eigenvalues ---    0.35245   0.35367   0.35483   0.42616   0.43809
     Eigenvalues ---    0.45399   0.47389   0.52844   0.55674   0.57238
     Eigenvalues ---    0.58177   0.61368   0.64701   0.88548
 RFO step:  Lambda=-3.58597534D-05 EMin= 1.08682821D-02
 Quartic linear search produced a step of -0.25795.
 Iteration  1 RMS(Cart)=  0.00535420 RMS(Int)=  0.00001003
 Iteration  2 RMS(Cart)=  0.00001305 RMS(Int)=  0.00000025
 Iteration  3 RMS(Cart)=  0.00000000 RMS(Int)=  0.00000025
 Variable       Old X    -DE/DX   Delta X   Delta X   Delta X     New X
                                 (Linear)    (Quad)   (Total)
    R1        2.49603   0.00076  -0.00000   0.00098   0.00098   2.49701
    R2        2.53021   0.00089   0.00037   0.00067   0.00104   2.53125
    R3        2.65413   0.00028  -0.00005   0.00046   0.00041   2.65454
    R4        2.05260   0.00012  -0.00000   0.00026   0.00026   2.05286
    R5        2.60676   0.00037  -0.00006   0.00063   0.00057   2.60733
    R6        2.05034   0.00005   0.00001   0.00009   0.00010   2.05044
    R7        2.64901   0.00095   0.00026   0.00114   0.00140   2.65040
    R8        2.05017  -0.00006  -0.00006  -0.00003  -0.00008   2.05009
    R9        2.65945   0.00238   0.00240   0.00008   0.00248   2.66193
   R10        2.52634   0.00050   0.00017   0.00035   0.00052   2.52686
   R11        2.79882   0.00169  -0.00142   0.00573   0.00431   2.80313
   R12        2.31281   0.00157   0.00126  -0.00069   0.00057   2.31339
   R13        2.50830   0.00074   0.00083  -0.00033   0.00050   2.50880
   R14        1.83216   0.00036   0.00046  -0.00026   0.00021   1.83236
   R15        1.85039   0.00031   0.00266  -0.00393  -0.00127   1.84912
    A1        2.06840   0.00051  -0.00024   0.00196   0.00172   2.07012
    A2        2.14033   0.00013   0.00032  -0.00037  -0.00004   2.14029
    A3        2.03438   0.00003  -0.00023   0.00076   0.00053   2.03491
    A4        2.10847  -0.00016  -0.00010  -0.00039  -0.00049   2.10798
    A5        2.08138   0.00000   0.00031  -0.00093  -0.00062   2.08076
    A6        2.09504   0.00001  -0.00008   0.00040   0.00033   2.09536
    A7        2.10677  -0.00002  -0.00023   0.00052   0.00029   2.10706
    A8        2.07363   0.00035   0.00022   0.00057   0.00078   2.07442
    A9        2.13875  -0.00018  -0.00028  -0.00003  -0.00031   2.13845
   A10        2.07080  -0.00017   0.00006  -0.00054  -0.00047   2.07032
   A11        2.05127  -0.00013  -0.00065   0.00099   0.00034   2.05161
   A12        2.06440  -0.00121  -0.00067  -0.00223  -0.00290   2.06150
   A13        2.16751   0.00134   0.00132   0.00124   0.00256   2.17007
   A14        2.15136  -0.00086   0.00004  -0.00222  -0.00218   2.14917
   A15        2.05886  -0.00135  -0.00202  -0.00029  -0.00231   2.05655
   A16        2.07297   0.00221   0.00198   0.00251   0.00450   2.07747
   A17        2.14343   0.00177   0.00167   0.00210   0.00377   2.14721
   A18        2.01124  -0.00112   0.00055  -0.00408  -0.00353   2.00771
   A19        2.12851  -0.00065  -0.00222   0.00198  -0.00024   2.12827
   A20        1.86776   0.00012  -0.00063   0.00141   0.00078   1.86854
   A21        1.89932  -0.00083   0.00086  -0.00564  -0.00478   1.89454
    D1        0.00001  -0.00000  -0.00000  -0.00003  -0.00003  -0.00003
    D2       -3.14158  -0.00000  -0.00000  -0.00002  -0.00002   3.14158
    D3       -0.00003   0.00000   0.00001   0.00004   0.00005   0.00002
    D4        3.14150   0.00000   0.00005   0.00006   0.00010  -3.14158
    D5        0.00001   0.00000  -0.00001   0.00002   0.00001   0.00002
    D6        3.14158   0.00000   0.00000   0.00002   0.00003  -3.14158
    D7       -3.14159  -0.00000  -0.00000  -0.00000  -0.00000   3.14159
    D8       -0.00002   0.00000   0.00001   0.00000   0.00001  -0.00000
    D9        0.00000  -0.00000  -0.00000  -0.00000  -0.00000   0.00000
   D10        3.14157   0.00000   0.00001   0.00000   0.00002   3.14158
   D11       -3.14157  -0.00000  -0.00001  -0.00001  -0.00002  -3.14159
   D12       -0.00001   0.00000   0.00001  -0.00001   0.00000  -0.00001
   D13       -0.00002   0.00000   0.00001   0.00000   0.00002  -0.00000
   D14        3.14154   0.00000   0.00003  -0.00002   0.00002   3.14155
   D15       -3.14159  -0.00000  -0.00000   0.00000   0.00000  -3.14159
   D16       -0.00003   0.00000   0.00002  -0.00002  -0.00000  -0.00003
   D17        0.00003  -0.00000  -0.00002  -0.00002  -0.00004  -0.00001
   D18       -3.14149  -0.00000  -0.00005  -0.00004  -0.00010  -3.14159
   D19       -3.14152  -0.00000  -0.00004  -0.00000  -0.00004  -3.14156
   D20        0.00014  -0.00001  -0.00008  -0.00002  -0.00009   0.00004
   D21       -3.14150  -0.00000  -0.00006   0.00004  -0.00003  -3.14152
   D22        0.00006  -0.00000  -0.00004   0.00002  -0.00003   0.00003
   D23        3.14135   0.00002   0.00007   0.00083   0.00090  -3.14094
   D24        0.00047  -0.00003  -0.00019  -0.00071  -0.00090  -0.00044
   D25       -0.00031   0.00002   0.00010   0.00085   0.00095   0.00064
   D26       -3.14119  -0.00002  -0.00016  -0.00069  -0.00085   3.14114
   D27        3.14123   0.00002   0.00013   0.00077   0.00090  -3.14105
   D28        0.00035  -0.00002  -0.00013  -0.00076  -0.00089  -0.00054
         Item               Value     Threshold  Converged?
 Maximum Force            0.002381     0.000450     NO 
 RMS     Force            0.000698     0.000300     NO 
 Maximum Displacement     0.020918     0.001800     NO 
 RMS     Displacement     0.005356     0.001200     NO 
 Predicted change in Energy=-2.807974D-05
 GradGradGradGradGradGradGradGradGradGradGradGradGradGradGradGradGradGrad

                          Input orientation:                          
 ---------------------------------------------------------------------
 Center     Atomic      Atomic             Coordinates (Angstroms)
 Number     Number       Type             X           Y           Z
 ---------------------------------------------------------------------
      1          7           0       -0.438169   -1.440272   -0.000196
      2          6           0       -1.759072   -1.475042   -0.000061
      3          6           0       -2.547376   -0.312363    0.000096
      4          6           0       -1.928640    0.920867    0.000090
      5          6           0       -0.527153    0.974987   -0.000073
      6          6           0        0.172051   -0.247862   -0.000217
      7          6           0        1.655284   -0.228959   -0.000383
      8          8           0        2.309356    0.805853    0.000258
      9          8           0        2.232335   -1.424588    0.000031
     10          8           0        0.057003    2.177796   -0.000123
     11          1           0       -2.219616   -2.458914   -0.000057
     12          1           0       -3.629668   -0.389601    0.000218
     13          1           0       -2.484659    1.852403    0.000197
     14          1           0        3.190813   -1.277855    0.000369
     15          1           0        1.027465    2.052533   -0.000303
 ---------------------------------------------------------------------
                    Distance matrix (angstroms):
                    1          2          3          4          5
     1  N    0.000000
     2  C    1.321361   0.000000
     3  C    2.391848   1.404723   0.000000
     4  C    2.792219   2.401902   1.379742   0.000000
     5  C    2.416898   2.742311   2.395531   1.402532   0.000000
     6  C    1.339481   2.288057   2.720192   2.403920   1.408633
     7  C    2.418641   3.634632   4.203488   3.763857   2.492492
     8  O    3.548799   4.664181   4.983799   4.239557   2.841547
     9  O    2.670549   3.991726   4.907411   4.776492   3.656875
    10  O    3.651796   4.079381   3.603287   2.350032   1.337156
    11  H    2.052117   1.086327   2.171431   3.392283   3.828330
    12  H    3.359997   2.162709   1.085045   2.147282   3.389351
    13  H    3.876834   3.405638   2.165674   1.084858   2.145155
    14  H    3.632615   4.953812   5.818848   5.571641   4.347249
    15  H    3.787845   4.495395   4.286283   3.165317   1.891545
                    6          7          8          9         10
     6  C    0.000000
     7  C    1.483354   0.000000
     8  O    2.382937   1.224192   0.000000
     9  O    2.372647   1.327598   2.231770   0.000000
    10  O    2.428385   2.889113   2.637295   4.208235   0.000000
    11  H    3.257118   4.470744   5.583036   4.570524   5.165469
    12  H    3.804360   5.287393   6.058145   5.952669   4.492557
    13  H    3.386624   4.633703   4.906919   5.743580   2.562406
    14  H    3.189642   1.859579   2.262478   0.969646   4.665007
    15  H    2.454292   2.366297   1.788143   3.679957   0.978513
                   11         12         13         14         15
    11  H    0.000000
    12  H    2.504057   0.000000
    13  H    4.319457   2.517465   0.000000
    14  H    5.537838   6.878078   6.481474   0.000000
    15  H    5.558479   5.258603   3.517822   3.971342   0.000000
 Stoichiometry    C6H5NO3
 Framework group  C1[X(C6H5NO3)]
 Deg. of freedom    39
 Full point group                 C1      NOp   1
 Largest Abelian subgroup         C1      NOp   1
 Largest concise Abelian subgroup C1      NOp   1
                         Standard orientation:                         
 ---------------------------------------------------------------------
 Center     Atomic      Atomic             Coordinates (Angstroms)
 Number     Number       Type             X           Y           Z
 ---------------------------------------------------------------------
      1          7           0        0.427374   -1.442931    0.000156
      2          6           0        1.747982   -1.487557    0.000020
      3          6           0        2.544940   -0.330793   -0.000136
      4          6           0        1.935425    0.907019   -0.000130
      5          6           0        0.534380    0.971597    0.000032
      6          6           0       -0.173930   -0.246000    0.000176
      7          6           0       -1.656981   -0.216029    0.000342
      8          8           0       -2.303312    0.823635   -0.000298
      9          8           0       -2.242938   -1.407318   -0.000071
     10          8           0       -0.040782    2.178731    0.000082
     11          1           0        2.201170   -2.474839    0.000017
     12          1           0        3.626626   -0.416107   -0.000258
     13          1           0        2.498380    1.834381   -0.000238
     14          1           0       -3.200295   -1.253436   -0.000410
     15          1           0       -1.012153    2.060714    0.000263
 ---------------------------------------------------------------------
 Rotational constants (GHZ):      2.3664077      1.2645623      0.8241517
 Standard basis: 6-31+G(d,p) (6D, 7F)
 There are   215 symmetry adapted cartesian basis functions of A   symmetry.
 There are   215 symmetry adapted basis functions of A   symmetry.
   215 basis functions,   355 primitive gaussians,   215 cartesian basis functions
    36 alpha electrons       36 beta electrons
       nuclear repulsion energy       508.1087539580 Hartrees.
 NAtoms=   15 NActive=   15 NUniq=   15 SFac= 1.00D+00 NAtFMM=   60 NAOKFM=F Big=F
 Integral buffers will be    131072 words long.
 Raffenetti 2 integral format.
 Two-electron integral symmetry is turned on.
 One-electron integrals computed using PRISM.
 NBasis=   215 RedAO= T EigKep=  5.66D-06  NBF=   215
 NBsUse=   215 1.00D-06 EigRej= -1.00D+00 NBFU=   215
 Initial guess from the checkpoint file:  "m062x3HPA.chk"
 B after Tr=     0.000000   -0.000000    0.000000
         Rot=    0.999999    0.000013   -0.000001    0.001196 Ang=   0.14 deg.
 ExpMin= 4.38D-02 ExpMax= 5.48D+03 ExpMxC= 8.25D+02 IAcc=2 IRadAn=         4 AccDes= 0.00D+00
 Harris functional with IExCor= 1009 and IRadAn=       4 diagonalized for initial guess.
 HarFok:  IExCor= 1009 AccDes= 0.00D+00 IRadAn=         4 IDoV= 1 UseB2=F ITyADJ=14
 ICtDFT=  3500011 ScaDFX=  1.000000  1.000000  1.000000  1.000000
 FoFCou: FMM=F IPFlag=           0 FMFlag=      100000 FMFlg1=           0
         NFxFlg=           0 DoJE=T BraDBF=F KetDBF=T FulRan=T
         wScrn=  0.000000 ICntrl=     500 IOpCl=  0 I1Cent=   200000004 NGrid=           0
         NMat0=    1 NMatS0=      1 NMatT0=    0 NMatD0=    1 NMtDS0=    0 NMtDT0=    0
 Petite list used in FoFCou.
 Keep R1 ints in memory in canonical form, NReq=274797245.
 Requested convergence on RMS density matrix=1.00D-08 within 128 cycles.
 Requested convergence on MAX density matrix=1.00D-06.
 Requested convergence on             energy=1.00D-06.
 No special actions if energy rises.
 SCF Done:  E(RM062X) =  -511.915026379     A.U. after   11 cycles
            NFock= 11  Conv=0.80D-08     -V/T= 2.0082
 Calling FoFJK, ICntrl=      2127 FMM=F ISym2X=0 I1Cent= 0 IOpClX= 0 NMat=1 NMatS=1 NMatT=0.
 ***** Axes restored to original set *****
 -------------------------------------------------------------------
 Center     Atomic                   Forces (Hartrees/Bohr)
 Number     Number              X              Y              Z
 -------------------------------------------------------------------
      1        7           0.000146893   -0.000242553   -0.000010250
      2        6          -0.000048297    0.000098028    0.000006997
      3        6          -0.000146737   -0.000063465   -0.000000134
      4        6          -0.000076830    0.000020276    0.000003468
      5        6          -0.000595130   -0.000476547   -0.000007569
      6        6           0.000165877   -0.000262361   -0.000041555
      7        6          -0.000392554    0.000248964    0.000155376
      8        8          -0.000153090    0.000477336   -0.000064499
      9        8          -0.000042322   -0.000671441   -0.000046719
     10        8           0.000164878    0.000547344   -0.000004021
     11        1           0.000014625   -0.000013233    0.000000250
     12        1          -0.000003843    0.000017243   -0.000000868
     13        1           0.000042251   -0.000009968   -0.000000027
     14        1           0.000207844    0.000084640    0.000000194
     15        1           0.000716436    0.000245736    0.000009358
 -------------------------------------------------------------------
 Cartesian Forces:  Max     0.000716436 RMS     0.000245301

 GradGradGradGradGradGradGradGradGradGradGradGradGradGradGradGradGradGrad
 Berny optimization.
 Using GEDIIS/GDIIS optimizer.
 FormGI is forming the generalized inverse of G from B-inverse, IUseBI=4.
 Internal  Forces:  Max     0.001098325 RMS     0.000256347
 Search for a local minimum.
 Step number   4 out of a maximum of   74
 All quantities printed in internal units (Hartrees-Bohrs-Radians)
 Mixed Optimization -- En-DIIS/RFO-DIIS
 Swapping is turned off.
 Update second derivatives using D2CorX and points    1    2    3    4
 DE= -2.10D-05 DEPred=-2.81D-05 R= 7.48D-01
 TightC=F SS=  1.41D+00  RLast= 1.17D-02 DXNew= 5.0454D-01 3.5150D-02
 Trust test= 7.48D-01 RLast= 1.17D-02 DXMaxT set to 3.00D-01
 ITU=  1  1  1  0
     Eigenvalues ---    0.01087   0.01574   0.01724   0.01959   0.02078
     Eigenvalues ---    0.02121   0.02160   0.02189   0.02253   0.02449
     Eigenvalues ---    0.02510   0.02538   0.15354   0.16000   0.16000
     Eigenvalues ---    0.16008   0.17646   0.21885   0.22619   0.23363
     Eigenvalues ---    0.24963   0.25000   0.26547   0.32955   0.35169
     Eigenvalues ---    0.35355   0.35477   0.36083   0.43086   0.43734
     Eigenvalues ---    0.47046   0.47371   0.52885   0.54970   0.57242
     Eigenvalues ---    0.58268   0.61744   0.70021   0.88105
 En-DIIS/RFO-DIIS IScMMF=        0 using points:     4    3
 RFO step:  Lambda=-5.71786079D-06.
 DidBck=F Rises=F RFO-DIIS coefs:    0.80656    0.19344
 Iteration  1 RMS(Cart)=  0.00132595 RMS(Int)=  0.00000115
 Iteration  2 RMS(Cart)=  0.00000143 RMS(Int)=  0.00000035
 Iteration  3 RMS(Cart)=  0.00000000 RMS(Int)=  0.00000035
 Variable       Old X    -DE/DX   Delta X   Delta X   Delta X     New X
                                 (Linear)    (Quad)   (Total)
    R1        2.49701   0.00016  -0.00019   0.00051   0.00032   2.49733
    R2        2.53125   0.00007  -0.00020   0.00050   0.00030   2.53155
    R3        2.65454   0.00014  -0.00008   0.00036   0.00028   2.65482
    R4        2.05286   0.00001  -0.00005   0.00009   0.00004   2.05290
    R5        2.60733   0.00013  -0.00011   0.00038   0.00027   2.60760
    R6        2.05044   0.00000  -0.00002   0.00004   0.00002   2.05046
    R7        2.65040   0.00006  -0.00027   0.00057   0.00030   2.65070
    R8        2.05009  -0.00003   0.00002  -0.00010  -0.00008   2.05000
    R9        2.66193   0.00005  -0.00048   0.00125   0.00077   2.66270
   R10        2.52686   0.00110  -0.00010   0.00153   0.00143   2.52829
   R11        2.80313  -0.00038  -0.00083   0.00019  -0.00064   2.80249
   R12        2.31339   0.00032  -0.00011   0.00071   0.00060   2.31399
   R13        2.50880   0.00060  -0.00010   0.00109   0.00099   2.50979
   R14        1.83236   0.00022  -0.00004   0.00045   0.00041   1.83277
   R15        1.84912   0.00068   0.00025   0.00110   0.00134   1.85047
    A1        2.07012  -0.00026  -0.00033  -0.00029  -0.00062   2.06950
    A2        2.14029   0.00010   0.00001   0.00040   0.00041   2.14070
    A3        2.03491  -0.00007  -0.00010  -0.00014  -0.00024   2.03467
    A4        2.10798  -0.00003   0.00009  -0.00026  -0.00017   2.10781
    A5        2.08076   0.00000   0.00012  -0.00011   0.00001   2.08077
    A6        2.09536   0.00002  -0.00006   0.00015   0.00009   2.09545
    A7        2.10706  -0.00002  -0.00006  -0.00005  -0.00010   2.10696
    A8        2.07442  -0.00003  -0.00015   0.00014  -0.00001   2.07440
    A9        2.13845   0.00005   0.00006   0.00005   0.00011   2.13856
   A10        2.07032  -0.00001   0.00009  -0.00019  -0.00010   2.07022
   A11        2.05161  -0.00006  -0.00007  -0.00020  -0.00026   2.05135
[...]
 ! R7    R(4,5)                  1.4026         -DE/DX =    0.0                 !
 ! R8    R(4,13)                 1.0848         -DE/DX =    0.0                 !
 ! R9    R(5,6)                  1.409          -DE/DX =    0.0                 !
 ! R10   R(5,10)                 1.338          -DE/DX =    0.0                 !
 ! R11   R(6,7)                  1.4829         -DE/DX =    0.0                 !
 ! R12   R(7,8)                  1.2244         -DE/DX =    0.0                 !
 ! R13   R(7,9)                  1.3282         -DE/DX =    0.0                 !
 ! R14   R(9,14)                 0.9699         -DE/DX =    0.0                 !
 ! R15   R(10,15)                0.9793         -DE/DX =    0.0                 !
 ! A1    A(2,1,6)              118.5586         -DE/DX =    0.0                 !
 ! A2    A(1,2,3)              122.6627         -DE/DX =    0.0                 !
 ! A3    A(1,2,11)             116.5691         -DE/DX =    0.0                 !
 ! A4    A(3,2,11)             120.7683         -DE/DX =    0.0                 !
 ! A5    A(2,3,4)              119.2197         -DE/DX =    0.0                 !
 ! A6    A(2,3,12)             120.0617         -DE/DX =    0.0                 !
 ! A7    A(4,3,12)             120.7186         -DE/DX =    0.0                 !
 ! A8    A(3,4,5)              118.8451         -DE/DX =    0.0                 !
 ! A9    A(3,4,13)             122.5398         -DE/DX =    0.0                 !
 ! A10   A(5,4,13)             118.6151         -DE/DX =    0.0                 !
 ! A11   A(4,5,6)              117.5433         -DE/DX =    0.0                 !
 ! A12   A(4,5,10)             118.1381         -DE/DX =    0.0                 !
 ! A13   A(6,5,10)             124.3186         -DE/DX =    0.0                 !
 ! A14   A(1,6,5)              123.1706         -DE/DX =    0.0                 !
 ! A15   A(1,6,7)              117.8816         -DE/DX =    0.0                 !
 ! A16   A(5,6,7)              118.9477         -DE/DX =    0.0                 !
 ! A17   A(6,7,8)              122.9883         -DE/DX =    0.0                 !
 ! A18   A(6,7,9)              115.0537         -DE/DX =    0.0                 !
 ! A19   A(8,7,9)              121.958          -DE/DX =    0.0                 !
 ! A20   A(7,9,14)             107.0192         -DE/DX =    0.0                 !
 ! A21   A(5,10,15)            108.642          -DE/DX =    0.0                 !
 ! D1    D(6,1,2,3)              0.0            -DE/DX =    0.0                 !
 ! D2    D(6,1,2,11)          -179.9999         -DE/DX =    0.0                 !
 ! D3    D(2,1,6,5)             -0.0001         -DE/DX =    0.0                 !
 ! D4    D(2,1,6,7)           -180.0005         -DE/DX =    0.0                 !
 ! D5    D(1,2,3,4)              0.0001         -DE/DX =    0.0                 !
 ! D6    D(1,2,3,12)           180.0            -DE/DX =    0.0                 !
 ! D7    D(11,2,3,4)           180.0            -DE/DX =    0.0                 !
 ! D8    D(11,2,3,12)           -0.0001         -DE/DX =    0.0                 !
 ! D9    D(2,3,4,5)              0.0            -DE/DX =    0.0                 !
 ! D10   D(2,3,4,13)          -180.0001         -DE/DX =    0.0                 !
 ! D11   D(12,3,4,5)           180.0001         -DE/DX =    0.0                 !
 ! D12   D(12,3,4,13)           -0.0001         -DE/DX =    0.0                 !
 ! D13   D(3,4,5,6)             -0.0001         -DE/DX =    0.0                 !
 ! D14   D(3,4,5,10)           179.9996         -DE/DX =    0.0                 !
 ! D15   D(13,4,5,6)          -180.0            -DE/DX =    0.0                 !
 ! D16   D(13,4,5,10)           -0.0002         -DE/DX =    0.0                 !
 ! D17   D(4,5,6,1)              0.0002         -DE/DX =    0.0                 !
 ! D18   D(4,5,6,7)            180.0006         -DE/DX =    0.0                 !
 ! D19   D(10,5,6,1)           180.0005         -DE/DX =    0.0                 !
 ! D20   D(10,5,6,7)             0.0008         -DE/DX =    0.0                 !
 ! D21   D(4,5,10,15)         -179.9995         -DE/DX =    0.0                 !
 ! D22   D(6,5,10,15)            0.0003         -DE/DX =    0.0                 !
 ! D23   D(1,6,7,8)           -180.0004         -DE/DX =    0.0                 !
 ! D24   D(1,6,7,9)              0.0019         -DE/DX =    0.0                 !
 ! D25   D(5,6,7,8)             -0.0008         -DE/DX =    0.0                 !
 ! D26   D(5,6,7,9)           -179.9984         -DE/DX =    0.0                 !
 ! D27   D(6,7,9,14)           179.9988         -DE/DX =    0.0                 !
 ! D28   D(8,7,9,14)             0.0011         -DE/DX =    0.0                 !
 --------------------------------------------------------------------------------
 GradGradGradGradGradGradGradGradGradGradGradGradGradGradGradGradGradGrad

 1\1\ WCSS.PL-BEM-QINLAB\Freq\RM062X\6-31+G(d,p)\C6H5N1O3\PHZD\28-Apr-2
 024\0\\#N Geom=AllCheck Guess=TCheck SCRF=Check GenChk RM062X/6-31+G(d
 ,p) Freq\\[No Title]\\0,1\N,-0.4385749606,-1.4417092961,0.0000078912\C
 ,-1.7596795884,-1.4753500669,0.0000167995\C,-2.5477083001,-0.312370139
 5,0.0000113813\C,-1.9285904005,0.920809006,-0.0000050941\C,-0.52705993
 46,0.9743115298,-0.0000162237\C,0.1716566825,-0.2492066635,-0.00000693
 38\C,1.6544265673,-0.2289749196,-0.0000052733\O,2.3070150377,0.8070549
 444,-0.0000255099\O,2.2332506284,-1.4244425885,-0.000029438\O,0.058490
 0008,2.177424882,-0.0000398452\H,-2.220683383,-2.4590233064,0.00003003
 65\H,-3.630024151,-0.3891859494,0.0000190192\H,-2.4840820428,1.8526084
 574,-0.0000120883\H,3.1916986978,-1.2757888625,-0.0000449171\H,1.02981
 91465,2.0528229729,-0.0000538044\\Version=ES64L-G09RevE.01\State=1-A\H
 F=-511.9150303\RMSD=1.891e-09\RMSF=1.378e-05\ZeroPoint=0.1099786\Therm
 al=0.117643\Dipole=-0.4660142,-0.1684578,-0.0000021\DipoleDeriv=0.0865
 538,-0.0820033,-0.0000024,0.4111704,-0.4117443,-0.0000014,-0.0000085,0
 .0000023,-0.2440553,-0.3231825,0.1147816,0.000001,0.2932529,0.2645441,
 -0.000005,-0.0000013,-0.0000031,-0.0308234,0.1487365,0.0602852,-0.0000
 024,-0.3594553,0.0532882,0.0000017,0.0000026,-0.0000023,-0.079784,0.07
 07592,-0.4036886,0.0000033,0.0397142,-0.0289292,-0.0000016,-0.0000004,
 0.0000029,-0.1513543,0.195654,0.6771718,-0.0000098,0.4788222,1.1675709
 ,-0.0000195,-0.0000134,-0.0000235,0.1727148,-0.5345334,0.2541681,0.000
 0016,-0.4313691,-0.113834,0.0000065,0.0000035,0.0000007,0.0297101,2.14
 13455,-0.2488667,-0.0000103,-0.2001844,1.7473883,0.0000095,-0.0000174,
 0.0000092,0.3390727,-1.1848392,-0.2804962,0.0000016,-0.2420205,-1.0666
 952,-0.0000022,0.0000095,0.0000114,-0.3825532,-0.8791222,0.5907154,0.0
 00006,0.5870203,-1.0777962,-0.0000069,0.0000134,-0.0000194,-0.3652431,
 -0.6604017,-0.5171845,0.000009,-0.373514,-1.2870168,0.0000165,0.000007
 8,0.0000192,-0.3667061,0.0145902,-0.0523718,0.0000013,-0.0759704,-0.04
 33934,0.000002,0.0000018,0.000002,0.1198817,-0.0521592,-0.0148517,0.00
 00015,-0.0150728,0.0896319,0.0000006,0.0000011,-0.0000002,0.1347338,0.
 0669733,0.0305854,0.0000003,0.0428954,0.0121132,0.0000011,0.0000004,0.
 0000027,0.146699,0.3625204,-0.1005711,-0.0000006,-0.1197497,0.2929202,
 0.0000009,-0.0000007,0.0000009,0.3542859,0.5471053,-0.0276738,-0.00000
 02,-0.0355393,0.4019523,-0.0000022,0.0000016,-0.0000029,0.3234214\Pola
 r=112.3522188,3.6661425,94.4993978,-0.000555,-0.0004599,45.2837456\PG=
 C01 [X(C6H5N1O3)]\NImag=0\\0.66731275,0.11760237,0.47070238,-0.0000043
 8,-0.00000418,0.09900758,-0.40035805,0.01346267,0.00000210,0.72744862,
 -0.03013780,-0.12372794,0.00000081,0.05705976,0.74848160,0.00000253,0.
 00000080,-0.06633574,-0.00000465,-0.00000637,0.15060177,-0.05539538,0.
 02158799,0.00000020,-0.18209272,0.11861031,-0.00000028,0.76850449,0.10
 106997,0.05274615,-0.00000072,0.03636702,-0.26931298,0.00000145,0.0367
 9027,0.70207856,-0.00000054,-0.00000037,0.02393459,0.00000051,0.000000
 95,-0.07025317,-0.00000446,-0.00000564,0.13811478,-0.06503064,-0.03880
 100,0.00000060,0.08022261,-0.01967507,-0.00000012,-0.19099893,-0.07069
 225,0.00000149,0.69914531,-0.04099353,-0.02079008,0.00000031,0.0333029
 4,-0.05643074,0.00000045,-0.14127078,-0.35237181,0.00000381,-0.0059823
 1,0.80155188,0.00000079,0.00000034,-0.00675835,-0.00000077,0.00000081,
 0.00783877,0.00000223,0.00000351,-0.05814593,-0.00000385,-0.00000722,0
 .13062969,0.08989221,0.03458505,-0.00000070,-0.07432875,0.03061143,0.,
 -0.01011860,-0.09125945,0.00000103,-0.32350334,0.05471526,0.00000132,0
 .72925706,-0.03082000,-0.07032364,0.00000085,0.03812686,-0.00809529,-0
 .00000013,-0.04023592,0.02919408,-0.00000004,-0.01538501,-0.12535135,0
 .00000054,0.03167047,0.72754152,-0.00000015,0.00000062,0.01421005,-0.0
 0000008,-0.00000022,-0.00875745,0.00000051,0.00000017,-0.00270279,0.00
 000205,0.00000016,-0.06808714,-0.00000515,-0.00000780,0.16179914,-0.14
 558168,-0.09364728,0.00000116,-0.06765665,-0.03391134,0.00000072,-0.00
 039508,-0.02119912,0.00000019,-0.00925638,0.02863756,-0.00000033,-0.20
 353947,0.09582526,-0.00000049,0.67233711,-0.07422997,-0.30428449,0.000
 00274,-0.09643568,0.01086404,0.00000017,0.01750079,-0.07349414,0.00000
 049,0.06862519,0.04180642,-0.00000069,0.03884964,-0.23792116,0.0000017
 1,0.01846099,0.72018156,0.00000086,0.00000261,-0.06200844,0.00000135,0
 .00000003,0.00554712,-0.00000014,0.00000069,-0.00837441,-0.00000050,-0
 .00000027,0.00832047,-0.00000031,0.00000122,-0.06742275,-0.00000213,-0
 .00000533,0.14199826,-0.04317580,-0.03290226,0.00000040,0.02545832,-0.
 00980228,0.00000005,0.00032665,0.01745687,-0.00000020,-0.01228079,-0.0
 0284709,0.00000020,0.00048015,0.03979956,-0.00000048,-0.21112297,0.016
 39832,-0.00000108,0.76708355,-0.03543108,-0.00360249,-0.00000019,-0.00
 637512,-0.00665283,0.00000021,0.00032693,-0.00204621,0.00000004,0.0022
 4782,-0.00668279,0.00000013,0.03891732,0.02626234,-0.00000025,0.026814
 33,-0.09714138,0.00000021,0.12726261,0.90680532,0.00000048,-0.00000023
 ,-0.01265281,0.00000004,0.00000023,0.01264791,0.00000007,-0.00000002,0
 .00050750,-0.00000002,0.00000015,0.00705658,-0.00000009,-0.00000064,0.
 00074971,0.00000044,0.00000061,-0.07702124,-0.00001006,-0.00000382,0.2
 1156325,-0.00524938,0.00379705,0.00000006,-0.00647422,0.00086615,-0.00
 000002,-0.00022022,-0.00460602,0.00000007,0.00300518,0.00024425,-0.000
 00005,-0.00075927,-0.00424382,0.00000002,-0.02443918,-0.04395409,0.000
 00097,-0.30637369,-0.26697408,0.00000576,0.32167638,0.00372060,0.00644
 697,0.00000005,-0.00734338,0.00456571,-0.00000004,0.00001366,-0.006949
 28,0.00000009,0.00679468,0.00429102,-0.00000008,-0.01344622,-0.0291333
 3,0.00000041,-0.03386755,-0.00583947,0.00000046,-0.25657160,-0.5095672
 9,0.00000720,0.30406674,0.62831974,0.00000006,0.00000003,0.00566322,0.
 00000016,-0.00000011,-0.00260180,-0.00000002,0.00000017,0.00007523,-0.
 00000016,-0.00000013,-0.00087766,0.00000027,0.00000071,0.00005718,0.00
 000031,0.00000039,0.01867422,0.00000603,0.00000734,-0.07716204,-0.0000
 0638,-0.00000763,0.03695691,-0.00143755,0.00383999,0.,-0.00319092,0.00
 278784,-0.00000003,-0.00038213,-0.00236688,0.00000003,0.00071640,0.002
 83453,-0.00000010,-0.00863608,-0.00968913,0.00000014,-0.03027047,0.042
 76300,0.00000093,-0.18377999,0.10768106,0.00000300,0.03948239,-0.00985
 319,-0.00000021,0.67851200,-0.00545994,-0.00159743,0.00000012,0.004945
 10,-0.00085135,0.,-0.00029436,0.00258530,-0.00000002,-0.00094112,0.000
 33980,0.,-0.00242098,-0.00118426,0.00000005,0.01489517,-0.00384788,-0.
 00000055,0.07617617,-0.28517145,-0.00000285,0.00551298,-0.11428895,-0.
 00000037,-0.03486071,0.45808236,0.00000003,0.00000004,0.00154270,0.000
 00005,-0.00000004,-0.00125408,0.,0.00000002,-0.00010072,0.,-0.00000004
 ,-0.00097845,0.00000004,0.00000012,0.00195432,0.00000014,-0.00000059,0
 .01098250,0.00000287,-0.00000412,-0.06646236,-0.00000008,-0.00000007,0
 .02845940,-0.00001041,0.00000361,0.04102591,-0.01458481,-0.00327552,0.
 00000020,0.01185495,-0.00965097,0.00000002,-0.00607217,0.01775014,-0.0
 0000009,-0.04068522,-0.06399453,0.00000126,-0.15677850,-0.11352377,0.0
 0000314,0.03004100,0.00958767,-0.00000012,-0.02925685,-0.02227977,0.00
 000017,-0.01010245,0.03900204,-0.00000084,0.00309872,0.00748652,0.0000
 0012,0.64130569,-0.00137278,-0.00588601,0.00000024,0.00424240,-0.00734
 791,0.00000002,0.00441321,0.00820138,-0.00000003,-0.02656158,-0.008282
 55,0.00000057,-0.07733836,-0.31857056,0.00000443,-0.00569768,-0.045390
 32,0.00000083,-0.02335595,-0.00700960,0.00000019,0.01565143,0.00889314
 ,-0.00000021,0.00369556,-0.00080661,-0.00000007,0.06540361,0.43576897,
 0.00000017,0.00000036,0.00797862,-0.00000021,0.00000014,-0.00060385,0.
 00000005,-0.00000021,0.00628190,0.00000081,0.00000082,0.00672527,0.000
 00255,0.00000540,-0.04670029,0.00000008,0.00000034,0.00627894,0.000000
 58,0.00000015,-0.00083454,-0.00000030,-0.00000030,0.00398694,-0.000000
 07,0.,-0.00074222,-0.00000975,-0.00000612,0.03737596,-0.02575654,-0.03
 247701,0.00000045,-0.09615653,-0.09897223,0.00000151,0.01117698,0.0172
 2278,-0.00000021,-0.00221195,0.00315516,0.00000004,-0.00112322,0.00012
 412,0.,-0.00411323,-0.00067644,0.00000008,0.00084991,-0.00121103,0.,-0
 .00087663,-0.00024636,0.00000001,-0.00030053,0.00024607,0.,0.00039382,
 -0.00037838,0.,0.11729624,-0.00535858,0.00536184,-0.00000010,-0.100815
 93,-0.29752937,0.00000353,-0.01274440,-0.01627368,0.00000029,0.0038237
 7,-0.00270599,0.00000006,0.00117414,-0.00016741,0.,0.00158072,0.003143
 98,0.00000008,0.00025952,0.00020459,0.,-0.00011372,-0.00003281,0.,-0.0
 0018758,0.00003499,0.,-0.00009045,0.00022723,-0.00000002,0.11291866,0.
 30824669,0.00000016,0.00000004,-0.00659483,0.00000155,0.00000359,-0.03
 850168,0.00000007,0.00000004,0.00488635,0.00000004,0.00000007,0.005847
 82,0.,0.00000001,0.00109755,0.00000006,0.00000011,0.01126364,0.0000000
 1,0.00000002,0.00062152,0.,-0.00000001,-0.00040568,0.,0.,0.00003504,-0
 .00000001,-0.00000002,-0.00164800,-0.00000185,-0.00000384,0.02618873,-
 0.00163970,0.00362357,0.00000001,-0.01077632,-0.00661396,0.00000015,-0
 .34680671,-0.01915665,0.00000203,-0.00810524,0.00161443,0.00000007,0.0
 0151736,-0.00154219,0.00000007,0.00155236,0.00043718,-0.00000002,-0.00
 008936,0.00005550,-0.00000002,-0.00014160,-0.00000384,0.,-0.00012367,0
 .00002343,0.,-0.00092478,-0.00018550,0.00000001,0.00034375,0.00026826,
 -0.00000002,0.36434721,0.00548669,-0.00405347,0.00000007,0.02486170,0.
 01026536,-0.00000026,-0.01892042,-0.06177582,0.00000033,-0.02889511,0.
 00372712,0.00000020,-0.00140195,-0.00485545,0.00000016,-0.00120809,-0.
 00224857,0.00000002,0.00043599,-0.00020456,-0.00000002,-0.00002970,0.0
 0018114,0.,-0.00005995,0.00021026,0.,-0.00190668,0.00029351,0.00000002
 ,-0.00073274,0.00034563,-0.00000002,0.02175901,0.05755967,-0.00000003,
 -0.00000002,0.00643534,-0.00000007,-0.00000003,0.00250187,0.00000200,0
 .00000033,-0.03981371,0.00000038,0.00000006,0.00457270,0.00000005,0.00
 000017,0.00947579,0.,0.00000007,-0.00011380,-0.00000002,-0.00000002,-0
 .00206958,0.,0.,0.00032410,0.,0.,0.00026874,0.00000001,-0.00000002,-0.
 00007856,-0.00000002,-0.00000003,-0.00273322,-0.00000227,-0.00000043,0
 .02637772,-0.00088942,-0.00109538,-0.00000001,-0.00070941,-0.00362063,
 0.00000011,0.01323061,-0.01352930,0.00000010,-0.13839896,0.12829856,-0
 .00000080,-0.01064957,0.02962225,-0.00000021,-0.00548093,-0.00165470,0
 .00000005,0.00040192,0.00190027,-0.00000002,0.00005484,-0.00057309,0.0
 0000002,-0.00080182,-0.00002645,0.00000001,0.00322228,-0.00033903,-0.0
 0000005,0.00052361,-0.00075754,0.,0.00063382,0.00059081,-0.00000005,0.
 13918090,-0.00040922,0.00030966,-0.00000003,-0.00434833,-0.00285532,0.
 00000016,0.01591369,-0.01629719,0.00000013,0.13028258,-0.26986368,0.00
 000162,-0.00265342,0.00404126,0.00000004,-0.00043601,0.00101301,0.0000
 0006,-0.00058655,0.00004519,0.,0.00012472,0.00017277,0.,-0.00000184,-0
 .00003421,0.,0.00048440,0.00049839,-0.00000005,0.00088042,-0.00082792,
 0.,-0.00006239,0.00096487,-0.00000007,-0.13910557,0.28277831,0.0000000
 3,-0.00000001,-0.00317181,0.00000007,0.00000015,0.00910227,-0.00000024
 ,0.00000026,0.00422179,-0.00000076,0.00000171,-0.03913465,0.00000005,-
 0.00000022,0.00648426,0.00000011,0.00000009,0.00618265,0.,-0.00000004,
 -0.00061811,0.,0.,0.00002674,0.00000002,0.,-0.00001229,-0.00000005,-0.
 00000003,-0.00346365,-0.00000001,0.00000001,-0.00012289,-0.00000004,-0
 .00000006,-0.00481773,0.00000085,-0.00000184,0.02576841,0.00058316,-0.
 00006907,-0.00000001,0.00053538,-0.00045667,0.,0.00011425,0.00041473,0
 .,-0.00023250,0.00030158,-0.00000002,-0.00079765,-0.00052086,0.0000000
 3,0.00200095,0.00279147,0.00000017,-0.03322852,0.00691909,0.00000044,0
 .00272223,-0.01002856,-0.00000009,-0.49117435,-0.05600770,0.00000738,0
 .00104906,-0.00033388,0.,0.00002025,0.00002634,0.,0.00003100,-0.000001
 25,0.,-0.00005537,-0.00001993,0.,0.51963547,-0.00157584,0.00016542,0.0
 0000001,-0.00010023,0.00045535,0.,-0.00020966,-0.00014358,0.,0.0001816
 0,-0.00049522,0.00000002,0.00158601,0.00112856,-0.00000001,0.00105328,
 -0.00671031,-0.00000007,0.05661514,0.00562537,-0.00000106,-0.00745253,
 0.00121944,0.00000022,-0.10631697,-0.05951118,0.00000097,-0.00117374,0
 .00007779,0.,-0.00004879,-0.00002912,0.,-0.00003742,0.00002941,0.,0.00
 013145,0.00001682,0.,0.05612389,0.05897480,-0.00000003,0.00000001,-0.0
 0031019,-0.00000001,0.00000002,-0.00001275,-0.00000001,-0.00000001,0.0
 0002245,0.,-0.00000003,-0.00040335,0.00000005,0.00000003,0.00059326,-0
 .00000017,-0.00000012,0.00499686,0.00000168,-0.00000019,0.00424271,-0.
 00000029,0.00000015,-0.00616995,0.00000665,0.00000022,-0.01633389,-0.0
 0000003,0.00000003,-0.00002428,0.,0.,0.00001462,0.,0.,-0.00000243,0.,0
 .,0.00002641,-0.00000788,-0.00000009,0.01330159,0.00131083,0.00376884,
 -0.00000008,-0.00377633,0.00290547,0.,-0.00087104,-0.00426213,0.000000
 07,0.00761442,0.00198398,0.,-0.03091233,-0.01920781,0.00000060,-0.0040
 7539,0.00153662,-0.00000011,0.02470747,0.02014614,-0.00000021,-0.01230
 439,-0.02166392,0.00000083,-0.00171201,-0.00927417,-0.00000017,-0.4325
 6077,0.04215694,0.00000612,-0.00006593,0.00001681,0.,0.00018185,0.0000
 2169,-0.00000001,-0.00026251,-0.00006255,0.,-0.00120337,0.00122381,0.0
 0000004,0.45392951,-0.00209090,-0.00146687,0.00000001,0.00305023,-0.00
 182835,0.,-0.00148130,0.00385921,-0.00000003,-0.00502220,-0.00874203,0
 .00000020,-0.04358894,0.00743470,0.00000053,0.00269976,-0.00013130,0.,
 -0.00833845,-0.02086422,0.00000025,-0.00288937,0.01172120,-0.00000038,
 -0.00026574,0.00604061,0.00000018,0.07618105,-0.06066686,-0.00000052,0
 .00019578,0.00000135,0.,-0.00017942,-0.00043910,0.,0.00015837,0.000038
 04,0.,0.00086085,-0.00080354,-0.00000003,-0.01928972,0.06584718,0.0000
 0003,-0.00000005,-0.00093993,-0.00000003,0.00000003,0.00008081,0.00000
 002,-0.00000004,0.00134613,0.00000003,0.00000014,0.00339423,0.00000089
 ,-0.00000022,-0.00275086,-0.00000010,0.00000001,0.00069596,0.00000002,
 0.00000053,-0.00056849,0.00000025,-0.00000020,-0.00700682,0.00000004,-
 0.00000018,0.00161539,0.00000598,0.00000018,-0.01453226,0.,0.,0.000051
 01,0.,0.,-0.00032724,0.,0.,-0.00047140,-0.00000001,0.00000002,0.000058
 93,-0.00000709,-0.00000021,0.01935451\\-0.00000332,-0.00002052,-0.0000
 0046,0.00002233,-0.00000708,0.00000021,-0.00001626,0.00001832,-0.00000
 001,-0.00001785,-0.00001100,0.00000022,0.00000627,0.00002567,0.0000003
 2,-0.00000477,-0.00002055,-0.00000202,-0.00001292,-0.00003893,0.000006
 15,0.00001662,0.00004320,-0.00000190,-0.00001709,0.00000023,-0.0000019
 1,-0.00001469,0.00001030,0.00000003,0.00000093,-0.00000053,0.00000007,
 -0.00000101,0.00000420,-0.00000008,0.00000003,-0.00000153,-0.00000003,
 0.00002120,-0.00000031,-0.00000004,0.00002053,-0.00000148,-0.00000055\
 \\@


 THE REAL VOYAGE OF DISCOVERY CONSISTS NOT IN SEEKING NEW LANDSCAPES 
 BUT IN HAVING NEW EYES.
                                                    -- MARCEL PROUST
 Job cpu time:       0 days  0 hours 25 minutes 35.7 seconds.
 File lengths (MBytes):  RWF=     79 Int=      0 D2E=      0 Chk=      5 Scr=      1
 Normal termination of Gaussian 09 at Sun Apr 28 15:36:50 2024.
