 Entering Gaussian System, Link 0=g09
 Input=pbe3HPA2.gjf
 Output=pbe3HPA2.log
 Initial command:
 /home/phzd/g09E/g09/l1.exe "/home/phzd/g09E/scratch/Gau-509821.inp" -scrdir="/home/phzd/g09E/scratch/"
 Default is to use a total of  18 processors:
                               18 via shared-memory
                                1 via Linda
 Entering Link 1 = /home/phzd/g09E/g09/l1.exe PID=    509823.
  
 Copyright (c) 1988,1990,1992,1993,1995,1998,2003,2009,2015,
            Gaussian, Inc.  All Rights Reserved.
  
 This is part of the Gaussian(R) 09 program.  It is based on
 the Gaussian(R) 03 system (copyright 2003, Gaussian, Inc.),
 the Gaussian(R) 98 system (copyright 1998, Gaussian, Inc.),
 the Gaussian(R) 94 system (copyright 1995, Gaussian, Inc.),
 the Gaussian 92(TM) system (copyright 1992, Gaussian, Inc.),
 the Gaussian 90(TM) system (copyright 1990, Gaussian, Inc.),
 the Gaussian 88(TM) system (copyright 1988, Gaussian, Inc.),
 the Gaussian 86(TM) system (copyright 1986, Carnegie Mellon
 University), and the Gaussian 82(TM) system (copyright 1983,
 Carnegie Mellon University). Gaussian is a federally registered
 trademark of Gaussian, Inc.
  
 This software contains proprietary and confidential information,
 including trade secrets, belonging to Gaussian, Inc.
  
 This software is provided under written license and may be
 used, copied, transmitted, or stored only in accord with that
 written license.
  
 The following legend is applicable only to US Government
 contracts under FAR:
  
                    RESTRICTED RIGHTS LEGEND
  
 Use, reproduction and disclosure by the US Government is
 subject to restrictions as set forth in subparagraphs (a)
 and (c) of the Commercial Computer Software - Restricted
 Rights clause in FAR 52.227-19.
  
 Gaussian, Inc.
 340 Quinnipiac St., Bldg. 40, Wallingford CT 06492
  
  
 ---------------------------------------------------------------
 Warning -- This program may not be used in any manner that
 competes with the business of Gaussian, Inc. or will provide
 assistance to any competitor of Gaussian, Inc.  The licensee
 of this program is prohibited from giving any competitor of
 Gaussian, Inc. access to this program.  By using this program,
 the user acknowledges that Gaussian, Inc. is engaged in the
 business of creating and licensing software in the field of
 computational chemistry and represents and warrants to the
 licensee that it is not a competitor of Gaussian, Inc. and that
 it will not use this program in any manner prohibited above.
 ---------------------------------------------------------------
  

 Cite this work as:
 Gaussian 09, Revision E.01,
 M. J. Frisch, G. W. Trucks, H. B. Schlegel, G. E. Scuseria, 
 M. A. Robb, J. R. Cheeseman, G. Scalmani, V. Barone, B. Mennucci, 
 G. A. Petersson, H. Nakatsuji, M. Caricato, X. Li, H. P. Hratchian, 
 A. F. Izmaylov, J. Bloino, G. Zheng, J. L. Sonnenberg, M. Hada, 
 M. Ehara, K. Toyota, R. Fukuda, J. Hasegawa, M. Ishida, T. Nakajima, 
 Y. Honda, O. Kitao, H. Nakai, T. Vreven, J. A. Montgomery, Jr., 
 J. E. Peralta, F. Ogliaro, M. Bearpark, J. J. Heyd, E. Brothers, 
 K. N. Kudin, V. N. Staroverov, T. Keith, R. Kobayashi, J. Normand, 
 K. Raghavachari, A. Rendell, J. C. Burant, S. S. Iyengar, J. Tomasi, 
 M. Cossi, N. Rega, J. M. Millam, M. Klene, J. E. Knox, J. B. Cross, 
 V. Bakken, C. Adamo, J. Jaramillo, R. Gomperts, R. E. Stratmann, 
 O. Yazyev, A. J. Austin, R. Cammi, C. Pomelli, J. W. Ochterski, 
 R. L. Martin, K. Morokuma, V. G. Zakrzewski, G. A. Voth, 
 P. Salvador, J. J. Dannenberg, S. Dapprich, A. D. Daniels, 
 O. Farkas, J. B. Foresman, J. V. Ortiz, J. Cioslowski, 
 and D. J. Fox, Gaussian, Inc., Wallingford CT, 2013.
 
 ******************************************
 Gaussian 09:  ES64L-G09RevE.01 30-Nov-2015
                19-May-2024 
 ******************************************
 %chk=pbe3HPA.chk
 -----------------------------
 # opt freq pbepbe/6-31+g(d,p)
 -----------------------------
 1/14=-1,18=20,19=15,26=3,38=1/1,3;
 2/9=110,12=2,17=6,18=5,40=1/2;
 3/5=1,6=6,7=111,11=2,16=1,25=1,30=1,71=1,74=1009/1,2,3;
 4//1;
 5/5=2,38=5/2;
 6/7=2,8=2,9=2,10=2,28=1/1;
 7//1,2,3,16;
 1/14=-1,18=20,19=15,26=3/3(2);
 2/9=110/2;
 99//99;
 2/9=110/2;
 3/5=1,6=6,7=111,11=2,16=1,25=1,30=1,71=1,74=1009/1,2,3;
 4/5=5,16=3,69=1/1;
 5/5=2,38=5/2;
 7//1,2,3,16;
 1/14=-1,18=20,19=15,26=3/3(-5);
 2/9=110/2;
 6/7=2,8=2,9=2,10=2,19=2,28=1/1;
 99/9=1/99;
 ----------
 [No Title]
 ----------
 Symbolic Z-matrix:
 Charge =  1 Multiplicity = 1
 N                     0.51177  -1.34938   0.00006 
 C                     1.8373   -1.41215   0.00001 
 C                     2.56092  -0.21887  -0.00007 
 C                     1.88992   0.98298  -0.0001 
 C                     0.47777   1.01894  -0.00005 
 C                    -0.20226  -0.19674   0.00003 
 C                    -1.67205  -0.42401   0.0001 
 O                    -2.14148  -1.53172   0.00013 
 O                    -2.36457   0.71891  -0.00003 
 O                    -0.0985    2.20979  -0.00008 
 H                    -0.05827  -2.20069   0.00012 
 H                     2.29083  -2.39528   0.00004 
 H                     3.64355  -0.25334  -0.00011 
 H                     2.42054   1.92938  -0.00017 
 H                    -3.32194   0.5358   -0.00004 
 H                    -1.07037   2.15311  -0.00003 
 

 GradGradGradGradGradGradGradGradGradGradGradGradGradGradGradGradGradGrad
 Berny optimization.
 Initialization pass.
                           ----------------------------
                           !    Initial Parameters    !
                           ! (Angstroms and Degrees)  !
 --------------------------                            --------------------------
 ! Name  Definition              Value          Derivative Info.                !
 --------------------------------------------------------------------------------
 ! R1    R(1,2)                  1.327          estimate D2E/DX2                !
 ! R2    R(1,6)                  1.3559         estimate D2E/DX2                !
 ! R3    R(1,11)                 1.0245         estimate D2E/DX2                !
 ! R4    R(2,3)                  1.3955         estimate D2E/DX2                !
 ! R5    R(2,12)                 1.0827         estimate D2E/DX2                !
 ! R6    R(3,4)                  1.3765         estimate D2E/DX2                !
 ! R7    R(3,13)                 1.0832         estimate D2E/DX2                !
 ! R8    R(4,5)                  1.4126         estimate D2E/DX2                !
 ! R9    R(4,14)                 1.085          estimate D2E/DX2                !
 ! R10   R(5,6)                  1.3929         estimate D2E/DX2                !
 ! R11   R(5,10)                 1.323          estimate D2E/DX2                !
 ! R12   R(6,7)                  1.4873         estimate D2E/DX2                !
 ! R13   R(7,8)                  1.2031         estimate D2E/DX2                !
 ! R14   R(7,9)                  1.3364         estimate D2E/DX2                !
 ! R15   R(9,15)                 0.9747         estimate D2E/DX2                !
 ! R16   R(10,16)                0.9735         estimate D2E/DX2                !
 ! A1    A(2,1,6)              124.4879         estimate D2E/DX2                !
 ! A2    A(2,1,11)             121.0952         estimate D2E/DX2                !
 ! A3    A(6,1,11)             114.4169         estimate D2E/DX2                !
 ! A4    A(1,2,3)              118.5224         estimate D2E/DX2                !
 ! A5    A(1,2,12)             117.4755         estimate D2E/DX2                !
 ! A6    A(3,2,12)             124.0021         estimate D2E/DX2                !
 ! A7    A(2,3,4)              119.5917         estimate D2E/DX2                !
 ! A8    A(2,3,13)             119.41           estimate D2E/DX2                !
 ! A9    A(4,3,13)             120.9983         estimate D2E/DX2                !
 ! A10   A(3,4,5)              120.6334         estimate D2E/DX2                !
 ! A11   A(3,4,14)             121.5469         estimate D2E/DX2                !
 ! A12   A(5,4,14)             117.8196         estimate D2E/DX2                !
 ! A13   A(4,5,6)              117.7634         estimate D2E/DX2                !
 ! A14   A(4,5,10)             117.2814         estimate D2E/DX2                !
 ! A15   A(6,5,10)             124.9552         estimate D2E/DX2                !
 ! A16   A(1,6,5)              119.0012         estimate D2E/DX2                !
 ! A17   A(1,6,7)              112.9867         estimate D2E/DX2                !
 ! A18   A(5,6,7)              128.0121         estimate D2E/DX2                !
 ! A19   A(6,7,8)              121.7563         estimate D2E/DX2                !
 ! A20   A(6,7,9)              112.4224         estimate D2E/DX2                !
 ! A21   A(8,7,9)              125.8213         estimate D2E/DX2                !
 ! A22   A(7,9,15)             110.3846         estimate D2E/DX2                !
 ! A23   A(5,10,16)            112.4851         estimate D2E/DX2                !
 ! D1    D(6,1,2,3)              0.0001         estimate D2E/DX2                !
 ! D2    D(6,1,2,12)          -180.0            estimate D2E/DX2                !
 ! D3    D(11,1,2,3)          -179.9999         estimate D2E/DX2                !
 ! D4    D(11,1,2,12)            0.0            estimate D2E/DX2                !
 ! D5    D(2,1,6,5)              0.0            estimate D2E/DX2                !
 ! D6    D(2,1,6,7)            180.0            estimate D2E/DX2                !
 ! D7    D(11,1,6,5)          -180.0            estimate D2E/DX2                !
 ! D8    D(11,1,6,7)             0.0            estimate D2E/DX2                !
 ! D9    D(1,2,3,4)             -0.0001         estimate D2E/DX2                !
 ! D10   D(1,2,3,13)           180.0            estimate D2E/DX2                !
 ! D11   D(12,2,3,4)           180.0            estimate D2E/DX2                !
 ! D12   D(12,2,3,13)            0.0            estimate D2E/DX2                !
 ! D13   D(2,3,4,5)              0.0            estimate D2E/DX2                !
 ! D14   D(2,3,4,14)           179.9998         estimate D2E/DX2                !
 ! D15   D(13,3,4,5)           180.0            estimate D2E/DX2                !
 ! D16   D(13,3,4,14)           -0.0002         estimate D2E/DX2                !
 ! D17   D(3,4,5,6)              0.0001         estimate D2E/DX2                !
 ! D18   D(3,4,5,10)           179.9995         estimate D2E/DX2                !
 ! D19   D(14,4,5,6)          -179.9997         estimate D2E/DX2                !
 ! D20   D(14,4,5,10)           -0.0004         estimate D2E/DX2                !
 ! D21   D(4,5,6,1)             -0.0001         estimate D2E/DX2                !
 ! D22   D(4,5,6,7)            180.0            estimate D2E/DX2                !
 ! D23   D(10,5,6,1)          -179.9994         estimate D2E/DX2                !
 ! D24   D(10,5,6,7)             0.0006         estimate D2E/DX2                !
 ! D25   D(4,5,10,16)         -179.9994         estimate D2E/DX2                !
 ! D26   D(6,5,10,16)           -0.0001         estimate D2E/DX2                !
 ! D27   D(1,6,7,8)             -0.0021         estimate D2E/DX2                !
 ! D28   D(1,6,7,9)           -179.9953         estimate D2E/DX2                !
 ! D29   D(5,6,7,8)            179.9978         estimate D2E/DX2                !
 ! D30   D(5,6,7,9)              0.0046         estimate D2E/DX2                !
 ! D31   D(6,7,9,15)           179.9963         estimate D2E/DX2                !
 ! D32   D(8,7,9,15)             0.0034         estimate D2E/DX2                !
 --------------------------------------------------------------------------------
 Trust Radius=3.00D-01 FncErr=1.00D-07 GrdErr=1.00D-06
 Number of steps in this run=     81 maximum allowed number of steps=    100.
 GradGradGradGradGradGradGradGradGradGradGradGradGradGradGradGradGradGrad

                          Input orientation:                          
 ---------------------------------------------------------------------
 Center     Atomic      Atomic             Coordinates (Angstroms)
 Number     Number       Type             X           Y           Z
 ---------------------------------------------------------------------
      1          7           0        0.511769   -1.349381    0.000060
      2          6           0        1.837300   -1.412147    0.000011
      3          6           0        2.560924   -0.218871   -0.000073
      4          6           0        1.889923    0.982980   -0.000104
      5          6           0        0.477770    1.018936   -0.000052
      6          6           0       -0.202257   -0.196736    0.000033
      7          6           0       -1.672053   -0.424013    0.000101
      8          8           0       -2.141477   -1.531723    0.000134
      9          8           0       -2.364571    0.718908   -0.000027
     10          8           0       -0.098498    2.209789   -0.000075
     11          1           0       -0.058266   -2.200690    0.000123
     12          1           0        2.290833   -2.395281    0.000040
     13          1           0        3.643546   -0.253336   -0.000113
     14          1           0        2.420544    1.929380   -0.000166
     15          1           0       -3.321942    0.535796   -0.000037
     16          1           0       -1.070370    2.153108   -0.000027
 ---------------------------------------------------------------------
                    Distance matrix (angstroms):
                    1          2          3          4          5
     1  N    0.000000
     2  C    1.327016   0.000000
     3  C    2.340318   1.395543   0.000000
     4  C    2.709099   2.395705   1.376477   0.000000
     5  C    2.368561   2.785406   2.423158   1.412611   0.000000
     6  C    1.355885   2.374240   2.763270   2.401863   1.392945
     7  C    2.371789   3.645815   4.237945   3.829791   2.589178
     8  O    2.659504   3.980573   4.882229   4.751412   3.655997
     9  O    3.542760   4.711381   5.013974   4.262681   2.858132
    10  O    3.611110   4.106791   3.601516   2.336424   1.322957
    11  H    1.024533   2.053039   3.284473   3.732452   3.263943
    12  H    2.063729   1.082702   2.193105   3.401967   3.865757
    13  H    3.318033   2.146012   1.083170   2.145617   3.411864
    14  H    3.793902   3.392046   2.152833   1.085003   2.145525
    15  H    4.272146   5.514731   5.931074   5.231014   3.830305
    16  H    3.843253   4.600607   4.337347   3.183164   1.919136
                    6          7          8          9         10
     6  C    0.000000
     7  C    1.487264   0.000000
     8  O    2.354308   1.203071   0.000000
     9  O    2.348192   1.336357   2.261661   0.000000
    10  O    2.408761   3.068059   4.262942   2.712529   0.000000
    11  H    2.009120   2.400185   2.187986   3.720631   4.410662
    12  H    3.324018   4.426100   4.515651   5.600978   5.188022
    13  H    3.846219   5.318338   5.924590   6.086274   4.479942
    14  H    3.376308   4.720997   5.726366   4.935845   2.534601
    15  H    3.204534   1.908761   2.380784   0.974725   3.632195
    16  H    2.505072   2.646427   3.837349   1.931809   0.973523
                   11         12         13         14         15
    11  H    0.000000
    12  H    2.357145   0.000000
    13  H    4.182774   2.533330   0.000000
    14  H    4.816843   4.326606   2.501996   0.000000
    15  H    4.259100   6.332018   7.010047   5.909164   0.000000
    16  H    4.469889   5.655575   5.292634   3.498076   2.772233
                   16
    16  H    0.000000
 Stoichiometry    C6H6NO3(1+)
 Framework group  C1[X(C6H6NO3)]
 Deg. of freedom    42
 Full point group                 C1      NOp   1
 Largest Abelian subgroup         C1      NOp   1
 Largest concise Abelian subgroup C1      NOp   1
                         Standard orientation:                         
 ---------------------------------------------------------------------
 Center     Atomic      Atomic             Coordinates (Angstroms)
 Number     Number       Type             X           Y           Z
 ---------------------------------------------------------------------
      1          7           0       -0.511769   -1.349381   -0.000060
      2          6           0       -1.837300   -1.412147   -0.000011
      3          6           0       -2.560924   -0.218871    0.000073
      4          6           0       -1.889923    0.982980    0.000104
      5          6           0       -0.477770    1.018936    0.000052
      6          6           0        0.202257   -0.196736   -0.000033
      7          6           0        1.672053   -0.424013   -0.000101
      8          8           0        2.141477   -1.531723   -0.000134
      9          8           0        2.364571    0.718908    0.000027
     10          8           0        0.098498    2.209789    0.000075
     11          1           0        0.058266   -2.200690   -0.000123
     12          1           0       -2.290833   -2.395281   -0.000040
     13          1           0       -3.643546   -0.253336    0.000113
     14          1           0       -2.420544    1.929380    0.000166
     15          1           0        3.321942    0.535796    0.000037
     16          1           0        1.070370    2.153108    0.000027
 ---------------------------------------------------------------------
 Rotational constants (GHZ):      2.2988213      1.2559873      0.8122210
 Standard basis: 6-31+G(d,p) (6D, 7F)
 There are   220 symmetry adapted cartesian basis functions of A   symmetry.
 There are   220 symmetry adapted basis functions of A   symmetry.
   220 basis functions,   362 primitive gaussians,   220 cartesian basis functions
    36 alpha electrons       36 beta electrons
       nuclear repulsion energy       522.6926599352 Hartrees.
 NAtoms=   16 NActive=   16 NUniq=   16 SFac= 1.00D+00 NAtFMM=   60 NAOKFM=F Big=F
 Integral buffers will be    131072 words long.
 Raffenetti 2 integral format.
 Two-electron integral symmetry is turned on.
 One-electron integrals computed using PRISM.
 NBasis=   220 RedAO= T EigKep=  4.63D-06  NBF=   220
 NBsUse=   220 1.00D-06 EigRej= -1.00D+00 NBFU=   220
 ExpMin= 4.38D-02 ExpMax= 5.48D+03 ExpMxC= 8.25D+02 IAcc=2 IRadAn=         4 AccDes= 0.00D+00
 Harris functional with IExCor= 1009 and IRadAn=       4 diagonalized for initial guess.
 HarFok:  IExCor= 1009 AccDes= 0.00D+00 IRadAn=         4 IDoV= 1 UseB2=F ITyADJ=14
 ICtDFT=  3500011 ScaDFX=  1.000000  1.000000  1.000000  1.000000
 FoFCou: FMM=F IPFlag=           0 FMFlag=      100000 FMFlg1=           0
         NFxFlg=           0 DoJE=T BraDBF=F KetDBF=T FulRan=T
         wScrn=  0.000000 ICntrl=     500 IOpCl=  0 I1Cent=   200000004 NGrid=           0
         NMat0=    1 NMatS0=      1 NMatT0=    0 NMatD0=    1 NMtDS0=    0 NMtDT0=    0
 Petite list used in FoFCou.
 Keep J ints in memory in canonical form, NReq=301066375.
 Requested convergence on RMS density matrix=1.00D-08 within 128 cycles.
 Requested convergence on MAX density matrix=1.00D-06.
 Requested convergence on             energy=1.00D-06.
 No special actions if energy rises.
 SCF Done:  E(RPBE-PBE) =  -511.910901061     A.U. after   15 cycles
            NFock= 15  Conv=0.29D-08     -V/T= 2.0086

 **********************************************************************

            Population analysis using the SCF density.

 **********************************************************************

 Orbital symmetries:
       Occupied  (A) (A) (A) (A) (A) (A) (A) (A) (A) (A) (A) (A)
                 (A) (A) (A) (A) (A) (A) (A) (A) (A) (A) (A) (A)
                 (A) (A) (A) (A) (A) (A) (A) (A) (A) (A) (A) (A)
       Virtual   (A) (A) (A) (A) (A) (A) (A) (A) (A) (A) (A) (A)
                 (A) (A) (A) (A) (A) (A) (A) (A) (A) (A) (A) (A)
                 (A) (A) (A) (A) (A) (A) (A) (A) (A) (A) (A) (A)
                 (A) (A) (A) (A) (A) (A) (A) (A) (A) (A) (A) (A)
                 (A) (A) (A) (A) (A) (A) (A) (A) (A) (A) (A) (A)
                 (A) (A) (A) (A) (A) (A) (A) (A) (A) (A) (A) (A)
                 (A) (A) (A) (A) (A) (A) (A) (A) (A) (A) (A) (A)
                 (A) (A) (A) (A) (A) (A) (A) (A) (A) (A) (A) (A)
                 (A) (A) (A) (A) (A) (A) (A) (A) (A) (A) (A) (A)
                 (A) (A) (A) (A) (A) (A) (A) (A) (A) (A) (A) (A)
                 (A) (A) (A) (A) (A) (A) (A) (A) (A) (A) (A) (A)
                 (A) (A) (A) (A) (A) (A) (A) (A) (A) (A) (A) (A)
                 (A) (A) (A) (A) (A) (A) (A) (A) (A) (A) (A) (A)
                 (A) (A) (A) (A) (A) (A) (A) (A) (A) (A) (A) (A)
                 (A) (A) (A) (A) (A) (A) (A) (A) (A) (A) (A) (A)
                 (A) (A) (A) (A)
 The electronic state is 1-A.
 Alpha  occ. eigenvalues --  -19.02376 -19.00490 -18.96020 -14.29976 -10.22376
 Alpha  occ. eigenvalues --  -10.18574 -10.16540 -10.15991 -10.12098 -10.11990
 Alpha  occ. eigenvalues --   -1.21883  -1.18327  -1.14233  -1.12191  -0.94948
 Alpha  occ. eigenvalues --   -0.92948  -0.83094  -0.80255  -0.78017  -0.72950
 Alpha  occ. eigenvalues --   -0.70011  -0.66306  -0.64742  -0.62210  -0.62047
 Alpha  occ. eigenvalues --   -0.61392  -0.57750  -0.55889  -0.54914  -0.54534
 Alpha  occ. eigenvalues --   -0.54472  -0.49801  -0.47465  -0.46372  -0.43193
 Alpha  occ. eigenvalues --   -0.41757
 Alpha virt. eigenvalues --   -0.29902  -0.25158  -0.18390  -0.16739  -0.15342
 Alpha virt. eigenvalues --   -0.12869  -0.12341  -0.11098  -0.10265  -0.09805
 Alpha virt. eigenvalues --   -0.08738  -0.07512  -0.06338  -0.06128  -0.05304
 Alpha virt. eigenvalues --   -0.05201  -0.03501  -0.03353  -0.02374  -0.01983
 Alpha virt. eigenvalues --   -0.01886  -0.00385   0.00086   0.00456   0.01572
 Alpha virt. eigenvalues --    0.01629   0.02190   0.02813   0.03833   0.04268
 Alpha virt. eigenvalues --    0.05563   0.06711   0.07219   0.07244   0.07898
 Alpha virt. eigenvalues --    0.08142   0.09222   0.09484   0.09992   0.11116
 Alpha virt. eigenvalues --    0.11509   0.12442   0.12825   0.13040   0.13998
 Alpha virt. eigenvalues --    0.15383   0.15521   0.15724   0.16825   0.17972
 Alpha virt. eigenvalues --    0.19903   0.20434   0.22303   0.22671   0.23266
 Alpha virt. eigenvalues --    0.27513   0.29305   0.32041   0.36123   0.38924
 Alpha virt. eigenvalues --    0.43006   0.43557   0.47518   0.47835   0.49595
 Alpha virt. eigenvalues --    0.50732   0.52002   0.53508   0.53895   0.58637
 Alpha virt. eigenvalues --    0.59086   0.61489   0.65728   0.66436   0.69501
 Alpha virt. eigenvalues --    0.72526   0.73621   0.76569   0.79076   0.81498
 Alpha virt. eigenvalues --    0.82254   0.85730   0.87390   0.89586   0.90642
 Alpha virt. eigenvalues --    0.90819   0.93277   0.94047   0.95980   0.96240
 Alpha virt. eigenvalues --    0.97310   0.99694   1.00959   1.03770   1.05176
 Alpha virt. eigenvalues --    1.06347   1.06905   1.08931   1.10492   1.11744
 Alpha virt. eigenvalues --    1.12209   1.13402   1.14392   1.14971   1.16758
 Alpha virt. eigenvalues --    1.18427   1.22664   1.29235   1.30860   1.33823
 Alpha virt. eigenvalues --    1.35474   1.36752   1.46585   1.49125   1.50590
 Alpha virt. eigenvalues --    1.50946   1.52746   1.55601   1.58174   1.62630
 Alpha virt. eigenvalues --    1.65823   1.66825   1.67434   1.70316   1.73123
 Alpha virt. eigenvalues --    1.73312   1.77453   1.80756   1.81094   1.83162
 Alpha virt. eigenvalues --    1.85222   1.87797   1.97061   1.98920   2.01301
 Alpha virt. eigenvalues --    2.04254   2.07717   2.10476   2.10960   2.12146
 Alpha virt. eigenvalues --    2.13435   2.14684   2.20602   2.23334   2.26129
 Alpha virt. eigenvalues --    2.26713   2.27741   2.28401   2.31546   2.33156
 Alpha virt. eigenvalues --    2.33233   2.39484   2.40866   2.43317   2.48345
 Alpha virt. eigenvalues --    2.49376   2.50128   2.53272   2.56255   2.62666
 Alpha virt. eigenvalues --    2.70671   2.78945   2.83613   2.85978   2.92818
 Alpha virt. eigenvalues --    2.97536   3.00249   3.01636   3.10844   3.15588
 Alpha virt. eigenvalues --    3.21334   3.26508   3.34055   3.61875   3.91847
 Alpha virt. eigenvalues --    4.00262   4.05371   4.09267   4.12919   4.20209
 Alpha virt. eigenvalues --    4.27507   4.40236   4.62943   4.66997
          Condensed to atoms (all electrons):
               1          2          3          4          5          6
     1  N    6.681244   0.091435  -0.001470  -0.075838  -0.220570   0.362026
     2  C    0.091435   5.992470  -0.015708   0.334210  -0.358744  -0.378051
     3  C   -0.001470  -0.015708   5.366760  -0.586189   1.378640  -0.433897
     4  C   -0.075838   0.334210  -0.586189   8.150309  -3.364385   1.273685
     5  C   -0.220570  -0.358744   1.378640  -3.364385  14.780988  -5.239708
     6  C    0.362026  -0.378051  -0.433897   1.273685  -5.239708  10.461947
     7  C    0.017650   0.180362  -0.258955   0.336137  -1.863933   0.387869
     8  O    0.012777   0.042833  -0.010264   0.032877   0.019840  -0.355594
     9  O    0.019977   0.004653  -0.002470   0.029375  -0.043888  -0.051616
    10  O    0.014647   0.001888   0.026678  -0.378475   0.278619   0.051817
    11  H    0.290817  -0.051792   0.041663  -0.028701   0.118335  -0.043289
    12  H   -0.066190   0.371545  -0.028421   0.037013  -0.045980   0.040952
    13  H    0.002978   0.030035   0.291900   0.023830  -0.030472   0.010439
    14  H    0.004404  -0.014415   0.065721   0.185108   0.147360  -0.056173
    15  H   -0.001308  -0.001393   0.000793  -0.001044   0.012555   0.033919
    16  H   -0.000181  -0.001203  -0.007218   0.072225   0.022407  -0.100335
               7          8          9         10         11         12
     1  N    0.017650   0.012777   0.019977   0.014647   0.290817  -0.066190
     2  C    0.180362   0.042833   0.004653   0.001888  -0.051792   0.371545
     3  C   -0.258955  -0.010264  -0.002470   0.026678   0.041663  -0.028421
     4  C    0.336137   0.032877   0.029375  -0.378475  -0.028701   0.037013
     5  C   -1.863933   0.019840  -0.043888   0.278619   0.118335  -0.045980
     6  C    0.387869  -0.355594  -0.051616   0.051817  -0.043289   0.040952
     7  C    6.417594   0.528679   0.052154  -0.024838  -0.077107   0.015164
     8  O    0.528679   8.244560  -0.157835  -0.002889   0.032263   0.000022
     9  O    0.052154  -0.157835   8.437210  -0.000882   0.003159   0.000026
    10  O   -0.024838  -0.002889  -0.000882   8.302851  -0.000323   0.000151
    11  H   -0.077107   0.032263   0.003159  -0.000323   0.352618  -0.004223
    12  H    0.015164   0.000022   0.000026   0.000151  -0.004223   0.463178
    13  H    0.002593   0.000006   0.000000  -0.000517  -0.000133  -0.003347
    14  H   -0.002244   0.000002   0.000181  -0.010826   0.000017  -0.000101
    15  H   -0.017258   0.006883   0.207795   0.001205  -0.000064  -0.000000
    16  H    0.024852   0.001551   0.033254   0.193655  -0.000029  -0.000000
              13         14         15         16
     1  N    0.002978   0.004404  -0.001308  -0.000181
     2  C    0.030035  -0.014415  -0.001393  -0.001203
     3  C    0.291900   0.065721   0.000793  -0.007218
     4  C    0.023830   0.185108  -0.001044   0.072225
     5  C   -0.030472   0.147360   0.012555   0.022407
     6  C    0.010439  -0.056173   0.033919  -0.100335
     7  C    0.002593  -0.002244  -0.017258   0.024852
     8  O    0.000006   0.000002   0.006883   0.001551
     9  O    0.000000   0.000181   0.207795   0.033254
    10  O   -0.000517  -0.010826   0.001205   0.193655
    11  H   -0.000133   0.000017  -0.000064  -0.000029
    12  H   -0.003347  -0.000101  -0.000000  -0.000000
    13  H    0.461358  -0.004975   0.000000   0.000003
    14  H   -0.004975   0.470413  -0.000000   0.000001
    15  H    0.000000  -0.000000   0.316179   0.000726
    16  H    0.000003   0.000001   0.000726   0.338577
 Mulliken charges:
               1
     1  N   -0.132399
     2  C   -0.228125
     3  C    0.172437
     4  C   -0.040136
     5  C    0.408937
     6  C    0.036009
     7  C    0.281282
     8  O   -0.395712
     9  O   -0.531090
    10  O   -0.452759
    11  H    0.366789
    12  H    0.220211
    13  H    0.216301
    14  H    0.215528
    15  H    0.441012
    16  H    0.421716
 Sum of Mulliken charges =   1.00000
 Mulliken charges with hydrogens summed into heavy atoms:
               1
     1  N    0.234390
     2  C   -0.007914
     3  C    0.388738
     4  C    0.175392
     5  C    0.408937
     6  C    0.036009
     7  C    0.281282
     8  O   -0.395712
     9  O   -0.090079
    10  O   -0.031043
 Electronic spatial extent (au):  <R**2>=           1303.7515
 Charge=              1.0000 electrons
 Dipole moment (field-independent basis, Debye):
    X=             -2.3208    Y=             -0.9660    Z=              0.0000  Tot=              2.5138
 Quadrupole moment (field-independent basis, Debye-Ang):
   XX=            -25.4581   YY=            -44.2059   ZZ=            -56.0503
   XY=              9.5105   XZ=             -0.0002   YZ=              0.0003
 Traceless Quadrupole moment (field-independent basis, Debye-Ang):
   XX=             16.4467   YY=             -2.3012   ZZ=            -14.1455
   XY=              9.5105   XZ=             -0.0002   YZ=              0.0003
 Octapole moment (field-independent basis, Debye-Ang**2):
  XXX=             11.9622  YYY=            -13.8054  ZZZ=             -0.0005  XYY=            -12.6281
  XXY=             16.6568  XXZ=              0.0030  XZZ=              8.4297  YZZ=              0.5719
  YYZ=             -0.0004  XYZ=             -0.0014
 Hexadecapole moment (field-independent basis, Debye-Ang**3):
 XXXX=           -651.9454 YYYY=           -488.6467 ZZZZ=            -53.2788 XXXY=             67.8184
 XXXZ=              0.0110 YYYX=             47.2057 YYYZ=             -0.0100 ZZZX=              0.0129
 ZZZY=             -0.0122 XXYY=           -223.7643 XXZZ=           -183.9439 YYZZ=           -103.9417
 XXYZ=             -0.0031 YYXZ=              0.0050 ZZXY=             -0.6857
 N-N= 5.226926599352D+02 E-N=-2.227434437243D+03  KE= 5.075598564179D+02
 Calling FoFJK, ICntrl=      2527 FMM=F ISym2X=0 I1Cent= 0 IOpClX= 0 NMat=1 NMatS=1 NMatT=0.
 ***** Axes restored to original set *****
 -------------------------------------------------------------------
 Center     Atomic                   Forces (Hartrees/Bohr)
 Number     Number              X              Y              Z
 -------------------------------------------------------------------
      1        7          -0.004904537   -0.001522265    0.000000745
      2        6           0.008893187   -0.004421337   -0.000000232
      3        6           0.005155780   -0.002333007   -0.000000220
      4        6           0.001247208    0.006367204   -0.000000792
      5        6           0.003099542    0.006459441    0.000000829
      6        6          -0.010720768   -0.004374611    0.000004429
      7        6           0.012316949    0.009330506   -0.000013898
      8        8          -0.011699021   -0.027928000    0.000006564
      9        8           0.001223080    0.017993449    0.000003157
     10        8           0.007271018    0.011222080   -0.000000755
     11        1          -0.004912088   -0.005608834    0.000000430
     12        1           0.002443949   -0.005492146    0.000000045
     13        1           0.006142250   -0.000277784   -0.000000148
     14        1           0.003250335    0.005285427   -0.000000396
     15        1          -0.008386641   -0.002426393    0.000000344
     16        1          -0.010420242   -0.002273731   -0.000000101
 -------------------------------------------------------------------
 Cartesian Forces:  Max     0.027928000 RMS     0.007074318

 GradGradGradGradGradGradGradGradGradGradGradGradGradGradGradGradGradGrad
 Berny optimization.
 FormGI is forming the generalized inverse of G from B-inverse, IUseBI=4.
 Internal  Forces:  Max     0.030280984 RMS     0.006333136
 Search for a local minimum.
 Step number   1 out of a maximum of   81
 All quantities printed in internal units (Hartrees-Bohrs-Radians)
 Mixed Optimization -- RFO/linear search
 Second derivative matrix not updated -- first step.
 ITU=  0
     Eigenvalues ---    0.00934   0.01502   0.01807   0.02074   0.02168
     Eigenvalues ---    0.02209   0.02252   0.02278   0.02379   0.02428
     Eigenvalues ---    0.02507   0.02534   0.02711   0.16000   0.16000
     Eigenvalues ---    0.16000   0.16000   0.16000   0.16000   0.22000
     Eigenvalues ---    0.22479   0.24470   0.25000   0.25000   0.25000
     Eigenvalues ---    0.25000   0.33751   0.35397   0.35614   0.35670
     Eigenvalues ---    0.41615   0.43452   0.43623   0.46589   0.48000
     Eigenvalues ---    0.52423   0.52577   0.52663   0.58029   0.58476
     Eigenvalues ---    0.61201   1.03295
 RFO step:  Lambda=-4.81117671D-03 EMin= 9.34416232D-03
 Linear search not attempted -- first point.
 Iteration  1 RMS(Cart)=  0.02011441 RMS(Int)=  0.00004551
 Iteration  2 RMS(Cart)=  0.00006456 RMS(Int)=  0.00000353
 Iteration  3 RMS(Cart)=  0.00000001 RMS(Int)=  0.00000353
 Variable       Old X    -DE/DX   Delta X   Delta X   Delta X     New X
                                 (Linear)    (Quad)   (Total)
    R1        2.50770   0.01630   0.00000   0.02713   0.02713   2.53483
    R2        2.56225   0.01016   0.00000   0.01915   0.01916   2.58141
    R3        1.93609   0.00739   0.00000   0.01676   0.01676   1.95285
    R4        2.63719   0.01033   0.00000   0.02192   0.02191   2.65911
    R5        2.04601   0.00601   0.00000   0.01662   0.01662   2.06264
    R6        2.60116   0.01331   0.00000   0.02605   0.02604   2.62720
    R7        2.04690   0.00615   0.00000   0.01703   0.01703   2.06393
    R8        2.66945   0.01085   0.00000   0.02425   0.02425   2.69370
    R9        2.05036   0.00620   0.00000   0.01728   0.01728   2.06764
   R10        2.63228   0.01869   0.00000   0.03966   0.03967   2.67195
   R11        2.50003   0.00943   0.00000   0.01528   0.01528   2.51531
   R12        2.81052   0.00693   0.00000   0.02025   0.02025   2.83078
   R13        2.27348   0.03028   0.00000   0.02918   0.02918   2.30265
   R14        2.52535   0.01702   0.00000   0.02909   0.02909   2.55444
   R15        1.84196   0.00869   0.00000   0.01643   0.01643   1.85840
   R16        1.83969   0.01054   0.00000   0.01983   0.01983   1.85952
    A1        2.17272   0.00062   0.00000   0.00437   0.00437   2.17710
    A2        2.11351   0.00062   0.00000   0.00345   0.00344   2.11695
    A3        1.99695  -0.00124   0.00000  -0.00781  -0.00782   1.98914
    A4        2.06861  -0.00013   0.00000  -0.00020  -0.00021   2.06840
    A5        2.05033  -0.00002   0.00000  -0.00038  -0.00038   2.04996
    A6        2.16425   0.00014   0.00000   0.00059   0.00059   2.16483
    A7        2.08727   0.00063   0.00000   0.00140   0.00139   2.08866
    A8        2.08410  -0.00040   0.00000  -0.00119  -0.00118   2.08292
    A9        2.11182  -0.00024   0.00000  -0.00021  -0.00021   2.11161
   A10        2.10545   0.00016   0.00000  -0.00115  -0.00115   2.10430
   A11        2.12139  -0.00033   0.00000  -0.00096  -0.00096   2.12043
   A12        2.05634   0.00017   0.00000   0.00211   0.00211   2.05846
   A13        2.05536   0.00055   0.00000   0.00171   0.00172   2.05707
   A14        2.04695  -0.00007   0.00000  -0.00003  -0.00004   2.04691
   A15        2.18088  -0.00049   0.00000  -0.00167  -0.00168   2.17920
   A16        2.07696  -0.00184   0.00000  -0.00612  -0.00611   2.07085
   A17        1.97199  -0.00035   0.00000  -0.00192  -0.00192   1.97007
   A18        2.23423   0.00219   0.00000   0.00804   0.00804   2.24227
   A19        2.12505   0.00094   0.00000   0.00368   0.00368   2.12873
   A20        1.96214  -0.00216   0.00000  -0.00850  -0.00850   1.95364
   A21        2.19600   0.00123   0.00000   0.00482   0.00482   2.20082
   A22        1.92657  -0.00149   0.00000  -0.00907  -0.00907   1.91750
   A23        1.96324  -0.00306   0.00000  -0.01858  -0.01858   1.94465
    D1        0.00000   0.00000   0.00000   0.00000   0.00000   0.00000
    D2       -3.14159   0.00000   0.00000   0.00000   0.00000  -3.14159
    D3       -3.14159  -0.00000   0.00000  -0.00000  -0.00000   3.14159
    D4        0.00000   0.00000   0.00000   0.00000   0.00000   0.00000
    D5        0.00000  -0.00000   0.00000  -0.00000  -0.00000  -0.00000
    D6        3.14159  -0.00000   0.00000  -0.00000  -0.00000   3.14159
    D7       -3.14159  -0.00000   0.00000  -0.00000  -0.00000   3.14159
    D8       -0.00000   0.00000   0.00000   0.00000   0.00000   0.00000
    D9       -0.00000  -0.00000   0.00000  -0.00000  -0.00000  -0.00000
   D10        3.14159   0.00000   0.00000   0.00000   0.00000   3.14159
   D11        3.14159  -0.00000   0.00000  -0.00000  -0.00000   3.14159
   D12        0.00000  -0.00000   0.00000  -0.00000  -0.00000  -0.00000
   D13       -0.00000   0.00000   0.00000   0.00000   0.00000   0.00000
   D14        3.14159   0.00000   0.00000   0.00000   0.00000  -3.14159
   D15        3.14159   0.00000   0.00000   0.00000   0.00000   3.14159
   D16       -0.00000   0.00000   0.00000   0.00000   0.00000  -0.00000
   D17        0.00000  -0.00000   0.00000  -0.00000  -0.00000  -0.00000
   D18        3.14158   0.00000   0.00000   0.00001   0.00001  -3.14159
   D19       -3.14159  -0.00000   0.00000  -0.00001  -0.00001   3.14159
   D20       -0.00001   0.00000   0.00000   0.00001   0.00001   0.00001
   D21       -0.00000   0.00000   0.00000   0.00000   0.00000   0.00000
   D22        3.14159   0.00000   0.00000   0.00000   0.00000  -3.14159
   D23       -3.14158  -0.00000   0.00000  -0.00001  -0.00001   3.14159
   D24        0.00001  -0.00000   0.00000  -0.00002  -0.00002  -0.00001
   D25       -3.14158  -0.00000   0.00000  -0.00003  -0.00003   3.14157
   D26       -0.00000  -0.00000   0.00000  -0.00001  -0.00001  -0.00001
   D27       -0.00004   0.00000   0.00000   0.00017   0.00017   0.00013
   D28       -3.14151  -0.00000   0.00000  -0.00022  -0.00022   3.14146
   D29        3.14155   0.00000   0.00000   0.00017   0.00017  -3.14146
   D30        0.00008  -0.00000   0.00000  -0.00021  -0.00021  -0.00013
   D31        3.14153   0.00000   0.00000   0.00021   0.00021  -3.14144
   D32        0.00006  -0.00000   0.00000  -0.00019  -0.00019  -0.00013
         Item               Value     Threshold  Converged?
 Maximum Force            0.030281     0.000450     NO 
 RMS     Force            0.006333     0.000300     NO 
 Maximum Displacement     0.057947     0.001800     NO 
 RMS     Displacement     0.020103     0.001200     NO 
 Predicted change in Energy=-2.428001D-03
 GradGradGradGradGradGradGradGradGradGradGradGradGradGradGradGradGradGrad

                          Input orientation:                          
 ---------------------------------------------------------------------
 Center     Atomic      Atomic             Coordinates (Angstroms)
 Number     Number       Type             X           Y           Z
 ---------------------------------------------------------------------
      1          7           0        0.510308   -1.356387    0.000013
      2          6           0        1.850077   -1.421966    0.000021
      3          6           0        2.581376   -0.219785   -0.000026
      4          6           0        1.907025    0.995972   -0.000082
      5          6           0        0.482103    1.034558   -0.000090
      6          6           0       -0.212281   -0.197127   -0.000042
      7          6           0       -1.691576   -0.433002   -0.000040
      8          8           0       -2.165872   -1.555417    0.000145
      9          8           0       -2.387682    0.725732    0.000072
     10          8           0       -0.095705    2.233649   -0.000151
     11          1           0       -0.068980   -2.212159    0.000046
     12          1           0        2.305339   -2.413988    0.000064
     13          1           0        3.672914   -0.257336   -0.000020
     14          1           0        2.445676    1.948346   -0.000121
     15          1           0       -3.352606    0.535891    0.000208
     16          1           0       -1.076941    2.159738   -0.000168
 ---------------------------------------------------------------------
                    Distance matrix (angstroms):
                    1          2          3          4          5
     1  N    0.000000
     2  C    1.341372   0.000000
     3  C    2.362453   1.407138   0.000000
     4  C    2.735764   2.418608   1.390257   0.000000
     5  C    2.391111   2.811737   2.445470   1.425444   0.000000
     6  C    1.366023   2.398656   2.793749   2.432065   1.413937
     7  C    2.387663   3.677139   4.278268   3.871936   2.622711
     8  O    2.683571   4.018165   4.931559   4.806045   3.704017
     9  O    3.568413   4.750916   5.058215   4.303201   2.886354
    10  O    3.640825   4.141206   3.631267   2.354309   1.331045
    11  H    1.033402   2.075375   3.315711   3.767850   3.293154
    12  H    2.083424   1.091500   2.211498   3.433144   3.900854
    13  H    3.348132   2.163123   1.092184   2.165443   3.442422
    14  H    3.829740   3.422534   2.172373   1.094149   2.165786
    15  H    4.301491   5.558877   5.981906   5.279715   3.866997
    16  H    3.857784   4.625585   4.364106   3.202875   1.922667
                    6          7          8          9         10
     6  C    0.000000
     7  C    1.497982   0.000000
     8  O    2.379384   1.218512   0.000000
     9  O    2.363057   1.351751   2.291908   0.000000
    10  O    2.433569   3.107705   4.317709   2.743532   0.000000
    11  H    2.020121   2.407948   2.197331   3.742671   4.445888
    12  H    3.354532   4.460901   4.552897   5.646441   5.231208
    13  H    3.885662   5.367366   5.981341   6.139809   4.517466
    14  H    3.415815   4.773644   5.791609   4.985593   2.557346
    15  H    3.224741   1.922960   2.404560   0.983422   3.672845
    16  H    2.510468   2.664597   3.871453   1.942785   0.984016
                   11         12         13         14         15
    11  H    0.000000
    12  H    2.382882   0.000000
    13  H    4.221742   2.553705   0.000000
    14  H    4.861408   4.364590   2.524112   0.000000
    15  H    4.281820   6.380763   7.070159   5.967840   0.000000
    16  H    4.486588   5.688479   5.329482   3.528955   2.795627
                   16
    16  H    0.000000
 Stoichiometry    C6H6NO3(1+)
 Framework group  C1[X(C6H6NO3)]
 Deg. of freedom    42
 Full point group                 C1      NOp   1
 Largest Abelian subgroup         C1      NOp   1
 Largest concise Abelian subgroup C1      NOp   1
                         Standard orientation:                         
 ---------------------------------------------------------------------
 Center     Atomic      Atomic             Coordinates (Angstroms)
 Number     Number       Type             X           Y           Z
 ---------------------------------------------------------------------
      1          7           0       -0.504100   -1.360393   -0.000026
      2          6           0       -1.843410   -1.434743   -0.000034
      3          6           0       -2.582565   -0.237376    0.000014
      4          6           0       -1.916188    0.982770    0.000069
      5          6           0       -0.491549    1.030685    0.000077
      6          6           0        0.210885   -0.196427    0.000030
      7          6           0        1.691692   -0.422612    0.000027
      8          8           0        2.173326   -1.541897   -0.000158
      9          8           0        2.380196    0.740655   -0.000085
     10          8           0        0.078396    2.233533    0.000138
     11          1           0        0.080779   -2.212354   -0.000059
     12          1           0       -2.292168   -2.429724   -0.000077
     13          1           0       -3.673834   -0.282072    0.000007
     14          1           0       -2.461063    1.931597    0.000108
     15          1           0        3.346343    0.557136   -0.000220
     16          1           0        1.060095    2.166049    0.000155
 ---------------------------------------------------------------------
 Rotational constants (GHZ):      2.2519831      1.2327148      0.7966409
 Standard basis: 6-31+G(d,p) (6D, 7F)
 There are   220 symmetry adapted cartesian basis functions of A   symmetry.
 There are   220 symmetry adapted basis functions of A   symmetry.
   220 basis functions,   362 primitive gaussians,   220 cartesian basis functions
    36 alpha electrons       36 beta electrons
       nuclear repulsion energy       517.6897871029 Hartrees.
 NAtoms=   16 NActive=   16 NUniq=   16 SFac= 1.00D+00 NAtFMM=   60 NAOKFM=F Big=F
 Integral buffers will be    131072 words long.
 Raffenetti 2 integral format.
 Two-electron integral symmetry is turned on.
 One-electron integrals computed using PRISM.
 NBasis=   220 RedAO= T EigKep=  5.04D-06  NBF=   220
 NBsUse=   220 1.00D-06 EigRej= -1.00D+00 NBFU=   220
 Initial guess from the checkpoint file:  "pbe3HPA.chk"
 B after Tr=    -0.000000    0.000000   -0.000000
         Rot=    0.999995   -0.000001    0.000000   -0.003138 Ang=  -0.36 deg.
 ExpMin= 4.38D-02 ExpMax= 5.48D+03 ExpMxC= 8.25D+02 IAcc=2 IRadAn=         4 AccDes= 0.00D+00
 Harris functional with IExCor= 1009 and IRadAn=       4 diagonalized for initial guess.
 HarFok:  IExCor= 1009 AccDes= 0.00D+00 IRadAn=         4 IDoV= 1 UseB2=F ITyADJ=14
 ICtDFT=  3500011 ScaDFX=  1.000000  1.000000  1.000000  1.000000
 FoFCou: FMM=F IPFlag=           0 FMFlag=      100000 FMFlg1=           0
         NFxFlg=           0 DoJE=T BraDBF=F KetDBF=T FulRan=T
         wScrn=  0.000000 ICntrl=     500 IOpCl=  0 I1Cent=   200000004 NGrid=           0
         NMat0=    1 NMatS0=      1 NMatT0=    0 NMatD0=    1 NMtDS0=    0 NMtDT0=    0
 Petite list used in FoFCou.
 Keep J ints in memory in canonical form, NReq=301066375.
 Requested convergence on RMS density matrix=1.00D-08 within 128 cycles.
 Requested convergence on MAX density matrix=1.00D-06.
 Requested convergence on             energy=1.00D-06.
 No special actions if energy rises.
 EnCoef did     6 forward-backward iterations
 SCF Done:  E(RPBE-PBE) =  -511.913301786     A.U. after   13 cycles
            NFock= 13  Conv=0.25D-08     -V/T= 2.0094
 Calling FoFJK, ICntrl=      2527 FMM=F ISym2X=0 I1Cent= 0 IOpClX= 0 NMat=1 NMatS=1 NMatT=0.
 ***** Axes restored to original set *****
 -------------------------------------------------------------------
 Center     Atomic                   Forces (Hartrees/Bohr)
 Number     Number              X              Y              Z
 -------------------------------------------------------------------
      1        7          -0.000512557    0.000794335   -0.000001662
      2        6           0.002067280    0.000726967    0.000000327
      3        6          -0.001340004   -0.000744378   -0.000000044
      4        6          -0.001301384    0.000100560    0.000001079
      5        6           0.002281779   -0.000962409   -0.000001323
      6        6          -0.002526830   -0.000207452   -0.000008908
      7        6           0.004062506   -0.001004111    0.000032700
      8        8          -0.000715511   -0.001450947   -0.000012604
      9        8           0.000580387    0.003571304   -0.000009897
     10        8           0.000906168    0.001066461   -0.000000668
     11        1          -0.000382550   -0.000223863    0.000000449
     12        1          -0.000415008    0.000049701    0.000000329
     13        1          -0.000120243   -0.000013156   -0.000000099
     14        1          -0.000050339   -0.000175193   -0.000000109
     15        1          -0.000759574   -0.000770442   -0.000000678
     16        1          -0.001774120   -0.000757376    0.000001109
 -------------------------------------------------------------------
 Cartesian Forces:  Max     0.004062506 RMS     0.001143832

 GradGradGradGradGradGradGradGradGradGradGradGradGradGradGradGradGradGrad
 Berny optimization.
 Using GEDIIS/GDIIS optimizer.
 FormGI is forming the generalized inverse of G from B-inverse, IUseBI=4.
 Internal  Forces:  Max     0.003181736 RMS     0.000774911
 Search for a local minimum.
 Step number   2 out of a maximum of   81
 All quantities printed in internal units (Hartrees-Bohrs-Radians)
 Mixed Optimization -- En-DIIS/RFO-DIIS
 Update second derivatives using D2CorX and points    1    2
 DE= -2.40D-03 DEPred=-2.43D-03 R= 9.89D-01
 TightC=F SS=  1.41D+00  RLast= 9.66D-02 DXNew= 5.0454D-01 2.8969D-01
 Trust test= 9.89D-01 RLast= 9.66D-02 DXMaxT set to 3.00D-01
 ITU=  1  0
 Use linear search instead of GDIIS.
     Eigenvalues ---    0.00934   0.01503   0.01804   0.02074   0.02168
     Eigenvalues ---    0.02209   0.02252   0.02278   0.02379   0.02429
     Eigenvalues ---    0.02508   0.02534   0.02711   0.15737   0.16000
     Eigenvalues ---    0.16000   0.16000   0.16000   0.16012   0.21974
     Eigenvalues ---    0.22491   0.24444   0.24679   0.25000   0.25000
     Eigenvalues ---    0.25095   0.34053   0.35460   0.35639   0.36024
     Eigenvalues ---    0.42155   0.43434   0.43634   0.47812   0.48356
     Eigenvalues ---    0.51225   0.52490   0.53859   0.56524   0.58799
     Eigenvalues ---    0.61105   1.01777
 RFO step:  Lambda=-1.26466094D-04 EMin= 9.34416238D-03
 Quartic linear search produced a step of  0.01203.
 Iteration  1 RMS(Cart)=  0.00852037 RMS(Int)=  0.00003016
 Iteration  2 RMS(Cart)=  0.00004152 RMS(Int)=  0.00000010
 Iteration  3 RMS(Cart)=  0.00000000 RMS(Int)=  0.00000010
 Variable       Old X    -DE/DX   Delta X   Delta X   Delta X     New X
                                 (Linear)    (Quad)   (Total)
    R1        2.53483   0.00054   0.00033   0.00139   0.00172   2.53654
    R2        2.58141  -0.00079   0.00023  -0.00116  -0.00093   2.58048
    R3        1.95285   0.00040   0.00020   0.00117   0.00137   1.95422
    R4        2.65911  -0.00112   0.00026  -0.00205  -0.00179   2.65732
    R5        2.06264  -0.00022   0.00020  -0.00038  -0.00018   2.06246
    R6        2.62720  -0.00007   0.00031   0.00020   0.00051   2.62772
    R7        2.06393  -0.00012   0.00020  -0.00009   0.00012   2.06405
    R8        2.69370  -0.00170   0.00029  -0.00371  -0.00342   2.69028
    R9        2.06764  -0.00018   0.00021  -0.00025  -0.00004   2.06760
   R10        2.67195  -0.00088   0.00048  -0.00139  -0.00091   2.67104
   R11        2.51531   0.00066   0.00018   0.00131   0.00149   2.51680
   R12        2.83078  -0.00318   0.00024  -0.00924  -0.00899   2.82178
   R13        2.30265   0.00162   0.00035   0.00200   0.00236   2.30501
   R14        2.55444   0.00249   0.00035   0.00476   0.00511   2.55955
   R15        1.85840   0.00090   0.00020   0.00197   0.00217   1.86056
   R16        1.85952   0.00183   0.00024   0.00380   0.00404   1.86356
    A1        2.17710  -0.00033   0.00005  -0.00105  -0.00100   2.17610
    A2        2.11695   0.00035   0.00004   0.00178   0.00182   2.11878
    A3        1.98914  -0.00002  -0.00009  -0.00073  -0.00082   1.98831
    A4        2.06840  -0.00041  -0.00000  -0.00142  -0.00142   2.06697
    A5        2.04996  -0.00016  -0.00000  -0.00160  -0.00161   2.04835
    A6        2.16483   0.00057   0.00001   0.00302   0.00303   2.16786
    A7        2.08866   0.00044   0.00002   0.00212   0.00214   2.09080
    A8        2.08292  -0.00023  -0.00001  -0.00116  -0.00118   2.08174
    A9        2.11161  -0.00020  -0.00000  -0.00096  -0.00096   2.11065
   A10        2.10430  -0.00023  -0.00001  -0.00141  -0.00142   2.10288
   A11        2.12043   0.00008  -0.00001   0.00042   0.00041   2.12084
   A12        2.05846   0.00016   0.00003   0.00099   0.00101   2.05947
   A13        2.05707   0.00025   0.00002   0.00072   0.00074   2.05782
   A14        2.04691   0.00127  -0.00000   0.00531   0.00531   2.05222
   A15        2.17920  -0.00153  -0.00002  -0.00603  -0.00606   2.17315
   A16        2.07085   0.00028  -0.00007   0.00103   0.00096   2.07181
   A17        1.97007   0.00080  -0.00002   0.00322   0.00319   1.97326
   A18        2.24227  -0.00108   0.00010  -0.00425  -0.00415   2.23812
   A19        2.12873   0.00086   0.00004   0.00352   0.00356   2.13229
   A20        1.95364  -0.00150  -0.00010  -0.00619  -0.00630   1.94735
   A21        2.20082   0.00064   0.00006   0.00268   0.00273   2.20355
   A22        1.91750  -0.00114  -0.00011  -0.00733  -0.00744   1.91006
   A23        1.94465  -0.00116  -0.00022  -0.00761  -0.00783   1.93682
    D1        0.00000  -0.00000   0.00000  -0.00001  -0.00001  -0.00001
    D2       -3.14159  -0.00000   0.00000  -0.00001  -0.00001   3.14158
    D3        3.14159   0.00000  -0.00000   0.00001   0.00001  -3.14158
    D4        0.00000   0.00000   0.00000   0.00001   0.00001   0.00001
    D5       -0.00000   0.00000  -0.00000   0.00001   0.00001   0.00001
    D6        3.14159   0.00000  -0.00000   0.00001   0.00001  -3.14158
    D7        3.14159  -0.00000  -0.00000  -0.00001  -0.00001   3.14158
    D8        0.00000  -0.00000   0.00000  -0.00001  -0.00001  -0.00001
    D9       -0.00000   0.00000  -0.00000   0.00001   0.00001   0.00001
   D10        3.14159   0.00000   0.00000   0.00000   0.00000  -3.14159
   D11        3.14159   0.00000  -0.00000   0.00001   0.00001  -3.14158
   D12       -0.00000   0.00000  -0.00000   0.00001   0.00001   0.00001
   D13        0.00000  -0.00000   0.00000  -0.00000  -0.00000  -0.00000
   D14       -3.14159  -0.00000   0.00000  -0.00000  -0.00000   3.14159
   D15        3.14159   0.00000   0.00000   0.00000   0.00000  -3.14159
   D16       -0.00000   0.00000   0.00000   0.00000   0.00000   0.00000
   D17       -0.00000   0.00000  -0.00000   0.00000   0.00000   0.00000
   D18       -3.14159  -0.00000   0.00000  -0.00002  -0.00002   3.14158
   D19        3.14159   0.00000  -0.00000   0.00000   0.00000  -3.14159
   D20        0.00001  -0.00000   0.00000  -0.00002  -0.00002  -0.00001
   D21        0.00000  -0.00000   0.00000  -0.00001  -0.00001  -0.00001
   D22       -3.14159  -0.00000   0.00000  -0.00001  -0.00001   3.14159
   D23        3.14159   0.00000  -0.00000   0.00002   0.00002  -3.14158
   D24       -0.00001   0.00000  -0.00000   0.00002   0.00002   0.00001
   D25        3.14157   0.00000  -0.00000   0.00005   0.00005  -3.14156
   D26       -0.00001   0.00000  -0.00000   0.00002   0.00002   0.00001
   D27        0.00013  -0.00001   0.00000  -0.00054  -0.00054  -0.00041
   D28        3.14146   0.00001  -0.00000   0.00056   0.00056  -3.14117
   D29       -3.14146  -0.00001   0.00000  -0.00054  -0.00054   3.14119
   D30       -0.00013   0.00001  -0.00000   0.00056   0.00056   0.00042
   D31       -3.14144  -0.00001   0.00000  -0.00060  -0.00060   3.14114
   D32       -0.00013   0.00001  -0.00000   0.00055   0.00055   0.00042
         Item               Value     Threshold  Converged?
 Maximum Force            0.003182     0.000450     NO 
 RMS     Force            0.000775     0.000300     NO 
 Maximum Displacement     0.039216     0.001800     NO 
 RMS     Displacement     0.008541     0.001200     NO 
 Predicted change in Energy=-6.351660D-05
 GradGradGradGradGradGradGradGradGradGradGradGradGradGradGradGradGradGrad

                          Input orientation:                          
 ---------------------------------------------------------------------
 Center     Atomic      Atomic             Coordinates (Angstroms)
 Number     Number       Type             X           Y           Z
 ---------------------------------------------------------------------
      1          7           0        0.511098   -1.358347    0.000144
      2          6           0        1.851858   -1.422217   -0.000003
      3          6           0        2.579383   -0.218854   -0.000153
      4          6           0        1.904184    0.996741   -0.000139
      5          6           0        0.480996    1.032419    0.000021
      6          6           0       -0.211588   -0.199727    0.000169
      7          6           0       -1.686855   -0.430599    0.000358
      8          8           0       -2.168870   -1.551078    0.000057
      9          8           0       -2.373665    0.736810   -0.000156
     10          8           0       -0.105926    2.227953    0.000040
     11          1           0       -0.069039   -2.214422    0.000266
     12          1           0        2.306784   -2.414291    0.000004
     13          1           0        3.671041   -0.254711   -0.000276
     14          1           0        2.441875    1.949633   -0.000251
     15          1           0       -3.340043    0.548426   -0.000436
     16          1           0       -1.088058    2.138986    0.000183
 ---------------------------------------------------------------------
                    Distance matrix (angstroms):
                    1          2          3          4          5
     1  N    0.000000
     2  C    1.342280   0.000000
     3  C    2.361408   1.406192   0.000000
     4  C    2.736262   2.419524   1.390528   0.000000
     5  C    2.390956   2.811494   2.443136   1.423635   0.000000
     6  C    1.365531   2.398394   2.791037   2.430644   1.413456
     7  C    2.385732   3.675023   4.271490   3.864306   2.615340
     8  O    2.686889   4.022792   4.931605   4.804285   3.700844
     9  O    3.565325   4.745150   5.044402   4.285739   2.869927
    10  O    3.638993   4.142060   3.632871   2.357207   1.331833
    11  H    1.034129   2.077844   3.316087   3.768976   3.293101
    12  H    2.083148   1.091407   2.212296   3.434710   3.900425
    13  H    3.347126   2.161596   1.092246   2.165159   3.439925
    14  H    3.830227   3.423083   2.172843   1.094127   2.164793
    15  H    4.297333   5.553312   5.968947   5.263355   3.851570
    16  H    3.845600   4.617930   4.359993   3.202848   1.920006
                    6          7          8          9         10
     6  C    0.000000
     7  C    1.493223   0.000000
     8  O    2.378466   1.219759   0.000000
     9  O    2.356200   1.354457   2.297036   0.000000
    10  O    2.429979   3.093095   4.305440   2.714066   0.000000
    11  H    2.019731   2.408184   2.202115   3.744472   4.442528
    12  H    3.353579   4.459169   4.558137   5.642344   5.231788
    13  H    3.883018   5.360782   5.982067   6.125487   4.519856
    14  H    3.414765   4.765703   5.789123   4.965921   2.562957
    15  H    3.216669   1.921333   2.404073   0.984568   3.644218
    16  H    2.497555   2.638432   3.845091   1.902336   0.986154
                   11         12         13         14         15
    11  H    0.000000
    12  H    2.384216   0.000000
    13  H    4.222400   2.554404   0.000000
    14  H    4.862514   4.366015   2.523882   0.000000
    15  H    4.281681   6.376861   7.056934   5.949282   0.000000
    16  H    4.471080   5.679550   5.327176   3.535009   2.757048
                   16
    16  H    0.000000
 Stoichiometry    C6H6NO3(1+)
 Framework group  C1[X(C6H6NO3)]
 Deg. of freedom    42
 Full point group                 C1      NOp   1
 Largest Abelian subgroup         C1      NOp   1
 Largest concise Abelian subgroup C1      NOp   1
                         Standard orientation:                         
 ---------------------------------------------------------------------
 Center     Atomic      Atomic             Coordinates (Angstroms)
 Number     Number       Type             X           Y           Z
 ---------------------------------------------------------------------
      1          7           0       -0.510679   -1.360818   -0.000123
      2          6           0       -1.851301   -1.427526    0.000024
      3          6           0       -2.581371   -0.225705    0.000174
      4          6           0       -1.908746    0.991317    0.000161
      5          6           0       -0.485637    1.030006   -0.000000
      6          6           0        0.209554   -0.200671   -0.000148
      7          6           0        1.685306   -0.428420   -0.000337
      8          8           0        2.169691   -1.547876   -0.000036
      9          8           0        2.369644    0.740440    0.000177
     10          8           0        0.098753    2.226780   -0.000019
     11          1           0        0.071269   -2.215663   -0.000245
     12          1           0       -2.304126   -2.420560    0.000017
     13          1           0       -3.672950   -0.263872    0.000297
     14          1           0       -2.448453    1.943068    0.000273
     15          1           0        3.336418    0.554102    0.000457
     16          1           0        1.081072    2.139892   -0.000161
 ---------------------------------------------------------------------
 Rotational constants (GHZ):      2.2553326      1.2367617      0.7987496
 Standard basis: 6-31+G(d,p) (6D, 7F)
 There are   220 symmetry adapted cartesian basis functions of A   symmetry.
 There are   220 symmetry adapted basis functions of A   symmetry.
   220 basis functions,   362 primitive gaussians,   220 cartesian basis functions
    36 alpha electrons       36 beta electrons
       nuclear repulsion energy       518.1252778231 Hartrees.
 NAtoms=   16 NActive=   16 NUniq=   16 SFac= 1.00D+00 NAtFMM=   60 NAOKFM=F Big=F
 Integral buffers will be    131072 words long.
 Raffenetti 2 integral format.
 Two-electron integral symmetry is turned on.
 One-electron integrals computed using PRISM.
 NBasis=   220 RedAO= T EigKep=  5.03D-06  NBF=   220
 NBsUse=   220 1.00D-06 EigRej= -1.00D+00 NBFU=   220
 Initial guess from the checkpoint file:  "pbe3HPA.chk"
 B after Tr=     0.000000   -0.000000   -0.000000
         Rot=    0.999998    0.000005   -0.000001    0.001991 Ang=   0.23 deg.
 ExpMin= 4.38D-02 ExpMax= 5.48D+03 ExpMxC= 8.25D+02 IAcc=2 IRadAn=         4 AccDes= 0.00D+00
 Harris functional with IExCor= 1009 and IRadAn=       4 diagonalized for initial guess.
 HarFok:  IExCor= 1009 AccDes= 0.00D+00 IRadAn=         4 IDoV= 1 UseB2=F ITyADJ=14
 ICtDFT=  3500011 ScaDFX=  1.000000  1.000000  1.000000  1.000000
 FoFCou: FMM=F IPFlag=           0 FMFlag=      100000 FMFlg1=           0
         NFxFlg=           0 DoJE=T BraDBF=F KetDBF=T FulRan=T
         wScrn=  0.000000 ICntrl=     500 IOpCl=  0 I1Cent=   200000004 NGrid=           0
         NMat0=    1 NMatS0=      1 NMatT0=    0 NMatD0=    1 NMtDS0=    0 NMtDT0=    0
 Petite list used in FoFCou.
 Keep J ints in memory in canonical form, NReq=301066375.
 Requested convergence on RMS density matrix=1.00D-08 within 128 cycles.
 Requested convergence on MAX density matrix=1.00D-06.
 Requested convergence on             energy=1.00D-06.
 No special actions if energy rises.
 SCF Done:  E(RPBE-PBE) =  -511.913356748     A.U. after   11 cycles
            NFock= 11  Conv=0.90D-08     -V/T= 2.0094
 Calling FoFJK, ICntrl=      2527 FMM=F ISym2X=0 I1Cent= 0 IOpClX= 0 NMat=1 NMatS=1 NMatT=0.
 ***** Axes restored to original set *****
 -------------------------------------------------------------------
 Center     Atomic                   Forces (Hartrees/Bohr)
 Number     Number              X              Y              Z
 -------------------------------------------------------------------
      1        7          -0.000313567    0.000090113    0.000005240
      2        6           0.000560499    0.000290775   -0.000001139
      3        6          -0.000428184   -0.000260344    0.000000374
      4        6          -0.000430923    0.000086045   -0.000002997
      5        6           0.000757387    0.000421586    0.000003128
      6        6          -0.000730278   -0.000868179    0.000028429
      7        6           0.002498529   -0.001788150   -0.000101940
      8        8          -0.000368117    0.001008014    0.000039608
      9        8          -0.001731122    0.000584651    0.000030059
     10        8           0.000845899    0.000265750    0.000001909
     11        1           0.000197016    0.000137240   -0.000001579
     12        1          -0.000175365    0.000114260   -0.000001020
     13        1          -0.000121430    0.000023903    0.000000283
     14        1           0.000012725   -0.000209000    0.000000370
     15        1          -0.000168204    0.000122431    0.000002248
     16        1          -0.000404866   -0.000019092   -0.000002971
 -------------------------------------------------------------------
 Cartesian Forces:  Max     0.002498529 RMS     0.000613837

 GradGradGradGradGradGradGradGradGradGradGradGradGradGradGradGradGradGrad
 Berny optimization.
 Using GEDIIS/GDIIS optimizer.
 FormGI is forming the generalized inverse of G from B-inverse, IUseBI=4.
 Internal  Forces:  Max     0.001568163 RMS     0.000419429
 Search for a local minimum.
 Step number   3 out of a maximum of   81
 All quantities printed in internal units (Hartrees-Bohrs-Radians)
 Mixed Optimization -- En-DIIS/RFO-DIIS
 Swapping is turned off.
 Update second derivatives using D2CorX and points    1    2    3
 DE= -5.50D-05 DEPred=-6.35D-05 R= 8.65D-01
 TightC=F SS=  1.41D+00  RLast= 2.14D-02 DXNew= 5.0454D-01 6.4252D-02
 Trust test= 8.65D-01 RLast= 2.14D-02 DXMaxT set to 3.00D-01
 ITU=  1  1  0
     Eigenvalues ---    0.00934   0.01504   0.01804   0.02073   0.02168
     Eigenvalues ---    0.02208   0.02252   0.02278   0.02378   0.02428
     Eigenvalues ---    0.02508   0.02534   0.02711   0.14525   0.16000
     Eigenvalues ---    0.16000   0.16000   0.16006   0.16113   0.21528
     Eigenvalues ---    0.22509   0.23643   0.24479   0.25000   0.25021
     Eigenvalues ---    0.30200   0.35225   0.35491   0.35654   0.35911
     Eigenvalues ---    0.40856   0.43416   0.45291   0.47094   0.49193
     Eigenvalues ---    0.51035   0.52484   0.53444   0.56496   0.58925
     Eigenvalues ---    0.61341   1.05044
 En-DIIS/RFO-DIIS IScMMF=        0 using points:     3    2
 RFO step:  Lambda=-1.90081213D-05.
 DidBck=F Rises=F RFO-DIIS coefs:    0.88121    0.11879
 Iteration  1 RMS(Cart)=  0.00318028 RMS(Int)=  0.00000572
 Iteration  2 RMS(Cart)=  0.00000745 RMS(Int)=  0.00000091
 Iteration  3 RMS(Cart)=  0.00000000 RMS(Int)=  0.00000091
 Variable       Old X    -DE/DX   Delta X   Delta X   Delta X     New X
                                 (Linear)    (Quad)   (Total)
    R1        2.53654  -0.00005  -0.00020   0.00059   0.00039   2.53693
    R2        2.58048  -0.00021   0.00011  -0.00055  -0.00044   2.58004
    R3        1.95422  -0.00022  -0.00016   0.00007  -0.00009   1.95413
    R4        2.65732  -0.00064   0.00021  -0.00186  -0.00164   2.65567
    R5        2.06246  -0.00018   0.00002  -0.00045  -0.00043   2.06203
    R6        2.62772  -0.00028  -0.00006  -0.00029  -0.00036   2.62736
    R7        2.06405  -0.00012  -0.00001  -0.00021  -0.00022   2.06382
    R8        2.69028  -0.00053   0.00041  -0.00216  -0.00175   2.68853
    R9        2.06760  -0.00017   0.00000  -0.00040  -0.00039   2.06721
   R10        2.67104   0.00103   0.00011   0.00184   0.00195   2.67299
   R11        2.51680   0.00003  -0.00018   0.00060   0.00042   2.51722
   R12        2.82178  -0.00022   0.00107  -0.00358  -0.00251   2.81927
   R13        2.30501  -0.00078  -0.00028   0.00024  -0.00004   2.30497
   R14        2.55955   0.00157  -0.00061   0.00423   0.00363   2.56318
   R15        1.86056   0.00014  -0.00026   0.00104   0.00078   1.86134
   R16        1.86356   0.00041  -0.00048   0.00213   0.00165   1.86521
    A1        2.17610   0.00016   0.00012   0.00037   0.00049   2.17659
    A2        2.11878  -0.00017  -0.00022  -0.00019  -0.00041   2.11837
    A3        1.98831   0.00001   0.00010  -0.00018  -0.00008   1.98823
    A4        2.06697   0.00000   0.00017  -0.00073  -0.00056   2.06641
    A5        2.04835  -0.00011   0.00019  -0.00105  -0.00086   2.04749
    A6        2.16786   0.00011  -0.00036   0.00178   0.00142   2.16928
    A7        2.09080   0.00016  -0.00025   0.00104   0.00078   2.09158
    A8        2.08174  -0.00006   0.00014  -0.00043  -0.00029   2.08145
    A9        2.11065  -0.00011   0.00011  -0.00061  -0.00050   2.11015
   A10        2.10288   0.00015   0.00017  -0.00001   0.00016   2.10304
   A11        2.12084  -0.00019  -0.00005  -0.00074  -0.00079   2.12005
   A12        2.05947   0.00004  -0.00012   0.00075   0.00063   2.06010
   A13        2.05782  -0.00013  -0.00009  -0.00003  -0.00012   2.05770
   A14        2.05222  -0.00058  -0.00063  -0.00031  -0.00095   2.05128
   A15        2.17315   0.00071   0.00072   0.00035   0.00107   2.17421
   A16        2.07181  -0.00034  -0.00011  -0.00064  -0.00075   2.07106
   A17        1.97326  -0.00065  -0.00038  -0.00135  -0.00172   1.97153
   A18        2.23812   0.00099   0.00049   0.00198   0.00248   2.24059
   A19        2.13229   0.00013  -0.00042   0.00168   0.00126   2.13354
   A20        1.94735   0.00144   0.00075   0.00290   0.00365   1.95100
   A21        2.20355  -0.00157  -0.00032  -0.00458  -0.00491   2.19864
   A22        1.91006   0.00028   0.00088  -0.00104  -0.00016   1.90990
   A23        1.93682   0.00003   0.00093  -0.00257  -0.00164   1.93518
    D1       -0.00001   0.00000   0.00000   0.00003   0.00003   0.00002
    D2        3.14158   0.00000   0.00000   0.00004   0.00004  -3.14157
    D3       -3.14158  -0.00000  -0.00000  -0.00002  -0.00003   3.14158
    D4        0.00001  -0.00000  -0.00000  -0.00002  -0.00002  -0.00001
    D5        0.00001  -0.00000  -0.00000  -0.00003  -0.00003  -0.00002
    D6       -3.14158  -0.00000  -0.00000  -0.00003  -0.00003   3.14158
    D7        3.14158   0.00000   0.00000   0.00002   0.00002  -3.14158
    D8       -0.00001   0.00000   0.00000   0.00002   0.00002   0.00002
    D9        0.00001  -0.00000  -0.00000  -0.00002  -0.00002  -0.00001
   D10       -3.14159  -0.00000  -0.00000  -0.00001  -0.00001   3.14159
   D11       -3.14158  -0.00000  -0.00000  -0.00003  -0.00003   3.14157
   D12        0.00001  -0.00000  -0.00000  -0.00002  -0.00002  -0.00001
   D13       -0.00000   0.00000   0.00000   0.00001   0.00001   0.00001
   D14        3.14159   0.00000   0.00000   0.00001   0.00001  -3.14159
   D15       -3.14159  -0.00000  -0.00000  -0.00000  -0.00000   3.14159
   D16        0.00000  -0.00000  -0.00000  -0.00000  -0.00000  -0.00000
   D17        0.00000  -0.00000  -0.00000  -0.00001  -0.00001  -0.00001
   D18        3.14158   0.00000   0.00000   0.00003   0.00004  -3.14157
   D19       -3.14159  -0.00000  -0.00000  -0.00001  -0.00001   3.14159
   D20       -0.00001   0.00000   0.00000   0.00003   0.00004   0.00002
   D21       -0.00001   0.00000   0.00000   0.00002   0.00002   0.00001
   D22        3.14159   0.00000   0.00000   0.00001   0.00001  -3.14158
   D23       -3.14158  -0.00000  -0.00000  -0.00003  -0.00003   3.14157
   D24        0.00001  -0.00000  -0.00000  -0.00003  -0.00003  -0.00002
   D25       -3.14156  -0.00000  -0.00001  -0.00010  -0.00010   3.14152
   D26        0.00001  -0.00000  -0.00000  -0.00005  -0.00005  -0.00004
   D27       -0.00041   0.00003   0.00006   0.00131   0.00138   0.00098
   D28       -3.14117  -0.00003  -0.00007  -0.00135  -0.00142   3.14059
   D29        3.14119   0.00003   0.00006   0.00132   0.00138  -3.14061
   D30        0.00042  -0.00003  -0.00007  -0.00135  -0.00142  -0.00099
   D31        3.14114   0.00003   0.00007   0.00146   0.00153  -3.14051
   D32        0.00042  -0.00003  -0.00007  -0.00134  -0.00140  -0.00098
         Item               Value     Threshold  Converged?
 Maximum Force            0.001568     0.000450     NO 
 RMS     Force            0.000419     0.000300     NO 
 Maximum Displacement     0.014038     0.001800     NO 
 RMS     Displacement     0.003184     0.001200     NO 
 Predicted change in Energy=-1.530091D-05
 GradGradGradGradGradGradGradGradGradGradGradGradGradGradGradGradGradGrad

                          Input orientation:                          
 ---------------------------------------------------------------------
 Center     Atomic      Atomic             Coordinates (Angstroms)
 Number     Number       Type             X           Y           Z
 ---------------------------------------------------------------------
      1          7           0        0.510546   -1.356873   -0.000190
      2          6           0        1.851461   -1.421798    0.000060
      3          6           0        2.578802   -0.219340    0.000169
      4          6           0        1.904915    0.996768    0.000002
      5          6           0        0.482695    1.034078   -0.000271
      6          6           0       -0.211681   -0.198241   -0.000372
      7          6           0       -1.685302   -0.431021   -0.000658
      8          8           0       -2.167108   -1.551564    0.000290
      9          8           0       -2.379022    0.734529    0.000423
     10          8           0       -0.101802    2.231049   -0.000447
     11          1           0       -0.069883   -2.212689   -0.000293
     12          1           0        2.304666   -2.414412    0.000161
     13          1           0        3.670324   -0.255745    0.000377
     14          1           0        2.444211    1.948516    0.000077
     15          1           0       -3.344801    0.540998    0.001198
     16          1           0       -1.084846    2.142465   -0.000697
 ---------------------------------------------------------------------
                    Distance matrix (angstroms):
                    1          2          3          4          5
     1  N    0.000000
     2  C    1.342487   0.000000
     3  C    2.360438   1.405322   0.000000
     4  C    2.735671   2.419157   1.390339   0.000000
     5  C    2.391114   2.811557   2.442278   1.422709   0.000000
     6  C    1.365298   2.398677   2.790563   2.430643   1.414486
     7  C    2.383055   3.672920   4.269356   3.863709   2.616626
     8  O    2.684722   4.020664   4.929349   4.803683   3.702297
     9  O    3.567010   4.748340   5.048751   4.291956   2.877352
    10  O    3.639801   4.142286   3.631810   2.355920   1.332057
    11  H    1.034079   2.077757   3.314962   3.768348   3.293454
    12  H    2.082608   1.091181   2.212124   3.434524   3.900214
    13  H    3.346144   2.160541   1.092128   2.164592   3.438695
    14  H    3.829446   3.422041   2.172030   1.093921   2.164195
    15  H    4.297164   5.554612   5.972202   5.269464   3.859127
    16  H    3.845860   4.617994   4.358949   3.201764   1.919819
                    6          7          8          9         10
     6  C    0.000000
     7  C    1.491894   0.000000
     8  O    2.378062   1.219735   0.000000
     9  O    2.359539   1.356375   2.295893   0.000000
    10  O    2.431774   3.097433   4.309716   2.724942   0.000000
    11  H    2.019433   2.404978   2.198963   3.744091   4.443853
    12  H    3.353120   4.455748   4.554258   5.643825   5.231768
    13  H    3.882431   5.358494   5.979528   6.129863   4.518083
    14  H    3.415015   4.766033   5.789198   4.973664   2.561641
    15  H    3.219149   1.923216   2.401203   0.984980   3.656956
    16  H    2.498263   2.642608   3.849304   1.912375   0.987027
                   11         12         13         14         15
    11  H    0.000000
    12  H    2.383102   0.000000
    13  H    4.221229   2.554382   0.000000
    14  H    4.861717   4.365159   2.522324   0.000000
    15  H    4.278771   6.375808   7.060225   5.957665   0.000000
    16  H    4.471858   5.679253   5.325697   3.534382   2.769856
                   16
    16  H    0.000000
 Stoichiometry    C6H6NO3(1+)
 Framework group  C1[X(C6H6NO3)]
 Deg. of freedom    42
 Full point group                 C1      NOp   1
 Largest Abelian subgroup         C1      NOp   1
 Largest concise Abelian subgroup C1      NOp   1
                         Standard orientation:                         
 ---------------------------------------------------------------------
 Center     Atomic      Atomic             Coordinates (Angstroms)
 Number     Number       Type             X           Y           Z
 ---------------------------------------------------------------------
      1          7           0       -0.508176   -1.360333    0.000124
      2          6           0       -1.848863   -1.429820   -0.000126
      3          6           0       -2.580290   -0.229843   -0.000235
      4          6           0       -1.910544    0.988551   -0.000068
      5          6           0       -0.488459    1.030699    0.000205
      6          6           0        0.210105   -0.199251    0.000307
      7          6           0        1.684510   -0.427016    0.000592
      8          8           0        2.170124   -1.545914   -0.000355
      9          8           0        2.374260    0.740887   -0.000489
     10          8           0        0.091962    2.229651    0.000381
     11          1           0        0.075161   -2.214170    0.000227
     12          1           0       -2.298688   -2.423970   -0.000227
     13          1           0       -3.671682   -0.269961   -0.000443
     14          1           0       -2.453075    1.938458   -0.000143
     15          1           0        3.340692    0.550642   -0.001264
     16          1           0        1.075302    2.144412    0.000631
 ---------------------------------------------------------------------
 Rotational constants (GHZ):      2.2539001      1.2360370      0.7982677
 Standard basis: 6-31+G(d,p) (6D, 7F)
 There are   220 symmetry adapted cartesian basis functions of A   symmetry.
 There are   220 symmetry adapted basis functions of A   symmetry.
   220 basis functions,   362 primitive gaussians,   220 cartesian basis functions
    36 alpha electrons       36 beta electrons
       nuclear repulsion energy       518.0146288675 Hartrees.
 NAtoms=   16 NActive=   16 NUniq=   16 SFac= 1.00D+00 NAtFMM=   60 NAOKFM=F Big=F
 Integral buffers will be    131072 words long.
 Raffenetti 2 integral format.
 Two-electron integral symmetry is turned on.
 One-electron integrals computed using PRISM.
 NBasis=   220 RedAO= T EigKep=  5.02D-06  NBF=   220
 NBsUse=   220 1.00D-06 EigRej= -1.00D+00 NBFU=   220
 Initial guess from the checkpoint file:  "pbe3HPA.chk"
 B after Tr=    -0.000000   -0.000000    0.000000
         Rot=    1.000000   -0.000014    0.000002   -0.000618 Ang=  -0.07 deg.
 Keep J ints in memory in canonical form, NReq=301066375.
 Requested convergence on RMS density matrix=1.00D-08 within 128 cycles.
 Requested convergence on MAX density matrix=1.00D-06.
 Requested convergence on             energy=1.00D-06.
 No special actions if energy rises.
 SCF Done:  E(RPBE-PBE) =  -511.913370489     A.U. after   10 cycles
            NFock= 10  Conv=0.85D-08     -V/T= 2.0094
 Calling FoFJK, ICntrl=      2527 FMM=F ISym2X=0 I1Cent= 0 IOpClX= 0 NMat=1 NMatS=1 NMatT=0.
 ***** Axes restored to original set *****
 -------------------------------------------------------------------
 Center     Atomic                   Forces (Hartrees/Bohr)
 Number     Number              X              Y              Z
 -------------------------------------------------------------------
      1        7           0.000015705   -0.000097938   -0.000012402
      2        6          -0.000114375    0.000010351    0.000002482
      3        6           0.000168246   -0.000042130   -0.000000793
      4        6          -0.000029528    0.000002907    0.000007096
      5        6           0.000019155    0.000148573   -0.000007190
      6        6          -0.000059929   -0.000118505   -0.000066805
      7        6          -0.000047209   -0.000550741    0.000243539
      8        8           0.000118237    0.000546410   -0.000094654
      9        8          -0.000301926    0.000060293   -0.000072474
     10        8          -0.000410569   -0.000317082   -0.000005134
     11        1           0.000116334    0.000093772    0.000003706
     12        1          -0.000020501    0.000023664    0.000002437
[...]
 ! D4    D(11,1,2,12)           -0.0003         -DE/DX =    0.0                 !
 ! D5    D(2,1,6,5)             -0.0008         -DE/DX =    0.0                 !
 ! D6    D(2,1,6,7)           -180.0006         -DE/DX =    0.0                 !
 ! D7    D(11,1,6,5)           180.0004         -DE/DX =    0.0                 !
 ! D8    D(11,1,6,7)             0.0006         -DE/DX =    0.0                 !
 ! D9    D(1,2,3,4)             -0.0005         -DE/DX =    0.0                 !
 ! D10   D(1,2,3,13)           179.9998         -DE/DX =    0.0                 !
 ! D11   D(12,2,3,4)          -180.0006         -DE/DX =    0.0                 !
 ! D12   D(12,2,3,13)           -0.0004         -DE/DX =    0.0                 !
 ! D13   D(2,3,4,5)              0.0002         -DE/DX =    0.0                 !
 ! D14   D(2,3,4,14)          -179.9998         -DE/DX =    0.0                 !
 ! D15   D(13,3,4,5)          -180.0001         -DE/DX =    0.0                 !
 ! D16   D(13,3,4,14)           -0.0001         -DE/DX =    0.0                 !
 ! D17   D(3,4,5,6)             -0.0002         -DE/DX =    0.0                 !
 ! D18   D(3,4,5,10)           180.001          -DE/DX =    0.0                 !
 ! D19   D(14,4,5,6)           179.9998         -DE/DX =    0.0                 !
 ! D20   D(14,4,5,10)            0.001          -DE/DX =    0.0                 !
 ! D21   D(4,5,6,1)              0.0005         -DE/DX =    0.0                 !
 ! D22   D(4,5,6,7)            180.0003         -DE/DX =    0.0                 !
 ! D23   D(10,5,6,1)          -180.0008         -DE/DX =    0.0                 !
 ! D24   D(10,5,6,7)            -0.0011         -DE/DX =    0.0                 !
 ! D25   D(4,5,10,16)          179.9972         -DE/DX =    0.0                 !
 ! D26   D(6,5,10,16)           -0.0015         -DE/DX =    0.0                 !
 ! D27   D(1,6,7,8)              0.035          -DE/DX =    0.0                 !
 ! D28   D(1,6,7,9)           -180.0367         -DE/DX =    0.0                 !
 ! D29   D(5,6,7,8)           -179.9648         -DE/DX =    0.0                 !
 ! D30   D(5,6,7,9)             -0.0365         -DE/DX =    0.0                 !
 ! D31   D(6,7,9,15)           180.039          -DE/DX =    0.0                 !
 ! D32   D(8,7,9,15)            -0.0357         -DE/DX =    0.0                 !
 --------------------------------------------------------------------------------
 GradGradGradGradGradGradGradGradGradGradGradGradGradGradGradGradGradGrad

 1\1\ WCSS.PL-BEM-QINLAB\Freq\RPBEPBE\6-31+G(d,p)\C6H6N1O3(1+)\PHZD\19-
 May-2024\0\\#N Geom=AllCheck Guess=TCheck SCRF=Check GenChk RPBEPBE/6-
 31+G(d,p) Freq\\[No Title]\\1,1\N,0.5111619573,-1.3578125314,-0.000102
 9698\C,1.8521048927,-1.4218911223,0.0000450445\C,2.5789124093,-0.21921
 77518,0.000086605\C,1.9042142405,0.9964744965,-0.0000344508\C,0.482052
 069,1.0331924026,-0.0001958892\C,-0.2117316145,-0.1996089984,-0.000232
 9254\C,-1.6850583752,-0.4310303318,-0.0003964114\O,-2.1693135571,-1.55
 00547002,0.00021983\O,-2.3775599375,0.7358673502,0.0002832022\O,-0.103
 3874701,2.2296553184,-0.0003267901\H,-0.0681369574,-2.2140683377,-0.00
 01471767\H,2.3055145499,-2.414307674,0.0001225687\H,3.6703993956,-0.25
 46411173,0.0002097808\H,2.4434956853,1.9481000022,-0.0000090114\H,-3.3
 431061011,0.5433016557,0.0007845384\H,-1.0863861867,2.142760339,-0.000
 477945\\Version=ES64L-G09RevE.01\State=1-A\HF=-511.9133716\RMSD=7.909e
 -09\RMSF=8.039e-05\ZeroPoint=0.1185566\Thermal=0.1267162\Dipole=0.9579
 697,-0.401031,-0.0000701\DipoleDeriv=0.1172901,-0.1499263,0.000019,-0.
 5413346,-0.2558563,-0.0000108,-0.000043,-0.0000462,-0.0904789,-0.23688
 01,0.1357777,0.0000053,-0.1072919,0.2020548,-0.0000069,-0.0000322,0.00
 00082,0.0525317,0.1877182,-0.0369398,0.0000265,0.2668327,-0.0601114,-0
 .0000061,0.0000024,-0.0000099,-0.0472625,0.0859281,0.3396321,-0.000029
 1,0.0017776,0.0821298,0.0000111,0.0000559,0.0000445,-0.0384375,0.12226
 72,-0.6563853,0.0000773,-0.5574889,1.2372738,-0.0001598,-0.0000889,-0.
 0001477,0.181311,-0.5692751,-0.2726041,0.0000499,0.4237857,-0.1987408,
 0.0000665,-0.0001879,-0.0000433,0.0923319,1.9349982,0.0941616,-0.00010
 88,-0.0577549,1.4936265,0.0002633,-0.0002231,0.0001407,0.2977456,-0.82
 73541,-0.2639966,-0.0000392,-0.2212548,-0.9120252,-0.0001872,0.0002166
 ,0.0003067,-0.2845151,-0.9547906,0.3991576,0.0001128,0.438231,-0.84349
 45,-0.0000903,0.0004135,-0.0003705,-0.3127083,-0.4932169,0.5737267,-0.
 0000489,0.3861953,-1.0541758,0.0001333,-0.0000075,0.0001605,-0.2805196
 ,0.3519475,0.0087313,-0.0000136,0.0913615,0.3435446,0.0000141,0.000005
 2,0.000019,0.271666,0.1204062,-0.0401617,-0.0000008,-0.0346796,0.11678
 53,0.0000013,0.0000159,0.0000097,0.1661595,0.1144598,0.0053616,-0.0000
 047,0.0086046,0.1114583,0.000002,-0.0000099,0.0000037,0.1508686,0.1159
 897,0.0139035,-0.0000025,0.0159099,0.1050364,0.0000034,0.0000059,-0.00
 00069,0.1475239,0.4638831,-0.0785846,-0.0000265,-0.1053162,0.2650311,0
 .0000226,-0.0000672,0.0000206,0.3687064,0.4666287,-0.0718536,-0.000016
 8,-0.0075773,0.3674633,-0.0000565,-0.0000558,-0.0000892,0.3250772\Pola
 r=117.1937022,-1.6569696,98.1968899,-0.0002442,-0.0032939,41.984777\PG
 =C01 [X(C6H6N1O3)]\NImag=0\\0.81423186,0.04411157,0.74678165,0.0000843
 8,-0.00001382,0.11637626,-0.37045918,-0.01009035,-0.00003872,0.6837775
 3,0.03845168,-0.13845722,0.00000517,-0.03961417,0.75252859,-0.00003690
 ,-0.00000047,-0.05387630,0.00006295,-0.00002439,0.12568771,-0.04648459
 ,-0.03223808,-0.00000543,-0.16875025,-0.10897168,-0.00000797,0.7368245
 1,-0.06855811,0.01868951,-0.00000612,-0.06345026,-0.27208891,-0.000000
 12,-0.01796966,0.65760648,-0.00000246,-0.00000525,0.00715275,-0.000011
 70,-0.00000510,-0.05886273,0.00006927,-0.00002033,0.12371056,-0.037010
 70,0.01864268,-0.00000416,0.05076008,0.00830086,0.00000547,-0.18024372
 ,0.08581358,-0.00001714,0.63725269,0.02456606,-0.00966624,0.00000275,-
 0.01537865,-0.05130134,0.00000075,0.12850435,-0.31255312,0.00002444,-0
 .00043098,0.74414891,-0.00000511,0.00000333,-0.00186890,0.00000613,0.0
 0000247,0.00425171,-0.00001905,0.00001869,-0.05146290,0.00005746,-0.00
 002260,0.12354764,0.05284176,-0.01446747,0.00000623,-0.03629801,-0.010
 84098,-0.00000400,-0.01479836,0.05139876,-0.00000389,-0.28808103,-0.04
 009732,-0.00002086,0.66448053,0.01003768,-0.05654213,0.00000570,-0.021
 35888,-0.00095934,-0.00000333,0.03542268,0.01600284,0.00000280,0.00338
 185,-0.11013907,0.00000320,-0.03703975,0.70752847,0.00000920,-0.000001
 57,-0.00256087,-0.00000540,-0.00000289,-0.00314352,-0.00000316,0.00000
 801,-0.00220363,-0.00002540,-0.00000195,-0.06144558,0.00006734,-0.0000
 2772,0.14545837,-0.16710758,0.09544145,-0.00002179,-0.05421638,0.02628
 002,-0.00000940,0.00370231,0.01956435,0.00000002,-0.01084856,-0.030461
 61,-0.00000202,-0.18029602,-0.08465601,-0.00001803,0.61691153,0.060466
 11,-0.27117332,0.00001312,0.06548627,0.00813608,0.00000863,-0.01133693
 ,-0.03678683,0.00000046,-0.04358042,0.02470118,-0.00000650,-0.06255875
 ,-0.23753275,-0.00000315,0.00661630,0.69782342,-0.00002625,0.00001911,
 -0.04957212,-0.00000729,0.00000630,0.00608434,0.00000181,0.00000208,-0
 .00345384,0.00000059,-0.00000859,0.00346618,-0.00002052,-0.00000375,-0
 .05347488,0.00003617,-0.00001591,0.11364175,-0.05133915,0.02389256,-0.
 00000391,0.01933990,0.00383811,0.00000406,-0.00286624,-0.01185215,0.00
 000013,-0.00684154,0.00430072,0.00000062,0.00751165,-0.03283878,0.0000
 0481,-0.17374458,-0.00919187,-0.00004082,0.61328882,0.02534624,0.00381
 128,0.00000765,0.00601391,-0.00872045,0.00000319,-0.00211253,-0.001837
 14,-0.00000045,-0.00124434,-0.00563680,-0.00000061,-0.03127537,0.01484
 711,-0.00000548,-0.00980771,-0.08290099,-0.00000884,0.12221327,0.89055
 781,-0.00000190,-0.00000241,-0.00254019,0.00000293,0.00000300,0.005746
 78,0.00000139,-0.00000147,-0.00054767,-0.00000254,-0.00000077,0.006758
 10,-0.00000089,0.00000936,0.00112522,-0.00000787,-0.00001006,-0.064242
 36,-0.00020388,-0.00017925,0.17606710,-0.00196916,-0.00721134,0.000000
 94,-0.00243819,-0.00291713,-0.00000025,-0.00027779,0.00182089,-0.00000
 010,0.00038182,-0.00294800,-0.00000145,-0.00826258,0.01082806,-0.00000
 019,-0.03211652,-0.04397795,0.00002358,-0.20501891,-0.22557219,0.00013
 233,0.21207394,0.01565094,-0.00310873,-0.00000165,-0.00658962,0.001847
 58,-0.00000244,0.00202994,0.00264594,0.00000023,0.00029886,-0.00110140
 ,-0.00000106,0.00080324,0.00144762,0.00000105,-0.03839258,-0.02274070,
 0.00001987,-0.21871590,-0.58741003,0.00025693,0.26026360,0.69231713,-0
 .00000524,0.00000232,0.00128147,0.00000163,-0.00000112,-0.00050589,-0.
 00000112,-0.00000044,-0.00014407,0.00000077,0.00000190,-0.00156180,0.0
 0000183,-0.00000424,0.00233687,0.00001115,0.00002059,0.01805658,0.0001
 3977,0.00027474,-0.06707724,-0.00014663,-0.00028381,0.03079693,-0.0057
 2779,-0.00552738,0.00000019,-0.00266911,0.00134985,-0.00000144,0.00039
 365,0.00258376,0.00000023,0.00202779,-0.00056265,0.00000029,-0.0027222
 1,0.00366656,-0.00000040,-0.03470831,0.03671152,0.00002406,-0.17396628
 ,0.09639166,0.00007524,0.03273751,0.00047824,-0.00000380,0.63145129,-0
 .00078615,0.00529537,-0.00000097,0.00128061,0.00209129,0.00000006,0.00
 001128,-0.00247651,0.00000015,-0.00275663,0.00185714,0.00000015,0.0066
 9670,-0.01456324,0.00000333,0.01886872,0.00138295,-0.00001100,0.049309
 88,-0.21884056,-0.00004508,0.02386062,-0.08726232,-0.00001600,-0.01458
 179,0.37233954,0.00000366,0.00000221,0.00146156,-0.00000042,-0.0000002
 1,0.00012121,-0.00000009,-0.00000077,0.00019284,-0.00000011,0.00000063
 ,-0.00049553,0.00000339,-0.00000374,0.00093194,0.00000560,-0.00000963,
 0.00586672,0.00007605,-0.00009579,-0.05343132,-0.00000451,0.00000978,0
 .02402939,-0.00030925,0.00004838,0.03616580,-0.01071532,0.00303748,-0.
 00000091,0.00761221,0.00528274,0.00000103,-0.00639533,-0.01311007,-0.0
 0000036,-0.03766986,0.05819642,-0.00000898,-0.15748923,0.12472325,-0.0
 0002087,0.02551524,-0.00729619,0.00000285,-0.01909635,0.01141607,0.000
 00512,0.00455635,-0.00445730,0.00000019,-0.00622125,-0.01550825,-0.000
 00054,0.62315806,-0.00104144,-0.00349105,-0.00000098,-0.00330242,-0.00
 633108,-0.00000009,-0.00400547,0.00785845,-0.00000031,0.02636442,-0.00
 941345,0.00000410,0.08556502,-0.31568900,0.00002228,0.00748113,-0.0503
 5474,0.00000461,0.01653093,-0.00458805,-0.00000404,-0.00375308,0.00054
 983,0.00000064,-0.01007496,0.00644269,0.00000488,-0.09129211,0.4226603
 9,-0.00000313,0.00000105,0.00773736,0.00000106,0.00000077,-0.00133594,
 -0.00000139,-0.00000147,0.00436208,-0.00000590,0.00000863,0.00489518,-
 0.00002082,0.00002581,-0.04286830,0.00000492,0.00000455,0.00692259,-0.
 00000216,0.00000042,-0.00151763,0.00000020,0.00000061,-0.00029510,0.00
 000145,0.00000015,0.00119130,0.00009068,-0.00002985,0.03593325,-0.1566
 9623,-0.14486614,-0.00001332,-0.01540855,-0.02613081,-0.00000131,-0.00
 461152,0.00365747,-0.00000168,-0.00005016,0.00043452,0.00000012,-0.002
 36542,0.00235948,-0.00000158,0.01587270,0.01268690,0.00000270,0.004416
 20,0.01535003,-0.00000150,0.00129970,-0.00968075,0.00000247,0.00023063
 ,-0.00628779,-0.00000189,-0.00078779,0.00234997,-0.00000015,0.15658358
 ,-0.14529809,-0.29160408,-0.00001015,0.00137777,0.01010089,-0.00000005
 ,0.00241551,0.00236095,0.00000045,0.00059381,-0.00016752,-0.00000003,0
 .00474208,-0.00244455,0.00000126,-0.01200544,-0.02687930,-0.00000177,0
 .00163645,-0.00198449,0.00000086,-0.00257208,-0.00019585,-0.00000012,-
 0.00094871,-0.00053804,0.00000042,-0.00148535,-0.00004936,-0.00000032,
 0.15016033,0.30980319,-0.00001458,-0.00000979,-0.02859548,-0.00000036,
 -0.00000379,-0.00070048,-0.00000182,-0.00000013,0.00714428,-0.00000059
 ,0.00000015,-0.00127174,-0.00000024,0.00000142,0.00547160,0.00000347,0
 .00000186,-0.00000519,-0.00000313,0.00000038,-0.00208241,0.00000034,0.
 00000062,-0.00279520,0.00000105,0.00000006,0.00043264,-0.00000021,0.00
 000021,0.00056250,0.00001536,0.00000951,0.02550461,-0.01835016,0.03323
 287,-0.00000345,-0.09990314,0.09982236,-0.00000956,0.01211668,-0.01452
 073,0.00000139,-0.00235375,-0.00328993,-0.00000069,-0.00038780,0.00025
 664,-0.00000006,-0.00325359,-0.00375264,-0.00000144,0.00002281,0.00147
 258,-0.00000055,0.00001626,-0.00016352,0.00000018,-0.00056888,-0.00010
 689,0.00000027,0.00041558,-0.00017299,0.00000008,0.00062336,0.00090561
 ,0.00000046,0.11066244,-0.00233789,0.00490795,-0.00000052,0.10982175,-
 0.29852220,0.00002015,0.01052666,-0.01190996,0.00000182,-0.00284884,-0
 .00221937,-0.00000010,-0.00105379,-0.00081253,-0.00000014,-0.00199604,
 0.00254654,-0.00000023,0.00058690,0.00039006,-0.00000019,-0.00015825,-
 0.00025787,0.00000013,-0.00029403,0.00008968,0.00000014,-0.00001405,0.
 00051776,-0.00000005,0.00001109,0.00093799,0.,-0.11319866,0.30431256,-
 0.00000148,0.00000392,-0.00051388,-0.00000991,0.00001854,-0.03289100,0
 .00000046,-0.00000130,0.00438356,-0.00000112,-0.00000018,0.00539602,0.
 ,-0.00000060,-0.00027254,-0.00000107,0.00000010,0.00724269,0.00000009,
 0.00000054,0.00179619,0.00000012,0.00000005,-0.00008163,-0.00000054,-0
 .00000012,-0.00033442,-0.00000024,0.00000021,-0.00065408,0.00000059,-0
 .00000008,-0.00366134,0.00001277,-0.00002102,0.02294657,0.00064682,-0.
 00233323,-0.00000054,-0.00919797,0.00275443,-0.00000123,-0.33985630,0.
 00755173,-0.00003371,-0.00749608,-0.00073657,-0.00000124,0.00083364,0.
 00136568,-0.00000089,0.00070182,0.00009167,0.00000010,-0.00042774,-0.0
 0008549,0.00000008,0.00007109,0.00012223,-0.00000004,0.00010406,-0.000
 03720,-0.00000003,-0.00035577,-0.00018258,-0.00000003,-0.00010021,0.00
 033523,-0.00000008,0.00050535,0.00012141,0.00000033,0.35382335,-0.0037
 8142,-0.00534273,-0.00000008,-0.02559150,0.00560014,-0.00000282,0.0086
 9676,-0.05462874,0.00000172,0.02713329,0.00294367,0.00000290,0.0010439
 8,-0.00444382,0.00000052,0.00085703,-0.00112155,0.00000010,-0.00037627
 ,-0.00030774,-0.00000003,-0.00007355,0.00038732,-0.00000010,0.00000779
 ,0.00014147,0.00000006,0.00169125,0.00021421,0.00000026,-0.00098161,0.
 00048568,-0.00000017,0.00022443,0.00057306,-0.00000011,-0.00878820,0.0
 5493673,-0.00000106,0.00000073,0.00631673,0.00000045,0.00000054,0.0011
 2745,-0.00003389,0.00000145,-0.03679340,-0.00000170,-0.00000057,0.0040
 4264,-0.00000150,0.00000053,0.00858977,0.00000033,-0.00000012,-0.00061
 795,-0.00000031,-0.00000015,-0.00093843,-0.00000002,0.00000015,0.00011
 362,-0.00000004,-0.00000003,-0.00004313,0.00000014,-0.00000010,-0.0001
 7645,0.00000009,0.00000005,0.00057266,0.00000029,-0.00000009,-0.002642
 69,0.00003665,-0.00000209,0.02518103,-0.00087746,0.00133557,-0.0000000
 8,-0.00112223,0.00369996,-0.00000101,0.01185429,0.01481789,0.00000021,
 -0.12480957,-0.12181514,-0.00000491,-0.01098012,-0.02685739,-0.0000006
 3,-0.00508036,0.00102855,-0.00000192,0.00066018,-0.00142254,-0.0000002
 4,-0.00068236,-0.00023506,0.00000042,0.00003512,0.00032262,0.00000010,
 0.00264598,-0.00017522,0.00000068,-0.00009487,-0.00009747,0.00000004,0
 .00063807,0.00070693,0.00000009,0.00075522,-0.00014368,0.00000047,0.12
 703478,0.00069272,0.00074801,0.00000004,0.00287884,-0.00282966,0.00000
 074,-0.01251206,-0.01526446,-0.00000060,-0.12248125,-0.26483171,-0.000
 00535,0.00269799,0.00551207,0.00000026,0.00098710,-0.00028083,0.000000
 48,-0.00008856,0.00025996,0.00000021,0.00024727,0.00015230,-0.00000022
 ,0.00015181,-0.00003396,-0.00000012,-0.00005008,-0.00008683,-0.0000001
 0,-0.00010719,-0.00008353,-0.00000003,-0.00074333,-0.00051119,-0.00000
 012,-0.00029380,0.00093091,-0.00000018,0.12871324,0.27626673,-0.000000
 46,0.00000019,-0.00098635,-0.00000034,0.00000132,0.00842785,0.00000122
 ,0.00000157,0.00490550,-0.00000532,-0.00000534,-0.03886304,-0.00000201
 ,-0.00000186,0.00672488,-0.00000098,-0.00000052,0.00533365,-0.00000066
 ,0.00000022,-0.00128842,0.00000031,0.00000017,0.00021240,0.00000010,-0
 .00000003,0.00004671,0.00000065,-0.00000065,-0.00254132,0.00000018,0.0
 0000002,-0.00086265,0.00000018,0.00000010,-0.00043754,0.00000056,-0.00
 000020,-0.00427883,0.00000659,0.00000500,0.02397219,-0.00080459,0.0000
 1213,0.00000072,0.00085521,0.00063403,-0.00000017,-0.00001075,-0.00064
 496,0.00000015,-0.00044545,0.00011600,-0.00000057,0.00053359,0.0000022
 7,-0.00000090,0.00104657,0.00284628,0.00000693,-0.03014338,0.00367154,
 0.00000960,0.00350881,-0.00692822,-0.00000216,-0.43162618,-0.06753867,
 0.00022263,0.00163850,0.00021156,0.00000097,-0.00048265,0.00010560,0.0
 0000029,-0.00007947,0.00002514,-0.00000023,-0.00002424,-0.00000709,0.0
 0000008,-0.00000879,-0.00005692,0.00000008,0.45836148,0.00131844,0.000
 18804,0.00000008,0.00007140,-0.00044670,0.00000035,-0.00009591,-0.0001
 1076,0.,-0.00029290,0.00023645,-0.00000016,0.00084941,-0.00174409,0.00
 000044,0.00239572,-0.00481241,-0.00000277,0.04496841,0.01258471,-0.000
 02404,-0.00679281,-0.00068840,0.00000608,-0.11100835,-0.06575026,0.000
 04384,-0.00335742,-0.00070780,0.00000031,0.00058648,0.00011815,-0.0000
 0024,0.00012391,0.00001405,0.00000009,-0.00000123,0.00001129,-0.000000
 03,0.00003195,0.00001975,0.,0.06931319,0.05741558,0.00000119,0.0000005
 5,0.00097695,-0.00000128,-0.00000091,-0.00030392,-0.00000006,0.0000009
 4,0.00012926,0.00000067,-0.00000010,-0.00029906,-0.00000066,-0.0000007
 2,-0.00069618,-0.00000181,-0.00000269,0.00478033,0.00003553,0.00000061
 ,0.00271109,-0.00000642,0.00000164,-0.00511647,0.00020930,0.00002240,-
 0.01408694,-0.00000081,0.00000042,0.00059276,0.00000022,-0.00000004,0.
 00029993,0.00000011,0.,-0.00021447,0.00000002,0.00000001,0.00007772,0.
 00000004,0.00000004,0.00004094,-0.00023728,-0.00002278,0.01160010,-0.0
 0017853,-0.00297231,-0.00000016,-0.00188193,-0.00193929,-0.00000027,-0
 .00059660,0.00289751,-0.00000036,0.00542804,-0.00039724,0.00000027,-0.
 02452039,0.01070664,-0.00000385,-0.00237827,-0.00423884,-0.00000055,0.
 01820460,-0.01035513,-0.00000733,-0.00387997,0.00551590,0.00000056,-0.
 00877005,0.00725293,0.00000512,-0.42681101,-0.02450276,-0.00006647,0.0
 0157125,0.00013474,0.00000003,-0.00010376,0.00010167,0.00000014,0.0000
 1693,0.00008879,0.00000002,0.00003211,-0.00003576,-0.00000009,-0.00231
 867,0.00188972,0.00000123,0.44618624,0.00116166,-0.00103633,-0.0000002
 3,-0.00155471,-0.00064767,-0.00000015,0.00163512,0.00249224,-0.0000000
 3,0.00310601,-0.00685734,0.00000157,0.04353625,-0.00046758,0.00000573,
 -0.00117242,-0.00000675,0.00000031,0.00578631,-0.01022467,-0.00000303,
 -0.00104405,0.00341757,-0.00000034,0.00165668,-0.00017524,-0.00000007,
 -0.06777639,-0.04753197,-0.00001077,0.00045801,0.00013985,-0.00000003,
 -0.00008971,-0.00005652,0.00000009,0.00011589,-0.00037992,-0.00000009,
 0.00008978,0.00003245,0.,-0.00176186,0.00367240,0.00000064,0.01585342,
 0.05762946,0.00000014,-0.00000008,-0.00078900,0.00000027,0.00000031,0.
 00017272,-0.00000017,-0.00000060,0.00148741,-0.00000100,0.00000086,0.0
 0491108,-0.00000342,-0.00000285,-0.00397313,0.00000131,-0.00000073,-0.
 00002850,-0.00000619,0.00000280,-0.00053879,0.00000174,-0.00000215,0.0
 0075015,0.00000357,-0.00000145,-0.00204876,-0.00006774,-0.00000134,-0.
 01280819,-0.00000030,0.,-0.00001373,0.00000002,0.00000002,-0.00006145,
 0.00000006,0.00000003,-0.00053074,0.00000015,-0.00000004,-0.00040598,-
 0.00000014,-0.00000117,-0.00049206,0.00007170,0.00000641,0.01436899\\0
 .00006026,-0.00002020,0.00000778,0.00008674,0.00005545,-0.00000159,-0.
 00004477,-0.00002452,0.00000050,-0.00005404,-0.00001383,-0.00000453,0.
 00026474,-0.00013968,0.00000492,-0.00014749,-0.00007072,0.00004209,0.0
 0028426,-0.00004230,-0.00015395,-0.00008115,0.00005540,0.00005959,-0.0
 0009632,0.00000755,0.00004624,-0.00011433,0.00006905,0.00000317,-0.000
 02010,0.00002664,-0.00000223,-0.00003239,0.00002644,-0.00000154,-0.000
 01375,0.00000534,0.00000039,-0.00000725,-0.00003612,0.00000051,0.00001
 725,0.00001532,0.00000346,-0.00010167,0.00008617,-0.00000482\\\@


 A warm smile is the universal language of kindness.
                             -- William Arthur Ward
 Job cpu time:       0 days  0 hours 18 minutes 15.4 seconds.
 File lengths (MBytes):  RWF=     85 Int=      0 D2E=      0 Chk=      5 Scr=      1
 Normal termination of Gaussian 09 at Sun May 19 23:41:16 2024.
