 Entering Gaussian System, Link 0=g09
 Input=WB97XD3HPA.gjf
 Output=WB97XD3HPA.log
 Initial command:
 /home/phzd/g09E/g09/l1.exe "/home/phzd/g09E/scratch/Gau-505183.inp" -scrdir="/home/phzd/g09E/scratch/"
 Default is to use a total of  18 processors:
                               18 via shared-memory
                                1 via Linda
 Entering Link 1 = /home/phzd/g09E/g09/l1.exe PID=    505185.
  
 Copyright (c) 1988,1990,1992,1993,1995,1998,2003,2009,2015,
            Gaussian, Inc.  All Rights Reserved.
  
 This is part of the Gaussian(R) 09 program.  It is based on
 the Gaussian(R) 03 system (copyright 2003, Gaussian, Inc.),
 the Gaussian(R) 98 system (copyright 1998, Gaussian, Inc.),
 the Gaussian(R) 94 system (copyright 1995, Gaussian, Inc.),
 the Gaussian 92(TM) system (copyright 1992, Gaussian, Inc.),
 the Gaussian 90(TM) system (copyright 1990, Gaussian, Inc.),
 the Gaussian 88(TM) system (copyright 1988, Gaussian, Inc.),
 the Gaussian 86(TM) system (copyright 1986, Carnegie Mellon
 University), and the Gaussian 82(TM) system (copyright 1983,
 Carnegie Mellon University). Gaussian is a federally registered
 trademark of Gaussian, Inc.
  
 This software contains proprietary and confidential information,
 including trade secrets, belonging to Gaussian, Inc.
  
 This software is provided under written license and may be
 used, copied, transmitted, or stored only in accord with that
 written license.
  
 The following legend is applicable only to US Government
 contracts under FAR:
  
                    RESTRICTED RIGHTS LEGEND
  
 Use, reproduction and disclosure by the US Government is
 subject to restrictions as set forth in subparagraphs (a)
 and (c) of the Commercial Computer Software - Restricted
 Rights clause in FAR 52.227-19.
  
 Gaussian, Inc.
 340 Quinnipiac St., Bldg. 40, Wallingford CT 06492
  
  
 ---------------------------------------------------------------
 Warning -- This program may not be used in any manner that
 competes with the business of Gaussian, Inc. or will provide
 assistance to any competitor of Gaussian, Inc.  The licensee
 of this program is prohibited from giving any competitor of
 Gaussian, Inc. access to this program.  By using this program,
 the user acknowledges that Gaussian, Inc. is engaged in the
 business of creating and licensing software in the field of
 computational chemistry and represents and warrants to the
 licensee that it is not a competitor of Gaussian, Inc. and that
 it will not use this program in any manner prohibited above.
 ---------------------------------------------------------------
  

 Cite this work as:
 Gaussian 09, Revision E.01,
 M. J. Frisch, G. W. Trucks, H. B. Schlegel, G. E. Scuseria, 
 M. A. Robb, J. R. Cheeseman, G. Scalmani, V. Barone, B. Mennucci, 
 G. A. Petersson, H. Nakatsuji, M. Caricato, X. Li, H. P. Hratchian, 
 A. F. Izmaylov, J. Bloino, G. Zheng, J. L. Sonnenberg, M. Hada, 
 M. Ehara, K. Toyota, R. Fukuda, J. Hasegawa, M. Ishida, T. Nakajima, 
 Y. Honda, O. Kitao, H. Nakai, T. Vreven, J. A. Montgomery, Jr., 
 J. E. Peralta, F. Ogliaro, M. Bearpark, J. J. Heyd, E. Brothers, 
 K. N. Kudin, V. N. Staroverov, T. Keith, R. Kobayashi, J. Normand, 
 K. Raghavachari, A. Rendell, J. C. Burant, S. S. Iyengar, J. Tomasi, 
 M. Cossi, N. Rega, J. M. Millam, M. Klene, J. E. Knox, J. B. Cross, 
 V. Bakken, C. Adamo, J. Jaramillo, R. Gomperts, R. E. Stratmann, 
 O. Yazyev, A. J. Austin, R. Cammi, C. Pomelli, J. W. Ochterski, 
 R. L. Martin, K. Morokuma, V. G. Zakrzewski, G. A. Voth, 
 P. Salvador, J. J. Dannenberg, S. Dapprich, A. D. Daniels, 
 O. Farkas, J. B. Foresman, J. V. Ortiz, J. Cioslowski, 
 and D. J. Fox, Gaussian, Inc., Wallingford CT, 2013.
 
 ******************************************
 Gaussian 09:  ES64L-G09RevE.01 30-Nov-2015
                19-May-2024 
 ******************************************
 %chk=WB97XD3HPA.chk
 -----------------------------
 # opt freq wb97xd/6-31+g(d,p)
 -----------------------------
 1/14=-1,18=20,19=15,26=3,38=1/1,3;
 2/9=110,12=2,17=6,18=5,40=1/2;
 3/5=1,6=6,7=111,11=2,16=1,25=1,30=1,71=1,74=-58/1,2,3;
 4//1;
 5/5=2,38=5/2;
 6/7=2,8=2,9=2,10=2,28=1/1;
 7//1,2,3,16;
 1/14=-1,18=20,19=15,26=3/3(2);
 2/9=110/2;
 99//99;
 2/9=110/2;
 3/5=1,6=6,7=111,11=2,16=1,25=1,30=1,71=1,74=-58/1,2,3;
 4/5=5,16=3,69=1/1;
 5/5=2,38=5/2;
 7//1,2,3,16;
 1/14=-1,18=20,19=15,26=3/3(-5);
 2/9=110/2;
 6/7=2,8=2,9=2,10=2,19=2,28=1/1;
 99/9=1/99;
 ----------
 [No Title]
 ----------
 Symbolic Z-matrix:
 Charge =  0 Multiplicity = 1
 N                     0.4416   -1.44344  -0.00004 
 C                     1.76064  -1.47677  -0.00004 
 C                     2.54554  -0.31395  -0.00002 
 C                     1.92738   0.91695   0. 
 C                     0.52787   0.96885   0. 
 C                    -0.17193  -0.25232  -0.00001 
 C                    -1.64755  -0.22442   0.00004 
 O                    -2.29212   0.82138   0.00012 
 O                    -2.24533  -1.41044  -0.00003 
 O                    -0.06687   2.16656  -0.00001 
 H                     2.2235   -2.45916  -0.00006 
 H                     3.62765  -0.38998  -0.00003 
 H                     2.48364   1.84751   0.00001 
 H                    -3.20227  -1.24592   0.00001 
 H                    -1.04083   2.02156  -0.00007 
 

 GradGradGradGradGradGradGradGradGradGradGradGradGradGradGradGradGradGrad
 Berny optimization.
 Initialization pass.
                           ----------------------------
                           !    Initial Parameters    !
                           ! (Angstroms and Degrees)  !
 --------------------------                            --------------------------
 ! Name  Definition              Value          Derivative Info.                !
 --------------------------------------------------------------------------------
 ! R1    R(1,2)                  1.3195         estimate D2E/DX2                !
 ! R2    R(1,6)                  1.3398         estimate D2E/DX2                !
 ! R3    R(2,3)                  1.4029         estimate D2E/DX2                !
 ! R4    R(2,11)                 1.086          estimate D2E/DX2                !
 ! R5    R(3,4)                  1.3774         estimate D2E/DX2                !
 ! R6    R(3,12)                 1.0848         estimate D2E/DX2                !
 ! R7    R(4,5)                  1.4005         estimate D2E/DX2                !
 ! R8    R(4,13)                 1.0841         estimate D2E/DX2                !
 ! R9    R(5,6)                  1.4075         estimate D2E/DX2                !
 ! R10   R(5,10)                 1.3372         estimate D2E/DX2                !
 ! R11   R(6,7)                  1.4759         estimate D2E/DX2                !
 ! R12   R(7,8)                  1.2285         estimate D2E/DX2                !
 ! R13   R(7,9)                  1.3282         estimate D2E/DX2                !
 ! R14   R(9,14)                 0.971          estimate D2E/DX2                !
 ! R15   R(10,15)                0.9847         estimate D2E/DX2                !
 ! A1    A(2,1,6)              118.6999         estimate D2E/DX2                !
 ! A2    A(1,2,3)              122.5719         estimate D2E/DX2                !
 ! A3    A(1,2,11)             116.6752         estimate D2E/DX2                !
 ! A4    A(3,2,11)             120.7529         estimate D2E/DX2                !
 ! A5    A(2,3,4)              119.3146         estimate D2E/DX2                !
 ! A6    A(2,3,12)             120.0001         estimate D2E/DX2                !
 ! A7    A(4,3,12)             120.6853         estimate D2E/DX2                !
 ! A8    A(3,4,5)              118.7898         estimate D2E/DX2                !
 ! A9    A(3,4,13)             122.4643         estimate D2E/DX2                !
 ! A10   A(5,4,13)             118.7459         estimate D2E/DX2                !
 ! A11   A(4,5,6)              117.6913         estimate D2E/DX2                !
 ! A12   A(4,5,10)             118.531          estimate D2E/DX2                !
 ! A13   A(6,5,10)             123.7777         estimate D2E/DX2                !
 ! A14   A(1,6,5)              122.9325         estimate D2E/DX2                !
 ! A15   A(1,6,7)              118.3358         estimate D2E/DX2                !
 ! A16   A(5,6,7)              118.7317         estimate D2E/DX2                !
 ! A17   A(6,7,8)              122.7311         estimate D2E/DX2                !
 ! A18   A(6,7,9)              115.6661         estimate D2E/DX2                !
 ! A19   A(8,7,9)              121.6028         estimate D2E/DX2                !
 ! A20   A(7,9,14)             106.9943         estimate D2E/DX2                !
 ! A21   A(5,10,15)            107.9396         estimate D2E/DX2                !
 ! D1    D(6,1,2,3)              0.0003         estimate D2E/DX2                !
 ! D2    D(6,1,2,11)           180.0            estimate D2E/DX2                !
 ! D3    D(2,1,6,5)              0.0002         estimate D2E/DX2                !
 ! D4    D(2,1,6,7)           -179.9982         estimate D2E/DX2                !
 ! D5    D(1,2,3,4)             -0.0004         estimate D2E/DX2                !
 ! D6    D(1,2,3,12)           179.9999         estimate D2E/DX2                !
 ! D7    D(11,2,3,4)           179.9999         estimate D2E/DX2                !
 ! D8    D(11,2,3,12)            0.0003         estimate D2E/DX2                !
 ! D9    D(2,3,4,5)              0.0            estimate D2E/DX2                !
 ! D10   D(2,3,4,13)          -179.9994         estimate D2E/DX2                !
 ! D11   D(12,3,4,5)           179.9996         estimate D2E/DX2                !
 ! D12   D(12,3,4,13)            0.0002         estimate D2E/DX2                !
 ! D13   D(3,4,5,6)              0.0005         estimate D2E/DX2                !
 ! D14   D(3,4,5,10)          -179.9984         estimate D2E/DX2                !
 ! D15   D(13,4,5,6)           179.9999         estimate D2E/DX2                !
 ! D16   D(13,4,5,10)            0.0011         estimate D2E/DX2                !
 ! D17   D(4,5,6,1)             -0.0006         estimate D2E/DX2                !
 ! D18   D(4,5,6,7)            179.9978         estimate D2E/DX2                !
 ! D19   D(10,5,6,1)           179.9981         estimate D2E/DX2                !
 ! D20   D(10,5,6,7)            -0.0034         estimate D2E/DX2                !
 ! D21   D(4,5,10,15)          179.9964         estimate D2E/DX2                !
 ! D22   D(6,5,10,15)           -0.0024         estimate D2E/DX2                !
 ! D23   D(1,6,7,8)            179.9968         estimate D2E/DX2                !
 ! D24   D(1,6,7,9)             -0.0038         estimate D2E/DX2                !
 ! D25   D(5,6,7,8)             -0.0017         estimate D2E/DX2                !
 ! D26   D(5,6,7,9)            179.9977         estimate D2E/DX2                !
 ! D27   D(6,7,9,14)          -179.9996         estimate D2E/DX2                !
 ! D28   D(8,7,9,14)            -0.0002         estimate D2E/DX2                !
 --------------------------------------------------------------------------------
 Trust Radius=3.00D-01 FncErr=1.00D-07 GrdErr=1.00D-06
 Number of steps in this run=     74 maximum allowed number of steps=    100.
 GradGradGradGradGradGradGradGradGradGradGradGradGradGradGradGradGradGrad

                          Input orientation:                          
 ---------------------------------------------------------------------
 Center     Atomic      Atomic             Coordinates (Angstroms)
 Number     Number       Type             X           Y           Z
 ---------------------------------------------------------------------
      1          7           0        0.441602   -1.443440   -0.000037
      2          6           0        1.760639   -1.476769   -0.000044
      3          6           0        2.545543   -0.313948   -0.000021
      4          6           0        1.927378    0.916953    0.000001
      5          6           0        0.527868    0.968851    0.000000
      6          6           0       -0.171930   -0.252322   -0.000013
      7          6           0       -1.647546   -0.224418    0.000036
      8          8           0       -2.292125    0.821377    0.000119
      9          8           0       -2.245333   -1.410435   -0.000027
     10          8           0       -0.066867    2.166555   -0.000012
     11          1           0        2.223497   -2.459157   -0.000063
     12          1           0        3.627653   -0.389981   -0.000027
     13          1           0        2.483636    1.847511    0.000010
     14          1           0       -3.202274   -1.245915    0.000009
     15          1           0       -1.040829    2.021557   -0.000070
 ---------------------------------------------------------------------
                    Distance matrix (angstroms):
                    1          2          3          4          5
     1  N    0.000000
     2  C    1.319458   0.000000
     3  C    2.387953   1.402935   0.000000
     4  C    2.789083   2.399522   1.377405   0.000000
     5  C    2.413833   2.738755   2.390938   1.400472   0.000000
     6  C    1.339845   2.287814   2.718172   2.402977   1.407473
     7  C    2.418792   3.630993   4.194045   3.752707   2.481193
     8  O    3.550022   4.659010   4.969104   4.220585   2.823847
     9  O    2.687138   4.006521   4.914751   4.777892   3.653990
    10  O    3.645628   4.075977   3.602441   2.353406   1.337238
    11  H    2.051056   1.085967   2.169248   3.389071   3.824447
    12  H    3.355696   2.160289   1.084778   2.144531   3.384537
    13  H    3.873017   3.401994   2.162345   1.084141   2.144078
    14  H    3.649226   4.968279   5.822883   5.566986   4.338104
    15  H    3.768794   4.481797   4.279795   3.167081   1.889180
                    6          7          8          9         10
     6  C    0.000000
     7  C    1.475880   0.000000
     8  O    2.376564   1.228483   0.000000
     9  O    2.374916   1.328151   2.232302   0.000000
    10  O    2.421158   2.866234   2.600246   4.188147   0.000000
    11  H    3.257022   4.469791   5.581464   4.590235   5.161684
    12  H    3.802076   5.277796   6.042447   5.960981   4.492811
    13  H    3.385459   4.621640   4.884756   5.742592   2.570380
    14  H    3.189077   1.860278   2.258776   0.970980   4.634191
    15  H    2.434237   2.326480   1.733832   3.637224   0.984696
                   11         12         13         14         15
    11  H    0.000000
    12  H    2.500629   0.000000
    13  H    4.314518   2.512995   0.000000
    14  H    5.559761   6.883351   6.472933   0.000000
    15  H    5.543701   5.254545   3.528760   3.917680   0.000000
 Stoichiometry    C6H5NO3
 Framework group  C1[X(C6H5NO3)]
 Deg. of freedom    39
 Full point group                 C1      NOp   1
 Largest Abelian subgroup         C1      NOp   1
 Largest concise Abelian subgroup C1      NOp   1
                         Standard orientation:                         
 ---------------------------------------------------------------------
 Center     Atomic      Atomic             Coordinates (Angstroms)
 Number     Number       Type             X           Y           Z
 ---------------------------------------------------------------------
      1          7           0       -0.441602   -1.443440    0.000037
      2          6           0       -1.760639   -1.476769    0.000044
      3          6           0       -2.545543   -0.313948    0.000021
      4          6           0       -1.927378    0.916953   -0.000001
      5          6           0       -0.527868    0.968851   -0.000000
      6          6           0        0.171930   -0.252322    0.000013
      7          6           0        1.647546   -0.224418   -0.000036
      8          8           0        2.292125    0.821377   -0.000119
      9          8           0        2.245333   -1.410435    0.000027
     10          8           0        0.066867    2.166555    0.000012
     11          1           0       -2.223497   -2.459157    0.000063
     12          1           0       -3.627653   -0.389981    0.000027
     13          1           0       -2.483636    1.847511   -0.000010
     14          1           0        3.202274   -1.245915   -0.000009
     15          1           0        1.040829    2.021557    0.000070
 ---------------------------------------------------------------------
 Rotational constants (GHZ):      2.3803782      1.2664469      0.8266431
 Standard basis: 6-31+G(d,p) (6D, 7F)
 There are   215 symmetry adapted cartesian basis functions of A   symmetry.
 There are   215 symmetry adapted basis functions of A   symmetry.
   215 basis functions,   355 primitive gaussians,   215 cartesian basis functions
    36 alpha electrons       36 beta electrons
       nuclear repulsion energy       508.7970624735 Hartrees.
 NAtoms=   15 NActive=   15 NUniq=   15 SFac= 1.00D+00 NAtFMM=   60 NAOKFM=F Big=F
 Integral buffers will be    131072 words long.
 Raffenetti 2 integral format.
 Two-electron integral symmetry is turned on.
 Nuclear repulsion after empirical dispersion term =      508.7911861192 Hartrees.
 One-electron integrals computed using PRISM.
 NBasis=   215 RedAO= T EigKep=  5.63D-06  NBF=   215
 NBsUse=   215 1.00D-06 EigRej= -1.00D+00 NBFU=   215
 ExpMin= 4.38D-02 ExpMax= 5.48D+03 ExpMxC= 8.25D+02 IAcc=2 IRadAn=         4 AccDes= 0.00D+00
 Harris functional with IExCor= 4639 and IRadAn=       4 diagonalized for initial guess.
 HarFok:  IExCor= 4639 AccDes= 0.00D+00 IRadAn=         4 IDoV= 1 UseB2=F ITyADJ=14
 ICtDFT=  3500011 ScaDFX=  1.000000  1.000000  1.000000  1.000000
 FoFCou: FMM=F IPFlag=           0 FMFlag=      100000 FMFlg1=           0
         NFxFlg=           0 DoJE=T BraDBF=F KetDBF=T FulRan=T
         wScrn=  0.000000 ICntrl=     500 IOpCl=  0 I1Cent=   200000004 NGrid=           0
         NMat0=    1 NMatS0=      1 NMatT0=    0 NMatD0=    1 NMtDS0=    0 NMtDT0=    0
 Petite list used in FoFCou.
 Keep R1 ints in memory in canonical form, NReq=544393055.
 Requested convergence on RMS density matrix=1.00D-08 within 128 cycles.
 Requested convergence on MAX density matrix=1.00D-06.
 Requested convergence on             energy=1.00D-06.
 No special actions if energy rises.
 SCF Done:  E(RwB97XD) =  -511.950584266     A.U. after   16 cycles
            NFock= 16  Conv=0.64D-08     -V/T= 2.0087

 **********************************************************************

            Population analysis using the SCF density.

 **********************************************************************

 Orbital symmetries:
       Occupied  (A) (A) (A) (A) (A) (A) (A) (A) (A) (A) (A) (A)
                 (A) (A) (A) (A) (A) (A) (A) (A) (A) (A) (A) (A)
                 (A) (A) (A) (A) (A) (A) (A) (A) (A) (A) (A) (A)
       Virtual   (A) (A) (A) (A) (A) (A) (A) (A) (A) (A) (A) (A)
                 (A) (A) (A) (A) (A) (A) (A) (A) (A) (A) (A) (A)
                 (A) (A) (A) (A) (A) (A) (A) (A) (A) (A) (A) (A)
                 (A) (A) (A) (A) (A) (A) (A) (A) (A) (A) (A) (A)
                 (A) (A) (A) (A) (A) (A) (A) (A) (A) (A) (A) (A)
                 (A) (A) (A) (A) (A) (A) (A) (A) (A) (A) (A) (A)
                 (A) (A) (A) (A) (A) (A) (A) (A) (A) (A) (A) (A)
                 (A) (A) (A) (A) (A) (A) (A) (A) (A) (A) (A) (A)
                 (A) (A) (A) (A) (A) (A) (A) (A) (A) (A) (A) (A)
                 (A) (A) (A) (A) (A) (A) (A) (A) (A) (A) (A) (A)
                 (A) (A) (A) (A) (A) (A) (A) (A) (A) (A) (A) (A)
                 (A) (A) (A) (A) (A) (A) (A) (A) (A) (A) (A) (A)
                 (A) (A) (A) (A) (A) (A) (A) (A) (A) (A) (A) (A)
                 (A) (A) (A) (A) (A) (A) (A) (A) (A) (A) (A) (A)
                 (A) (A) (A) (A) (A) (A) (A) (A) (A) (A) (A)
 The electronic state is 1-A.
 Alpha  occ. eigenvalues --  -19.34833 -19.31827 -19.29746 -14.47701 -10.46559
 Alpha  occ. eigenvalues --  -10.39939 -10.36290 -10.34883 -10.33785 -10.33477
 Alpha  occ. eigenvalues --   -1.24493  -1.18925  -1.14429  -1.07042  -0.92495
 Alpha  occ. eigenvalues --   -0.89244  -0.79817  -0.74588  -0.73317  -0.65649
 Alpha  occ. eigenvalues --   -0.64733  -0.61208  -0.59245  -0.57706  -0.57232
 Alpha  occ. eigenvalues --   -0.52540  -0.52018  -0.50840  -0.49424  -0.48723
 Alpha  occ. eigenvalues --   -0.47166  -0.43211  -0.40145  -0.38119  -0.35603
 Alpha  occ. eigenvalues --   -0.33000
 Alpha virt. eigenvalues --   -0.01018   0.04077   0.05899   0.06607   0.08481
 Alpha virt. eigenvalues --    0.08924   0.10045   0.10437   0.10478   0.11196
 Alpha virt. eigenvalues --    0.13064   0.13388   0.14302   0.14741   0.16085
 Alpha virt. eigenvalues --    0.17300   0.18343   0.19225   0.19781   0.20420
 Alpha virt. eigenvalues --    0.20617   0.22041   0.22567   0.23282   0.24227
 Alpha virt. eigenvalues --    0.24578   0.24972   0.25896   0.27427   0.27793
 Alpha virt. eigenvalues --    0.29265   0.30112   0.30439   0.31481   0.31560
 Alpha virt. eigenvalues --    0.32506   0.32949   0.34052   0.34145   0.35403
 Alpha virt. eigenvalues --    0.35769   0.35991   0.36548   0.37646   0.39253
 Alpha virt. eigenvalues --    0.39426   0.40965   0.41260   0.42389   0.43542
 Alpha virt. eigenvalues --    0.45149   0.46390   0.47851   0.49726   0.51920
 Alpha virt. eigenvalues --    0.54247   0.58948   0.67780   0.70651   0.73218
 Alpha virt. eigenvalues --    0.73258   0.76611   0.79013   0.79684   0.80224
 Alpha virt. eigenvalues --    0.80418   0.82448   0.83837   0.88627   0.90595
 Alpha virt. eigenvalues --    0.94141   0.97069   0.97810   1.02092   1.03693
 Alpha virt. eigenvalues --    1.06059   1.09690   1.10565   1.12837   1.16147
 Alpha virt. eigenvalues --    1.16698   1.18672   1.20073   1.21992   1.22670
 Alpha virt. eigenvalues --    1.25989   1.27622   1.27624   1.29253   1.29314
 Alpha virt. eigenvalues --    1.32377   1.32552   1.36505   1.37504   1.38374
 Alpha virt. eigenvalues --    1.39685   1.40296   1.40874   1.44673   1.45913
 Alpha virt. eigenvalues --    1.47098   1.48701   1.49711   1.51460   1.54050
 Alpha virt. eigenvalues --    1.56435   1.64788   1.65539   1.67012   1.71028
 Alpha virt. eigenvalues --    1.73535   1.82407   1.83426   1.85228   1.87545
 Alpha virt. eigenvalues --    1.90881   1.91346   1.95047   1.96541   1.98323
 Alpha virt. eigenvalues --    1.99602   2.03072   2.06648   2.07098   2.07791
 Alpha virt. eigenvalues --    2.11238   2.14041   2.17866   2.23073   2.27432
 Alpha virt. eigenvalues --    2.35461   2.35621   2.37543   2.42665   2.42872
 Alpha virt. eigenvalues --    2.43469   2.46253   2.49904   2.53041   2.57200
 Alpha virt. eigenvalues --    2.57321   2.58768   2.61230   2.62261   2.62560
 Alpha virt. eigenvalues --    2.66330   2.70195   2.73043   2.75070   2.75335
 Alpha virt. eigenvalues --    2.79867   2.83070   2.84934   2.86466   2.92972
 Alpha virt. eigenvalues --    2.98376   3.03968   3.13376   3.16544   3.19015
 Alpha virt. eigenvalues --    3.28118   3.28871   3.35721   3.41745   3.47473
 Alpha virt. eigenvalues --    3.50942   3.61765   3.68225   3.91340   4.26089
 Alpha virt. eigenvalues --    4.36412   4.41552   4.43860   4.46728   4.57451
 Alpha virt. eigenvalues --    4.67776   4.80071   4.93439   4.95635
          Condensed to atoms (all electrons):
               1          2          3          4          5          6
     1  N    6.923927  -0.092581   0.237719  -0.153810   0.208737   0.357968
     2  C   -0.092581   6.226595  -0.396783   0.466059  -0.651199  -0.021451
     3  C    0.237719  -0.396783   6.030889  -1.069255   1.870371  -0.793143
     4  C   -0.153810   0.466059  -1.069255  10.505404  -4.876505   1.282009
     5  C    0.208737  -0.651199   1.870371  -4.876505  13.835465  -4.120750
     6  C    0.357968  -0.021451  -0.793143   1.282009  -4.120750   9.448449
     7  C   -0.260751   0.222207  -0.184029  -0.053097  -0.883095   0.203192
     8  O    0.014625  -0.015237   0.013842   0.007871   0.099894  -0.254637
     9  O    0.049754  -0.018090   0.012984  -0.004440   0.151122  -0.247120
    10  O    0.006019  -0.015010   0.028431  -0.523677   0.337698   0.167481
    11  H   -0.107937   0.452574  -0.096582   0.030905  -0.036663   0.031532
    12  H    0.001530   0.042828   0.245144   0.058612  -0.023992   0.003911
    13  H    0.001561  -0.028445   0.065800   0.147396   0.149478  -0.008153
    14  H    0.002013   0.003835  -0.002331   0.008682  -0.029552   0.014062
    15  H   -0.000674   0.002932  -0.010269   0.149217  -0.036770  -0.086087
               7          8          9         10         11         12
     1  N   -0.260751   0.014625   0.049754   0.006019  -0.107937   0.001530
     2  C    0.222207  -0.015237  -0.018090  -0.015010   0.452574   0.042828
     3  C   -0.184029   0.013842   0.012984   0.028431  -0.096582   0.245144
     4  C   -0.053097   0.007871  -0.004440  -0.523677   0.030905   0.058612
     5  C   -0.883095   0.099894   0.151122   0.337698  -0.036663  -0.023992
     6  C    0.203192  -0.254637  -0.247120   0.167481   0.031532   0.003911
     7  C    5.823484   0.404391   0.205172  -0.038620   0.020874   0.001003
     8  O    0.404391   8.439972  -0.161082  -0.038221   0.000010   0.000003
     9  O    0.205172  -0.161082   8.256309  -0.003513  -0.000515  -0.000003
    10  O   -0.038620  -0.038221  -0.003513   8.454657   0.000147  -0.000534
    11  H    0.020874   0.000010  -0.000515   0.000147   0.552508  -0.001498
    12  H    0.001003   0.000003  -0.000003  -0.000534  -0.001498   0.504912
    13  H    0.004235   0.000077   0.000016  -0.007489  -0.000099  -0.003623
    14  H    0.039207   0.002311   0.190975   0.000159  -0.000001   0.000000
    15  H   -0.006732   0.051152   0.003240   0.189699  -0.000000   0.000003
              13         14         15
     1  N    0.001561   0.002013  -0.000674
     2  C   -0.028445   0.003835   0.002932
     3  C    0.065800  -0.002331  -0.010269
     4  C    0.147396   0.008682   0.149217
     5  C    0.149478  -0.029552  -0.036770
     6  C   -0.008153   0.014062  -0.086087
     7  C    0.004235   0.039207  -0.006732
     8  O    0.000077   0.002311   0.051152
     9  O    0.000016   0.190975   0.003240
    10  O   -0.007489   0.000159   0.189699
    11  H   -0.000099  -0.000001  -0.000000
    12  H   -0.003623   0.000000   0.000003
    13  H    0.497002  -0.000000   0.000026
    14  H   -0.000000   0.376552   0.000019
    15  H    0.000026   0.000019   0.326545
 Mulliken charges:
               1
     1  N   -0.188099
     2  C   -0.178233
     3  C    0.047213
     4  C    0.024630
     5  C    0.005762
     6  C    0.022736
     7  C    0.502560
     8  O   -0.564972
     9  O   -0.434810
    10  O   -0.557225
    11  H    0.154745
    12  H    0.171704
    13  H    0.182219
    14  H    0.394070
    15  H    0.417699
 Sum of Mulliken charges =  -0.00000
 Mulliken charges with hydrogens summed into heavy atoms:
               1
     1  N   -0.188099
     2  C   -0.023489
     3  C    0.218917
     4  C    0.206849
     5  C    0.005762
     6  C    0.022736
     7  C    0.502560
     8  O   -0.564972
     9  O   -0.040739
    10  O   -0.139525
 Electronic spatial extent (au):  <R**2>=           1303.4619
 Charge=             -0.0000 electrons
 Dipole moment (field-independent basis, Debye):
    X=             -1.2441    Y=             -0.4886    Z=              0.0002  Tot=              1.3365
 Quadrupole moment (field-independent basis, Debye-Ang):
   XX=            -42.9371   YY=            -62.2742   ZZ=            -58.0635
   XY=             -2.3638   XZ=              0.0004   YZ=              0.0006
 Traceless Quadrupole moment (field-independent basis, Debye-Ang):
   XX=             11.4878   YY=             -7.8493   ZZ=             -3.6386
   XY=             -2.3638   XZ=              0.0004   YZ=              0.0006
 Octapole moment (field-independent basis, Debye-Ang**2):
  XXX=             17.1457  YYY=              2.2774  ZZZ=             -0.0004  XYY=             -0.9705
  XXY=            -18.6005  XXZ=              0.0011  XZZ=             10.5469  YZZ=              1.6736
  YYZ=              0.0004  XYZ=              0.0016
 Hexadecapole moment (field-independent basis, Debye-Ang**3):
 XXXX=           -842.5605 YYYY=           -588.8560 ZZZZ=            -58.6983 XXXY=            -75.9518
 XXXZ=              0.0084 YYYX=             17.4579 YYYZ=              0.0049 ZZZX=              0.0072
 ZZZY=              0.0043 XXYY=           -230.1868 XXZZ=           -192.9679 YYZZ=           -108.3809
 XXYZ=              0.0033 YYXZ=              0.0028 ZZXY=             -2.5629
 N-N= 5.087911861192D+02 E-N=-2.213308046350D+03  KE= 5.075106768961D+02
 Calling FoFJK, ICntrl=      2127 FMM=F ISym2X=0 I1Cent= 0 IOpClX= 0 NMat=1 NMatS=1 NMatT=0.
 ***** Axes restored to original set *****
 -------------------------------------------------------------------
 Center     Atomic                   Forces (Hartrees/Bohr)
 Number     Number              X              Y              Z
 -------------------------------------------------------------------
      1        7          -0.001879230   -0.002082470    0.000000104
      2        6           0.001120926   -0.000456564    0.000000249
      3        6           0.001474362   -0.000400786   -0.000000096
      4        6           0.000869638    0.001285297   -0.000000159
      5        6          -0.002447933    0.003139201   -0.000002277
      6        6           0.000837667   -0.000537311    0.000002246
      7        6          -0.003110787   -0.000601581   -0.000002332
      8        8          -0.000514731   -0.000056875   -0.000001941
      9        8          -0.002244496    0.000426703    0.000001146
     10        8          -0.000933346   -0.000675978   -0.000001824
     11        1           0.000027622   -0.000090679   -0.000000202
     12        1           0.000199601   -0.000004439    0.000000205
     13        1           0.000249826    0.000134112    0.000000085
     14        1           0.003309978   -0.000198800    0.000000035
     15        1           0.003040903    0.000120169    0.000004762
 -------------------------------------------------------------------
 Cartesian Forces:  Max     0.003309978 RMS     0.001230667

 GradGradGradGradGradGradGradGradGradGradGradGradGradGradGradGradGradGrad
 Berny optimization.
 FormGI is forming the generalized inverse of G from B-inverse, IUseBI=4.
 Internal  Forces:  Max     0.003300770 RMS     0.001066421
 Search for a local minimum.
 Step number   1 out of a maximum of   74
 All quantities printed in internal units (Hartrees-Bohrs-Radians)
 Mixed Optimization -- RFO/linear search
 Second derivative matrix not updated -- first step.
 ITU=  0
     Eigenvalues ---    0.01085   0.01596   0.01787   0.02054   0.02147
     Eigenvalues ---    0.02180   0.02218   0.02249   0.02311   0.02518
     Eigenvalues ---    0.02522   0.02642   0.16000   0.16000   0.16000
     Eigenvalues ---    0.16000   0.16000   0.22081   0.23322   0.24912
     Eigenvalues ---    0.25000   0.25000   0.25000   0.25000   0.35046
     Eigenvalues ---    0.35283   0.35423   0.35499   0.41432   0.44160
     Eigenvalues ---    0.44839   0.48205   0.50483   0.53177   0.55728
     Eigenvalues ---    0.57828   0.59944   0.60355   0.91722
 RFO step:  Lambda=-1.90597860D-04 EMin= 1.08501131D-02
 Linear search not attempted -- first point.
 Iteration  1 RMS(Cart)=  0.01107673 RMS(Int)=  0.00003324
 Iteration  2 RMS(Cart)=  0.00004868 RMS(Int)=  0.00000027
 Iteration  3 RMS(Cart)=  0.00000000 RMS(Int)=  0.00000027
 Variable       Old X    -DE/DX   Delta X   Delta X   Delta X     New X
                                 (Linear)    (Quad)   (Total)
    R1        2.49341   0.00198   0.00000   0.00318   0.00318   2.49659
    R2        2.53194   0.00167   0.00000   0.00302   0.00302   2.53496
    R3        2.65116   0.00112   0.00000   0.00235   0.00235   2.65351
    R4        2.05218   0.00009   0.00000   0.00026   0.00026   2.05244
    R5        2.60292   0.00144   0.00000   0.00279   0.00279   2.60570
    R6        2.04993   0.00020   0.00000   0.00056   0.00056   2.05050
    R7        2.64651   0.00195   0.00000   0.00429   0.00429   2.65080
    R8        2.04873   0.00025   0.00000   0.00069   0.00069   2.04942
    R9        2.65974   0.00325   0.00000   0.00746   0.00746   2.66720
   R10        2.52701  -0.00143   0.00000  -0.00248  -0.00248   2.52453
   R11        2.78901   0.00255   0.00000   0.00726   0.00726   2.79627
   R12        2.32150   0.00022   0.00000   0.00024   0.00024   2.32173
   R13        2.50984  -0.00067   0.00000  -0.00112  -0.00112   2.50872
   R14        1.83489  -0.00330   0.00000  -0.00620  -0.00620   1.82868
   R15        1.86081  -0.00302   0.00000  -0.00598  -0.00598   1.85483
    A1        2.07170  -0.00014   0.00000  -0.00033  -0.00033   2.07138
    A2        2.13928   0.00041   0.00000   0.00153   0.00153   2.14081
    A3        2.03637  -0.00021   0.00000  -0.00080  -0.00080   2.03557
    A4        2.10754  -0.00020   0.00000  -0.00073  -0.00073   2.10681
    A5        2.08243  -0.00000   0.00000  -0.00062  -0.00062   2.08182
    A6        2.09440   0.00002   0.00000   0.00043   0.00043   2.09483
    A7        2.10635  -0.00002   0.00000   0.00019   0.00019   2.10654
    A8        2.07327   0.00031   0.00000   0.00110   0.00110   2.07438
    A9        2.13741  -0.00030   0.00000  -0.00143  -0.00143   2.13597
   A10        2.07251  -0.00001   0.00000   0.00033   0.00033   2.07284
   A11        2.05410  -0.00039   0.00000  -0.00134  -0.00133   2.05277
   A12        2.06876  -0.00155   0.00000  -0.00632  -0.00632   2.06244
   A13        2.16033   0.00194   0.00000   0.00765   0.00765   2.16798
   A14        2.14558  -0.00019   0.00000  -0.00035  -0.00035   2.14523
   A15        2.06535  -0.00192   0.00000  -0.00788  -0.00788   2.05747
   A16        2.07226   0.00211   0.00000   0.00823   0.00823   2.08049
   A17        2.14206   0.00124   0.00000   0.00495   0.00495   2.14701
   A18        2.01875  -0.00138   0.00000  -0.00550  -0.00550   2.01326
   A19        2.12237   0.00014   0.00000   0.00055   0.00055   2.12292
   A20        1.86740  -0.00065   0.00000  -0.00408  -0.00408   1.86333
   A21        1.88390  -0.00062   0.00000  -0.00385  -0.00385   1.88005
    D1        0.00001  -0.00000   0.00000  -0.00001  -0.00001  -0.00001
    D2        3.14159   0.00000   0.00000   0.00000   0.00000  -3.14159
    D3        0.00000  -0.00000   0.00000  -0.00001  -0.00001  -0.00001
    D4       -3.14156  -0.00000   0.00000  -0.00009  -0.00009   3.14153
    D5       -0.00001   0.00000   0.00000   0.00002   0.00002   0.00001
    D6        3.14159   0.00000   0.00000   0.00000   0.00000  -3.14159
    D7        3.14159   0.00000   0.00000   0.00000   0.00000  -3.14159
    D8        0.00001  -0.00000   0.00000  -0.00002  -0.00002  -0.00001
    D9        0.00000  -0.00000   0.00000   0.00000   0.00000   0.00000
   D10       -3.14158  -0.00000   0.00000  -0.00003  -0.00003   3.14157
   D11        3.14159   0.00000   0.00000   0.00002   0.00002  -3.14158
   D12        0.00000  -0.00000   0.00000  -0.00001  -0.00001  -0.00001
   D13        0.00001  -0.00000   0.00000  -0.00003  -0.00003  -0.00002
   D14       -3.14156  -0.00000   0.00000  -0.00008  -0.00008   3.14154
   D15        3.14159   0.00000   0.00000   0.00001   0.00001  -3.14159
   D16        0.00002  -0.00000   0.00000  -0.00005  -0.00005  -0.00003
   D17       -0.00001   0.00000   0.00000   0.00003   0.00003   0.00002
   D18        3.14155   0.00000   0.00000   0.00011   0.00011  -3.14152
   D19        3.14156   0.00000   0.00000   0.00009   0.00009  -3.14153
   D20       -0.00006   0.00000   0.00000   0.00017   0.00017   0.00011
   D21        3.14153   0.00000   0.00000   0.00019   0.00019  -3.14147
   D22       -0.00004   0.00000   0.00000   0.00013   0.00013   0.00009
   D23        3.14154   0.00000   0.00000   0.00019   0.00019  -3.14146
   D24       -0.00007   0.00000   0.00000   0.00017   0.00017   0.00011
   D25       -0.00003   0.00000   0.00000   0.00012   0.00012   0.00009
   D26        3.14155   0.00000   0.00000   0.00010   0.00010  -3.14153
   D27       -3.14159   0.00000   0.00000   0.00001   0.00001  -3.14158
   D28       -0.00000  -0.00000   0.00000  -0.00001  -0.00001  -0.00002
         Item               Value     Threshold  Converged?
 Maximum Force            0.003301     0.000450     NO 
 RMS     Force            0.001066     0.000300     NO 
 Maximum Displacement     0.037431     0.001800     NO 
 RMS     Displacement     0.011062     0.001200     NO 
 Predicted change in Energy=-9.535242D-05
 GradGradGradGradGradGradGradGradGradGradGradGradGradGradGradGradGradGrad

                          Input orientation:                          
 ---------------------------------------------------------------------
 Center     Atomic      Atomic             Coordinates (Angstroms)
 Number     Number       Type             X           Y           Z
 ---------------------------------------------------------------------
      1          7           0        0.435530   -1.440847    0.000011
      2          6           0        1.756191   -1.476393   -0.000015
      3          6           0        2.545480   -0.315042   -0.000053
      4          6           0        1.929806    0.918754   -0.000048
      5          6           0        0.528226    0.975866   -0.000004
      6          6           0       -0.176379   -0.247097    0.000012
      7          6           0       -1.655976   -0.227858   -0.000035
      8          8           0       -2.311933    0.810986   -0.000180
      9          8           0       -2.239940   -1.420082    0.000056
     10          8           0       -0.053957    2.178264    0.000062
     11          1           0        2.216705   -2.460034   -0.000017
     12          1           0        3.627675   -0.394068   -0.000075
     13          1           0        2.489963    1.847398   -0.000058
     14          1           0       -3.194821   -1.263109    0.000002
     15          1           0       -1.025657    2.039680    0.000204
 ---------------------------------------------------------------------
                    Distance matrix (angstroms):
                    1          2          3          4          5
     1  N    0.000000
     2  C    1.321139   0.000000
     3  C    2.391511   1.404177   0.000000
     4  C    2.792952   2.401431   1.378879   0.000000
     5  C    2.418490   2.742530   2.394945   1.402744   0.000000
     6  C    1.341445   2.290414   2.722707   2.407327   1.411420
     7  C    2.417797   3.633417   4.202360   3.764645   2.493930
     8  O    3.552366   4.667090   4.986221   4.243107   2.844940
     9  O    2.675551   3.996528   4.911350   4.780893   3.661053
    10  O    3.652063   4.078376   3.601895   2.349825   1.335926
    11  H    2.052151   1.086104   2.170042   3.390947   3.828364
    12  H    3.359395   2.161915   1.085076   2.146220   3.388702
    13  H    3.877273   3.403822   2.163153   1.084507   2.146621
    14  H    3.634699   4.955604   5.818066   5.569769   4.344431
    15  H    3.774802   4.483463   4.277585   3.160891   1.883149
                    6          7          8          9         10
     6  C    0.000000
     7  C    1.479721   0.000000
     8  O    2.383302   1.228608   0.000000
     9  O    2.373642   1.327559   2.232229   0.000000
    10  O    2.428448   2.890655   2.639678   4.210298   0.000000
    11  H    3.259439   4.469929   5.586424   4.576373   5.164272
    12  H    3.806892   5.286264   6.060618   5.956644   4.491247
    13  H    3.390618   4.636323   4.912469   5.748774   2.565346
    14  H    3.184850   1.854667   2.254188   0.967697   4.659192
    15  H    2.439389   2.353514   1.778818   3.666665   0.981532
                   11         12         13         14         15
    11  H    0.000000
    12  H    2.501810   0.000000
    13  H    4.316091   2.513674   0.000000
    14  H    5.542313   6.877622   6.480125   0.000000
    15  H    5.546199   5.251344   3.520874   3.951416   0.000000
 Stoichiometry    C6H5NO3
 Framework group  C1[X(C6H5NO3)]
 Deg. of freedom    39
 Full point group                 C1      NOp   1
 Largest Abelian subgroup         C1      NOp   1
 Largest concise Abelian subgroup C1      NOp   1
                         Standard orientation:                         
 ---------------------------------------------------------------------
 Center     Atomic      Atomic             Coordinates (Angstroms)
 Number     Number       Type             X           Y           Z
 ---------------------------------------------------------------------
      1          7           0       -0.427950   -1.443713   -0.000028
      2          6           0       -1.748356   -1.487724   -0.000002
      3          6           0       -2.545074   -0.331458    0.000036
      4          6           0       -1.937322    0.906260    0.000031
      5          6           0       -0.536137    0.972356   -0.000013
      6          6           0        0.176294   -0.246064   -0.000029
      7          6           0        1.655737   -0.217340    0.000018
      8          8           0        2.305020    0.825688    0.000163
      9          8           0        2.247333   -1.405796   -0.000073
     10          8           0        0.038326    2.178462   -0.000079
     11          1           0       -2.202554   -2.474298   -0.000000
     12          1           0       -3.626740   -0.417419    0.000058
     13          1           0       -2.503421    1.831294    0.000041
     14          1           0        3.201187   -1.242705   -0.000019
     15          1           0        1.010894    2.046110   -0.000221
 ---------------------------------------------------------------------
 Rotational constants (GHZ):      2.3673224      1.2627433      0.8234894
 Standard basis: 6-31+G(d,p) (6D, 7F)
 There are   215 symmetry adapted cartesian basis functions of A   symmetry.
 There are   215 symmetry adapted basis functions of A   symmetry.
   215 basis functions,   355 primitive gaussians,   215 cartesian basis functions
    36 alpha electrons       36 beta electrons
       nuclear repulsion energy       507.9734431812 Hartrees.
 NAtoms=   15 NActive=   15 NUniq=   15 SFac= 1.00D+00 NAtFMM=   60 NAOKFM=F Big=F
 Integral buffers will be    131072 words long.
 Raffenetti 2 integral format.
 Two-electron integral symmetry is turned on.
 Nuclear repulsion after empirical dispersion term =      507.9675505262 Hartrees.
 One-electron integrals computed using PRISM.
 NBasis=   215 RedAO= T EigKep=  5.69D-06  NBF=   215
 NBsUse=   215 1.00D-06 EigRej= -1.00D+00 NBFU=   215
 Initial guess from the checkpoint file:  "WB97XD3HPA.chk"
 B after Tr=     0.000000   -0.000000    0.000000
         Rot=    0.999996   -0.000010    0.000008   -0.002864 Ang=  -0.33 deg.
 ExpMin= 4.38D-02 ExpMax= 5.48D+03 ExpMxC= 8.25D+02 IAcc=2 IRadAn=         4 AccDes= 0.00D+00
 Harris functional with IExCor= 4639 and IRadAn=       4 diagonalized for initial guess.
 HarFok:  IExCor= 4639 AccDes= 0.00D+00 IRadAn=         4 IDoV= 1 UseB2=F ITyADJ=14
 ICtDFT=  3500011 ScaDFX=  1.000000  1.000000  1.000000  1.000000
 FoFCou: FMM=F IPFlag=           0 FMFlag=      100000 FMFlg1=           0
         NFxFlg=           0 DoJE=T BraDBF=F KetDBF=T FulRan=T
         wScrn=  0.000000 ICntrl=     500 IOpCl=  0 I1Cent=   200000004 NGrid=           0
         NMat0=    1 NMatS0=      1 NMatT0=    0 NMatD0=    1 NMtDS0=    0 NMtDT0=    0
 Petite list used in FoFCou.
 Keep R1 ints in memory in canonical form, NReq=544393055.
 Requested convergence on RMS density matrix=1.00D-08 within 128 cycles.
 Requested convergence on MAX density matrix=1.00D-06.
 Requested convergence on             energy=1.00D-06.
 No special actions if energy rises.
 SCF Done:  E(RwB97XD) =  -511.950616134     A.U. after   13 cycles
            NFock= 13  Conv=0.35D-08     -V/T= 2.0088
 Calling FoFJK, ICntrl=      2127 FMM=F ISym2X=0 I1Cent= 0 IOpClX= 0 NMat=1 NMatS=1 NMatT=0.
 ***** Axes restored to original set *****
 -------------------------------------------------------------------
 Center     Atomic                   Forces (Hartrees/Bohr)
 Number     Number              X              Y              Z
 -------------------------------------------------------------------
      1        7          -0.000251216    0.000070187    0.000000136
      2        6           0.000473240    0.000346737   -0.000000692
      3        6          -0.000015354   -0.000275335   -0.000000004
      4        6          -0.000287994   -0.000259667    0.000000458
      5        6           0.000378520   -0.001350783    0.000004065
      6        6           0.001121869    0.000594480   -0.000002374
      7        6          -0.001261548    0.001298100   -0.000002327
      8        8           0.002153773    0.000015940    0.000006493
      9        8           0.000064023   -0.000267152    0.000000113
     10        8          -0.003138561   -0.000879451    0.000003714
     11        1          -0.000037838    0.000005231    0.000000343
     12        1          -0.000049127   -0.000011370   -0.000000346
     13        1          -0.000027864   -0.000000832   -0.000000269
     14        1          -0.000097187   -0.000074711   -0.000000262
     15        1           0.000975264    0.000788627   -0.000009049
 -------------------------------------------------------------------
 Cartesian Forces:  Max     0.003138561 RMS     0.000736759

 GradGradGradGradGradGradGradGradGradGradGradGradGradGradGradGradGradGrad
 Berny optimization.
 Using GEDIIS/GDIIS optimizer.
 FormGI is forming the generalized inverse of G from B-inverse, IUseBI=4.
 Internal  Forces:  Max     0.003701957 RMS     0.000918822
 Search for a local minimum.
 Step number   2 out of a maximum of   74
 All quantities printed in internal units (Hartrees-Bohrs-Radians)
 Mixed Optimization -- En-DIIS/RFO-DIIS
 Update second derivatives using D2CorX and points    1    2
 DE= -3.19D-05 DEPred=-9.54D-05 R= 3.34D-01
 Trust test= 3.34D-01 RLast= 2.38D-02 DXMaxT set to 3.00D-01
 ITU=  0  0
 Use linear search instead of GDIIS.
     Eigenvalues ---    0.01085   0.01594   0.01786   0.02054   0.02147
     Eigenvalues ---    0.02180   0.02218   0.02248   0.02311   0.02518
     Eigenvalues ---    0.02522   0.02642   0.15838   0.16000   0.16000
     Eigenvalues ---    0.16000   0.16213   0.21935   0.23052   0.23660
     Eigenvalues ---    0.24935   0.25000   0.25000   0.31589   0.35283
     Eigenvalues ---    0.35421   0.35493   0.37446   0.41958   0.43746
     Eigenvalues ---    0.46502   0.48251   0.51672   0.55098   0.56592
     Eigenvalues ---    0.59741   0.59824   0.67944   0.93277
 RFO step:  Lambda=-4.03368686D-05 EMin= 1.08502079D-02
 Quartic linear search produced a step of -0.39963.
 Iteration  1 RMS(Cart)=  0.00663230 RMS(Int)=  0.00001640
 Iteration  2 RMS(Cart)=  0.00002054 RMS(Int)=  0.00000015
 Iteration  3 RMS(Cart)=  0.00000000 RMS(Int)=  0.00000015
 Variable       Old X    -DE/DX   Delta X   Delta X   Delta X     New X
                                 (Linear)    (Quad)   (Total)
    R1        2.49659   0.00041  -0.00127   0.00238   0.00112   2.49771
    R2        2.53496  -0.00024  -0.00121   0.00155   0.00034   2.53530
    R3        2.65351  -0.00008  -0.00094   0.00145   0.00051   2.65402
    R4        2.05244  -0.00002  -0.00010   0.00012   0.00002   2.05246
    R5        2.60570   0.00016  -0.00111   0.00195   0.00084   2.60654
    R6        2.05050  -0.00005  -0.00023   0.00026   0.00004   2.05054
    R7        2.65080  -0.00034  -0.00172   0.00212   0.00040   2.65120
    R8        2.04942  -0.00001  -0.00028   0.00040   0.00013   2.04955
    R9        2.66720  -0.00271  -0.00298   0.00077  -0.00222   2.66498
   R10        2.52453   0.00086   0.00099  -0.00062   0.00037   2.52490
   R11        2.79627  -0.00085  -0.00290   0.00298   0.00008   2.79634
   R12        2.32173  -0.00114  -0.00009  -0.00060  -0.00070   2.32103
   R13        2.50872   0.00034   0.00045  -0.00035   0.00010   2.50882
   R14        1.82868   0.00008   0.00248  -0.00371  -0.00123   1.82746
   R15        1.85483  -0.00107   0.00239  -0.00493  -0.00254   1.85229
    A1        2.07138  -0.00081   0.00013  -0.00213  -0.00200   2.06938
    A2        2.14081  -0.00006  -0.00061   0.00115   0.00054   2.14135
    A3        2.03557   0.00001   0.00032  -0.00068  -0.00036   2.03521
    A4        2.10681   0.00005   0.00029  -0.00047  -0.00018   2.10663
    A5        2.08182  -0.00011   0.00025  -0.00028  -0.00004   2.08178
    A6        2.09483   0.00005  -0.00017   0.00020   0.00003   2.09485
    A7        2.10654   0.00006  -0.00008   0.00008   0.00001   2.10655
    A8        2.07438  -0.00029  -0.00044  -0.00010  -0.00054   2.07384
    A9        2.13597   0.00018   0.00057  -0.00037   0.00021   2.13618
   A10        2.07284   0.00011  -0.00013   0.00046   0.00033   2.07317
   A11        2.05277   0.00023   0.00053  -0.00062  -0.00008   2.05268
   A12        2.06244   0.00182   0.00253   0.00068   0.00321   2.06564
   A13        2.16798  -0.00205  -0.00306  -0.00006  -0.00312   2.16486
   A14        2.14523   0.00105   0.00014   0.00198   0.00212   2.14734
   A15        2.05747   0.00265   0.00315   0.00171   0.00486   2.06233
   A16        2.08049  -0.00370  -0.00329  -0.00369  -0.00698   2.07351
   A17        2.14701  -0.00265  -0.00198  -0.00333  -0.00530   2.14170
   A18        2.01326   0.00106   0.00220  -0.00082   0.00138   2.01464
   A19        2.12292   0.00159  -0.00022   0.00415   0.00393   2.12685
   A20        1.86333   0.00018   0.00163  -0.00180  -0.00017   1.86315
   A21        1.88005   0.00119   0.00154   0.00209   0.00363   1.88368
    D1       -0.00001   0.00000   0.00001   0.00001   0.00001   0.00001
    D2       -3.14159  -0.00000  -0.00000  -0.00000  -0.00000  -3.14159
    D3       -0.00001   0.00000   0.00000   0.00000   0.00001   0.00000
    D4        3.14153   0.00000   0.00004   0.00004   0.00008  -3.14157
    D5        0.00001  -0.00000  -0.00001  -0.00001  -0.00002  -0.00001
    D6       -3.14159  -0.00000  -0.00000  -0.00000  -0.00000   3.14159
    D7       -3.14159  -0.00000  -0.00000  -0.00000  -0.00000   3.14159
    D8       -0.00001   0.00000   0.00001   0.00001   0.00001   0.00000
    D9        0.00000   0.00000  -0.00000  -0.00000  -0.00000  -0.00000
   D10        3.14157   0.00000   0.00001   0.00002   0.00003  -3.14158
   D11       -3.14158  -0.00000  -0.00001  -0.00001  -0.00002   3.14159
   D12       -0.00001   0.00000   0.00001   0.00001   0.00001   0.00000
   D13       -0.00002   0.00000   0.00001   0.00001   0.00002   0.00001
   D14        3.14154   0.00000   0.00003   0.00005   0.00008  -3.14157
   D15       -3.14159  -0.00000  -0.00000  -0.00000  -0.00001   3.14159
   D16       -0.00003   0.00000   0.00002   0.00003   0.00005   0.00002
   D17        0.00002  -0.00000  -0.00001  -0.00002  -0.00003  -0.00001
   D18       -3.14152  -0.00000  -0.00004  -0.00006  -0.00010   3.14156
   D19       -3.14153  -0.00000  -0.00004  -0.00005  -0.00009   3.14156
   D20        0.00011  -0.00001  -0.00007  -0.00009  -0.00016  -0.00005
   D21       -3.14147  -0.00001  -0.00008  -0.00011  -0.00018   3.14154
   D22        0.00009  -0.00001  -0.00005  -0.00007  -0.00012  -0.00004
   D23       -3.14146  -0.00001  -0.00008  -0.00017  -0.00025   3.14148
   D24        0.00011  -0.00000  -0.00007  -0.00004  -0.00011   0.00000
   D25        0.00009  -0.00000  -0.00005  -0.00014  -0.00018  -0.00009
   D26       -3.14153  -0.00000  -0.00004  -0.00000  -0.00004  -3.14157
   D27       -3.14158  -0.00000  -0.00000  -0.00006  -0.00007   3.14154
   D28       -0.00002   0.00000   0.00001   0.00007   0.00008   0.00006
         Item               Value     Threshold  Converged?
 Maximum Force            0.003702     0.000450     NO 
 RMS     Force            0.000919     0.000300     NO 
 Maximum Displacement     0.023250     0.001800     NO 
 RMS     Displacement     0.006635     0.001200     NO 
 Predicted change in Energy=-4.550682D-05
 GradGradGradGradGradGradGradGradGradGradGradGradGradGradGradGradGradGrad

                          Input orientation:                          
 ---------------------------------------------------------------------
 Center     Atomic      Atomic             Coordinates (Angstroms)
 Number     Number       Type             X           Y           Z
 ---------------------------------------------------------------------
      1          7           0        0.438263   -1.445284   -0.000055
      2          6           0        1.759600   -1.477499   -0.000049
      3          6           0        2.546723   -0.314350   -0.000015
      4          6           0        1.928345    0.918590    0.000008
      5          6           0        0.526410    0.972109   -0.000006
      6          6           0       -0.174365   -0.251701   -0.000032
      7          6           0       -1.653904   -0.226056   -0.000011
      8          8           0       -2.299629    0.818745    0.000127
      9          8           0       -2.244687   -1.414975   -0.000015
     10          8           0       -0.062793    2.171300   -0.000014
     11          1           0        2.222253   -2.460145   -0.000068
     12          1           0        3.629095   -0.391187   -0.000011
     13          1           0        2.486456    1.848542    0.000026
     14          1           0       -3.197989   -1.252497    0.000051
     15          1           0       -1.032865    2.030828   -0.000075
 ---------------------------------------------------------------------
                    Distance matrix (angstroms):
                    1          2          3          4          5
     1  N    0.000000
     2  C    1.321729   0.000000
     3  C    2.392616   1.404449   0.000000
     4  C    2.794324   2.402023   1.379323   0.000000
     5  C    2.419000   2.742505   2.395128   1.402955   0.000000
     6  C    1.341624   2.289716   2.721809   2.406444   1.410247
     7  C    2.421504   3.635673   4.201555   3.760681   2.487845
     8  O    3.552729   4.663698   4.977050   4.229153   2.830198
     9  O    2.683122   4.004776   4.916196   4.781184   3.657479
    10  O    3.651129   4.078584   3.603891   2.352427   1.336121
    11  H    2.052452   1.086113   2.170188   3.391494   3.828348
    12  H    3.360436   2.162195   1.085096   2.146641   3.388986
    13  H    3.878710   3.404537   2.163732   1.084574   2.147071
    14  H    3.641359   4.962692   5.820810   5.567128   4.338205
    15  H    3.774596   4.483996   4.279405   3.163200   1.884735
                    6          7          8          9         10
     6  C    0.000000
     7  C    1.479761   0.000000
     8  O    2.379622   1.228238   0.000000
     9  O    2.374750   1.327611   2.234395   0.000000
    10  O    2.425569   2.877317   2.613971   4.197860   0.000000
    11  H    3.258988   4.473896   5.585565   4.587585   5.164467
    12  H    3.806017   5.285580   6.050926   5.962337   4.494038
    13  H    3.389837   4.631041   4.895620   5.747544   2.569599
    14  H    3.184948   1.854125   2.257674   0.967048   4.642396
    15  H    2.438639   2.340772   1.753236   3.652680   0.980190
                   11         12         13         14         15
    11  H    0.000000
    12  H    2.501958   0.000000
    13  H    4.316780   2.514361   0.000000
    14  H    5.553146   6.881201   6.475288   0.000000
    15  H    5.546587   5.253573   3.524038   3.932936   0.000000
 Stoichiometry    C6H5NO3
 Framework group  C1[X(C6H5NO3)]
 Deg. of freedom    39
 Full point group                 C1      NOp   1
 Largest Abelian subgroup         C1      NOp   1
 Largest concise Abelian subgroup C1      NOp   1
                         Standard orientation:                         
 ---------------------------------------------------------------------
 Center     Atomic      Atomic             Coordinates (Angstroms)
 Number     Number       Type             X           Y           Z
 ---------------------------------------------------------------------
      1          7           0       -0.436058   -1.446112    0.000050
      2          6           0       -1.757315   -1.481424    0.000045
      3          6           0       -2.547163   -0.320124    0.000010
      4          6           0       -1.931677    0.914263   -0.000012
      5          6           0       -0.529872    0.971068    0.000001
      6          6           0        0.173771   -0.251095    0.000028
      7          6           0        1.653245   -0.221981    0.000007
      8          8           0        2.296519    0.824330   -0.000131
      9          8           0        2.246814   -1.409512    0.000011
     10          8           0        0.056518    2.171637    0.000010
     11          1           0       -2.217663   -2.465152    0.000064
     12          1           0       -3.629352   -0.399498    0.000006
     13          1           0       -2.491967    1.842904   -0.000030
     14          1           0        3.199732   -1.244800   -0.000056
     15          1           0        1.026916    2.033440    0.000071
 ---------------------------------------------------------------------
 Rotational constants (GHZ):      2.3720328      1.2641072      0.8246393
 Standard basis: 6-31+G(d,p) (6D, 7F)
 There are   215 symmetry adapted cartesian basis functions of A   symmetry.
 There are   215 symmetry adapted basis functions of A   symmetry.
   215 basis functions,   355 primitive gaussians,   215 cartesian basis functions
    36 alpha electrons       36 beta electrons
       nuclear repulsion energy       508.2409054374 Hartrees.
 NAtoms=   15 NActive=   15 NUniq=   15 SFac= 1.00D+00 NAtFMM=   60 NAOKFM=F Big=F
 Integral buffers will be    131072 words long.
 Raffenetti 2 integral format.
 Two-electron integral symmetry is turned on.
 Nuclear repulsion after empirical dispersion term =      508.2350220978 Hartrees.
 One-electron integrals computed using PRISM.
 NBasis=   215 RedAO= T EigKep=  5.70D-06  NBF=   215
 NBsUse=   215 1.00D-06 EigRej= -1.00D+00 NBFU=   215
 Initial guess from the checkpoint file:  "WB97XD3HPA.chk"
 B after Tr=     0.000000   -0.000000    0.000000
         Rot=    0.999998    0.000010   -0.000008    0.001809 Ang=   0.21 deg.
 ExpMin= 4.38D-02 ExpMax= 5.48D+03 ExpMxC= 8.25D+02 IAcc=2 IRadAn=         4 AccDes= 0.00D+00
 Harris functional with IExCor= 4639 and IRadAn=       4 diagonalized for initial guess.
 HarFok:  IExCor= 4639 AccDes= 0.00D+00 IRadAn=         4 IDoV= 1 UseB2=F ITyADJ=14
 ICtDFT=  3500011 ScaDFX=  1.000000  1.000000  1.000000  1.000000
 FoFCou: FMM=F IPFlag=           0 FMFlag=      100000 FMFlg1=           0
         NFxFlg=           0 DoJE=T BraDBF=F KetDBF=T FulRan=T
         wScrn=  0.000000 ICntrl=     500 IOpCl=  0 I1Cent=   200000004 NGrid=           0
         NMat0=    1 NMatS0=      1 NMatT0=    0 NMatD0=    1 NMtDS0=    0 NMtDT0=    0
 Petite list used in FoFCou.
 Keep R1 ints in memory in canonical form, NReq=544393055.
 Requested convergence on RMS density matrix=1.00D-08 within 128 cycles.
 Requested convergence on MAX density matrix=1.00D-06.
 Requested convergence on             energy=1.00D-06.
 No special actions if energy rises.
 SCF Done:  E(RwB97XD) =  -511.950653018     A.U. after   12 cycles
            NFock= 12  Conv=0.65D-08     -V/T= 2.0088
 Calling FoFJK, ICntrl=      2127 FMM=F ISym2X=0 I1Cent= 0 IOpClX= 0 NMat=1 NMatS=1 NMatT=0.
 ***** Axes restored to original set *****
 -------------------------------------------------------------------
 Center     Atomic                   Forces (Hartrees/Bohr)
 Number     Number              X              Y              Z
 -------------------------------------------------------------------
      1        7           0.000037052    0.000355492   -0.000000954
      2        6           0.000084031    0.000333223    0.000000876
      3        6          -0.000453086   -0.000023469    0.000000009
      4        6          -0.000183154   -0.000255434    0.000000104
      5        6           0.000241539   -0.000263441   -0.000002444
      6        6           0.000364618    0.000038900   -0.000003069
      7        6           0.000486518    0.000304726    0.000015534
      8        8          -0.000189670   -0.000619513   -0.000008660
      9        8           0.000445488    0.000351625   -0.000004391
     10        8           0.000561791   -0.000048280   -0.000001764
     11        1          -0.000051543    0.000017905   -0.000000108
     12        1          -0.000076766   -0.000017206    0.000000067
     13        1          -0.000024359   -0.000064034    0.000000110
     14        1          -0.000848800   -0.000121921    0.000000162
     15        1          -0.000393660    0.000011429    0.000004529
 -------------------------------------------------------------------
 Cartesian Forces:  Max     0.000848800 RMS     0.000262751

 GradGradGradGradGradGradGradGradGradGradGradGradGradGradGradGradGradGrad
 Berny optimization.
 Using GEDIIS/GDIIS optimizer.
 FormGI is forming the generalized inverse of G from B-inverse, IUseBI=4.
 Internal  Forces:  Max     0.000810969 RMS     0.000228207
 Search for a local minimum.
 Step number   3 out of a maximum of   74
 All quantities printed in internal units (Hartrees-Bohrs-Radians)
 Mixed Optimization -- En-DIIS/RFO-DIIS
 Swapping is turned off.
 Update second derivatives using D2CorX and points    1    2    3
 DE= -3.69D-05 DEPred=-4.55D-05 R= 8.11D-01
 TightC=F SS=  1.41D+00  RLast= 1.33D-02 DXNew= 5.0454D-01 3.9881D-02
 Trust test= 8.11D-01 RLast= 1.33D-02 DXMaxT set to 3.00D-01
 ITU=  1  0  0
     Eigenvalues ---    0.01085   0.01598   0.01787   0.02054   0.02147
     Eigenvalues ---    0.02180   0.02218   0.02248   0.02311   0.02518
     Eigenvalues ---    0.02522   0.02642   0.15822   0.16000   0.16000
     Eigenvalues ---    0.16039   0.16262   0.22065   0.23255   0.24320
     Eigenvalues ---    0.24989   0.25000   0.25418   0.33022   0.35286
     Eigenvalues ---    0.35434   0.35506   0.38639   0.43660   0.45427
     Eigenvalues ---    0.47679   0.48259   0.54183   0.55723   0.56825
     Eigenvalues ---    0.59736   0.59796   0.70249   0.91940
 En-DIIS/RFO-DIIS IScMMF=        0 using points:     3    2
 RFO step:  Lambda=-4.67594806D-06.
 DidBck=F Rises=F RFO-DIIS coefs:    0.86472    0.13528
 Iteration  1 RMS(Cart)=  0.00098819 RMS(Int)=  0.00000089
 Iteration  2 RMS(Cart)=  0.00000096 RMS(Int)=  0.00000005
 Variable       Old X    -DE/DX   Delta X   Delta X   Delta X     New X
                                 (Linear)    (Quad)   (Total)
    R1        2.49771  -0.00030  -0.00015  -0.00028  -0.00043   2.49727
    R2        2.53530  -0.00040  -0.00005  -0.00057  -0.00062   2.53468
    R3        2.65402  -0.00052  -0.00007  -0.00087  -0.00094   2.65309
    R4        2.05246  -0.00004  -0.00000  -0.00009  -0.00009   2.05236
    R5        2.60654  -0.00041  -0.00011  -0.00058  -0.00070   2.60585
    R6        2.05054  -0.00007  -0.00001  -0.00017  -0.00018   2.05036
    R7        2.65120  -0.00040  -0.00005  -0.00074  -0.00080   2.65041
    R8        2.04955  -0.00006  -0.00002  -0.00014  -0.00016   2.04939
    R9        2.66498  -0.00021   0.00030  -0.00103  -0.00073   2.66425
   R10        2.52490  -0.00011  -0.00005   0.00003  -0.00002   2.52488
   R11        2.79634   0.00010  -0.00001  -0.00006  -0.00007   2.79628
   R12        2.32103  -0.00043   0.00009  -0.00048  -0.00039   2.32064
   R13        2.50882  -0.00001  -0.00001   0.00004   0.00003   2.50885
   R14        1.82746   0.00081   0.00017   0.00115   0.00131   1.82877
   R15        1.85229   0.00039   0.00034   0.00035   0.00070   1.85299
    A1        2.06938   0.00008   0.00027  -0.00011   0.00016   2.06953
    A2        2.14135  -0.00004  -0.00007  -0.00013  -0.00021   2.14114
    A3        2.03521  -0.00001   0.00005  -0.00009  -0.00004   2.03516
    A4        2.10663   0.00005   0.00002   0.00023   0.00025   2.10688
    A5        2.08178   0.00004   0.00000   0.00012   0.00012   2.08190
    A6        2.09485  -0.00003  -0.00000  -0.00012  -0.00013   2.09473
    A7        2.10655  -0.00001  -0.00000   0.00001   0.00000   2.10656
    A8        2.07384   0.00003   0.00007  -0.00003   0.00005   2.07388
    A9        2.13618  -0.00002  -0.00003   0.00002  -0.00001   2.13617
   A10        2.07317  -0.00001  -0.00004   0.00001  -0.00003   2.07314
   A11        2.05268  -0.00003   0.00001  -0.00001   0.00001   2.05269
   A12        2.06564  -0.00020  -0.00043   0.00021  -0.00023   2.06542
   A13        2.16486   0.00023   0.00042  -0.00020   0.00022   2.16508
   A14        2.14734  -0.00009  -0.00029   0.00017  -0.00012   2.14722
   A15        2.06233  -0.00038  -0.00066   0.00003  -0.00062   2.06171
   A16        2.07351   0.00047   0.00094  -0.00020   0.00074   2.07425
   A17        2.14170   0.00055   0.00072   0.00050   0.00122   2.14292
   A18        2.01464   0.00004  -0.00019   0.00057   0.00038   2.01502
   A19        2.12685  -0.00059  -0.00053  -0.00107  -0.00160   2.12525
   A20        1.86315   0.00050   0.00002   0.00243   0.00246   1.86561
   A21        1.88368   0.00012  -0.00049   0.00136   0.00087   1.88455
    D1        0.00001  -0.00000  -0.00000  -0.00001  -0.00002  -0.00001
    D2       -3.14159  -0.00000   0.00000  -0.00000  -0.00000   3.14159
    D3        0.00000  -0.00000  -0.00000   0.00000   0.00000   0.00000
    D4       -3.14157  -0.00000  -0.00001  -0.00003  -0.00004   3.14157
    D5       -0.00001   0.00000   0.00000   0.00001   0.00001   0.00001
    D6        3.14159   0.00000   0.00000   0.00000   0.00001  -3.14159
    D7        3.14159   0.00000   0.00000   0.00000   0.00000   3.14159
    D8        0.00000  -0.00000  -0.00000  -0.00001  -0.00001  -0.00000
    D9       -0.00000  -0.00000   0.00000   0.00000   0.00000   0.00000
   D10       -3.14158  -0.00000  -0.00000  -0.00002  -0.00002   3.14158
   D11        3.14159   0.00000   0.00000   0.00001   0.00001  -3.14159
   D12        0.00000  -0.00000  -0.00000  -0.00001  -0.00001  -0.00001
   D13        0.00001  -0.00000  -0.00000  -0.00001  -0.00001  -0.00001
   D14       -3.14157  -0.00000  -0.00001  -0.00005  -0.00006   3.14156
   D15        3.14159   0.00000   0.00000   0.00000   0.00001  -3.14159
   D16        0.00002  -0.00000  -0.00001  -0.00003  -0.00004  -0.00002
   D17       -0.00001   0.00000   0.00000   0.00001   0.00001   0.00001
   D18        3.14156   0.00000   0.00001   0.00004   0.00006  -3.14156
   D19        3.14156   0.00000   0.00001   0.00005   0.00006  -3.14156
   D20       -0.00005   0.00000   0.00002   0.00008   0.00010   0.00005
   D21        3.14154   0.00000   0.00002   0.00010   0.00013  -3.14152
   D22       -0.00004   0.00000   0.00002   0.00007   0.00008   0.00005
   D23        3.14148   0.00001   0.00003   0.00030   0.00033  -3.14138
   D24        0.00000  -0.00000   0.00001  -0.00009  -0.00007  -0.00007
   D25       -0.00009   0.00001   0.00002   0.00027   0.00029   0.00020
   D26       -3.14157  -0.00000   0.00001  -0.00012  -0.00011   3.14150
   D27        3.14154   0.00000   0.00001   0.00019   0.00020  -3.14145
   D28        0.00006  -0.00000  -0.00001  -0.00019  -0.00020  -0.00014
         Item               Value     Threshold  Converged?
 Maximum Force            0.000811     0.000450     NO 
 RMS     Force            0.000228     0.000300     YES
 Maximum Displacement     0.004287     0.001800     NO 
 RMS     Displacement     0.000989     0.001200     YES
 Predicted change in Energy=-3.431435D-06
 GradGradGradGradGradGradGradGradGradGradGradGradGradGradGradGradGradGrad

                          Input orientation:                          
 ---------------------------------------------------------------------
 Center     Atomic      Atomic             Coordinates (Angstroms)
 Number     Number       Type             X           Y           Z
 ---------------------------------------------------------------------
      1          7           0        0.438227   -1.444412    0.000041
      2          6           0        1.759323   -1.477076   -0.000008
      3          6           0        2.546329   -0.314447   -0.000061
      4          6           0        1.928436    0.918325   -0.000052
      5          6           0        0.526938    0.972254    0.000010
      6          6           0       -0.174027   -0.251004    0.000052
      7          6           0       -1.653541   -0.226002    0.000081
      8          8           0       -2.300882    0.817556   -0.000132
      9          8           0       -2.244269   -1.414966    0.000008
     10          8           0       -0.061624    2.171746    0.000053
     11          1           0        2.221574   -2.459857   -0.000013
     12          1           0        3.628587   -0.391562   -0.000104
     13          1           0        2.486756    1.848055   -0.000082
     14          1           0       -3.198661   -1.254766   -0.000094
     15          1           0       -1.032255    2.032575    0.000161
 ---------------------------------------------------------------------
                    Distance matrix (angstroms):
                    1          2          3          4          5
     1  N    0.000000
     2  C    1.321500   0.000000
     3  C    2.391843   1.403953   0.000000
     4  C    2.793429   2.401363   1.378955   0.000000
     5  C    2.418294   2.741896   2.394480   1.402534   0.000000
     6  C    1.341297   2.289343   2.721095   2.405759   1.409863
     7  C    2.420748   3.634946   4.200801   3.760325   2.488033
     8  O    3.552354   4.663754   4.977638   4.230518   2.832049
     9  O    2.682658   4.004074   4.915381   4.780764   3.657651
    10  O    3.650541   4.077959   3.603133   2.351893   1.336108
    11  H    2.052183   1.086063   2.169851   3.390876   3.827685
    12  H    3.359597   2.161594   1.085003   2.146234   3.388248
    13  H    3.877733   3.403771   2.163322   1.084491   2.146604
    14  H    3.641829   4.962965   5.821435   5.568612   4.340473
    15  H    3.775150   4.484480   4.279576   3.163423   1.885567
                    6          7          8          9         10
     6  C    0.000000
     7  C    1.479726   0.000000
     8  O    2.380196   1.228032   0.000000
     9  O    2.375018   1.327628   2.233240   0.000000
    10  O    2.425356   2.878089   2.616889   4.198624   0.000000
    11  H    3.258517   4.472877   5.585162   4.586453   5.163791
    12  H    3.805211   5.284723   6.051493   5.961359   4.493129
    13  H    3.389072   4.630742   4.897285   5.747165   2.568854
    14  H    3.186840   1.856273   2.258434   0.967744   4.645641
    15  H    2.439527   2.342470   1.756612   3.654384   0.980558
                   11         12         13         14         15
    11  H    0.000000
    12  H    2.501506   0.000000
    13  H    4.316066   2.513894   0.000000
    14  H    5.552584   6.881601   6.476994   0.000000
    15  H    5.547012   5.253560   3.523845   3.936994   0.000000
 Stoichiometry    C6H5NO3
 Framework group  C1[X(C6H5NO3)]
 Deg. of freedom    39
 Full point group                 C1      NOp   1
 Largest Abelian subgroup         C1      NOp   1
 Largest concise Abelian subgroup C1      NOp   1
                         Standard orientation:                         
 ---------------------------------------------------------------------
 Center     Atomic      Atomic             Coordinates (Angstroms)
 Number     Number       Type             X           Y           Z
 ---------------------------------------------------------------------
      1          7           0       -0.435323   -1.445496   -0.000045
      2          6           0       -1.756324   -1.481828    0.000004
      3          6           0       -2.546555   -0.321389    0.000057
      4          6           0       -1.932088    0.913094    0.000048
      5          6           0       -0.530746    0.970915   -0.000014
      6          6           0        0.173613   -0.250392   -0.000055
      7          6           0        1.653053   -0.221281   -0.000085
      8          8           0        2.297493    0.824071    0.000128
      9          8           0        2.247080   -1.408600   -0.000012
     10          8           0        0.054483    2.172037   -0.000057
     11          1           0       -2.215843   -2.465889    0.000010
     12          1           0       -3.628596   -0.401509    0.000100
     13          1           0       -2.492988    1.841270    0.000078
     14          1           0        3.201024   -1.245750    0.000091
     15          1           0        1.025497    2.035562   -0.000164
 ---------------------------------------------------------------------
 Rotational constants (GHZ):      2.3725660      1.2640505      0.8246795
 Standard basis: 6-31+G(d,p) (6D, 7F)
 There are   215 symmetry adapted cartesian basis functions of A   symmetry.
 There are   215 symmetry adapted basis functions of A   symmetry.
   215 basis functions,   355 primitive gaussians,   215 cartesian basis functions
    36 alpha electrons       36 beta electrons
       nuclear repulsion energy       508.2694950646 Hartrees.
 NAtoms=   15 NActive=   15 NUniq=   15 SFac= 1.00D+00 NAtFMM=   60 NAOKFM=F Big=F
 Integral buffers will be    131072 words long.
 Raffenetti 2 integral format.
 Two-electron integral symmetry is turned on.
 Nuclear repulsion after empirical dispersion term =      508.2636106423 Hartrees.
 One-electron integrals computed using PRISM.
 NBasis=   215 RedAO= T EigKep=  5.69D-06  NBF=   215
 NBsUse=   215 1.00D-06 EigRej= -1.00D+00 NBFU=   215
 Initial guess from the checkpoint file:  "WB97XD3HPA.chk"
 B after Tr=     0.000000    0.000000   -0.000000
         Rot=    1.000000   -0.000009    0.000006   -0.000203 Ang=  -0.02 deg.
 Keep R1 ints in memory in canonical form, NReq=544393055.
 Requested convergence on RMS density matrix=1.00D-08 within 128 cycles.
 Requested convergence on MAX density matrix=1.00D-06.
 Requested convergence on             energy=1.00D-06.
 No special actions if energy rises.
 SCF Done:  E(RwB97XD) =  -511.950656552     A.U. after   10 cycles
            NFock= 10  Conv=0.66D-08     -V/T= 2.0088
 Calling FoFJK, ICntrl=      2127 FMM=F ISym2X=0 I1Cent= 0 IOpClX= 0 NMat=1 NMatS=1 NMatT=0.
 ***** Axes restored to original set *****
 -------------------------------------------------------------------
 Center     Atomic                   Forces (Hartrees/Bohr)
 Number     Number              X              Y              Z
 -------------------------------------------------------------------
      1        7          -0.000089669    0.000067846    0.000002690
      2        6           0.000103435    0.000042204   -0.000002014
      3        6          -0.000055031   -0.000062226    0.000000068
      4        6          -0.000050646    0.000020345   -0.000000779
      5        6           0.000003937   -0.000039010    0.000003663
      6        6           0.000093783   -0.000068507    0.000009754
      7        6          -0.000203930    0.000127486   -0.000040521
      8        8           0.000075163   -0.000037498    0.000019099
      9        8           0.000101236   -0.000048635    0.000011800
     10        8           0.000007154    0.000018821    0.000002803
     11        1          -0.000017484   -0.000011153    0.000000043
     12        1          -0.000002532   -0.000010137    0.000000045
     13        1           0.000006902   -0.000010823   -0.000000103
     14        1          -0.000003964    0.000040832   -0.000000095
     15        1           0.000031648   -0.000029546   -0.000006453
 -------------------------------------------------------------------
 Cartesian Forces:  Max     0.000203930 RMS     0.000054675

 GradGradGradGradGradGradGradGradGradGradGradGradGradGradGradGradGradGrad
 Berny optimization.
 Using GEDIIS/GDIIS optimizer.
 FormGI is forming the generalized inverse of G from B-inverse, IUseBI=4.
 Internal  Forces:  Max     0.000110199 RMS     0.000030355
 Search for a local minimum.
 Step number   4 out of a maximum of   74
 All quantities printed in internal units (Hartrees-Bohrs-Radians)
 Mixed Optimization -- En-DIIS/RFO-DIIS
 Swapping is turned off.
 Update second derivatives using D2CorX and points    1    2    3    4
 DE= -3.53D-06 DEPred=-3.43D-06 R= 1.03D+00
 TightC=F SS=  1.41D+00  RLast= 4.25D-03 DXNew= 5.0454D-01 1.2744D-02
 Trust test= 1.03D+00 RLast= 4.25D-03 DXMaxT set to 3.00D-01
 ITU=  1  1  0  0
     Eigenvalues ---    0.01085   0.01603   0.01787   0.02054   0.02147
     Eigenvalues ---    0.02180   0.02218   0.02248   0.02311   0.02518
     Eigenvalues ---    0.02523   0.02642   0.15891   0.15982   0.16000
     Eigenvalues ---    0.16046   0.16746   0.22015   0.23240   0.24244
     Eigenvalues ---    0.24805   0.24989   0.27140   0.33019   0.35289
     Eigenvalues ---    0.35439   0.35504   0.38178   0.43511   0.43946
     Eigenvalues ---    0.47180   0.48463   0.54020   0.55200   0.55981
     Eigenvalues ---    0.59776   0.60002   0.70579   0.90395
 En-DIIS/RFO-DIIS IScMMF=        0 using points:     4    3    2
 RFO step:  Lambda=-1.05923559D-07.
 DidBck=F Rises=F RFO-DIIS coefs:    0.95929    0.03611    0.00460
 Iteration  1 RMS(Cart)=  0.00033275 RMS(Int)=  0.00000013
 Iteration  2 RMS(Cart)=  0.00000015 RMS(Int)=  0.00000005
 Variable       Old X    -DE/DX   Delta X   Delta X   Delta X     New X
                                 (Linear)    (Quad)   (Total)
    R1        2.49727   0.00004   0.00001   0.00005   0.00006   2.49733
    R2        2.53468  -0.00008   0.00002  -0.00018  -0.00015   2.53453
    R3        2.65309  -0.00007   0.00004  -0.00021  -0.00018   2.65291
    R4        2.05236   0.00000   0.00000  -0.00001  -0.00000   2.05236
    R5        2.60585   0.00001   0.00002  -0.00003  -0.00001   2.60584
    R6        2.05036  -0.00000   0.00001  -0.00002  -0.00001   2.05035
    R7        2.65041  -0.00006   0.00003  -0.00018  -0.00015   2.65026
    R8        2.04939  -0.00000   0.00001  -0.00002  -0.00001   2.04938
    R9        2.66425  -0.00005   0.00004  -0.00019  -0.00015   2.66411
   R10        2.52488  -0.00003  -0.00000  -0.00005  -0.00005   2.52483
   R11        2.79628   0.00003   0.00000   0.00009   0.00009   2.79637
   R12        2.32064  -0.00008   0.00002  -0.00012  -0.00010   2.32054
   R13        2.50885  -0.00002  -0.00000  -0.00004  -0.00004   2.50881
   R14        1.82877   0.00001  -0.00005   0.00011   0.00006   1.82883
   R15        1.85299  -0.00002  -0.00002  -0.00001  -0.00003   1.85296
    A1        2.06953  -0.00000   0.00000  -0.00002  -0.00002   2.06952
    A2        2.14114  -0.00002   0.00001  -0.00007  -0.00006   2.14108
    A3        2.03516  -0.00000   0.00000  -0.00005  -0.00005   2.03511
    A4        2.10688   0.00002  -0.00001   0.00012   0.00011   2.10699
    A5        2.08190   0.00001  -0.00000   0.00006   0.00005   2.08195
    A6        2.09473  -0.00000   0.00000  -0.00004  -0.00003   2.09470
    A7        2.10656  -0.00000  -0.00000  -0.00002  -0.00002   2.10654
    A8        2.07388  -0.00001   0.00000  -0.00004  -0.00004   2.07384
    A9        2.13617   0.00000  -0.00000  -0.00000  -0.00000   2.13616
   A10        2.07314   0.00001  -0.00000   0.00004   0.00004   2.07318
   A11        2.05269   0.00001   0.00000   0.00002   0.00002   2.05271
   A12        2.06542   0.00001  -0.00001   0.00003   0.00002   2.06544
   A13        2.16508  -0.00002   0.00001  -0.00004  -0.00004   2.16504
   A14        2.14722   0.00002  -0.00000   0.00005   0.00005   2.14727
   A15        2.06171   0.00000   0.00000  -0.00003  -0.00002   2.06169
   A16        2.07425  -0.00002   0.00000  -0.00002  -0.00002   2.07423
   A17        2.14292   0.00001  -0.00003   0.00013   0.00010   2.14302
   A18        2.01502  -0.00011  -0.00002  -0.00039  -0.00041   2.01460
[...]
 ! R11   R(6,7)                  1.4797         -DE/DX =    0.0                 !
 ! R12   R(7,8)                  1.228          -DE/DX =   -0.0001              !
 ! R13   R(7,9)                  1.3276         -DE/DX =    0.0                 !
 ! R14   R(9,14)                 0.9677         -DE/DX =    0.0                 !
 ! R15   R(10,15)                0.9806         -DE/DX =    0.0                 !
 ! A1    A(2,1,6)              118.5755         -DE/DX =    0.0                 !
 ! A2    A(1,2,3)              122.6785         -DE/DX =    0.0                 !
 ! A3    A(1,2,11)             116.6063         -DE/DX =    0.0                 !
 ! A4    A(3,2,11)             120.7153         -DE/DX =    0.0                 !
 ! A5    A(2,3,4)              119.2841         -DE/DX =    0.0                 !
 ! A6    A(2,3,12)             120.0191         -DE/DX =    0.0                 !
 ! A7    A(4,3,12)             120.6967         -DE/DX =    0.0                 !
 ! A8    A(3,4,5)              118.8247         -DE/DX =    0.0                 !
 ! A9    A(3,4,13)             122.3934         -DE/DX =    0.0                 !
 ! A10   A(5,4,13)             118.7819         -DE/DX =    0.0                 !
 ! A11   A(4,5,6)              117.6104         -DE/DX =    0.0                 !
 ! A12   A(4,5,10)             118.3398         -DE/DX =    0.0                 !
 ! A13   A(6,5,10)             124.0499         -DE/DX =    0.0                 !
 ! A14   A(1,6,5)              123.0268         -DE/DX =    0.0                 !
 ! A15   A(1,6,7)              118.1273         -DE/DX =    0.0                 !
 ! A16   A(5,6,7)              118.8459         -DE/DX =    0.0                 !
 ! A17   A(6,7,8)              122.7803         -DE/DX =    0.0                 !
 ! A18   A(6,7,9)              115.452          -DE/DX =   -0.0001              !
 ! A19   A(8,7,9)              121.7677         -DE/DX =    0.0001              !
 ! A20   A(7,9,14)             106.8915         -DE/DX =   -0.0001              !
 ! A21   A(5,10,15)            107.9765         -DE/DX =   -0.0001              !
 ! D1    D(6,1,2,3)             -0.0006         -DE/DX =    0.0                 !
 ! D2    D(6,1,2,11)          -180.0001         -DE/DX =    0.0                 !
 ! D3    D(2,1,6,5)              0.0001         -DE/DX =    0.0                 !
 ! D4    D(2,1,6,7)            179.9989         -DE/DX =    0.0                 !
 ! D5    D(1,2,3,4)              0.0005         -DE/DX =    0.0                 !
 ! D6    D(1,2,3,12)          -179.9998         -DE/DX =    0.0                 !
 ! D7    D(11,2,3,4)           180.0            -DE/DX =    0.0                 !
 ! D8    D(11,2,3,12)           -0.0003         -DE/DX =    0.0                 !
 ! D9    D(2,3,4,5)              0.0            -DE/DX =    0.0                 !
 ! D10   D(2,3,4,13)          -180.0006         -DE/DX =    0.0                 !
 ! D11   D(12,3,4,5)           180.0003         -DE/DX =    0.0                 !
 ! D12   D(12,3,4,13)           -0.0003         -DE/DX =    0.0                 !
 ! D13   D(3,4,5,6)             -0.0004         -DE/DX =    0.0                 !
 ! D14   D(3,4,5,10)          -180.0017         -DE/DX =    0.0                 !
 ! D15   D(13,4,5,6)           180.0002         -DE/DX =    0.0                 !
 ! D16   D(13,4,5,10)           -0.0011         -DE/DX =    0.0                 !
 ! D17   D(4,5,6,1)              0.0004         -DE/DX =    0.0                 !
 ! D18   D(4,5,6,7)           -179.9984         -DE/DX =    0.0                 !
 ! D19   D(10,5,6,1)           180.0018         -DE/DX =    0.0                 !
 ! D20   D(10,5,6,7)             0.003          -DE/DX =    0.0                 !
 ! D21   D(4,5,10,15)          180.0041         -DE/DX =    0.0                 !
 ! D22   D(6,5,10,15)            0.0027         -DE/DX =    0.0                 !
 ! D23   D(1,6,7,8)           -179.9875         -DE/DX =    0.0                 !
 ! D24   D(1,6,7,9)             -0.0042         -DE/DX =    0.0                 !
 ! D25   D(5,6,7,8)              0.0113         -DE/DX =    0.0                 !
 ! D26   D(5,6,7,9)           -180.0053         -DE/DX =    0.0                 !
 ! D27   D(6,7,9,14)          -179.9918         -DE/DX =    0.0                 !
 ! D28   D(8,7,9,14)            -0.0083         -DE/DX =    0.0                 !
 --------------------------------------------------------------------------------
 GradGradGradGradGradGradGradGradGradGradGradGradGradGradGradGradGradGrad

 1\1\ WCSS.PL-BEM-QINLAB\Freq\RwB97XD\6-31+G(d,p)\C6H5N1O3\PHZD\19-May-
 2024\0\\#N Geom=AllCheck Guess=TCheck SCRF=Check GenChk RwB97XD/6-31+G
 (d,p) Freq\\[No Title]\\0,1\N,0.4382270543,-1.4444122853,0.0000413475\
 C,1.7593230858,-1.4770762636,-0.0000076286\C,2.5463285138,-0.314446582
 7,-0.0000608062\C,1.9284357079,0.9183245276,-0.0000521915\C,0.52693849
 38,0.9722543004,0.0000099606\C,-0.1740265464,-0.2510041882,0.000051635
 3\C,-1.6535414332,-0.226001849,0.0000813255\O,-2.3008817265,0.81755601
 22,-0.000131846\O,-2.2442688634,-1.4149662089,0.0000083373\O,-0.061623
 5893,2.1717459779,0.0000534942\H,2.221573732,-2.459856957,-0.000013337
 5\H,3.6285874517,-0.3915620738,-0.0001037747\H,2.4867557046,1.84805515
 33,-0.0000818196\H,-3.1986607133,-1.2547657263,-0.0000943707\H,-1.0322
 548716,2.0325751635,0.0001606744\\Version=ES64L-G09RevE.01\State=1-A\H
 F=-511.9506566\RMSD=7.920e-09\RMSF=5.467e-05\ZeroPoint=0.1102688\Therm
 al=0.1179134\Dipole=0.4939264,-0.1824965,0.0000953\DipoleDeriv=0.10590
 5,0.0703773,-0.0000101,-0.4364854,-0.4187039,0.0000122,0.0000239,0.000
 0051,-0.245818,-0.3270354,-0.1085428,0.0000008,-0.2932675,0.2738409,0.
 0000017,0.0000113,0.0000046,-0.0307561,0.154635,-0.0580225,-0.000009,0
 .3681648,0.0679855,-0.0000055,-0.0000123,-0.0000001,-0.0796174,0.08732
 46,0.408114,-0.0000026,-0.0382345,-0.0220441,-0.000005,-0.0000201,-0.0
 000252,-0.1532197,0.1981547,-0.6704669,-0.0000207,-0.4581453,1.1487059
 ,0.0000489,0.0000213,0.0000471,0.1709455,-0.5811232,-0.2703836,0.00000
 2,0.4465867,-0.1156822,-0.0000144,0.0000314,0.0000148,0.0267233,2.1539
 374,0.2703326,0.0000128,0.1922669,1.696599,-0.0000607,0.0000602,-0.000
 0517,0.3302695,-1.1747244,0.2690561,-0.0000189,0.2425537,-1.041545,0.0
 00007,-0.0001088,0.0000887,-0.3812819,-0.8569337,-0.5822018,0.0000205,
 -0.6001535,-1.043126,0.0000239,-0.0000367,-0.0000744,-0.3522715,-0.651
 3611,0.4962026,0.0000096,0.3533788,-1.2598322,-0.0000482,0.0000038,-0.
 0000532,-0.354761,0.0124762,0.0585955,0.0000018,0.086716,-0.0556633,-0
 .0000006,-0.0000003,-0.0000038,0.1211542,-0.0732462,0.0165547,0.000008
 ,0.0150399,0.0902012,0.,0.0000112,0.0000018,0.13695,0.0604819,-0.03909
 96,0.0000036,-0.0528958,0.0000013,0.0000034,0.000002,0.0000008,0.14911
 78,0.341796,0.0938528,-0.0000072,0.1277481,0.2899685,0.0000101,-0.0000
 143,0.0000074,0.3503533,0.5497132,0.0456316,0.0000093,0.0467271,0.3892
 942,0.0000272,0.0000275,0.0000381,0.3122121\Polar=114.0404712,-3.42049
 98,95.2986921,-0.0007069,-0.0005818,46.0124\PG=C01 [X(C6H5N1O3)]\NImag
 =0\\0.66023342,-0.11582526,0.46479047,-0.00002046,-0.00000072,0.098089
 22,-0.39422878,-0.00893835,0.00001309,0.72250194,0.02716254,-0.1235765
 4,0.00000035,-0.06129792,0.75066761,0.00001212,0.00000219,-0.06591206,
 -0.00002236,-0.00000627,0.15058668,-0.05436041,-0.02320825,0.00000391,
 -0.18193014,-0.11429885,0.00000653,0.76979588,-0.09719188,0.05016511,0
 .00000346,-0.03637135,-0.26775356,0.00000466,-0.03489390,0.69579535,0.
 00000403,0.00000142,0.02430079,0.00000615,0.00000816,-0.07145857,-0.00
 002619,-0.00000752,0.13836103,-0.06225814,0.03723774,0.00000164,0.0781
 6732,0.01817931,-0.00000323,-0.19010973,0.06786825,0.00000375,0.694528
 35,0.03936180,-0.01948660,-0.00000147,-0.03097582,-0.05573925,0.000002
 17,0.13519998,-0.34545176,-0.00000130,0.01105388,0.79755419,0.00000191
 ,-0.00000143,-0.00680075,-0.00000257,-0.00000001,0.00846682,0.00000307
 ,0.00000103,-0.05834021,-0.00002484,-0.00000672,0.13093773,0.08611994,
 -0.03207581,-0.00000265,-0.07057495,-0.02937634,0.00000317,-0.01093795
 ,0.08774949,-0.00000038,-0.31942000,-0.05267804,0.00001183,0.72983939,
 0.02761339,-0.06803415,-0.00000170,-0.03582656,-0.00733452,0.00000164,
 0.04095031,0.02755653,-0.00000197,0.01422084,-0.12670817,0.00000032,-0
 .03615768,0.72677197,-0.00000425,0.00000244,0.01461622,0.00000356,0.00
 000170,-0.00894476,0.00000015,-0.00000445,-0.00211978,0.00001170,0.000
 00274,-0.06960471,-0.00003175,0.00000190,0.16488218,-0.14566599,0.0877
 2069,0.00000381,-0.06711985,0.03491860,0.00000340,-0.00038309,0.021096
 92,-0.00000041,-0.00871686,-0.02905496,0.00000127,-0.20280524,-0.09133
 425,0.00000874,0.66337761,0.07647450,-0.29955192,0.00000006,0.09040410
 ,0.00953683,-0.00000416,-0.01692478,-0.06969182,0.00000084,-0.06541134
 ,0.04048329,0.00000254,-0.03787445,-0.23431350,0.00000305,-0.01899382,
 0.71174197,0.00000473,-0.00000090,-0.06211132,0.00000131,-0.00000221,0
 .00564445,-0.00000014,0.00000003,-0.00849131,0.00000152,0.00000143,0.0
 0884350,0.00000745,0.00000613,-0.06964174,-0.00001144,-0.00000632,0.14
 427330,-0.04378114,0.03314414,0.00000012,0.02542930,0.00969444,-0.0000
 0180,0.00028415,-0.01775765,0.00000015,-0.01252350,0.00293007,-0.00000
 006,-0.00074280,-0.03960443,-0.00000121,-0.20411173,-0.01668431,0.0000
 0940,0.75301699,0.03576112,-0.00405879,-0.00000205,0.00619003,-0.00659
 975,0.00000007,-0.00033574,-0.00177705,0.00000019,-0.00210487,-0.00680
 697,0.00000054,-0.03880705,0.02558541,0.00000214,-0.02591452,-0.096925
 99,-0.00000125,-0.11528370,0.89687446,0.00000132,-0.00000173,-0.012742
 94,0.00000054,0.00000002,0.01255484,-0.00000037,-0.00000012,0.00048786
 ,0.00000036,0.00000081,0.00702050,0.00000200,-0.00000343,0.00084005,-0
 .00000592,0.00000089,-0.07765450,0.00007241,-0.00006487,0.21088303,-0.
 00498338,-0.00378188,-0.00000084,-0.00628783,-0.00075243,0.00000100,-0
 .00018218,0.00442908,-0.00000008,0.00286468,-0.00019348,-0.00000023,-0
 .00066695,0.00359274,-0.00000042,-0.02390444,0.04390421,-0.00000915,-0
 .29523490,0.25554625,-0.00005634,0.31153529,-0.00395740,0.00682521,0.0
 0000056,0.00750801,0.00443426,-0.00000095,-0.00004911,-0.00713344,0.00
 000009,-0.00697882,0.00444493,0.00000010,0.01291077,-0.02899815,-0.000
 00200,0.03401180,-0.00671205,0.00000583,0.24516450,-0.49920149,0.00007
 755,-0.29119894,0.61473090,-0.00000211,0.00000052,0.00573239,-0.000000
 03,0.00000021,-0.00257825,0.00000007,-0.00000012,0.00005737,-0.0000005
 4,0.00000014,-0.00079956,0.00000014,0.00000113,0.00011621,0.00000086,0
 .00000467,0.01874013,-0.00006422,0.00008407,-0.07691062,0.00006446,-0.
 00009622,0.03715260,-0.00011227,-0.00395587,0.00000022,-0.00337276,-0.
 00267324,0.00000002,-0.00032597,0.00252146,-0.00000007,0.00096756,-0.0
 0284364,0.00000025,-0.00878957,0.00967593,0.00000048,-0.03007281,-0.04
 268417,-0.00000298,-0.18501447,-0.11096363,-0.00001209,0.03883319,0.01
 059527,0.00000164,0.68193117,0.00571990,-0.00146308,0.00000071,-0.0049
 5626,-0.00087176,0.00000020,0.00030051,0.00261608,-0.00000008,0.001039
 55,0.00035098,0.,0.00236657,-0.00118315,0.00000005,-0.01502846,-0.0035
 2117,-0.00000200,-0.07565935,-0.28478200,-0.00000554,-0.00743304,-0.11
 054944,0.00000520,0.03095101,0.45550181,-0.00000017,0.00000051,0.00179
 493,-0.00000060,-0.00000016,-0.00127432,0.00000007,0.00000035,-0.00011
 741,0.00000017,-0.00000039,-0.00100402,-0.00000058,0.00000072,0.002027
 31,0.00000104,-0.00000225,0.01068229,-0.00001271,-0.00001490,-0.065827
 64,0.00000126,0.00001219,0.02827447,0.00006510,-0.00000625,0.04083894,
 -0.01448576,0.00370727,0.00000026,0.01183570,0.00942742,-0.00000066,-0
 .00611818,-0.01750294,0.00000074,-0.04013297,0.06393394,0.00000303,-0.
 15828703,0.11508962,0.00000841,0.03044578,-0.01004623,-0.00000084,-0.0
 3074587,0.02275082,-0.00000333,-0.01103001,-0.04065693,-0.00000111,0.0
 0339527,-0.00794540,0.00000038,0.63952493,0.00132292,-0.00620621,0.000
 00067,-0.00427584,-0.00697383,0.00000015,-0.00418774,0.00777277,-0.000
 00015,0.02540483,-0.00780089,-0.00000248,0.07797235,-0.32157572,-0.000
 00308,0.00617385,-0.04541114,-0.00000091,0.02267876,-0.00654591,0.0000
 0148,-0.01574885,0.00843645,-0.00000212,-0.00363064,-0.00096363,-0.000
 00046,-0.06051722,0.44191871,0.00000143,-0.00000028,0.00783601,-0.0000
 0096,-0.00000044,-0.00059799,0.00000089,0.00000113,0.00619016,0.000002
 82,-0.00000430,0.00681950,0.00000931,-0.00000825,-0.04773866,-0.000002
 07,0.00000003,0.00702179,0.00000207,-0.00000068,-0.00053325,-0.0000013
 6,0.00000091,0.00444602,-0.00000043,-0.00000057,-0.00081661,-0.0000588
 4,0.00000237,0.03951234,-0.02597761,0.03262433,0.00000030,-0.09922336,
 0.10093576,0.00000091,0.01120537,-0.01751189,0.00000002,-0.00221168,-0
 .00311478,0.00000035,-0.00107063,-0.00025211,0.00000010,-0.00404423,0.
 00084263,0.00000074,0.00082982,0.00116476,0.00000016,-0.00084463,0.000
 23776,-0.00000017,-0.00029942,-0.00023706,-0.00000004,0.00033895,0.000
 42539,-0.00000005,0.12046859,0.00485482,0.00590775,-0.00000045,0.10266
 336,-0.30172258,-0.00000056,0.01315200,-0.01665566,-0.00000029,-0.0038
 4682,-0.00269706,0.00000030,-0.00110283,0.00011004,0.00000005,-0.00151
 611,0.00272046,0.00000021,-0.00030152,0.00017612,0.00000001,0.00015458
 ,-0.00004052,0.00000001,0.00021112,0.00005769,0.00000002,0.00015214,0.
 00007803,-0.00000005,-0.11472672,0.31266646,0.00000042,-0.00000174,-0.
 00670231,0.00000108,-0.00000072,-0.03821052,-0.00000045,0.00000140,0.0
 0486687,0.00000063,0.00000019,0.00577639,0.00000005,0.00000025,0.00110
 552,0.00000037,0.00000010,0.01112627,0.00000008,-0.00000011,0.00069631
 ,0.00000014,0.00000003,-0.00042021,0.,0.,0.00003566,0.00000004,-0.0000
 0012,-0.00162527,-0.00000214,0.00000078,0.02606424,-0.00170270,-0.0036
 9814,0.00000039,-0.01099526,0.00703614,0.00000042,-0.34934152,0.019518
 49,0.00001272,-0.00825228,-0.00208037,0.00000055,0.00156678,0.00157713
 ,0.00000032,0.00146503,-0.00050339,-0.00000003,0.00003965,-0.00004986,
 -0.00000004,-0.00019445,0.00002999,-0.00000004,-0.00015856,-0.00005298
 ,0.,-0.00094015,0.00020012,0.00000008,0.00035878,-0.00035584,-0.000000
 12,0.36725781,-0.00541200,-0.00417985,0.00000042,-0.02529992,0.0102040
 1,0.00000084,0.01915916,-0.06289787,-0.00000022,0.02931497,0.00366658,
 -0.00000105,0.00135527,-0.00481026,0.00000011,0.00128904,-0.00216701,0
 .,-0.00047057,-0.00019202,0.,0.00004135,0.00016814,-0.00000002,0.00007
 529,0.00021181,0.,0.00186219,0.00028138,-0.00000016,0.00060315,0.00029
 941,-0.00000009,-0.02201559,0.05893614,0.00000054,0.00000002,0.0063437
 0,0.00000084,-0.00000043,0.00255329,0.00001270,-0.00000022,-0.03933101
 ,0.00000002,0.00000006,0.00463346,0.00000045,0.00000006,0.00949569,-0.
 00000022,0.00000024,-0.00010900,0.00000011,-0.00000008,-0.00203990,0.,
 0.00000006,0.00032396,0.00000003,0.,0.00027911,-0.00000014,0.00000009,
 -0.00005451,-0.00000013,-0.00000002,-0.00267858,-0.00001397,0.00000021
 ,0.02576639,-0.00081548,0.00100139,-0.00000008,-0.00077014,0.00358581,
 0.00000031,0.01315391,0.01396601,-0.00000047,-0.14022613,-0.12917175,0
 .00000544,-0.01066343,-0.03024437,0.00000093,-0.00541395,0.00181067,0.
 00000059,0.00036866,-0.00187396,0.00000014,0.00005001,0.00056702,-0.00
 000002,-0.00080222,0.00002993,-0.00000007,0.00306419,0.00044685,-0.000
 00036,0.00050855,0.00073547,-0.00000006,0.00068702,-0.00048205,-0.0000
 0019,0.14117232,0.00042908,0.00025794,-0.00000005,0.00427001,-0.002836
 21,-0.00000008,-0.01654370,-0.01637615,0.00000085,-0.13110106,-0.27243
 927,0.00000727,0.00315274,0.00378879,-0.00000014,0.00048141,0.00100724
 ,0.,0.00063812,0.00004753,0.00000003,-0.00014829,0.00018301,-0.0000000
 5,-0.00002797,-0.00005326,0.,-0.00048694,0.00075914,0.00000003,-0.0008
 5851,-0.00086309,0.00000007,0.00017252,0.00088102,-0.00000005,0.139939
 64,0.28559443,0.00000016,-0.00000039,-0.00311831,0.00000009,-0.0000000
 5,0.00907908,-0.00000022,0.00000001,0.00423448,0.00000583,0.00000681,-
 0.03907027,0.00000018,0.00000114,0.00647651,0.00000043,0.00000031,0.00
 607697,0.00000017,-0.00000004,-0.00063025,-0.00000005,0.00000003,0.000
 02105,0.00000002,0.00000002,0.00000335,-0.00000030,0.00000013,-0.00336
 868,-0.00000002,-0.00000002,-0.00011230,-0.00000024,-0.00000005,-0.004
 83090,-0.00000608,-0.00000787,0.02567334,0.00049679,0.00011506,-0.0000
 0003,0.00058956,0.00043531,0.00000002,0.00009853,-0.00043794,0.,-0.000
 27204,-0.00031018,0.00000011,-0.00081298,0.00054251,-0.00000007,0.0017
 5697,-0.00295196,-0.00000126,-0.03403981,-0.00556330,-0.00000245,0.003
 03358,0.00958688,0.00000019,-0.49423281,0.06121261,-0.00005259,0.00109
 444,0.00032435,0.00000005,0.00001476,-0.00002941,0.,0.00003410,-0.0000
 0263,0.,-0.00006151,0.00002023,0.,0.52352214,0.00148033,0.00015065,-0.
 00000007,0.00005649,0.00043971,0.,0.00020529,-0.00011054,-0.00000002,-
 0.00013423,-0.00049856,0.00000006,-0.00167044,0.00113020,0.00000012,-0
 .00088215,-0.00672534,0.00000003,-0.05712148,0.00584718,-0.00000661,0.
 00762239,0.00175256,0.00000118,0.11266665,-0.06137668,0.00001103,0.001
 33818,0.00010098,-0.00000001,0.00004956,-0.00003797,0.,0.00004360,0.00
 002961,0.,-0.00013009,0.00001846,0.,-0.06215742,0.06017456,0.00000020,
 0.00000001,-0.00033977,0.00000004,0.00000013,0.00000004,0.00000006,-0.
 00000003,0.00002341,-0.00000003,-0.00000010,-0.00041476,-0.00000017,0.
 00000011,0.00061679,0.00000107,-0.00000017,0.00508642,-0.00000686,-0.0
 0000115,0.00442880,0.00000117,0.00000017,-0.00628064,-0.00005175,0.000
 00648,-0.01669302,0.00000003,0.,-0.00001677,0.,0.,0.00001374,0.,0.,-0.
 00000634,-0.00000001,0.,0.00003444,0.00005625,-0.00000546,0.01351568,0
 .00152149,-0.00406706,0.00000032,-0.00402075,-0.00297655,0.00000016,-0
 .00084866,0.00451784,0.00000004,0.00759542,-0.00205664,-0.00000011,-0.
 03275460,0.02015692,0.00000330,-0.00480719,-0.00136165,0.00000012,0.02
 622562,-0.02051638,0.00000363,-0.01298798,0.02222918,0.00000088,-0.001
 94634,0.00969248,-0.00000125,-0.42795929,-0.04658913,0.00004742,-0.000
 05326,-0.00004423,-0.00000004,0.00017574,-0.00001767,-0.00000002,-0.00
 025180,0.00006272,0.00000003,-0.00122171,-0.00136667,0.,0.45133334,0.0
 0220613,-0.00153998,0.00000029,-0.00314999,-0.00187440,0.00000009,0.00
 147482,0.00394203,0.,0.00525775,-0.00887143,-0.00000046,0.04423546,0.0
 0801468,-0.00000464,-0.00296805,-0.00046987,-0.00000006,0.00863298,-0.
 02164074,0.00000151,0.00396631,0.01165964,0.00000139,0.00008240,0.0060
 2580,-0.00000041,-0.08110592,-0.06387011,0.00001026,-0.00018226,0.0000
 0092,-0.00000005,0.00017820,-0.00043109,0.00000006,-0.00018057,0.00003
 043,-0.00000002,-0.00078413,-0.00089482,0.,0.02233686,0.06991893,0.000
 00013,0.00000007,-0.00098580,-0.00000019,-0.00000027,0.00009127,-0.000
 00007,0.00000039,0.00133632,0.00000021,-0.00000008,0.00353637,0.000000
 95,0.00000196,-0.00212682,-0.00000091,0.00000019,0.00051275,0.00000235
 ,-0.00000189,-0.00057229,0.00000045,0.00000165,-0.00787492,-0.00000044
 ,0.00000177,0.00179697,0.00005234,0.00000444,-0.01707408,-0.00000002,0
 .,0.00006419,-0.00000003,0.,-0.00034536,-0.00000006,-0.00000001,-0.000
 46850,-0.00000022,-0.00000025,0.00003197,-0.00005448,-0.00000798,0.022
 07793\\0.00008971,-0.00006785,-0.00000269,-0.00010346,-0.00004221,0.00
 000201,0.00005503,0.00006224,-0.00000007,0.00005067,-0.00002036,0.0000
 0078,-0.00000395,0.00003900,-0.00000366,-0.00009381,0.00006849,-0.0000
 0975,0.00020392,-0.00012738,0.00004052,-0.00007514,0.00003745,-0.00001
 910,-0.00010124,0.00004861,-0.00001180,-0.00000715,-0.00001880,-0.0000
 0280,0.00001748,0.00001116,-0.00000004,0.00000253,0.00001014,-0.000000
 05,-0.00000690,0.00001083,0.00000010,0.00000396,-0.00004084,0.00000009
 ,-0.00003165,0.00002954,0.00000645\\\@


 Age does not diminish the extreme disappointment of
 having a scoop of ice cream fall from the cone.
 -- Jim Fiebig
 Job cpu time:       0 days  0 hours 25 minutes 15.1 seconds.
 File lengths (MBytes):  RWF=     79 Int=      0 D2E=      0 Chk=      5 Scr=      1
 Normal termination of Gaussian 09 at Sun May 19 23:26:10 2024.
