 Entering Gaussian System, Link 0=g09
 Input=B2PLYPTHAPD3BJyang.gjf
 Output=B2PLYPTHAPD3BJyang.log
 Initial command:
 /home/phzd/g09E/g09/l1.exe "/home/phzd/g09E/scratch/Gau-1510597.inp" -scrdir="/home/phzd/g09E/scratch/"
 Default is to use a total of  18 processors:
                               18 via shared-memory
                                1 via Linda
 Entering Link 1 = /home/phzd/g09E/g09/l1.exe PID=   1510599.
  
 Copyright (c) 1988,1990,1992,1993,1995,1998,2003,2009,2015,
            Gaussian, Inc.  All Rights Reserved.
  
 This is part of the Gaussian(R) 09 program.  It is based on
 the Gaussian(R) 03 system (copyright 2003, Gaussian, Inc.),
 the Gaussian(R) 98 system (copyright 1998, Gaussian, Inc.),
 the Gaussian(R) 94 system (copyright 1995, Gaussian, Inc.),
 the Gaussian 92(TM) system (copyright 1992, Gaussian, Inc.),
 the Gaussian 90(TM) system (copyright 1990, Gaussian, Inc.),
 the Gaussian 88(TM) system (copyright 1988, Gaussian, Inc.),
 the Gaussian 86(TM) system (copyright 1986, Carnegie Mellon
 University), and the Gaussian 82(TM) system (copyright 1983,
 Carnegie Mellon University). Gaussian is a federally registered
 trademark of Gaussian, Inc.
  
 This software contains proprietary and confidential information,
 including trade secrets, belonging to Gaussian, Inc.
  
 This software is provided under written license and may be
 used, copied, transmitted, or stored only in accord with that
 written license.
  
 The following legend is applicable only to US Government
 contracts under FAR:
  
                    RESTRICTED RIGHTS LEGEND
  
 Use, reproduction and disclosure by the US Government is
 subject to restrictions as set forth in subparagraphs (a)
 and (c) of the Commercial Computer Software - Restricted
 Rights clause in FAR 52.227-19.
  
 Gaussian, Inc.
 340 Quinnipiac St., Bldg. 40, Wallingford CT 06492
  
  
 ---------------------------------------------------------------
 Warning -- This program may not be used in any manner that
 competes with the business of Gaussian, Inc. or will provide
 assistance to any competitor of Gaussian, Inc.  The licensee
 of this program is prohibited from giving any competitor of
 Gaussian, Inc. access to this program.  By using this program,
 the user acknowledges that Gaussian, Inc. is engaged in the
 business of creating and licensing software in the field of
 computational chemistry and represents and warrants to the
 licensee that it is not a competitor of Gaussian, Inc. and that
 it will not use this program in any manner prohibited above.
 ---------------------------------------------------------------
  

 Cite this work as:
 Gaussian 09, Revision E.01,
 M. J. Frisch, G. W. Trucks, H. B. Schlegel, G. E. Scuseria, 
 M. A. Robb, J. R. Cheeseman, G. Scalmani, V. Barone, B. Mennucci, 
 G. A. Petersson, H. Nakatsuji, M. Caricato, X. Li, H. P. Hratchian, 
 A. F. Izmaylov, J. Bloino, G. Zheng, J. L. Sonnenberg, M. Hada, 
 M. Ehara, K. Toyota, R. Fukuda, J. Hasegawa, M. Ishida, T. Nakajima, 
 Y. Honda, O. Kitao, H. Nakai, T. Vreven, J. A. Montgomery, Jr., 
 J. E. Peralta, F. Ogliaro, M. Bearpark, J. J. Heyd, E. Brothers, 
 K. N. Kudin, V. N. Staroverov, T. Keith, R. Kobayashi, J. Normand, 
 K. Raghavachari, A. Rendell, J. C. Burant, S. S. Iyengar, J. Tomasi, 
 M. Cossi, N. Rega, J. M. Millam, M. Klene, J. E. Knox, J. B. Cross, 
 V. Bakken, C. Adamo, J. Jaramillo, R. Gomperts, R. E. Stratmann, 
 O. Yazyev, A. J. Austin, R. Cammi, C. Pomelli, J. W. Ochterski, 
 R. L. Martin, K. Morokuma, V. G. Zakrzewski, G. A. Voth, 
 P. Salvador, J. J. Dannenberg, S. Dapprich, A. D. Daniels, 
 O. Farkas, J. B. Foresman, J. V. Ortiz, J. Cioslowski, 
 and D. J. Fox, Gaussian, Inc., Wallingford CT, 2013.
 
 ******************************************
 Gaussian 09:  ES64L-G09RevE.01 30-Nov-2015
                19-Dec-2024 
 ******************************************
 %chk=B2PLYPTHAPD3BJyang.chk
 -------------------------------------------------------
 # opt freq B2PLYP/6-31+g(d,p) EmpiricalDispersion=GD3BJ
 -------------------------------------------------------
 1/18=20,19=15,38=1/1,3;
 2/9=110,12=2,17=6,18=5,40=1/2;
 3/5=1,6=6,7=111,11=9,16=1,25=1,30=1,71=1,74=-47,124=41/1,2,3;
 4//1;
 5/5=2,38=5/2;
 8/6=4,10=2/1;
 9/15=2,16=-3/6;
 10/5=1/2;
 6/7=2,8=2,9=2,10=2/1;
 7/12=2/1,2,3,16;
 1/18=20,19=15/3(2);
 2/9=110/2;
 99//99;
 2/9=110/2;
 3/5=1,6=6,7=111,11=9,16=1,25=1,30=1,71=1,74=-47,124=41/1,2,3;
 4/5=5,16=3,69=1/1;
 5/5=2,38=5/2;
 8/6=4,10=2/1;
 9/15=2,16=-3/6;
 10/5=1/2;
 7/12=2/1,2,3,16;
 1/18=20,19=15/3(-8);
 2/9=110/2;
 6/7=2,8=2,9=2,10=2/1;
 99//99;
 ----------
 [No Title]
 ----------
 Symbolic Z-matrix:
 Charge =  1 Multiplicity = 1
 C                     1.54773  -1.26429  -0.00024 
 C                     2.2825   -0.07519  -0.00009 
 C                     1.63361   1.17375   0.00001 
 C                     0.25836   1.20939   0.00002 
 C                    -0.55744   0.02341  -0.00005 
 C                     0.16585  -1.22455  -0.00025 
 O                    -0.55413  -2.35209  -0.00044 
 C                    -1.98026   0.08243   0.00021 
 C                    -2.90836  -1.07715   0.00031 
 O                    -2.62203   1.21508   0.00043 
 O                    -0.40436   2.39343  -0.00001 
 O                     3.60672  -0.19686  -0.0001 
 H                     2.08314  -2.20841  -0.00037 
 H                     2.20853   2.0959   -0.00002 
 H                     0.01968  -3.13121  -0.00054 
 H                    -2.73772  -1.71002  -0.87523 
 H                    -2.73718  -1.71036   0.87549 
 H                    -3.93212  -0.70352   0.00068 
 H                    -2.01101   1.98682   0.00039 
 H                     0.18503   3.16024   0.00091 
 H                     4.06018   0.65737   0.00001 
 

 GradGradGradGradGradGradGradGradGradGradGradGradGradGradGradGradGradGrad
 Berny optimization.
 Initialization pass.
                           ----------------------------
                           !    Initial Parameters    !
                           ! (Angstroms and Degrees)  !
 --------------------------                            --------------------------
 ! Name  Definition              Value          Derivative Info.                !
 --------------------------------------------------------------------------------
 ! R1    R(1,2)                  1.3978         estimate D2E/DX2                !
 ! R2    R(1,6)                  1.3824         estimate D2E/DX2                !
 ! R3    R(1,13)                 1.0854         estimate D2E/DX2                !
 ! R4    R(2,3)                  1.4074         estimate D2E/DX2                !
 ! R5    R(2,12)                 1.3298         estimate D2E/DX2                !
 ! R6    R(3,4)                  1.3757         estimate D2E/DX2                !
 ! R7    R(3,14)                 1.0867         estimate D2E/DX2                !
 ! R8    R(4,5)                  1.4395         estimate D2E/DX2                !
 ! R9    R(4,11)                 1.3569         estimate D2E/DX2                !
 ! R10   R(5,6)                  1.4424         estimate D2E/DX2                !
 ! R11   R(5,8)                  1.424          estimate D2E/DX2                !
 ! R12   R(6,7)                  1.3378         estimate D2E/DX2                !
 ! R13   R(7,15)                 0.9676         estimate D2E/DX2                !
 ! R14   R(8,9)                  1.4853         estimate D2E/DX2                !
 ! R15   R(8,10)                 1.3018         estimate D2E/DX2                !
 ! R16   R(9,16)                 1.0937         estimate D2E/DX2                !
 ! R17   R(9,17)                 1.0937         estimate D2E/DX2                !
 ! R18   R(9,18)                 1.0898         estimate D2E/DX2                !
 ! R19   R(10,19)                0.9843         estimate D2E/DX2                !
 ! R20   R(11,20)                0.9671         estimate D2E/DX2                !
 ! R21   R(12,21)                0.9671         estimate D2E/DX2                !
 ! A1    A(2,1,6)              120.0656         estimate D2E/DX2                !
 ! A2    A(2,1,13)             118.7296         estimate D2E/DX2                !
 ! A3    A(6,1,13)             121.2048         estimate D2E/DX2                !
 ! A4    A(1,2,3)              120.8332         estimate D2E/DX2                !
 ! A5    A(1,2,12)             116.4631         estimate D2E/DX2                !
 ! A6    A(3,2,12)             122.7037         estimate D2E/DX2                !
 ! A7    A(2,3,4)              118.9385         estimate D2E/DX2                !
 ! A8    A(2,3,14)             120.6044         estimate D2E/DX2                !
 ! A9    A(4,3,14)             120.457          estimate D2E/DX2                !
 ! A10   A(3,4,5)              123.0384         estimate D2E/DX2                !
 ! A11   A(3,4,11)             120.7206         estimate D2E/DX2                !
 ! A12   A(5,4,11)             116.241          estimate D2E/DX2                !
 ! A13   A(4,5,6)              115.3815         estimate D2E/DX2                !
 ! A14   A(4,5,8)              122.1477         estimate D2E/DX2                !
 ! A15   A(6,5,8)              122.4709         estimate D2E/DX2                !
 ! A16   A(1,6,5)              121.7429         estimate D2E/DX2                !
 ! A17   A(1,6,7)              120.913          estimate D2E/DX2                !
 ! A18   A(5,6,7)              117.3441         estimate D2E/DX2                !
 ! A19   A(6,7,15)             111.0684         estimate D2E/DX2                !
 ! A20   A(5,8,9)              126.2978         estimate D2E/DX2                !
 ! A21   A(5,8,10)             121.9114         estimate D2E/DX2                !
 ! A22   A(9,8,10)             111.7907         estimate D2E/DX2                !
 ! A23   A(8,9,16)             110.7456         estimate D2E/DX2                !
 ! A24   A(8,9,17)             110.7478         estimate D2E/DX2                !
 ! A25   A(8,9,18)             108.6228         estimate D2E/DX2                !
 ! A26   A(16,9,17)            106.3284         estimate D2E/DX2                !
 ! A27   A(16,9,18)            110.1953         estimate D2E/DX2                !
 ! A28   A(17,9,18)            110.1967         estimate D2E/DX2                !
 ! A29   A(8,10,19)            112.0932         estimate D2E/DX2                !
 ! A30   A(4,11,20)            113.2172         estimate D2E/DX2                !
 ! A31   A(2,12,21)            112.7114         estimate D2E/DX2                !
 ! D1    D(6,1,2,3)             -0.0022         estimate D2E/DX2                !
 ! D2    D(6,1,2,12)          -179.9996         estimate D2E/DX2                !
 ! D3    D(13,1,2,3)           179.9962         estimate D2E/DX2                !
 ! D4    D(13,1,2,12)           -0.0011         estimate D2E/DX2                !
 ! D5    D(2,1,6,5)             -0.0027         estimate D2E/DX2                !
 ! D6    D(2,1,6,7)            179.9976         estimate D2E/DX2                !
 ! D7    D(13,1,6,5)           179.9989         estimate D2E/DX2                !
 ! D8    D(13,1,6,7)            -0.0008         estimate D2E/DX2                !
 ! D9    D(1,2,3,4)              0.003          estimate D2E/DX2                !
 ! D10   D(1,2,3,14)          -179.9911         estimate D2E/DX2                !
 ! D11   D(12,2,3,4)          -179.9998         estimate D2E/DX2                !
 ! D12   D(12,2,3,14)            0.0061         estimate D2E/DX2                !
 ! D13   D(1,2,12,21)         -179.9998         estimate D2E/DX2                !
 ! D14   D(3,2,12,21)            0.0029         estimate D2E/DX2                !
 ! D15   D(2,3,4,5)              0.0011         estimate D2E/DX2                !
 ! D16   D(2,3,4,11)          -179.9945         estimate D2E/DX2                !
 ! D17   D(14,3,4,5)           179.9952         estimate D2E/DX2                !
 ! D18   D(14,3,4,11)           -0.0004         estimate D2E/DX2                !
 ! D19   D(3,4,5,6)             -0.0055         estimate D2E/DX2                !
 ! D20   D(3,4,5,8)            179.988          estimate D2E/DX2                !
 ! D21   D(11,4,5,6)           179.9902         estimate D2E/DX2                !
 ! D22   D(11,4,5,8)            -0.0163         estimate D2E/DX2                !
 ! D23   D(3,4,11,20)           -0.0602         estimate D2E/DX2                !
 ! D24   D(5,4,11,20)          179.9439         estimate D2E/DX2                !
 ! D25   D(4,5,6,1)              0.0063         estimate D2E/DX2                !
 ! D26   D(4,5,6,7)           -179.994          estimate D2E/DX2                !
 ! D27   D(8,5,6,1)           -179.9872         estimate D2E/DX2                !
 ! D28   D(8,5,6,7)              0.0125         estimate D2E/DX2                !
 ! D29   D(4,5,8,9)           -179.9936         estimate D2E/DX2                !
 ! D30   D(4,5,8,10)             0.0048         estimate D2E/DX2                !
 ! D31   D(6,5,8,9)             -0.0005         estimate D2E/DX2                !
 ! D32   D(6,5,8,10)           179.9979         estimate D2E/DX2                !
 ! D33   D(1,6,7,15)             0.0009         estimate D2E/DX2                !
 ! D34   D(5,6,7,15)          -179.9988         estimate D2E/DX2                !
 ! D35   D(5,8,9,16)           -58.8649         estimate D2E/DX2                !
 ! D36   D(5,8,9,17)            58.8436         estimate D2E/DX2                !
 ! D37   D(5,8,9,18)           179.9909         estimate D2E/DX2                !
 ! D38   D(10,8,9,16)          121.1366         estimate D2E/DX2                !
 ! D39   D(10,8,9,17)         -121.1549         estimate D2E/DX2                !
 ! D40   D(10,8,9,18)           -0.0076         estimate D2E/DX2                !
 ! D41   D(5,8,10,19)            0.0003         estimate D2E/DX2                !
 ! D42   D(9,8,10,19)          179.9989         estimate D2E/DX2                !
 --------------------------------------------------------------------------------
 Trust Radius=3.00D-01 FncErr=1.00D-07 GrdErr=1.00D-07
 Number of steps in this run=    104 maximum allowed number of steps=    126.
 GradGradGradGradGradGradGradGradGradGradGradGradGradGradGradGradGradGrad

                          Input orientation:                          
 ---------------------------------------------------------------------
 Center     Atomic      Atomic             Coordinates (Angstroms)
 Number     Number       Type             X           Y           Z
 ---------------------------------------------------------------------
      1          6           0        1.547729   -1.264290   -0.000238
      2          6           0        2.282497   -0.075192   -0.000089
      3          6           0        1.633613    1.173747    0.000007
      4          6           0        0.258358    1.209387    0.000015
      5          6           0       -0.557439    0.023409   -0.000048
      6          6           0        0.165853   -1.224552   -0.000247
      7          8           0       -0.554132   -2.352086   -0.000436
      8          6           0       -1.980262    0.082426    0.000214
      9          6           0       -2.908361   -1.077149    0.000310
     10          8           0       -2.622034    1.215082    0.000432
     11          8           0       -0.404360    2.393427   -0.000006
     12          8           0        3.606718   -0.196863   -0.000099
     13          1           0        2.083141   -2.208409   -0.000371
     14          1           0        2.208530    2.095900   -0.000023
     15          1           0        0.019684   -3.131205   -0.000541
     16          1           0       -2.737722   -1.710022   -0.875226
     17          1           0       -2.737182   -1.710358    0.875493
     18          1           0       -3.932116   -0.703516    0.000683
     19          1           0       -2.011007    1.986820    0.000387
     20          1           0        0.185027    3.160238    0.000908
     21          1           0        4.060175    0.657367    0.000011
 ---------------------------------------------------------------------
                    Distance matrix (angstroms):
                    1          2          3          4          5
     1  C    0.000000
     2  C    1.397798   0.000000
     3  C    2.439549   1.407444   0.000000
     4  C    2.789544   2.397349   1.375717   0.000000
     5  C    2.467772   2.841647   2.474669   1.439468   0.000000
     6  C    1.382447   2.408570   2.811789   2.435696   1.442414
     7  O    2.366669   3.637404   4.149425   3.652976   2.375497
     8  C    3.776290   4.265672   3.775059   2.506284   1.424046
     9  C    4.460018   5.286674   5.069128   3.905939   2.595778
    10  O    4.851207   5.071413   4.255848   2.880398   2.383828
    11  O    4.146028   3.648737   2.375069   1.356888   2.374957
    12  O    2.319232   1.329799   2.402439   3.631674   4.169979
    13  H    1.085369   2.142512   3.411899   3.874424   3.457409
    14  H    3.424549   2.172352   1.086690   2.142213   3.456270
    15  H    2.412528   3.802570   4.597541   4.347149   3.206971
    16  H    4.396518   5.351741   5.309494   4.273815   2.919650
    17  H    4.396174   5.351410   5.309274   4.273714   2.919555
    18  H    5.508463   6.246295   5.873794   4.606438   3.452081
    19  H    4.820199   4.762990   3.734212   2.398837   2.442917
    20  H    4.629623   3.855825   2.458566   1.952229   3.223500
    21  H    3.163092   1.922702   2.480897   3.841684   4.660929
                    6          7          8          9         10
     6  C    0.000000
     7  O    1.337801   0.000000
     8  C    2.512768   2.821471   0.000000
     9  C    3.077746   2.677286   1.485255   0.000000
    10  O    3.704609   4.123216   1.301838   2.310045   0.000000
    11  O    3.662638   4.747876   2.797176   4.279593   2.511290
    12  O    3.591058   4.685900   5.593956   6.574280   6.386779
    13  H    2.154987   2.641184   4.664672   5.118090   5.818846
    14  H    3.898452   5.236113   4.647586   6.020865   4.910213
    15  H    1.912248   0.967621   3.785130   3.576674   5.086146
    16  H    3.071159   2.438354   2.133778   1.093713   3.055551
    17  H    3.070918   2.438191   2.133803   1.093710   3.055682
    18  H    4.130960   3.758798   2.104148   1.089806   2.323216
    19  H    3.879643   4.576963   1.904642   3.192671   0.984344
    20  H    4.384832   5.561661   3.763164   5.246380   3.415146
    21  H    4.325201   5.508960   6.067737   7.181159   6.705443
                   11         12         13         14         15
    11  O    0.000000
    12  O    4.774762   0.000000
    13  H    5.231114   2.523411   0.000000
    14  H    2.629775   2.685459   4.306135   0.000000
    15  H    5.540882   4.634347   2.260400   5.666893   0.000000
    16  H    4.800925   6.580837   4.924884   6.302097   3.223061
    17  H    4.801001   6.580456   4.924501   6.301920   3.222817
    18  H    4.694264   7.555840   6.200647   6.748649   4.637930
    19  H    1.657300   6.027214   5.861911   4.220947   5.506168
    20  H    0.967149   4.793547   5.694314   2.286347   6.293615
    21  H    4.790196   0.967126   3.481571   2.344774   5.538849
                   16         17         18         19         20
    16  H    0.000000
    17  H    1.750719   0.000000
    18  H    1.790767   1.790779   0.000000
    19  H    3.868004   3.868109   3.305838   0.000000
    20  H    5.747130   5.746904   5.646190   2.489875   0.000000
    21  H    7.251343   7.250976   8.107325   6.215038   4.613148
                   21
    21  H    0.000000
 Stoichiometry    C8H9O4(1+)
 Framework group  C1[X(C8H9O4)]
 Deg. of freedom    57
 Full point group                 C1      NOp   1
 Largest Abelian subgroup         C1      NOp   1
 Largest concise Abelian subgroup C1      NOp   1
                         Standard orientation:                         
 ---------------------------------------------------------------------
 Center     Atomic      Atomic             Coordinates (Angstroms)
 Number     Number       Type             X           Y           Z
 ---------------------------------------------------------------------
      1          6           0        1.547729   -1.264290   -0.000238
      2          6           0        2.282497   -0.075193   -0.000089
      3          6           0        1.633613    1.173747    0.000007
      4          6           0        0.258358    1.209387    0.000015
      5          6           0       -0.557439    0.023409   -0.000048
      6          6           0        0.165853   -1.224552   -0.000247
      7          8           0       -0.554132   -2.352086   -0.000436
      8          6           0       -1.980262    0.082426    0.000214
      9          6           0       -2.908361   -1.077149    0.000310
     10          8           0       -2.622034    1.215082    0.000432
     11          8           0       -0.404359    2.393427   -0.000006
     12          8           0        3.606718   -0.196864   -0.000099
     13          1           0        2.083141   -2.208410   -0.000371
     14          1           0        2.208530    2.095899   -0.000023
     15          1           0        0.019683   -3.131205   -0.000541
     16          1           0       -2.737722   -1.710022   -0.875226
     17          1           0       -2.737182   -1.710358    0.875493
     18          1           0       -3.932116   -0.703515    0.000683
     19          1           0       -2.011007    1.986820    0.000387
     20          1           0        0.185028    3.160238    0.000908
     21          1           0        4.060175    0.657366    0.000011
 ---------------------------------------------------------------------
 Rotational constants (GHZ):      1.5271255      0.7601428      0.5090989
 Standard basis: 6-31+G(d,p) (6D, 7F)
 There are   273 symmetry adapted cartesian basis functions of A   symmetry.
 There are   273 symmetry adapted basis functions of A   symmetry.
   273 basis functions,   447 primitive gaussians,   273 cartesian basis functions
    44 alpha electrons       44 beta electrons
       nuclear repulsion energy       714.0654711331 Hartrees.
 NAtoms=   21 NActive=   21 NUniq=   21 SFac= 1.00D+00 NAtFMM=   60 NAOKFM=F Big=F
 Integral buffers will be    131072 words long.
 Regular integral format.
 Two-electron integral symmetry is turned on.
 Nuclear repulsion after empirical dispersion term =      714.0420764657 Hartrees.
 One-electron integrals computed using PRISM.
 NBasis=   273 RedAO= T EigKep=  1.39D-06  NBF=   273
 NBsUse=   273 1.00D-06 EigRej= -1.00D+00 NBFU=   273
 ExpMin= 4.38D-02 ExpMax= 5.48D+03 ExpMxC= 8.25D+02 IAcc=2 IRadAn=         4 AccDes= 0.00D+00
 Harris functional with IExCor=  419 and IRadAn=       4 diagonalized for initial guess.
 HarFok:  IExCor=  419 AccDes= 0.00D+00 IRadAn=         4 IDoV= 1 UseB2=F ITyADJ=14
 ICtDFT=  3500011 ScaDFX=  1.000000  1.000000  1.000000  1.000000
 FoFCou: FMM=F IPFlag=           0 FMFlag=      100000 FMFlg1=           0
         NFxFlg=           0 DoJE=T BraDBF=F KetDBF=T FulRan=T
         wScrn=  0.000000 ICntrl=     500 IOpCl=  0 I1Cent=   200000004 NGrid=           0
         NMat0=    1 NMatS0=      1 NMatT0=    0 NMatD0=    1 NMtDS0=    0 NMtDT0=    0
 Petite list used in FoFCou.
 Keep R1 ints in memory in canonical form, NReq=709970467.
 Requested convergence on RMS density matrix=1.00D-08 within 128 cycles.
 Requested convergence on MAX density matrix=1.00D-06.
 Requested convergence on             energy=1.00D-06.
 No special actions if energy rises.
 SCF Done:  E(RB2PLYP) =  -609.813431014     A.U. after   14 cycles
            NFock= 14  Conv=0.84D-08     -V/T= 2.0067
 DoSCS=T DFT=T ScalE2(SS,OS)=  0.270000  0.270000
 ExpMin= 4.38D-02 ExpMax= 5.48D+03 ExpMxC= 8.25D+02 IAcc=3 IRadAn=         5 AccDes= 0.00D+00
 HarFok:  IExCor=  205 AccDes= 0.00D+00 IRadAn=         5 IDoV=-2 UseB2=F ITyADJ=14
 ICtDFT= 12500011 ScaDFX=  1.000000  1.000000  1.000000  1.000000
 Range of M.O.s used for correlation:    13   273
 NBasis=   273 NAE=    44 NBE=    44 NFC=    12 NFV=     0
 NROrb=    261 NOA=    32 NOB=    32 NVA=   229 NVB=   229

 **** Warning!!: The largest alpha MO coefficient is  0.17844058D+03

 DoSCS=T DFT=T ScalE2(SS,OS)=  0.270000  0.270000
 Fully direct method using O(ONN) memory.
 JobTyp=1 Pass  1:  I=  13 to  16 NPSUse= 18 ParTrn=T ParDer=T DoDerP=T.
 JobTyp=1 Pass  2:  I=  17 to  20 NPSUse= 18 ParTrn=T ParDer=T DoDerP=T.
 JobTyp=1 Pass  3:  I=  21 to  24 NPSUse= 18 ParTrn=T ParDer=T DoDerP=T.
 JobTyp=1 Pass  4:  I=  25 to  28 NPSUse= 18 ParTrn=T ParDer=T DoDerP=T.
 JobTyp=1 Pass  5:  I=  29 to  32 NPSUse= 18 ParTrn=T ParDer=T DoDerP=T.
 JobTyp=1 Pass  6:  I=  33 to  36 NPSUse= 18 ParTrn=T ParDer=T DoDerP=T.
 JobTyp=1 Pass  7:  I=  37 to  40 NPSUse= 18 ParTrn=T ParDer=T DoDerP=T.
 JobTyp=1 Pass  8:  I=  41 to  44 NPSUse= 18 ParTrn=T ParDer=T DoDerP=T.
 Spin components of T(2) and E(2):
     alpha-alpha T2 =       0.1244392291D+00 E2=     -0.8040620255D-01
     alpha-beta  T2 =       0.6426698148D+00 E2=     -0.4309216544D+00
     beta-beta   T2 =       0.1244392291D+00 E2=     -0.8040620255D-01
 E2(B2PLYP) =    -0.5917340595D+00 E(B2PLYP) =    -0.61040516507390D+03
          IDoAtm=111111111111111111111
          Differentiating once with respect to electric field.
                with respect to dipole field.
          Differentiating once with respect to nuclear coordinates.
 Keep R1 ints in memory in canonical form, NReq=709723944.
          There are     1 degrees of freedom in the 1st order CPHF.  IDoFFX=0 NUNeed=     1.
 LinEq1:  Iter=  0 NonCon=     1 RMS=1.97D-03 Max=9.70D-02 NDo=     1
 AX will form     1 AO Fock derivatives at one time.
 LinEq1:  Iter=  1 NonCon=     1 RMS=8.35D-04 Max=2.73D-02 NDo=     1
 LinEq1:  Iter=  2 NonCon=     1 RMS=2.86D-04 Max=7.70D-03 NDo=     1
 LinEq1:  Iter=  3 NonCon=     1 RMS=1.81D-04 Max=7.97D-03 NDo=     1
 LinEq1:  Iter=  4 NonCon=     1 RMS=5.65D-05 Max=2.60D-03 NDo=     1
 LinEq1:  Iter=  5 NonCon=     1 RMS=3.01D-05 Max=1.02D-03 NDo=     1
 LinEq1:  Iter=  6 NonCon=     1 RMS=1.50D-05 Max=6.52D-04 NDo=     1
 LinEq1:  Iter=  7 NonCon=     1 RMS=8.51D-06 Max=5.18D-04 NDo=     1
 LinEq1:  Iter=  8 NonCon=     1 RMS=2.79D-06 Max=3.78D-05 NDo=     1
 LinEq1:  Iter=  9 NonCon=     1 RMS=1.13D-06 Max=3.34D-05 NDo=     1
 LinEq1:  Iter= 10 NonCon=     1 RMS=4.21D-07 Max=9.45D-06 NDo=     1
 LinEq1:  Iter= 11 NonCon=     1 RMS=2.22D-07 Max=6.56D-06 NDo=     1
 LinEq1:  Iter= 12 NonCon=     1 RMS=8.39D-08 Max=1.80D-06 NDo=     1
 LinEq1:  Iter= 13 NonCon=     1 RMS=2.23D-08 Max=5.48D-07 NDo=     1
 LinEq1:  Iter= 14 NonCon=     1 RMS=1.24D-08 Max=5.22D-07 NDo=     1
 LinEq1:  Iter= 15 NonCon=     1 RMS=4.26D-09 Max=1.29D-07 NDo=     1
 LinEq1:  Iter= 16 NonCon=     1 RMS=1.74D-09 Max=5.10D-08 NDo=     1
 LinEq1:  Iter= 17 NonCon=     1 RMS=7.03D-10 Max=2.32D-08 NDo=     1
 LinEq1:  Iter= 18 NonCon=     1 RMS=2.62D-10 Max=5.49D-09 NDo=     1
 LinEq1:  Iter= 19 NonCon=     1 RMS=1.15D-10 Max=3.58D-09 NDo=     1
 LinEq1:  Iter= 20 NonCon=     0 RMS=3.80D-11 Max=7.85D-10 NDo=     1
 Linear equations converged to 1.000D-10 1.000D-09 after    20 iterations.
 End of Minotr F.D. properties file   721 does not exist.
 End of Minotr F.D. properties file   722 does not exist.
 End of Minotr F.D. properties file   788 does not exist.

 **********************************************************************

            Population analysis using the SCF density.

 **********************************************************************

 Orbital symmetries:
       Occupied  (A) (A) (A) (A) (A) (A) (A) (A) (A) (A) (A) (A)
                 (A) (A) (A) (A) (A) (A) (A) (A) (A) (A) (A) (A)
                 (A) (A) (A) (A) (A) (A) (A) (A) (A) (A) (A) (A)
                 (A) (A) (A) (A) (A) (A) (A) (A)
       Virtual   (A) (A) (A) (A) (A) (A) (A) (A) (A) (A) (A) (A)
                 (A) (A) (A) (A) (A) (A) (A) (A) (A) (A) (A) (A)
                 (A) (A) (A) (A) (A) (A) (A) (A) (A) (A) (A) (A)
                 (A) (A) (A) (A) (A) (A) (A) (A) (A) (A) (A) (A)
                 (A) (A) (A) (A) (A) (A) (A) (A) (A) (A) (A) (A)
                 (A) (A) (A) (A) (A) (A) (A) (A) (A) (A) (A) (A)
                 (A) (A) (A) (A) (A) (A) (A) (A) (A) (A) (A) (A)
                 (A) (A) (A) (A) (A) (A) (A) (A) (A) (A) (A) (A)
                 (A) (A) (A) (A) (A) (A) (A) (A) (A) (A) (A) (A)
                 (A) (A) (A) (A) (A) (A) (A) (A) (A) (A) (A) (A)
                 (A) (A) (A) (A) (A) (A) (A) (A) (A) (A) (A) (A)
                 (A) (A) (A) (A) (A) (A) (A) (A) (A) (A) (A) (A)
                 (A) (A) (A) (A) (A) (A) (A) (A) (A) (A) (A) (A)
                 (A) (A) (A) (A) (A) (A) (A) (A) (A) (A) (A) (A)
                 (A) (A) (A) (A) (A) (A) (A) (A) (A) (A) (A) (A)
                 (A) (A) (A) (A) (A) (A) (A) (A) (A) (A) (A) (A)
                 (A) (A) (A) (A) (A) (A) (A) (A) (A) (A) (A) (A)
                 (A) (A) (A) (A) (A) (A) (A) (A) (A) (A) (A) (A)
                 (A) (A) (A) (A) (A) (A) (A) (A) (A) (A) (A) (A)
                 (A)
 The electronic state is 1-A.
 Alpha  occ. eigenvalues --  -19.98359 -19.97574 -19.95757 -19.95429 -10.93107
 Alpha  occ. eigenvalues --  -10.90565 -10.89738 -10.89470 -10.82367 -10.80275
 Alpha  occ. eigenvalues --  -10.78962 -10.77569  -1.43289  -1.40610  -1.39742
 Alpha  occ. eigenvalues --   -1.39235  -1.15839  -1.08208  -1.03980  -1.02223
 Alpha  occ. eigenvalues --   -0.93081  -0.91554  -0.88630  -0.84742  -0.82705
 Alpha  occ. eigenvalues --   -0.80380  -0.76225  -0.73744  -0.71028  -0.69616
 Alpha  occ. eigenvalues --   -0.69359  -0.68794  -0.67330  -0.66245  -0.64993
 Alpha  occ. eigenvalues --   -0.64353  -0.62918  -0.61013  -0.60433  -0.59130
 Alpha  occ. eigenvalues --   -0.58708  -0.53723  -0.45486  -0.44391
 Alpha virt. eigenvalues --   -0.19385  -0.11142  -0.10781  -0.09110  -0.08891
 Alpha virt. eigenvalues --   -0.07546  -0.07333  -0.05281  -0.05036  -0.04309
 Alpha virt. eigenvalues --   -0.03400  -0.02760  -0.01763  -0.00976  -0.00856
 Alpha virt. eigenvalues --    0.00099   0.01401   0.01668   0.02619   0.03112
 Alpha virt. eigenvalues --    0.03878   0.04644   0.05238   0.05893   0.06334
 Alpha virt. eigenvalues --    0.06598   0.07034   0.07719   0.08301   0.08460
 Alpha virt. eigenvalues --    0.08961   0.10388   0.10954   0.11471   0.11849
 Alpha virt. eigenvalues --    0.12857   0.12970   0.14080   0.14353   0.14805
 Alpha virt. eigenvalues --    0.15044   0.16629   0.17103   0.17172   0.17931
 Alpha virt. eigenvalues --    0.18146   0.18655   0.18977   0.20068   0.20591
 Alpha virt. eigenvalues --    0.21403   0.21592   0.22724   0.23252   0.23673
 Alpha virt. eigenvalues --    0.24071   0.24535   0.24764   0.27253   0.27512
 Alpha virt. eigenvalues --    0.28743   0.29643   0.30597   0.31996   0.33362
 Alpha virt. eigenvalues --    0.36362   0.37074   0.37915   0.38764   0.40746
 Alpha virt. eigenvalues --    0.44299   0.52436   0.54850   0.57925   0.59762
 Alpha virt. eigenvalues --    0.62195   0.63779   0.64518   0.65240   0.66119
 Alpha virt. eigenvalues --    0.66902   0.68247   0.68671   0.70175   0.71056
 Alpha virt. eigenvalues --    0.75433   0.77250   0.79542   0.79917   0.82023
 Alpha virt. eigenvalues --    0.86106   0.86784   0.89100   0.93991   0.95503
 Alpha virt. eigenvalues --    0.96920   0.98592   0.99227   1.01907   1.02369
 Alpha virt. eigenvalues --    1.03871   1.04538   1.07390   1.08120   1.11981
 Alpha virt. eigenvalues --    1.12113   1.13252   1.13473   1.14286   1.15262
 Alpha virt. eigenvalues --    1.15868   1.16991   1.17391   1.18826   1.20738
 Alpha virt. eigenvalues --    1.22195   1.22592   1.24397   1.26008   1.26701
 Alpha virt. eigenvalues --    1.29035   1.30008   1.30831   1.31797   1.31866
 Alpha virt. eigenvalues --    1.32717   1.34277   1.37753   1.40892   1.41971
 Alpha virt. eigenvalues --    1.46848   1.47051   1.54304   1.54336   1.55144
 Alpha virt. eigenvalues --    1.56477   1.58704   1.65598   1.65698   1.68650
 Alpha virt. eigenvalues --    1.70476   1.75688   1.76517   1.78538   1.80798
 Alpha virt. eigenvalues --    1.82463   1.84759   1.85235   1.86701   1.88986
 Alpha virt. eigenvalues --    1.89557   1.90884   1.92941   1.95190   1.96666
 Alpha virt. eigenvalues --    1.98175   2.01280   2.01525   2.04573   2.10603
 Alpha virt. eigenvalues --    2.12064   2.14253   2.16268   2.16751   2.22397
 Alpha virt. eigenvalues --    2.23406   2.27348   2.27738   2.30816   2.34079
 Alpha virt. eigenvalues --    2.36082   2.38207   2.38668   2.42847   2.42975
 Alpha virt. eigenvalues --    2.43487   2.45316   2.47113   2.48003   2.49382
 Alpha virt. eigenvalues --    2.50097   2.52056   2.53242   2.58040   2.60651
 Alpha virt. eigenvalues --    2.61263   2.62854   2.63603   2.66578   2.68342
 Alpha virt. eigenvalues --    2.70703   2.70710   2.71934   2.74279   2.76599
 Alpha virt. eigenvalues --    2.80853   2.85165   2.85289   2.91684   2.99986
 Alpha virt. eigenvalues --    3.02359   3.05256   3.10060   3.11856   3.14816
 Alpha virt. eigenvalues --    3.19823   3.22734   3.31325   3.38938   3.44494
 Alpha virt. eigenvalues --    3.45031   3.46741   3.49906   3.53909   3.55649
 Alpha virt. eigenvalues --    3.64612   3.76371   4.25172   4.27000   4.29783
 Alpha virt. eigenvalues --    4.35518   4.41832   4.45848   4.49710   4.55152
 Alpha virt. eigenvalues --    4.66020   4.78484   4.82386   4.92519
          Condensed to atoms (all electrons):
               1          2          3          4          5          6
     1  C   11.761626  -1.767104   1.040485  -3.789055  -0.448853  -3.737575
     2  C   -1.767104   6.891308  -0.620710   2.023260  -1.612089   2.430825
     3  C    1.040485  -0.620710  10.880948  -4.146240   0.098471  -1.698268
     4  C   -3.789055   2.023260  -4.146240  16.055345  -1.932376   2.104917
     5  C   -0.448853  -1.612089   0.098471  -1.932376  13.539090  -3.616066
     6  C   -3.737575   2.430825  -1.698268   2.104917  -3.616066  13.978736
     7  O    0.155658  -0.011588   0.030608   0.013374  -0.209463   0.107655
     8  C    1.895115  -0.829548  -0.407749  -3.171151  -1.983296  -0.601721
     9  C   -0.190548  -0.044027  -0.401011  -0.189987  -0.000679  -0.863265
    10  O    0.007098   0.000877   0.014477  -0.109615   0.147742   0.061833
    11  O    0.054367   0.006296   0.374783  -0.043191  -0.079311  -0.053316
    12  O   -0.158804   0.165694  -0.063589   0.063222  -0.011141   0.057469
    13  H    0.180733   0.136869   0.028064  -0.012214  -0.003680   0.010993
    14  H    0.002191   0.080276   0.170063   0.085211   0.009065  -0.022442
    15  H   -0.105807   0.003750   0.000620   0.001755   0.107627  -0.013748
    16  H    0.003575  -0.000190   0.000824   0.004055  -0.000190   0.011656
    17  H    0.003551  -0.000192   0.000807   0.003990  -0.000172   0.011645
    18  H   -0.000975   0.000254  -0.002239  -0.017880   0.037317   0.010536
    19  H    0.000314  -0.001644  -0.008669   0.025380  -0.144613  -0.048965
    20  H    0.003138  -0.002811  -0.091034  -0.021518   0.069621  -0.004754
    21  H    0.075772  -0.051722  -0.005127  -0.015961   0.024880  -0.033485
               7          8          9         10         11         12
     1  C    0.155658   1.895115  -0.190548   0.007098   0.054367  -0.158804
     2  C   -0.011588  -0.829548  -0.044027   0.000877   0.006296   0.165694
     3  C    0.030608  -0.407749  -0.401011   0.014477   0.374783  -0.063589
     4  C    0.013374  -3.171151  -0.189987  -0.109615  -0.043191   0.063222
     5  C   -0.209463  -1.983296  -0.000679   0.147742  -0.079311  -0.011141
     6  C    0.107655  -0.601721  -0.863265   0.061833  -0.053316   0.057469
     7  O    8.368471  -0.035867  -0.095327   0.000685  -0.000608  -0.000365
     8  C   -0.035867  11.149368  -0.678019   0.429409  -0.290775   0.001621
     9  C   -0.095327  -0.678019   7.785448  -0.462298  -0.017591   0.000173
    10  O    0.000685   0.429409  -0.462298   8.080031   0.047516  -0.000027
    11  O   -0.000608  -0.290775  -0.017591   0.047516   8.393843  -0.000621
    12  O   -0.000365   0.001621   0.000173  -0.000027  -0.000621   8.220161
    13  H   -0.012904   0.007096   0.000884   0.000011   0.000036  -0.007292
    14  H    0.000022   0.020967  -0.000437  -0.000025  -0.015521  -0.010663
    15  H    0.235262  -0.004819   0.011962  -0.000032   0.000013  -0.000044
    16  H   -0.006054  -0.011750   0.351504   0.004369  -0.000084   0.000000
    17  H   -0.006061  -0.011659   0.351523   0.004367  -0.000082   0.000000
    18  H    0.002198  -0.093588   0.438948  -0.010586   0.000096  -0.000000
    19  H    0.000071   0.079360   0.093360   0.218362   0.024379   0.000003
    20  H    0.000015   0.036839   0.004932   0.000720   0.249699  -0.000042
    21  H    0.000020   0.002464  -0.000047  -0.000000  -0.000064   0.238897
              13         14         15         16         17         18
     1  C    0.180733   0.002191  -0.105807   0.003575   0.003551  -0.000975
     2  C    0.136869   0.080276   0.003750  -0.000190  -0.000192   0.000254
     3  C    0.028064   0.170063   0.000620   0.000824   0.000807  -0.002239
     4  C   -0.012214   0.085211   0.001755   0.004055   0.003990  -0.017880
     5  C   -0.003680   0.009065   0.107627  -0.000190  -0.000172   0.037317
     6  C    0.010993  -0.022442  -0.013748   0.011656   0.011645   0.010536
     7  O   -0.012904   0.000022   0.235262  -0.006054  -0.006061   0.002198
     8  C    0.007096   0.020967  -0.004819  -0.011750  -0.011659  -0.093588
     9  C    0.000884  -0.000437   0.011962   0.351504   0.351523   0.438948
    10  O    0.000011  -0.000025  -0.000032   0.004369   0.004367  -0.010586
    11  O    0.000036  -0.015521   0.000013  -0.000084  -0.000082   0.000096
    12  O   -0.007292  -0.010663  -0.000044   0.000000   0.000000  -0.000000
    13  H    0.483698  -0.000100   0.005895  -0.000000  -0.000000  -0.000000
    14  H   -0.000100   0.511071  -0.000000   0.000000   0.000000  -0.000000
    15  H    0.005895  -0.000000   0.336295   0.000162   0.000162  -0.000013
    16  H   -0.000000   0.000000   0.000162   0.469510  -0.018441  -0.019658
    17  H   -0.000000   0.000000   0.000162  -0.018441   0.469522  -0.019659
    18  H   -0.000000  -0.000000  -0.000013  -0.019658  -0.019659   0.468298
    19  H   -0.000000  -0.000006  -0.000000  -0.000231  -0.000231   0.000227
    20  H   -0.000000   0.006876  -0.000000  -0.000000  -0.000000  -0.000000
    21  H   -0.000040   0.004565   0.000000   0.000000   0.000000  -0.000000
              19         20         21
     1  C    0.000314   0.003138   0.075772
     2  C   -0.001644  -0.002811  -0.051722
     3  C   -0.008669  -0.091034  -0.005127
     4  C    0.025380  -0.021518  -0.015961
     5  C   -0.144613   0.069621   0.024880
     6  C   -0.048965  -0.004754  -0.033485
     7  O    0.000071   0.000015   0.000020
     8  C    0.079360   0.036839   0.002464
     9  C    0.093360   0.004932  -0.000047
    10  O    0.218362   0.000720  -0.000000
    11  O    0.024379   0.249699  -0.000064
    12  O    0.000003  -0.000042   0.238897
    13  H   -0.000000  -0.000000  -0.000040
    14  H   -0.000006   0.006876   0.004565
    15  H   -0.000000  -0.000000   0.000000
    16  H   -0.000231  -0.000000   0.000000
    17  H   -0.000231  -0.000000   0.000000
    18  H    0.000227  -0.000000  -0.000000
    19  H    0.276737   0.001399  -0.000000
    20  H    0.001399   0.307985   0.000010
    21  H   -0.000000   0.000010   0.366844
 Mulliken charges:
               1
     1  C    1.015098
     2  C   -0.797783
     3  C    0.804486
     4  C   -0.931321
     5  C    2.008118
     6  C   -2.092659
     7  O   -0.535803
     8  C    0.497703
     9  C   -0.095498
    10  O   -0.434913
    11  O   -0.649864
    12  O   -0.494652
    13  H    0.181954
    14  H    0.158888
    15  H    0.420960
    16  H    0.210944
    17  H    0.210932
    18  H    0.206724
    19  H    0.484766
    20  H    0.438926
    21  H    0.392994
 Sum of Mulliken charges =   1.00000
 Mulliken charges with hydrogens summed into heavy atoms:
               1
     1  C    1.197051
     2  C   -0.797783
     3  C    0.963374
     4  C   -0.931321
     5  C    2.008118
     6  C   -2.092659
     7  O   -0.114843
     8  C    0.497703
     9  C    0.533102
    10  O    0.049853
    11  O   -0.210938
    12  O   -0.101658
 Electronic spatial extent (au):  <R**2>=           2067.8546
 Charge=              1.0000 electrons
 Dipole moment (field-independent basis, Debye):
    X=              1.5422    Y=              1.7006    Z=              0.0018  Tot=              2.2957
 Quadrupole moment (field-independent basis, Debye-Ang):
   XX=            -43.9551   YY=            -37.1154   ZZ=            -69.9793
   XY=              9.2424   XZ=             -0.0008   YZ=              0.0085
 Traceless Quadrupole moment (field-independent basis, Debye-Ang):
   XX=              6.3948   YY=             13.2345   ZZ=            -19.6293
   XY=              9.2424   XZ=             -0.0008   YZ=              0.0085
 Octapole moment (field-independent basis, Debye-Ang**2):
  XXX=             27.3652  YYY=             14.2525  ZZZ=              0.0011  XYY=             16.3184
  XXY=             19.7872  XXZ=              0.0032  XZZ=             -5.4265  YZZ=              0.0861
  YYZ=              0.0167  XYZ=              0.0040
 Hexadecapole moment (field-independent basis, Debye-Ang**3):
 XXXX=          -1326.4343 YYYY=           -478.7843 ZZZZ=            -75.6587 XXXY=            158.6521
 XXXZ=              0.0601 YYYX=            -14.6240 YYYZ=              0.0649 ZZZX=              0.0597
 ZZZY=             -0.0383 XXYY=           -353.2347 XXZZ=           -291.8522 YYZZ=           -154.3425
 XXYZ=             -0.0133 YYXZ=              0.0126 ZZXY=              1.4011
 N-N= 7.140420764657D+02 E-N=-2.839225945230D+03  KE= 6.057847459776D+02
 Calling FoFJK, ICntrl=  10002127 FMM=F ISym2X=0 I1Cent= 0 IOpClX= 0 NMat=1 NMatS=1 NMatT=0.
 ***** Axes restored to original set *****
 -------------------------------------------------------------------
 Center     Atomic                   Forces (Hartrees/Bohr)
 Number     Number              X              Y              Z
 -------------------------------------------------------------------
      1        6           0.002078525   -0.002219222   -0.000000333
      2        6          -0.005192320    0.000790773    0.000000285
      3        6           0.002141770    0.002014986    0.000000185
      4        6           0.001651522   -0.004462167    0.000000154
      5        6           0.000305718   -0.000192912   -0.000002379
      6        6           0.001968190    0.004685493    0.000000708
      7        8          -0.004412423   -0.004244176   -0.000000317
      8        6           0.003369179   -0.002874830    0.000000688
      9        6          -0.002490620   -0.004469963   -0.000001195
     10        8          -0.002311946    0.004692751    0.000000451
     11        8          -0.003179442    0.004463409    0.000003075
     12        8           0.005211654   -0.001480488   -0.000000173
     13        1          -0.000913492    0.001395656    0.000000261
     14        1          -0.000904224   -0.001397252    0.000000850
     15        1           0.000502628   -0.000839605   -0.000000151
     16        1          -0.000019216    0.001437455    0.001435801
     17        1          -0.000020127    0.001438799   -0.001435115
     18        1           0.001852285   -0.000267114   -0.000000603
     19        1          -0.000869686   -0.000101100    0.000000874
     20        1           0.000679652    0.000746441   -0.000003018
     21        1           0.000552372    0.000883066   -0.000000049
 -------------------------------------------------------------------
 Cartesian Forces:  Max     0.005211654 RMS     0.002127855

 GradGradGradGradGradGradGradGradGradGradGradGradGradGradGradGradGradGrad
 Berny optimization.
 FormGI is forming the generalized inverse of G from B-inverse, IUseBI=4.
 Internal  Forces:  Max     0.006389545 RMS     0.001437973
 Search for a local minimum.
 Step number   1 out of a maximum of  104
 All quantities printed in internal units (Hartrees-Bohrs-Radians)
 Mixed Optimization -- RFO/linear search
 Second derivative matrix not updated -- first step.
 ITU=  0
     Eigenvalues ---    0.00961   0.01559   0.01587   0.01729   0.01771
     Eigenvalues ---    0.01976   0.02050   0.02099   0.02131   0.02187
     Eigenvalues ---    0.02226   0.02252   0.02262   0.02515   0.02620
     Eigenvalues ---    0.02990   0.07508   0.07559   0.16000   0.16000
     Eigenvalues ---    0.16000   0.16000   0.16000   0.16000   0.16000
     Eigenvalues ---    0.16000   0.16000   0.23480   0.23491   0.25000
     Eigenvalues ---    0.25000   0.25000   0.25000   0.25000   0.25000
     Eigenvalues ---    0.25000   0.33975   0.34387   0.34387   0.34835
     Eigenvalues ---    0.35198   0.35353   0.37760   0.38659   0.41857
     Eigenvalues ---    0.43250   0.44546   0.47045   0.49408   0.50550
     Eigenvalues ---    0.53581   0.53866   0.53964   0.53969   0.57701
     Eigenvalues ---    0.59553   0.66685
 RFO step:  Lambda=-4.20987399D-04 EMin= 9.60997620D-03
 Linear search not attempted -- first point.
 Iteration  1 RMS(Cart)=  0.01592869 RMS(Int)=  0.00006961
 Iteration  2 RMS(Cart)=  0.00012118 RMS(Int)=  0.00000091
 Iteration  3 RMS(Cart)=  0.00000001 RMS(Int)=  0.00000091
 Variable       Old X    -DE/DX   Delta X   Delta X   Delta X     New X
                                 (Linear)    (Quad)   (Total)
    R1        2.64145   0.00087   0.00000   0.00192   0.00192   2.64338
    R2        2.61245   0.00137   0.00000   0.00278   0.00278   2.61523
    R3        2.05105  -0.00166   0.00000  -0.00470  -0.00470   2.04635
    R4        2.65968   0.00080   0.00000   0.00185   0.00185   2.66153
    R5        2.51296   0.00579   0.00000   0.00972   0.00972   2.52268
    R6        2.59973   0.00161   0.00000   0.00324   0.00324   2.60297
    R7        2.05355  -0.00166   0.00000  -0.00472  -0.00472   2.04882
    R8        2.72020   0.00097   0.00000   0.00242   0.00242   2.72262
    R9        2.56415   0.00577   0.00000   0.01075   0.01075   2.57490
   R10        2.72577  -0.00001   0.00000  -0.00008  -0.00008   2.72569
   R11        2.69106   0.00048   0.00000   0.00116   0.00116   2.69221
   R12        2.52808   0.00639   0.00000   0.01107   0.01107   2.53914
   R13        1.82854   0.00097   0.00000   0.00181   0.00181   1.83035
   R14        2.80672   0.00187   0.00000   0.00551   0.00551   2.81224
   R15        2.46012   0.00556   0.00000   0.00834   0.00834   2.46845
   R16        2.06682  -0.00198   0.00000  -0.00576  -0.00576   2.06105
   R17        2.06681  -0.00198   0.00000  -0.00577  -0.00577   2.06105
   R18        2.05943  -0.00183   0.00000  -0.00525  -0.00525   2.05418
   R19        1.86014  -0.00062   0.00000  -0.00122  -0.00122   1.85892
   R20        1.82765   0.00101   0.00000   0.00186   0.00186   1.82951
   R21        1.82760   0.00104   0.00000   0.00192   0.00192   1.82952
    A1        2.09554  -0.00024   0.00000  -0.00106  -0.00106   2.09448
    A2        2.07222   0.00023   0.00000   0.00121   0.00121   2.07343
    A3        2.11542   0.00001   0.00000  -0.00016  -0.00015   2.11527
    A4        2.10894   0.00011   0.00000   0.00061   0.00061   2.10955
    A5        2.03266  -0.00021   0.00000  -0.00093  -0.00093   2.03174
    A6        2.14158   0.00010   0.00000   0.00031   0.00031   2.14190
    A7        2.07587   0.00002   0.00000   0.00031   0.00031   2.07618
    A8        2.10494   0.00002   0.00000   0.00002   0.00002   2.10497
    A9        2.10237  -0.00004   0.00000  -0.00033  -0.00033   2.10204
   A10        2.14742  -0.00040   0.00000  -0.00160  -0.00160   2.14583
   A11        2.10697  -0.00034   0.00000  -0.00138  -0.00138   2.10560
   A12        2.02879   0.00075   0.00000   0.00297   0.00297   2.03176
   A13        2.01379   0.00034   0.00000   0.00119   0.00119   2.01498
   A14        2.13188   0.00217   0.00000   0.00875   0.00875   2.14063
   A15        2.13752  -0.00251   0.00000  -0.00994  -0.00994   2.12758
   A16        2.12481   0.00017   0.00000   0.00054   0.00054   2.12535
   A17        2.11033   0.00071   0.00000   0.00290   0.00290   2.11323
   A18        2.04804  -0.00088   0.00000  -0.00344  -0.00344   2.04460
   A19        1.93851   0.00017   0.00000   0.00107   0.00107   1.93958
   A20        2.20431  -0.00204   0.00000  -0.00813  -0.00813   2.19618
   A21        2.12776   0.00221   0.00000   0.00884   0.00884   2.13659
   A22        1.95112  -0.00018   0.00000  -0.00071  -0.00071   1.95041
   A23        1.93288  -0.00045   0.00000  -0.00280  -0.00280   1.93008
   A24        1.93291  -0.00045   0.00000  -0.00280  -0.00281   1.93011
   A25        1.89583  -0.00037   0.00000  -0.00233  -0.00233   1.89349
   A26        1.85578   0.00048   0.00000   0.00308   0.00308   1.85886
   A27        1.92327   0.00041   0.00000   0.00250   0.00250   1.92577
   A28        1.92329   0.00041   0.00000   0.00250   0.00249   1.92579
   A29        1.95640   0.00115   0.00000   0.00718   0.00718   1.96357
   A30        1.97601  -0.00015   0.00000  -0.00096  -0.00096   1.97505
   A31        1.96718   0.00014   0.00000   0.00085   0.00085   1.96803
    D1       -0.00004   0.00000   0.00000   0.00000   0.00000  -0.00004
    D2       -3.14159   0.00000   0.00000   0.00000   0.00000  -3.14158
    D3        3.14153   0.00000   0.00000   0.00000   0.00000   3.14153
    D4       -0.00002   0.00000   0.00000   0.00001   0.00001  -0.00001
    D5       -0.00005  -0.00000   0.00000  -0.00000  -0.00000  -0.00005
    D6        3.14155   0.00000   0.00000   0.00001   0.00001   3.14156
    D7        3.14157  -0.00000   0.00000  -0.00000  -0.00000   3.14157
    D8       -0.00001   0.00000   0.00000   0.00001   0.00001  -0.00001
    D9        0.00005   0.00000   0.00000   0.00000   0.00000   0.00005
   D10       -3.14144  -0.00000   0.00000  -0.00001  -0.00001  -3.14145
   D11       -3.14159  -0.00000   0.00000  -0.00000  -0.00000  -3.14159
   D12        0.00011  -0.00000   0.00000  -0.00001  -0.00001   0.00010
   D13       -3.14159  -0.00000   0.00000  -0.00001  -0.00001   3.14159
   D14        0.00005  -0.00000   0.00000  -0.00000  -0.00000   0.00005
   D15        0.00002  -0.00000   0.00000  -0.00001  -0.00001   0.00001
   D16       -3.14150   0.00000   0.00000   0.00002   0.00002  -3.14147
   D17        3.14151   0.00000   0.00000   0.00001   0.00001   3.14151
   D18       -0.00001   0.00000   0.00000   0.00003   0.00003   0.00003
   D19       -0.00010   0.00000   0.00000   0.00000   0.00000  -0.00009
   D20        3.14138  -0.00000   0.00000   0.00000   0.00000   3.14139
   D21        3.14142  -0.00000   0.00000  -0.00002  -0.00002   3.14140
   D22       -0.00028  -0.00000   0.00000  -0.00002  -0.00002  -0.00031
   D23       -0.00105   0.00000   0.00000   0.00013   0.00013  -0.00092
   D24        3.14061   0.00000   0.00000   0.00016   0.00016   3.14077
   D25        0.00011  -0.00000   0.00000  -0.00000  -0.00000   0.00011
   D26       -3.14149  -0.00000   0.00000  -0.00001  -0.00001  -3.14150
   D27       -3.14137  -0.00000   0.00000  -0.00000  -0.00000  -3.14137
   D28        0.00022  -0.00000   0.00000  -0.00001  -0.00001   0.00021
   D29       -3.14148  -0.00000   0.00000  -0.00005  -0.00005  -3.14153
   D30        0.00008  -0.00000   0.00000  -0.00003  -0.00003   0.00005
   D31       -0.00001  -0.00000   0.00000  -0.00005  -0.00005  -0.00005
   D32        3.14156  -0.00000   0.00000  -0.00003  -0.00003   3.14153
   D33        0.00002  -0.00000   0.00000  -0.00001  -0.00001   0.00001
   D34       -3.14157   0.00000   0.00000   0.00000   0.00000  -3.14157
   D35       -1.02739  -0.00001   0.00000  -0.00013  -0.00013  -1.02752
   D36        1.02701   0.00001   0.00000   0.00018   0.00018   1.02720
   D37        3.14143   0.00000   0.00000   0.00002   0.00002   3.14145
   D38        2.11423  -0.00001   0.00000  -0.00015  -0.00015   2.11409
   D39       -2.11455   0.00001   0.00000   0.00017   0.00017  -2.11439
   D40       -0.00013  -0.00000   0.00000   0.00001   0.00001  -0.00013
   D41        0.00000  -0.00000   0.00000  -0.00003  -0.00003  -0.00002
   D42        3.14157  -0.00000   0.00000  -0.00001  -0.00001   3.14156
         Item               Value     Threshold  Converged?
 Maximum Force            0.006390     0.000450     NO 
 RMS     Force            0.001438     0.000300     NO 
 Maximum Displacement     0.070217     0.001800     NO 
 RMS     Displacement     0.015980     0.001200     NO 
 Predicted change in Energy=-2.107197D-04
 GradGradGradGradGradGradGradGradGradGradGradGradGradGradGradGradGradGrad

                          Input orientation:                          
 ---------------------------------------------------------------------
 Center     Atomic      Atomic             Coordinates (Angstroms)
 Number     Number       Type             X           Y           Z
 ---------------------------------------------------------------------
      1          6           0        1.542760   -1.264321   -0.000231
      2          6           0        2.282705   -0.077239   -0.000086
      3          6           0        1.639024    1.175490    0.000014
      4          6           0        0.262242    1.217821    0.000033
      5          6           0       -0.558112    0.033435   -0.000028
      6          6           0        0.159627   -1.217678   -0.000232
      7          8           0       -0.572393   -2.344425   -0.000406
      8          6           0       -1.981850    0.084624    0.000238
      9          6           0       -2.895828   -1.089811    0.000274
     10          8           0       -2.642044    1.211759    0.000498
     11          8           0       -0.395867    2.410932   -0.000011
     12          8           0        3.611444   -0.205803   -0.000108
     13          1           0        2.072118   -2.208997   -0.000364
     14          1           0        2.216751    2.092933   -0.000011
     15          1           0       -0.005001   -3.129414   -0.000513
     16          1           0       -2.714964   -1.716511   -0.873844
     17          1           0       -2.714448   -1.716896    0.874004
     18          1           0       -3.921124   -0.728708    0.000644
     19          1           0       -2.048164    1.995958    0.000507
     20          1           0        0.199608    3.174277    0.000763
     21          1           0        4.070228    0.646733   -0.000006
 ---------------------------------------------------------------------
                    Distance matrix (angstroms):
                    1          2          3          4          5
     1  C    0.000000
     2  C    1.398815   0.000000
     3  C    2.441710   1.408423   0.000000
     4  C    2.792984   2.399886   1.377433   0.000000
     5  C    2.469379   2.842972   2.476227   1.440747   0.000000
     6  C    1.383919   2.409991   2.813515   2.437660   1.442370
     7  O    2.374973   3.645781   4.156942   3.658717   2.377902
     8  C    3.773928   4.267626   3.781629   2.513978   1.424658
     9  C    4.442017   5.276599   5.069169   3.911339   2.593568
    10  O    4.862464   5.090645   4.281221   2.904292   2.393997
    11  O    4.155209   3.655918   2.380566   1.362579   2.383027
    12  O    2.323772   1.334944   2.407989   3.639211   4.176414
    13  H    1.082881   2.142134   3.412085   3.875401   3.456386
    14  H    3.424240   2.171174   1.084191   2.141478   3.455633
    15  H    2.423661   3.814363   4.608146   4.355441   3.210848
    16  H    4.369884   5.331731   5.299482   4.270564   2.911678
    17  H    4.369545   5.331420   5.299290   4.270488   2.911593
    18  H    5.490074   6.237941   5.877178   4.614058   3.448291
    19  H    4.850171   4.801518   3.777370   2.437924   2.464093
    20  H    4.637371   3.861560   2.463141   1.957458   3.230949
    21  H    3.168631   1.928568   2.488039   3.850571   4.668797
                    6          7          8          9         10
     6  C    0.000000
     7  O    1.343657   0.000000
     8  C    2.506375   2.808354   0.000000
     9  C    3.058129   2.640531   1.488171   0.000000
    10  O    3.708305   4.114596   1.306250   2.315520   0.000000
    11  O    3.670883   4.758633   2.815502   4.301745   2.546238
    12  O    3.597072   4.698744   5.600829   6.567043   6.412144
    13  H    2.154143   2.647976   4.657827   5.092451   5.824508
    14  H    3.897679   5.241133   4.654198   6.022319   4.938052
    15  H    1.918811   0.968577   3.773324   3.537917   5.079349
    16  H    3.045539   2.397452   2.132032   1.090663   3.056887
    17  H    3.045294   2.397245   2.132051   1.090659   3.057005
    18  H    4.109942   3.718136   2.102925   1.087027   2.324104
    19  H    3.898949   4.584411   1.912484   3.200079   0.983697
    20  H    4.392137   5.572437   3.782157   5.269172   3.453471
    21  H    4.332300   5.522767   6.078126   7.179242   6.736011
                   11         12         13         14         15
    11  O    0.000000
    12  O    4.786005   0.000000
    13  H    5.237813   2.526324   0.000000
    14  H    2.631899   2.688746   4.304360   0.000000
    15  H    5.554117   4.650395   2.271913   5.675305   0.000000
    16  H    4.814310   6.562704   4.890977   6.292635   3.178506
    17  H    4.814425   6.562345   4.890592   6.292489   3.178221
    18  H    4.720676   7.550696   6.173346   6.755381   4.593409
    19  H    1.703611   6.072801   5.887136   4.266018   5.517604
    20  H    0.968135   4.802662   5.699642   2.288705   6.307010
    21  H    4.801916   0.968143   3.485346   2.350929   5.555787
                   16         17         18         19         20
    16  H    0.000000
    17  H    1.747848   0.000000
    18  H    1.787541   1.787551   0.000000
    19  H    3.871890   3.871978   3.306325   0.000000
    20  H    5.760162   5.760021   5.675714   2.537896   0.000000
    21  H    7.237910   7.237573   8.108856   6.265391   4.622788
                   21
    21  H    0.000000
 Stoichiometry    C8H9O4(1+)
 Framework group  C1[X(C8H9O4)]
 Deg. of freedom    57
 Full point group                 C1      NOp   1
 Largest Abelian subgroup         C1      NOp   1
 Largest concise Abelian subgroup C1      NOp   1
                         Standard orientation:                         
 ---------------------------------------------------------------------
 Center     Atomic      Atomic             Coordinates (Angstroms)
 Number     Number       Type             X           Y           Z
 ---------------------------------------------------------------------
      1          6           0        1.541795   -1.269139   -0.000241
      2          6           0        2.284036   -0.083491   -0.000096
      3          6           0        1.642780    1.170482    0.000005
      4          6           0        0.266083    1.215477    0.000024
      5          6           0       -0.556562    0.032680   -0.000038
      6          6           0        0.158756   -1.219819   -0.000242
      7          8           0       -0.575444   -2.345147   -0.000416
      8          6           0       -1.980198    0.086625    0.000228
      9          6           0       -2.896446   -1.086040    0.000265
     10          8           0       -2.638209    1.215035    0.000488
     11          8           0       -0.389715    2.409859   -0.000020
     12          8           0        3.612524   -0.214625   -0.000117
     13          1           0        2.069324   -2.214837   -0.000374
     14          1           0        2.222282    2.086805   -0.000021
     15          1           0       -0.009571   -3.131233   -0.000523
     16          1           0       -2.716796   -1.713088   -0.873853
     17          1           0       -2.716280   -1.713475    0.873994
     18          1           0       -3.921042   -0.722954    0.000634
     19          1           0       -2.042813    1.998083    0.000497
     20          1           0        0.207235    3.172050    0.000753
     21          1           0        4.072957    0.637021   -0.000016
 ---------------------------------------------------------------------
 Rotational constants (GHZ):      1.5209809      0.7583644      0.5076128
 Standard basis: 6-31+G(d,p) (6D, 7F)
 There are   273 symmetry adapted cartesian basis functions of A   symmetry.
 There are   273 symmetry adapted basis functions of A   symmetry.
   273 basis functions,   447 primitive gaussians,   273 cartesian basis functions
    44 alpha electrons       44 beta electrons
       nuclear repulsion energy       712.9422633473 Hartrees.
 NAtoms=   21 NActive=   21 NUniq=   21 SFac= 1.00D+00 NAtFMM=   60 NAOKFM=F Big=F
 Integral buffers will be    131072 words long.
 Regular integral format.
 Two-electron integral symmetry is turned on.
 Nuclear repulsion after empirical dispersion term =      712.9188811944 Hartrees.
 One-electron integrals computed using PRISM.
 NBasis=   273 RedAO= T EigKep=  1.38D-06  NBF=   273
 NBsUse=   273 1.00D-06 EigRej= -1.00D+00 NBFU=   273
 Initial guess from the checkpoint file:  "B2PLYPTHAPD3BJyang.chk"
 B after Tr=     0.000000    0.000000    0.000000
         Rot=    0.999999   -0.000001   -0.000002    0.001356 Ang=  -0.16 deg.
 ExpMin= 4.38D-02 ExpMax= 5.48D+03 ExpMxC= 8.25D+02 IAcc=2 IRadAn=         4 AccDes= 0.00D+00
 Harris functional with IExCor=  419 and IRadAn=       4 diagonalized for initial guess.
 HarFok:  IExCor=  419 AccDes= 0.00D+00 IRadAn=         4 IDoV= 1 UseB2=F ITyADJ=14
 ICtDFT=  3500011 ScaDFX=  1.000000  1.000000  1.000000  1.000000
 FoFCou: FMM=F IPFlag=           0 FMFlag=      100000 FMFlg1=           0
         NFxFlg=           0 DoJE=T BraDBF=F KetDBF=T FulRan=T
         wScrn=  0.000000 ICntrl=     500 IOpCl=  0 I1Cent=   200000004 NGrid=           0
         NMat0=    1 NMatS0=      1 NMatT0=    0 NMatD0=    1 NMtDS0=    0 NMtDT0=    0
 Petite list used in FoFCou.
 Keep R1 ints in memory in canonical form, NReq=709970467.
 Requested convergence on RMS density matrix=1.00D-08 within 128 cycles.
 Requested convergence on MAX density matrix=1.00D-06.
 Requested convergence on             energy=1.00D-06.
 No special actions if energy rises.
 SCF Done:  E(RB2PLYP) =  -609.812947728     A.U. after   11 cycles
            NFock= 11  Conv=0.82D-08     -V/T= 2.0068
 DoSCS=T DFT=T ScalE2(SS,OS)=  0.270000  0.270000
 ExpMin= 4.38D-02 ExpMax= 5.48D+03 ExpMxC= 8.25D+02 IAcc=3 IRadAn=         5 AccDes= 0.00D+00
 HarFok:  IExCor=  205 AccDes= 0.00D+00 IRadAn=         5 IDoV=-2 UseB2=F ITyADJ=14
 ICtDFT= 12500011 ScaDFX=  1.000000  1.000000  1.000000  1.000000
 Range of M.O.s used for correlation:    13   273
 NBasis=   273 NAE=    44 NBE=    44 NFC=    12 NFV=     0
 NROrb=    261 NOA=    32 NOB=    32 NVA=   229 NVB=   229

 **** Warning!!: The largest alpha MO coefficient is  0.17144894D+03

 DoSCS=T DFT=T ScalE2(SS,OS)=  0.270000  0.270000
 Fully direct method using O(ONN) memory.
 JobTyp=1 Pass  1:  I=  13 to  16 NPSUse= 18 ParTrn=T ParDer=T DoDerP=T.
 JobTyp=1 Pass  2:  I=  17 to  20 NPSUse= 18 ParTrn=T ParDer=T DoDerP=T.
 JobTyp=1 Pass  3:  I=  21 to  24 NPSUse= 18 ParTrn=T ParDer=T DoDerP=T.
 JobTyp=1 Pass  4:  I=  25 to  28 NPSUse= 18 ParTrn=T ParDer=T DoDerP=T.
 JobTyp=1 Pass  5:  I=  29 to  32 NPSUse= 18 ParTrn=T ParDer=T DoDerP=T.
 JobTyp=1 Pass  6:  I=  33 to  36 NPSUse= 18 ParTrn=T ParDer=T DoDerP=T.
 JobTyp=1 Pass  7:  I=  37 to  40 NPSUse= 18 ParTrn=T ParDer=T DoDerP=T.
 JobTyp=1 Pass  8:  I=  41 to  44 NPSUse= 18 ParTrn=T ParDer=T DoDerP=T.
 Spin components of T(2) and E(2):
     alpha-alpha T2 =       0.1248115585D+00 E2=     -0.8045737298D-01
     alpha-beta  T2 =       0.6447753618D+00 E2=     -0.4313882493D+00
     beta-beta   T2 =       0.1248115585D+00 E2=     -0.8045737298D-01
 E2(B2PLYP) =    -0.5923029952D+00 E(B2PLYP) =    -0.61040525072297D+03
          IDoAtm=111111111111111111111
          Differentiating once with respect to electric field.
                with respect to dipole field.
          Differentiating once with respect to nuclear coordinates.
 Keep R1 ints in memory in canonical form, NReq=709723944.
          There are     1 degrees of freedom in the 1st order CPHF.  IDoFFX=0 NUNeed=     1.
 LinEq1:  Iter=  0 NonCon=     1 RMS=1.98D-03 Max=9.86D-02 NDo=     1
 AX will form     1 AO Fock derivatives at one time.
 LinEq1:  Iter=  1 NonCon=     1 RMS=8.42D-04 Max=2.73D-02 NDo=     1
 LinEq1:  Iter=  2 NonCon=     1 RMS=2.88D-04 Max=7.68D-03 NDo=     1
 LinEq1:  Iter=  3 NonCon=     1 RMS=1.83D-04 Max=8.05D-03 NDo=     1
 LinEq1:  Iter=  4 NonCon=     1 RMS=5.70D-05 Max=2.62D-03 NDo=     1
 LinEq1:  Iter=  5 NonCon=     1 RMS=3.02D-05 Max=1.00D-03 NDo=     1
 LinEq1:  Iter=  6 NonCon=     1 RMS=1.52D-05 Max=6.73D-04 NDo=     1
 LinEq1:  Iter=  7 NonCon=     1 RMS=8.67D-06 Max=5.27D-04 NDo=     1
 LinEq1:  Iter=  8 NonCon=     1 RMS=2.84D-06 Max=3.82D-05 NDo=     1
 LinEq1:  Iter=  9 NonCon=     1 RMS=1.15D-06 Max=3.39D-05 NDo=     1
 LinEq1:  Iter= 10 NonCon=     1 RMS=4.23D-07 Max=9.53D-06 NDo=     1
 LinEq1:  Iter= 11 NonCon=     1 RMS=2.25D-07 Max=6.76D-06 NDo=     1
 LinEq1:  Iter= 12 NonCon=     1 RMS=8.60D-08 Max=1.96D-06 NDo=     1
 LinEq1:  Iter= 13 NonCon=     1 RMS=2.28D-08 Max=6.11D-07 NDo=     1
 LinEq1:  Iter= 14 NonCon=     1 RMS=1.22D-08 Max=5.16D-07 NDo=     1
 LinEq1:  Iter= 15 NonCon=     1 RMS=4.41D-09 Max=1.34D-07 NDo=     1
 LinEq1:  Iter= 16 NonCon=     1 RMS=1.77D-09 Max=4.68D-08 NDo=     1
 LinEq1:  Iter= 17 NonCon=     1 RMS=7.23D-10 Max=2.27D-08 NDo=     1
 LinEq1:  Iter= 18 NonCon=     1 RMS=2.62D-10 Max=5.46D-09 NDo=     1
 LinEq1:  Iter= 19 NonCon=     1 RMS=1.13D-10 Max=3.10D-09 NDo=     1
 LinEq1:  Iter= 20 NonCon=     0 RMS=3.50D-11 Max=6.87D-10 NDo=     1
 Linear equations converged to 1.000D-10 1.000D-09 after    20 iterations.
 End of Minotr F.D. properties file   721 does not exist.
 End of Minotr F.D. properties file   722 does not exist.
 End of Minotr F.D. properties file   788 does not exist.
 Calling FoFJK, ICntrl=  10002127 FMM=F ISym2X=0 I1Cent= 0 IOpClX= 0 NMat=1 NMatS=1 NMatT=0.
 ***** Axes restored to original set *****
 -------------------------------------------------------------------
 Center     Atomic                   Forces (Hartrees/Bohr)
 Number     Number              X              Y              Z
 -------------------------------------------------------------------
      1        6           0.000106166   -0.000633173   -0.000000389
      2        6          -0.001908335    0.000732456   -0.000000045
      3        6           0.000345859   -0.000188407    0.000000613
      4        6           0.000417833   -0.000388578   -0.000002377
      5        6          -0.000837321    0.000872072   -0.000001128
      6        6           0.001348390    0.001314605    0.000001446
      7        8           0.000377822   -0.001527944   -0.000000579
      8        6           0.002071957   -0.000915306   -0.000000569
      9        6          -0.001518575   -0.000154341   -0.000000671
     10        8           0.001020469    0.002337934    0.000001563
     11        8          -0.002726108   -0.000602261    0.000005059
     12        8           0.000998533   -0.000630283    0.000000014
     13        1          -0.000021097   -0.000033268    0.000000030
     14        1          -0.000040427   -0.000001209    0.000000574
     15        1           0.000453837    0.000125138   -0.000000064
     16        1          -0.000115550    0.000335041    0.000054610
     17        1          -0.000116321    0.000335657   -0.000053947
     18        1          -0.000043138    0.000283015   -0.000000061
     19        1           0.000079912   -0.001069614   -0.000001288
     20        1           0.000346519   -0.000381533   -0.000002782
     21        1          -0.000240425    0.000190000   -0.000000008
 -------------------------------------------------------------------
 Cartesian Forces:  Max     0.002726108 RMS     0.000774470

 GradGradGradGradGradGradGradGradGradGradGradGradGradGradGradGradGradGrad
 Berny optimization.
 Using GEDIIS/GDIIS optimizer.
 FormGI is forming the generalized inverse of G from B-inverse, IUseBI=4.
 Internal  Forces:  Max     0.007294819 RMS     0.001510056
 Search for a local minimum.
 Step number   2 out of a maximum of  104
 All quantities printed in internal units (Hartrees-Bohrs-Radians)
 Mixed Optimization -- RFO/linear search
 Update second derivatives using D2CorX and points    1    2
 DE= -8.56D-05 DEPred=-2.11D-04 R= 4.06D-01
 Trust test= 4.06D-01 RLast= 3.27D-02 DXMaxT set to 3.00D-01
 ITU=  0  0
 Use linear search instead of GDIIS.
     Eigenvalues ---    0.00961   0.01565   0.01588   0.01729   0.01771
     Eigenvalues ---    0.01976   0.02051   0.02099   0.02131   0.02186
     Eigenvalues ---    0.02226   0.02252   0.02262   0.02515   0.02620
     Eigenvalues ---    0.02990   0.07529   0.07588   0.15016   0.16000
     Eigenvalues ---    0.16000   0.16000   0.16000   0.16000   0.16000
     Eigenvalues ---    0.16000   0.16145   0.22845   0.23496   0.24003
     Eigenvalues ---    0.25000   0.25000   0.25000   0.25000   0.25000
     Eigenvalues ---    0.26403   0.34077   0.34387   0.34679   0.35060
     Eigenvalues ---    0.35294   0.37746   0.37862   0.40592   0.41810
     Eigenvalues ---    0.43494   0.44753   0.47039   0.49674   0.50502
     Eigenvalues ---    0.53854   0.53940   0.53965   0.55342   0.58821
     Eigenvalues ---    0.65065   0.84951
 RFO step:  Lambda=-2.76038885D-04 EMin= 9.60997474D-03
 Quartic linear search produced a step of -0.37254.
 Iteration  1 RMS(Cart)=  0.01790506 RMS(Int)=  0.00007624
 Iteration  2 RMS(Cart)=  0.00013789 RMS(Int)=  0.00000078
 Iteration  3 RMS(Cart)=  0.00000001 RMS(Int)=  0.00000078
 Variable       Old X    -DE/DX   Delta X   Delta X   Delta X     New X
                                 (Linear)    (Quad)   (Total)
    R1        2.64338  -0.00005  -0.00072   0.00196   0.00125   2.64463
    R2        2.61523  -0.00029  -0.00104   0.00254   0.00151   2.61674
    R3        2.04635   0.00002   0.00175  -0.00479  -0.00304   2.04331
    R4        2.66153  -0.00044  -0.00069   0.00127   0.00058   2.66212
    R5        2.52268   0.00080  -0.00362   0.01083   0.00721   2.52989
    R6        2.60297  -0.00045  -0.00121   0.00270   0.00150   2.60447
    R7        2.04882  -0.00002   0.00176  -0.00488  -0.00312   2.04570
    R8        2.72262  -0.00258  -0.00090  -0.00166  -0.00256   2.72006
    R9        2.57490   0.00029  -0.00401   0.01138   0.00737   2.58227
   R10        2.72569   0.00143   0.00003   0.00221   0.00224   2.72792
   R11        2.69221  -0.00134  -0.00043  -0.00081  -0.00124   2.69097
   R12        2.53914   0.00072  -0.00412   0.01215   0.00803   2.54718
   R13        1.83035   0.00016  -0.00067   0.00205   0.00137   1.83172
   R14        2.81224   0.00047  -0.00205   0.00651   0.00446   2.81670
   R15        2.46845   0.00054  -0.00311   0.00908   0.00597   2.47442
   R16        2.06105  -0.00026   0.00215  -0.00638  -0.00423   2.05682
   R17        2.06105  -0.00026   0.00215  -0.00638  -0.00423   2.05682
   R18        2.05418   0.00014   0.00196  -0.00514  -0.00318   2.05100
   R19        1.85892  -0.00080   0.00046  -0.00225  -0.00180   1.85712
   R20        1.82951  -0.00009  -0.00069   0.00181   0.00112   1.83063
   R21        1.82952   0.00005  -0.00072   0.00203   0.00132   1.83084
    A1        2.09448  -0.00012   0.00039  -0.00111  -0.00072   2.09376
    A2        2.07343   0.00010  -0.00045   0.00140   0.00095   2.07438
    A3        2.11527   0.00002   0.00006  -0.00028  -0.00023   2.11504
    A4        2.10955   0.00048  -0.00023   0.00197   0.00174   2.11129
    A5        2.03174  -0.00043   0.00035  -0.00210  -0.00175   2.02999
    A6        2.14190  -0.00005  -0.00012   0.00013   0.00001   2.14191
    A7        2.07618  -0.00074  -0.00011  -0.00190  -0.00202   2.07416
    A8        2.10497   0.00041  -0.00001   0.00126   0.00125   2.10622
    A9        2.10204   0.00034   0.00012   0.00064   0.00077   2.10281
   A10        2.14583   0.00098   0.00059   0.00065   0.00125   2.14707
   A11        2.10560   0.00234   0.00051   0.00453   0.00504   2.11064
   A12        2.03176  -0.00332  -0.00111  -0.00518  -0.00629   2.02547
   A13        2.01498   0.00014  -0.00044   0.00152   0.00107   2.01605
   A14        2.14063  -0.00729  -0.00326  -0.00930  -0.01256   2.12806
   A15        2.12758   0.00716   0.00370   0.00779   0.01149   2.13907
   A16        2.12535  -0.00074  -0.00020  -0.00113  -0.00133   2.12402
   A17        2.11323  -0.00189  -0.00108  -0.00184  -0.00293   2.11031
   A18        2.04460   0.00262   0.00128   0.00297   0.00425   2.04885
   A19        1.93958  -0.00081  -0.00040  -0.00206  -0.00246   1.93712
   A20        2.19618   0.00571   0.00303   0.00599   0.00902   2.20520
   A21        2.13659  -0.00548  -0.00329  -0.00469  -0.00799   2.12861
   A22        1.95041  -0.00023   0.00026  -0.00130  -0.00104   1.94937
   A23        1.93008  -0.00003   0.00104  -0.00278  -0.00173   1.92834
   A24        1.93011  -0.00003   0.00105  -0.00278  -0.00174   1.92837
   A25        1.89349  -0.00041   0.00087  -0.00442  -0.00356   1.88994
   A26        1.85886   0.00028  -0.00115   0.00507   0.00393   1.86279
   A27        1.92577   0.00011  -0.00093   0.00255   0.00162   1.92738
   A28        1.92579   0.00011  -0.00093   0.00255   0.00161   1.92740
   A29        1.96357  -0.00132  -0.00267   0.00216  -0.00052   1.96306
   A30        1.97505  -0.00093   0.00036  -0.00463  -0.00427   1.97078
   A31        1.96803  -0.00055  -0.00032  -0.00129  -0.00160   1.96643
    D1       -0.00004  -0.00000  -0.00000   0.00000   0.00000  -0.00004
    D2       -3.14158  -0.00000  -0.00000  -0.00000  -0.00000  -3.14159
    D3        3.14153   0.00000  -0.00000   0.00001   0.00001   3.14154
    D4       -0.00001  -0.00000  -0.00000   0.00000   0.00000  -0.00001
    D5       -0.00005   0.00000   0.00000   0.00001   0.00001  -0.00004
    D6        3.14156  -0.00000  -0.00000   0.00000  -0.00000   3.14156
    D7        3.14157   0.00000   0.00000   0.00000   0.00000   3.14157
    D8       -0.00001  -0.00000  -0.00000  -0.00000  -0.00000  -0.00001
    D9        0.00005  -0.00000  -0.00000  -0.00000  -0.00000   0.00005
   D10       -3.14145  -0.00000   0.00000  -0.00003  -0.00002  -3.14147
   D11       -3.14159   0.00000   0.00000   0.00000   0.00000  -3.14159
   D12        0.00010  -0.00000   0.00000  -0.00002  -0.00002   0.00008
   D13        3.14159   0.00000   0.00000  -0.00000  -0.00000   3.14159
   D14        0.00005  -0.00000   0.00000  -0.00001  -0.00001   0.00004
   D15        0.00001   0.00000   0.00000  -0.00000  -0.00000   0.00001
   D16       -3.14147  -0.00000  -0.00001  -0.00001  -0.00001  -3.14149
   D17        3.14151   0.00000  -0.00000   0.00002   0.00002   3.14153
   D18        0.00003  -0.00000  -0.00001   0.00002   0.00001   0.00003
   D19       -0.00009   0.00000  -0.00000   0.00001   0.00001  -0.00008
   D20        3.14139   0.00000  -0.00000   0.00001   0.00001   3.14140
   D21        3.14140   0.00000   0.00001   0.00001   0.00002   3.14142
   D22       -0.00031   0.00000   0.00001   0.00001   0.00002  -0.00028
   D23       -0.00092   0.00000  -0.00005   0.00021   0.00016  -0.00076
   D24        3.14077   0.00000  -0.00006   0.00021   0.00015   3.14092
   D25        0.00011  -0.00000   0.00000  -0.00001  -0.00001   0.00009
   D26       -3.14150  -0.00000   0.00000  -0.00001  -0.00001  -3.14151
   D27       -3.14137   0.00000   0.00000  -0.00001  -0.00001  -3.14138
   D28        0.00021   0.00000   0.00000  -0.00001  -0.00000   0.00020
   D29       -3.14153   0.00000   0.00002  -0.00003  -0.00001  -3.14154
   D30        0.00005   0.00000   0.00001  -0.00001   0.00000   0.00005
   D31       -0.00005   0.00000   0.00002  -0.00003  -0.00002  -0.00007
   D32        3.14153   0.00000   0.00001  -0.00001  -0.00000   3.14152
   D33        0.00001   0.00000   0.00000  -0.00000   0.00000   0.00001
   D34       -3.14157  -0.00000  -0.00000  -0.00000  -0.00001  -3.14157
   D35       -1.02752  -0.00015   0.00005  -0.00136  -0.00131  -1.02882
   D36        1.02720   0.00015  -0.00007   0.00146   0.00139   1.02858
   D37        3.14145   0.00000  -0.00001   0.00004   0.00004   3.14149
   D38        2.11409  -0.00015   0.00005  -0.00138  -0.00132   2.11277
   D39       -2.11439   0.00015  -0.00006   0.00144   0.00137  -2.11301
   D40       -0.00013   0.00000  -0.00000   0.00003   0.00002  -0.00010
   D41       -0.00002   0.00000   0.00001  -0.00001   0.00000  -0.00002
   D42        3.14156   0.00000   0.00001   0.00001   0.00001   3.14157
         Item               Value     Threshold  Converged?
 Maximum Force            0.007295     0.000450     NO 
 RMS     Force            0.001510     0.000300     NO 
 Maximum Displacement     0.058578     0.001800     NO 
 RMS     Displacement     0.017953     0.001200     NO 
 Predicted change in Energy=-1.846199D-04
 GradGradGradGradGradGradGradGradGradGradGradGradGradGradGradGradGradGrad

                          Input orientation:                          
 ---------------------------------------------------------------------
 Center     Atomic      Atomic             Coordinates (Angstroms)
 Number     Number       Type             X           Y           Z
 ---------------------------------------------------------------------
      1          6           0        1.552439   -1.267264   -0.000237
      2          6           0        2.285176   -0.074944   -0.000093
      3          6           0        1.635589    1.175081    0.000023
      4          6           0        0.257766    1.208312    0.000052
      5          6           0       -0.555442    0.020649   -0.000017
      6          6           0        0.168268   -1.228387   -0.000226
      7          8           0       -0.556371   -2.364939   -0.000401
      8          6           0       -1.978118    0.082040    0.000249
      9          6           0       -2.912492   -1.079265    0.000268
     10          8           0       -2.622690    1.221811    0.000511
     11          8           0       -0.416141    2.397059    0.000040
     12          8           0        3.618290   -0.197746   -0.000124
     13          1           0        2.086101   -2.207668   -0.000377
     14          1           0        2.207060    2.094488    0.000021
     15          1           0        0.020066   -3.144215   -0.000515
     16          1           0       -2.741676   -1.705630   -0.873320
     17          1           0       -2.741215   -1.706002    0.873494
     18          1           0       -3.928873   -0.698558    0.000607
     19          1           0       -2.017167    1.995848    0.000518
     20          1           0        0.174032    3.165256    0.000687
     21          1           0        4.072105    0.658235   -0.000023
 ---------------------------------------------------------------------
                    Distance matrix (angstroms):
                    1          2          3          4          5
     1  C    0.000000
     2  C    1.399476   0.000000
     3  C    2.443760   1.408732   0.000000
     4  C    2.793682   2.399403   1.378224   0.000000
     5  C    2.470199   2.842226   2.476556   1.439392   0.000000
     6  C    1.384717   2.410753   2.815970   2.438341   1.443554
     7  O    2.377387   3.649447   4.163704   3.664825   2.385588
     8  C    3.779610   4.266183   3.775396   2.503530   1.423999
     9  C    4.468887   5.293809   5.076132   3.909417   2.601056
    10  O    4.860782   5.076290   4.258535   2.880487   2.390879
    11  O    4.159636   3.661681   2.388059   1.366481   2.380489
[...]
 0.00351204,0.00000018,0.00782417,0.00546253,0.00000045,-0.03690541,0.0
 4920043,0.00001438,-0.00448906,-0.01418878,0.00000049,0.00253205,0.005
 06395,0.00000038,-0.19266654,0.11078865,0.00003987,0.01553903,-0.01972
 542,-0.00000392,0.44308139,0.00648982,0.00480676,0.00000050,-0.0079563
 2,-0.00256824,-0.00000062,0.00166428,0.00017440,-0.00000017,-0.0031411
 9,-0.03376666,-0.00000193,0.05321768,-0.00765015,-0.00001104,-0.010153
 64,0.01611354,0.00000181,-0.00029372,-0.00505959,-0.00000080,0.1229867
 0,-0.35417278,-0.00006124,0.01483546,-0.05902891,-0.00001078,0.0499115
 8,0.70393124,0.00000058,0.00000005,-0.00134881,-0.00000162,0.00000055,
 0.00019133,0.00000115,-0.00000084,-0.00005007,-0.00000220,-0.00000464,
 -0.00297487,0.00001386,-0.00001253,0.01650568,0.00000175,0.00000317,0.
 00896406,-0.00000061,-0.00000118,-0.00007977,0.00004099,-0.00005883,-0
 .05473816,0.00000105,-0.00000655,0.00831719,-0.00005970,0.00007913,0.0
 5049371,0.00846889,0.00657056,0.00000002,-0.00522456,-0.01792517,-0.00
 000211,-0.03318696,0.06015096,0.00000130,-0.16757320,0.05056885,-0.000
 01652,0.02968711,-0.01618438,-0.00000145,-0.01660407,0.00244542,0.0000
 0202,0.00365001,-0.00027269,0.00000005,-0.01830610,0.01262417,0.000004
 81,0.00085581,-0.00158700,0.00000001,-0.01773988,-0.03075842,-0.000001
 46,0.44923921,-0.00481982,-0.00599661,0.00000037,-0.00365863,0.0122341
 0,-0.00000041,0.02393496,-0.01834389,0.00000288,0.10788982,-0.26358971
 ,-0.00001844,0.00398067,-0.04579636,-0.00000117,0.00229623,-0.00282760
 ,-0.00000212,-0.00008209,-0.00316473,-0.00000057,0.01950179,-0.0048371
 3,-0.00000296,-0.00039099,-0.00199701,-0.00000050,-0.01886294,0.008235
 48,0.00000681,0.12965225,0.66248633,0.00000041,0.00000084,-0.00235245,
 0.00000131,-0.00000186,0.01103973,0.00000022,-0.00000234,0.00855361,-0
 .00000080,-0.00004055,-0.03298330,0.00000644,-0.00000750,-0.00076766,-
 0.00000211,-0.00000227,0.00343113,0.00000025,-0.00000097,0.00056730,0.
 00000394,0.00000092,-0.00079535,-0.00000012,0.00000103,0.00044366,-0.0
 0000566,0.00000271,0.00313116,0.00017232,0.00025580,0.01879895,-0.0593
 4604,-0.01689018,-0.00000025,-0.36292951,0.04856359,0.00001433,-0.0451
 2960,0.01386842,0.00000470,0.01105541,0.00347694,-0.00000066,-0.018399
 31,0.00126573,0.00000172,0.01783977,-0.00452940,-0.00000106,-0.0035171
 5,-0.00264563,-0.00000038,0.01648547,-0.00368737,-0.00000245,-0.000408
 36,-0.00215692,-0.00000061,-0.00486072,0.00795874,0.00000171,-0.001237
 38,0.00174982,0.00000020,0.58398478,-0.05138733,0.00779625,0.00000166,
 -0.00421689,-0.11852660,-0.00000892,0.04659046,0.00173696,-0.00000278,
 -0.00766821,-0.00732936,-0.00000099,0.00039430,0.00344743,0.00000041,0
 .00677283,-0.00862720,-0.00000191,-0.00420601,-0.00164518,-0.00000013,
 0.00038441,0.00031267,0.00000006,0.00001679,0.00008274,0.00000009,-0.0
 0009746,0.00099708,0.00000007,0.00408246,-0.00118159,-0.00000025,0.166
 73635,0.53826043,-0.00000503,0.00000022,0.00590067,0.00000769,-0.00001
 022,-0.04325035,0.00000700,-0.00000080,0.01042839,-0.00000156,-0.00000
 103,0.00891245,0.00000043,0.00000051,-0.00124326,0.00000083,-0.0000017
 2,0.00441863,-0.00000045,0.,-0.00047474,-0.00000028,0.00000015,-0.0003
 7996,0.00000002,0.00000002,0.00014269,0.00000007,0.,-0.00002447,0.0000
 0074,-0.00000042,-0.00158765,0.00000735,0.00005928,0.02940331,-0.12894
 858,0.12612756,0.00001969,0.01331994,-0.01665993,-0.00000267,-0.002113
 77,-0.00299391,-0.00000005,-0.00135858,-0.00076266,-0.00000010,-0.0041
 5525,-0.00195816,0.00000008,-0.01135667,0.02790703,0.00000429,0.003077
 48,0.00101552,0.,0.00009273,0.00152832,0.00000003,0.00005440,0.0000020
 8,0.,-0.00056205,0.00016475,0.00000017,0.00050956,-0.00012795,0.000000
 04,0.00061745,0.00080313,0.00000004,0.13197868,0.12482757,-0.28287820,
 -0.00003917,0.01586356,-0.01983143,-0.00000345,-0.00368600,-0.00235914
 ,-0.00000081,-0.00113635,0.00011568,0.00000032,-0.00081258,0.00076809,
 -0.00000071,-0.00388717,0.00276783,0.00000033,-0.00089395,0.00256577,0
 .00000102,-0.00033857,0.00021272,-0.00000010,-0.00002631,0.00006387,0.
 00000006,-0.00004587,0.00010663,0.00000012,0.00024822,0.00014378,-0.00
 000005,0.00135289,0.00195377,0.00000059,-0.13292386,0.29629958,0.00001
 920,-0.00003959,-0.02593756,0.00000239,-0.00000235,0.00182496,-0.00000
 077,-0.00000057,0.00485575,-0.00000020,0.00000023,-0.00158609,0.000000
 63,-0.00000083,0.00608765,0.00000039,-0.00000036,0.00087000,-0.0000004
 4,0.00000078,-0.00463006,-0.00000004,0.00000006,0.00116710,-0.00000012
 ,0.,-0.00009590,-0.00000008,0.,-0.00070112,0.00000021,0.00000023,-0.00
 011296,-0.00000020,0.00000065,-0.00268722,-0.00002132,0.00004191,0.019
 92452,-0.00143522,0.00304401,0.00000080,0.01079597,0.01466462,0.000000
 06,-0.14089490,-0.12892127,-0.00000068,-0.01290805,-0.02877988,-0.0000
 0087,-0.00433392,0.00252766,0.00000088,-0.00109632,0.00085876,-0.00000
 006,0.00036958,0.00001383,0.00000001,-0.00006132,-0.00194855,-0.000000
 56,-0.00038296,0.00034923,0.00000020,0.00020028,0.00043801,0.00000002,
 0.00330675,-0.00082445,-0.00000091,0.00261757,-0.00012912,-0.00000017,
 0.00064494,0.00069950,0.00000020,0.14566015,0.00389146,-0.00274135,-0.
 00000066,-0.01883852,-0.01878925,-0.00000023,-0.12945640,-0.26670177,-
 0.00000636,0.00407614,0.00319138,-0.00000024,0.00098457,0.00081320,-0.
 00000030,0.00129502,-0.00005720,0.00000012,-0.00030839,0.00008586,0.00
 000002,0.00050464,0.00001331,-0.00000005,0.00004693,0.00000456,0.,-0.0
 0002704,0.00039654,0.00000004,0.00102354,0.00244305,0.00000096,-0.0006
 1504,0.00287079,0.00000024,-0.00094001,-0.00085970,-0.00000018,0.13743
 263,0.27974131,0.00000092,-0.00000089,0.00437300,-0.00000136,-0.000003
 39,0.00053476,-0.00000081,-0.00000359,-0.02385330,0.00000132,0.0000003
 7,0.00163366,0.00000030,-0.00000033,0.00602076,-0.00000024,0.00000007,
 -0.00161057,0.00000015,0.00000026,-0.00005646,-0.00000015,-0.00000020,
 0.00110713,-0.00000011,0.00000011,-0.00040687,0.00000015,-0.00000008,-
 0.00003485,0.00000044,0.00000170,-0.00481468,-0.00000081,0.00000043,-0
 .00319599,-0.00000009,-0.00000021,0.00056482,-0.00000003,0.00000726,0.
 01792341,-0.00045819,-0.00538198,-0.00000084,-0.00040451,0.00130594,0.
 00000018,0.00039061,-0.00032607,-0.00000008,0.00042463,-0.00078227,0.0
 0000006,-0.00124504,-0.00388355,-0.00000056,0.01515557,-0.02694636,-0.
 00000415,-0.22052281,0.25468670,0.00003904,-0.00098485,-0.00044620,-0.
 00000007,-0.00160327,0.00010141,0.00000043,0.00027532,-0.00037339,-0.0
 0000008,-0.00039802,-0.00002025,-0.00000013,-0.00014624,-0.00002629,0.
 ,-0.00157021,0.00080949,0.00000016,-0.00008306,0.00014304,0.00000002,0
 .21123509,0.00414054,0.00584553,0.00000101,-0.00095686,-0.00327341,-0.
 00000018,-0.00125810,0.00137991,0.00000016,0.00306786,-0.00048221,-0.0
 0000041,-0.00679934,-0.00154398,0.00000003,0.02189857,-0.03918283,-0.0
 0000566,0.19961318,-0.32983326,-0.00004929,0.00167069,-0.00038978,-0.0
 0000012,-0.00009397,0.00003263,-0.00000019,-0.00067867,0.00096715,0.00
 000027,-0.00084901,0.00041797,-0.00000024,0.00145798,0.00069434,0.0000
 0005,-0.00129096,0.00048038,-0.00000002,-0.00007529,0.00009757,-0.0000
 0003,-0.22008477,0.36515795,0.00000038,0.00000131,-0.00187599,-0.00000
 008,-0.00000015,-0.00112618,-0.00000007,0.00000017,-0.00008685,0.00000
 055,-0.00000038,0.00159908,-0.00000100,-0.00000029,0.00273827,0.000002
 78,-0.00000525,-0.00225401,0.00003127,-0.00004997,-0.00718164,0.000000
 11,0.00000011,-0.00044586,0.00000024,0.,0.00018306,-0.00000016,0.00000
 033,-0.00020719,-0.00000006,0.,0.00002459,0.00000019,0.00000008,0.0000
 0158,-0.00000013,-0.00000007,0.00094965,0.,0.,0.00005373,-0.00003425,0
 .00005450,0.00703938,0.00001833,0.00009112,0.00009127,0.00054798,-0.00
 065386,0.00017619,-0.00062628,0.00080638,-0.00033357,0.00115476,0.0011
 5382,0.00106289,-0.00379910,0.00029558,0.00087592,-0.00135481,-0.00400
 669,-0.00026290,-0.00132029,0.00252508,-0.00087538,0.00731046,-0.00828
 329,-0.02043074,-0.05604851,0.02240419,0.03869256,-0.00134120,-0.00215
 343,0.00056126,0.00001382,-0.00039096,0.00011969,-0.00063977,0.0000948
 7,0.00000309,-0.00003781,0.00003679,-0.00005862,0.00000439,0.00000403,
 -0.00007519,-0.00008452,0.00024982,0.00014590,0.05640877,0.00016730,0.
 00000256,-0.00027263,-0.00030191,-0.00001816,-0.00002422,0.00005714,-0
 .00019431,-0.00022563,-0.00019817,-0.00067866,0.00082417,0.00124548,0.
 00009387,0.00135945,-0.00024706,0.00132829,-0.00038531,0.00096802,-0.0
 0128208,0.00102003,0.00363761,-0.01844734,-0.02134398,0.02496455,-0.13
 227749,-0.13477248,-0.00318209,-0.00317288,0.00009806,-0.00032893,0.00
 027972,0.00012304,0.00033945,-0.00001665,0.00004865,0.00003307,-0.0000
 0171,0.00002702,0.00001605,0.00000383,-0.00005591,0.00039680,0.0000548
 9,0.00024344,-0.02645310,0.14927028,0.00064805,0.00050331,-0.00028462,
 -0.00025093,-0.00044192,-0.00004936,-0.00011369,0.00008095,0.00000780,
 -0.00000658,-0.00019155,0.00018573,0.00025274,-0.00025313,0.00054845,-
 0.00071598,-0.00128080,0.00021017,0.00129089,0.00043065,0.00037568,-0.
 00115547,0.00183324,0.00185287,0.03746491,-0.13291728,-0.22300793,-0.0
 0016457,0.00201350,-0.00084686,-0.00002493,0.00027171,-0.00009102,0.00
 028785,0.00008011,0.00000785,-0.00002737,0.00001680,0.00004436,-0.0000
 0503,0.00001107,-0.00000600,0.00045681,0.00001409,0.00005817,-0.041367
 11,0.14274425,0.24132694,0.00001786,0.00009104,-0.00009132,0.00054803,
 -0.00065342,-0.00017641,-0.00062604,0.00080609,0.00033389,0.00115411,0
 .00115426,-0.00106288,-0.00379888,0.00029597,-0.00087432,-0.00135464,-
 0.00400686,0.00026219,-0.00132178,0.00252564,0.00087664,0.00732069,-0.
 00828954,0.02042520,-0.05608372,0.02247662,-0.03875816,-0.00134163,-0.
 00215525,-0.00056195,0.00001374,-0.00039110,-0.00011921,-0.00063982,0.
 00009483,-0.00000303,-0.00003782,0.00003676,0.00005872,0.00000437,0.00
 000403,0.00007518,-0.00008492,0.00025012,-0.00014558,0.00034360,-0.001
 55275,0.00389310,0.05644675,0.00016740,0.00000278,0.00027264,-0.000302
 03,-0.00001820,0.00002429,0.00005708,-0.00019454,0.00022541,-0.0001985
 4,-0.00067840,-0.00082404,0.00124540,0.00009391,-0.00136011,-0.0002471
 2,0.00132787,0.00038580,0.00096888,-0.00128199,-0.00102097,0.00364690,
 -0.01845383,0.02133414,0.02503749,-0.13237952,0.13479755,-0.00318261,-
 0.00317290,-0.00009707,-0.00032910,0.00027982,-0.00012312,0.00033966,-
 0.00001661,-0.00004868,0.00003307,-0.00000169,-0.00002705,0.00001603,0
 .00000383,0.00005592,0.00039707,0.00005488,-0.00024359,-0.00155835,0.0
 1069705,-0.01598449,-0.02653220,0.14937943,-0.00064808,-0.00050339,-0.
 00028464,0.00025047,0.00044244,-0.00004920,0.00011432,-0.00008143,0.00
 000772,0.00000569,0.00019049,0.00018584,-0.00025008,0.00025302,0.00054
 840,0.00071660,0.00128329,0.00021080,-0.00129019,-0.00043276,0.0003752
 6,0.00115361,-0.00183799,0.00185075,-0.03752884,0.13294484,-0.22287786
 ,0.00016362,-0.00201363,-0.00084719,0.00002468,-0.00027142,-0.00009093
 ,-0.00028740,-0.00008018,0.00000782,0.00002739,-0.00001683,0.00004433,
 0.00000504,-0.00001107,-0.00000600,-0.00045667,-0.00001408,0.00005835,
 -0.00390360,0.01599751,-0.02163403,0.04143973,-0.14276952,0.24118667,-
 0.00006740,0.00002137,-0.00000007,0.00014348,0.00003742,0.00000003,-0.
 00002391,-0.00039400,-0.00000010,-0.00085966,0.00094771,0.00000041,0.0
 0022975,-0.00345086,-0.00000017,0.00047591,-0.00003832,-0.00000008,-0.
 00017379,0.00046334,0.00000032,-0.02404600,0.00688659,0.00000600,-0.30
 125886,0.09110728,0.00007057,0.00259139,0.00316297,-0.00000022,0.00052
 847,-0.00009147,-0.00000017,-0.00008173,-0.00000472,0.,-0.00000273,0.0
 0000315,0.,-0.00008575,0.00000494,-0.00000002,-0.00002955,-0.00019613,
 0.,-0.00116004,0.00011282,-0.00042883,-0.00117022,0.00011553,0.0004301
 7,0.32483929,0.00038994,0.00045134,0.00000010,0.00010143,-0.00045898,-
 0.00000004,-0.00031459,-0.00031687,0.00000005,-0.00110867,0.00087891,0
 .00000008,-0.00131349,-0.00494066,-0.00000089,-0.00041590,-0.00182492,
 -0.00000018,0.00201187,0.00014927,-0.00000050,-0.03158945,0.00803514,0
 .00000874,0.09989692,-0.08677912,-0.00002734,-0.00073488,0.00067788,0.
 00000038,0.00021001,0.00000150,-0.00000009,-0.00004744,0.00008334,0.00
 000001,-0.00005365,0.00002093,0.,-0.00015365,0.00002456,0.,0.00038873,
 0.00012967,-0.00000007,0.01597345,-0.00502326,0.00289658,0.01598092,-0
 .00502443,-0.00290632,-0.09874612,0.09392019,0.,0.00000010,-0.00028184
 ,0.,0.,0.00006473,-0.00000005,0.00000005,-0.00026183,0.00000007,-0.000
 00036,0.00093061,0.00000020,-0.00000026,0.00162172,-0.00000002,-0.0000
 0002,-0.00014414,0.00000010,-0.00000034,0.00091662,-0.00000136,-0.0000
 0023,-0.00214140,0.00007221,-0.00002510,-0.05078478,-0.00000072,-0.000
 00028,-0.00068790,-0.00000018,0.00000004,-0.00013372,0.00000003,0.,0.0
 0000312,0.,0.,0.00002449,0.,0.,-0.00006322,0.00000008,0.00000006,0.000
 14746,0.02465271,-0.00680763,0.00196815,-0.02464522,0.00680459,0.00198
 038,-0.00007771,0.00002935,0.04699788,-0.00314677,-0.00277633,0.000000
 05,0.00156828,0.00371810,0.00000054,0.00299138,-0.00360639,0.00000092,
 -0.00821535,0.02520951,0.00000090,-0.01314051,0.00098346,0.00000244,0.
 00385307,-0.00378354,-0.00000137,-0.00056406,-0.00012222,-0.00000002,0
 .03578399,0.01253304,-0.00000472,-0.00261955,0.00454865,0.00000267,-0.
 20869757,-0.19957138,0.00000397,0.00150870,-0.00590249,0.00000882,-0.0
 0144524,-0.00086971,-0.00000019,-0.00014725,-0.00007005,0.00000002,-0.
 00044785,-0.00023781,0.,0.00009124,-0.00003906,-0.00000004,0.00051158,
 0.00042636,-0.00001107,0.00051161,0.00042605,0.00001078,0.00004696,-0.
 00054261,-0.00000010,0.18677642,-0.00253462,-0.00149771,-0.00000034,0.
 00261014,0.00221510,0.00000066,0.00104209,-0.00287911,-0.00000046,0.00
 526886,0.01671699,0.00000087,-0.00993770,0.00193659,0.00000145,0.00208
 864,-0.00480437,-0.00000024,-0.00005668,0.00131763,0.00000018,-0.00951
 783,-0.04541986,-0.00000437,0.00288483,-0.00027161,-0.00000237,-0.1668
 2480,-0.26936181,-0.00000539,0.00392605,-0.01551391,-0.00000238,-0.002
 27571,-0.00061751,-0.00000007,-0.00021862,-0.00004527,0.,-0.00041209,-
 0.00008052,0.,0.00010252,-0.00021067,-0.00000008,-0.00028538,-0.000569
 77,0.00024343,-0.00028513,-0.00056921,-0.00024336,0.00006835,-0.000019
 79,0.00000005,0.17501725,0.32083525,0.00000029,0.00000022,0.00023390,-
 0.00000022,-0.00000031,0.00024272,-0.00000018,0.00000034,0.00053722,0.
 00000055,-0.00000186,-0.00049655,0.00000091,0.00000061,-0.00221865,-0.
 00000076,0.00000054,-0.00112933,0.00000020,0.00000012,-0.00016011,-0.0
 0000908,-0.00000773,-0.00180406,0.00000320,-0.00000262,0.01194837,0.00
 000934,-0.00000046,-0.02617666,0.00000729,-0.00000490,-0.00132943,0.00
 000008,0.00000015,-0.00010508,0.,0.,0.00011366,0.00000011,0.00000002,-
 0.00000043,-0.00000002,-0.00000001,0.00010012,0.00101194,0.00148796,-0
 .00072669,-0.00101269,-0.00148761,-0.00072680,-0.00000015,0.00000015,-
 0.00020740,-0.00000619,0.00001216,0.02335747,0.00054035,0.00030686,0.0
 0000051,-0.00056052,-0.00128014,-0.00000064,0.00011013,0.00496661,0.00
 000092,0.01722221,0.01983344,0.00001368,-0.00025760,0.00422091,0.00000
 031,0.00021222,0.00102516,-0.00000054,-0.00030889,0.00003856,-0.000000
 05,-0.00272697,0.00224992,0.00000098,0.00011288,-0.00016036,-0.0000004
 2,-0.00316074,-0.00356728,0.00000152,-0.23859605,-0.25253097,-0.000184
 43,-0.00017931,-0.00003268,0.00000015,-0.00008082,-0.00012441,-0.00000
 016,-0.00144871,-0.00071417,0.00000031,0.00003282,0.00007253,-0.000000
 03,0.00003681,-0.00006912,0.00000291,0.00003685,-0.00006905,-0.0000029
 1,0.00008419,0.00004260,0.,0.00497516,-0.00076509,-0.00000465,0.224098
 72,0.00113831,0.00116790,-0.00000031,0.00054032,-0.00289293,0.00000187
 ,-0.00321790,0.00555559,0.00000081,-0.02308192,-0.03402063,-0.00001604
 ,0.00635343,-0.00162537,-0.00000300,-0.00308123,-0.00059534,0.00000075
 ,0.00092370,0.00043053,0.00000011,-0.00083979,-0.00037906,0.00000033,0
 .00006514,0.00040425,0.00000015,0.00316527,0.00266870,-0.00000140,-0.2
 0326272,-0.32293647,-0.00020376,-0.00123385,0.00062859,-0.00000016,0.0
 0009907,0.00006649,-0.00000010,0.00134271,0.00027882,-0.00000157,-0.00
 007933,-0.00029028,-0.00000006,0.00006782,-0.00001472,-0.00004201,0.00
 006786,-0.00001477,0.00004195,-0.00001309,0.00001836,0.,-0.00567668,-0
 .00150081,0.00000329,0.22632298,0.35296182,-0.00000033,-0.00000032,-0.
 00001346,-0.00000024,0.00000066,-0.00106076,0.00000004,0.00000086,-0.0
 0134458,-0.00000251,0.00001209,-0.00387396,-0.00000355,0.00000198,0.00
 296433,0.00000137,0.00000021,0.00142607,-0.00000003,0.00000081,0.00000
 581,0.00000090,-0.00000189,-0.00080435,-0.00000022,-0.00000024,-0.0004
 1495,0.00000602,0.00000320,0.00107588,-0.00016721,-0.00023667,-0.00113
 403,-0.00000046,0.00000032,0.00018058,0.,0.00000008,0.00005726,0.00000
 108,-0.00000059,0.00097334,0.00000008,0.00000010,0.00002812,-0.0000536
 3,-0.00009557,0.00003289,0.00005341,0.00009571,0.00003290,0.00000001,0
 .,0.00003634,-0.00000746,0.00000024,-0.00150819,0.00017255,0.00021911,
 0.00322854,-0.00465932,0.00386075,0.00000083,-0.02792899,-0.04450383,-
 0.00000490,0.00419389,-0.00110144,-0.00000050,-0.00199332,-0.00022580,
 0.00000025,0.00187182,0.00035250,-0.00000019,-0.00093947,-0.00222812,-
 0.00000029,-0.00016849,0.00073947,0.00000010,-0.00173166,0.00058666,0.
 00000029,0.00008314,0.00021650,0.00000006,0.00062753,-0.00070597,-0.00
 000019,0.00108416,-0.00091144,-0.00000009,-0.13364026,-0.15733200,-0.0
 0001668,0.00007636,0.00006720,0.,-0.00042593,0.00172641,0.00000002,0.0
 0000990,-0.00009914,-0.00000002,0.00006183,-0.00003152,-0.00002572,0.0
 0006183,-0.00003154,0.00002567,0.00002020,0.00002457,0.,-0.00019425,0.
 00010490,0.00000004,-0.00014273,0.00039990,0.00000015,0.16373378,0.003
 34403,0.00231738,-0.00000029,0.00642904,0.00443751,0.00000085,0.005487
 46,0.00209972,0.00000005,-0.00091399,-0.00091460,0.00000009,0.00207019
 ,-0.00021983,-0.00000023,-0.00216954,0.00071483,-0.00000015,0.00034890
 ,0.00018598,0.00000014,-0.00201968,0.00047841,0.00000030,-0.00000056,0
 .00025670,0.00000010,0.00055219,-0.00112150,-0.00000023,-0.00000506,-0
 .00033674,0.00000007,-0.21302802,-0.42090370,-0.00004661,0.00021609,0.
 00041162,0.00000016,-0.00015874,-0.00073883,0.00000009,0.00001877,-0.0
 0010646,-0.00000003,0.00008209,-0.00003348,-0.00002852,0.00008209,-0.0
 0003351,0.00002846,0.00000325,-0.00000306,0.,0.00033584,0.00034037,-0.
 00000004,0.00023370,0.00008932,-0.00000009,0.19909195,0.41307988,0.000
 00064,-0.00000056,0.00410872,0.00000172,0.00000259,-0.00441524,0.00000
 056,0.00000021,-0.00177453,-0.00000012,-0.00000018,-0.00127606,0.00000
 015,0.00000002,-0.00021388,-0.00000015,-0.00000020,0.00317483,0.000000
 03,0.00000016,-0.00100466,-0.00000026,0.00000001,0.00011146,0.00000005
 ,0.00000010,-0.00015444,0.00000008,-0.00000012,0.00003891,0.00000003,0
 .00000007,0.00020305,-0.00002387,-0.00004813,-0.00645835,0.,0.00000019
 ,-0.00077764,-0.00000008,-0.00000005,0.00086376,0.,-0.00000004,0.00019
 614,-0.00003268,0.00000977,0.00002744,0.00003270,-0.00000979,0.0000274
 3,0.,0.,0.00001474,0.00000006,0.00000003,0.00005592,-0.00000003,0.0000
 0004,0.00011223,0.00002117,0.00004587,0.00714017\\0.00000272,0.0000287
 8,0.00000020,0.00001750,-0.00001707,0.00000002,-0.00002192,-0.00001734
 ,-0.00000027,0.00001875,-0.00000444,0.00000105,0.00000863,-0.00001235,
 0.00000009,-0.00001809,-0.00000172,-0.00000010,0.00001923,0.00001105,-
 0.00000024,0.00000120,-0.00001575,0.00000047,0.00000423,0.00000369,0.0
 0000065,-0.00000239,0.00000082,-0.00000025,0.00001413,-0.00001355,-0.0
 0000271,-0.00002298,0.00000586,-0.00000003,-0.00000135,-0.00001309,-0.
 00000004,0.00000806,0.00000961,-0.00000025,-0.00000014,-0.00000289,0.0
 0000004,-0.00000097,-0.00000024,-0.00000883,-0.00000081,-0.00000039,0.
 00000841,-0.00000997,0.00000520,-0.00000002,-0.00001546,0.00002729,0.0
 0000004,-0.00000283,0.00000722,0.00000173,0.00000247,-0.00000068,0.000
 00006\\\@


 Luck is a matter of preparation meeting opportunity.
                                    -- Oprah Winfrey
 Job cpu time:       0 days 13 hours 11 minutes 30.9 seconds.
 File lengths (MBytes):  RWF=  29190 Int=      0 D2E=      0 Chk=      9 Scr=      1
 Normal termination of Gaussian 09 at Thu Dec 19 06:36:27 2024.
