 Entering Gaussian System, Link 0=g09
 Input=B2PLYPD3BJTHAP.gjf
 Output=B2PLYPD3BJTHAP.log
 Initial command:
 /home/c612/g09E/g09/l1.exe "/mnt/ja_sm883/scratch/Gau-1931733.inp" -scrdir="/mnt/ja_sm883/scratch/"
 Default is to use a total of  18 processors:
                               18 via shared-memory
                                1 via Linda
 Entering Link 1 = /home/c612/g09E/g09/l1.exe PID=   1931735.
  
 Copyright (c) 1988,1990,1992,1993,1995,1998,2003,2009,2015,
            Gaussian, Inc.  All Rights Reserved.
  
 This is part of the Gaussian(R) 09 program.  It is based on
 the Gaussian(R) 03 system (copyright 2003, Gaussian, Inc.),
 the Gaussian(R) 98 system (copyright 1998, Gaussian, Inc.),
 the Gaussian(R) 94 system (copyright 1995, Gaussian, Inc.),
 the Gaussian 92(TM) system (copyright 1992, Gaussian, Inc.),
 the Gaussian 90(TM) system (copyright 1990, Gaussian, Inc.),
 the Gaussian 88(TM) system (copyright 1988, Gaussian, Inc.),
 the Gaussian 86(TM) system (copyright 1986, Carnegie Mellon
 University), and the Gaussian 82(TM) system (copyright 1983,
 Carnegie Mellon University). Gaussian is a federally registered
 trademark of Gaussian, Inc.
  
 This software contains proprietary and confidential information,
 including trade secrets, belonging to Gaussian, Inc.
  
 This software is provided under written license and may be
 used, copied, transmitted, or stored only in accord with that
 written license.
  
 The following legend is applicable only to US Government
 contracts under FAR:
  
                    RESTRICTED RIGHTS LEGEND
  
 Use, reproduction and disclosure by the US Government is
 subject to restrictions as set forth in subparagraphs (a)
 and (c) of the Commercial Computer Software - Restricted
 Rights clause in FAR 52.227-19.
  
 Gaussian, Inc.
 340 Quinnipiac St., Bldg. 40, Wallingford CT 06492
  
  
 ---------------------------------------------------------------
 Warning -- This program may not be used in any manner that
 competes with the business of Gaussian, Inc. or will provide
 assistance to any competitor of Gaussian, Inc.  The licensee
 of this program is prohibited from giving any competitor of
 Gaussian, Inc. access to this program.  By using this program,
 the user acknowledges that Gaussian, Inc. is engaged in the
 business of creating and licensing software in the field of
 computational chemistry and represents and warrants to the
 licensee that it is not a competitor of Gaussian, Inc. and that
 it will not use this program in any manner prohibited above.
 ---------------------------------------------------------------
  

 Cite this work as:
 Gaussian 09, Revision E.01,
 M. J. Frisch, G. W. Trucks, H. B. Schlegel, G. E. Scuseria, 
 M. A. Robb, J. R. Cheeseman, G. Scalmani, V. Barone, B. Mennucci, 
 G. A. Petersson, H. Nakatsuji, M. Caricato, X. Li, H. P. Hratchian, 
 A. F. Izmaylov, J. Bloino, G. Zheng, J. L. Sonnenberg, M. Hada, 
 M. Ehara, K. Toyota, R. Fukuda, J. Hasegawa, M. Ishida, T. Nakajima, 
 Y. Honda, O. Kitao, H. Nakai, T. Vreven, J. A. Montgomery, Jr., 
 J. E. Peralta, F. Ogliaro, M. Bearpark, J. J. Heyd, E. Brothers, 
 K. N. Kudin, V. N. Staroverov, T. Keith, R. Kobayashi, J. Normand, 
 K. Raghavachari, A. Rendell, J. C. Burant, S. S. Iyengar, J. Tomasi, 
 M. Cossi, N. Rega, J. M. Millam, M. Klene, J. E. Knox, J. B. Cross, 
 V. Bakken, C. Adamo, J. Jaramillo, R. Gomperts, R. E. Stratmann, 
 O. Yazyev, A. J. Austin, R. Cammi, C. Pomelli, J. W. Ochterski, 
 R. L. Martin, K. Morokuma, V. G. Zakrzewski, G. A. Voth, 
 P. Salvador, J. J. Dannenberg, S. Dapprich, A. D. Daniels, 
 O. Farkas, J. B. Foresman, J. V. Ortiz, J. Cioslowski, 
 and D. J. Fox, Gaussian, Inc., Wallingford CT, 2013.
 
 ******************************************
 Gaussian 09:  ES64L-G09RevE.01 30-Nov-2015
                19-Dec-2024 
 ******************************************
 %chk=B2PLYPD3BJTHAP.chk
 -------------------------------------------------------
 # opt freq B2PLYP/6-31+g(d,p) EmpiricalDispersion=GD3BJ
 -------------------------------------------------------
 1/18=20,19=15,38=1/1,3;
 2/9=110,12=2,17=6,18=5,40=1/2;
 3/5=1,6=6,7=111,11=9,16=1,25=1,30=1,71=1,74=-47,124=41/1,2,3;
 4//1;
 5/5=2,38=5/2;
 8/6=4,10=2/1;
 9/15=2,16=-3/6;
 10/5=1/2;
 6/7=2,8=2,9=2,10=2/1;
 7/12=2/1,2,3,16;
 1/18=20,19=15/3(2);
 2/9=110/2;
 99//99;
 2/9=110/2;
 3/5=1,6=6,7=111,11=9,16=1,25=1,30=1,71=1,74=-47,124=41/1,2,3;
 4/5=5,16=3,69=1/1;
 5/5=2,38=5/2;
 8/6=4,10=2/1;
 9/15=2,16=-3/6;
 10/5=1/2;
 7/12=2/1,2,3,16;
 1/18=20,19=15/3(-8);
 2/9=110/2;
 6/7=2,8=2,9=2,10=2/1;
 99//99;
 ----------
 [No Title]
 ----------
 Symbolic Z-matrix:
 Charge =  0 Multiplicity = 1
 C                    -1.52928   1.24718   0.00006 
 C                    -2.26011   0.05263   0.00004 
 C                    -1.62212  -1.18033  -0.00002 
 C                    -0.22481  -1.22934  -0.00006 
 C                     0.56718  -0.03309  -0.00003 
 C                    -0.14383   1.19776   0.00003 
 O                     0.57233   2.35363   0.00006 
 C                     2.02366  -0.16437  -0.00006 
 C                     2.95347   1.01873   0.00002 
 O                     2.54326  -1.30079  0. 
 O                     0.34614  -2.42788  -0.00013 
 O                    -3.60987   0.17257   0.00007 
 H                    -2.06093   2.19409   0.0001 
 H                    -2.17348  -2.11563  -0.00005 
 H                    -0.03668   3.10186   0.00012 
 H                     2.78452   1.65076   0.87612 
 H                     3.9761    0.63933   0.00005 
 H                     2.78459   1.65081  -0.87606 
 H                     1.34179  -2.25356  -0.00016 
 H                    -4.01572  -0.70287   0.00005 
 

 GradGradGradGradGradGradGradGradGradGradGradGradGradGradGradGradGradGrad
 Berny optimization.
 Initialization pass.
                           ----------------------------
                           !    Initial Parameters    !
                           ! (Angstroms and Degrees)  !
 --------------------------                            --------------------------
 ! Name  Definition              Value          Derivative Info.                !
 --------------------------------------------------------------------------------
 ! R1    R(1,2)                  1.4004         estimate D2E/DX2                !
 ! R2    R(1,6)                  1.3863         estimate D2E/DX2                !
 ! R3    R(1,13)                 1.086          estimate D2E/DX2                !
 ! R4    R(2,3)                  1.3882         estimate D2E/DX2                !
 ! R5    R(2,12)                 1.3551         estimate D2E/DX2                !
 ! R6    R(3,4)                  1.3982         estimate D2E/DX2                !
 ! R7    R(3,14)                 1.0857         estimate D2E/DX2                !
 ! R8    R(4,5)                  1.4347         estimate D2E/DX2                !
 ! R9    R(4,11)                 1.3276         estimate D2E/DX2                !
 ! R10   R(5,6)                  1.4215         estimate D2E/DX2                !
 ! R11   R(5,8)                  1.4624         estimate D2E/DX2                !
 ! R12   R(6,7)                  1.3597         estimate D2E/DX2                !
 ! R13   R(7,15)                 0.9648         estimate D2E/DX2                !
 ! R14   R(8,9)                  1.5048         estimate D2E/DX2                !
 ! R15   R(8,10)                 1.2496         estimate D2E/DX2                !
 ! R16   R(9,16)                 1.0934         estimate D2E/DX2                !
 ! R17   R(9,17)                 1.0907         estimate D2E/DX2                !
 ! R18   R(9,18)                 1.0934         estimate D2E/DX2                !
 ! R19   R(11,19)                1.0108         estimate D2E/DX2                !
 ! R20   R(12,20)                0.9649         estimate D2E/DX2                !
 ! A1    A(2,1,6)              119.4162         estimate D2E/DX2                !
 ! A2    A(2,1,13)             119.2289         estimate D2E/DX2                !
 ! A3    A(6,1,13)             121.3549         estimate D2E/DX2                !
 ! A4    A(1,2,3)              121.1818         estimate D2E/DX2                !
 ! A5    A(1,2,12)             116.3808         estimate D2E/DX2                !
 ! A6    A(3,2,12)             122.4374         estimate D2E/DX2                !
 ! A7    A(2,3,4)              119.3685         estimate D2E/DX2                !
 ! A8    A(2,3,14)             122.1211         estimate D2E/DX2                !
 ! A9    A(4,3,14)             118.5104         estimate D2E/DX2                !
 ! A10   A(3,4,5)              121.498          estimate D2E/DX2                !
 ! A11   A(3,4,11)             117.4807         estimate D2E/DX2                !
 ! A12   A(5,4,11)             121.0214         estimate D2E/DX2                !
 ! A13   A(4,5,6)              116.4799         estimate D2E/DX2                !
 ! A14   A(4,5,8)              118.3568         estimate D2E/DX2                !
 ! A15   A(6,5,8)              125.1634         estimate D2E/DX2                !
 ! A16   A(1,6,5)              122.0557         estimate D2E/DX2                !
 ! A17   A(1,6,7)              119.7396         estimate D2E/DX2                !
 ! A18   A(5,6,7)              118.2047         estimate D2E/DX2                !
 ! A19   A(6,7,15)             109.0748         estimate D2E/DX2                !
 ! A20   A(5,8,9)              123.014          estimate D2E/DX2                !
 ! A21   A(5,8,10)             119.721          estimate D2E/DX2                !
 ! A22   A(9,8,10)             117.2649         estimate D2E/DX2                !
 ! A23   A(8,9,16)             111.0408         estimate D2E/DX2                !
 ! A24   A(8,9,17)             107.8091         estimate D2E/DX2                !
 ! A25   A(8,9,18)             111.0404         estimate D2E/DX2                !
 ! A26   A(16,9,17)            110.2373         estimate D2E/DX2                !
 ! A27   A(16,9,18)            106.4977         estimate D2E/DX2                !
 ! A28   A(17,9,18)            110.2373         estimate D2E/DX2                !
 ! A29   A(4,11,19)            105.5409         estimate D2E/DX2                !
 ! A30   A(2,12,20)            109.7942         estimate D2E/DX2                !
 ! D1    D(6,1,2,3)             -0.0003         estimate D2E/DX2                !
 ! D2    D(6,1,2,12)           179.9998         estimate D2E/DX2                !
 ! D3    D(13,1,2,3)           179.9998         estimate D2E/DX2                !
 ! D4    D(13,1,2,12)           -0.0001         estimate D2E/DX2                !
 ! D5    D(2,1,6,5)              0.0003         estimate D2E/DX2                !
 ! D6    D(2,1,6,7)           -179.9998         estimate D2E/DX2                !
 ! D7    D(13,1,6,5)          -179.9998         estimate D2E/DX2                !
 ! D8    D(13,1,6,7)             0.0002         estimate D2E/DX2                !
 ! D9    D(1,2,3,4)              0.0            estimate D2E/DX2                !
 ! D10   D(1,2,3,14)          -179.9998         estimate D2E/DX2                !
 ! D11   D(12,2,3,4)           179.9998         estimate D2E/DX2                !
 ! D12   D(12,2,3,14)            0.0            estimate D2E/DX2                !
 ! D13   D(1,2,12,20)          179.9998         estimate D2E/DX2                !
 ! D14   D(3,2,12,20)           -0.0001         estimate D2E/DX2                !
 ! D15   D(2,3,4,5)              0.0003         estimate D2E/DX2                !
 ! D16   D(2,3,4,11)          -179.9996         estimate D2E/DX2                !
 ! D17   D(14,3,4,5)          -179.9999         estimate D2E/DX2                !
 ! D18   D(14,3,4,11)            0.0002         estimate D2E/DX2                !
 ! D19   D(3,4,5,6)             -0.0003         estimate D2E/DX2                !
 ! D20   D(3,4,5,8)            179.9992         estimate D2E/DX2                !
 ! D21   D(11,4,5,6)           179.9996         estimate D2E/DX2                !
 ! D22   D(11,4,5,8)            -0.0009         estimate D2E/DX2                !
 ! D23   D(3,4,11,19)          179.9988         estimate D2E/DX2                !
 ! D24   D(5,4,11,19)           -0.0011         estimate D2E/DX2                !
 ! D25   D(4,5,6,1)              0.0            estimate D2E/DX2                !
 ! D26   D(4,5,6,7)           -180.0            estimate D2E/DX2                !
 ! D27   D(8,5,6,1)           -179.9994         estimate D2E/DX2                !
 ! D28   D(8,5,6,7)              0.0006         estimate D2E/DX2                !
 ! D29   D(4,5,8,9)           -179.9978         estimate D2E/DX2                !
 ! D30   D(4,5,8,10)            -0.0051         estimate D2E/DX2                !
 ! D31   D(6,5,8,9)              0.0017         estimate D2E/DX2                !
 ! D32   D(6,5,8,10)           179.9944         estimate D2E/DX2                !
 ! D33   D(1,6,7,15)             0.0015         estimate D2E/DX2                !
 ! D34   D(5,6,7,15)          -179.9985         estimate D2E/DX2                !
 ! D35   D(5,8,9,16)            59.1425         estimate D2E/DX2                !
 ! D36   D(5,8,9,17)           179.9963         estimate D2E/DX2                !
 ! D37   D(5,8,9,18)           -59.1501         estimate D2E/DX2                !
 ! D38   D(10,8,9,16)         -120.8503         estimate D2E/DX2                !
 ! D39   D(10,8,9,17)            0.0034         estimate D2E/DX2                !
 ! D40   D(10,8,9,18)          120.857          estimate D2E/DX2                !
 --------------------------------------------------------------------------------
 Trust Radius=3.00D-01 FncErr=1.00D-07 GrdErr=1.00D-07
 Number of steps in this run=    100 maximum allowed number of steps=    120.
 GradGradGradGradGradGradGradGradGradGradGradGradGradGradGradGradGradGrad

                          Input orientation:                          
 ---------------------------------------------------------------------
 Center     Atomic      Atomic             Coordinates (Angstroms)
 Number     Number       Type             X           Y           Z
 ---------------------------------------------------------------------
      1          6           0       -1.529278    1.247175    0.000059
      2          6           0       -2.260114    0.052631    0.000035
      3          6           0       -1.622116   -1.180327   -0.000024
      4          6           0       -0.224810   -1.229342   -0.000061
      5          6           0        0.567179   -0.033094   -0.000032
      6          6           0       -0.143834    1.197764    0.000029
      7          8           0        0.572333    2.353627    0.000057
      8          6           0        2.023660   -0.164368   -0.000055
      9          6           0        2.953472    1.018731    0.000021
     10          8           0        2.543255   -1.300790   -0.000003
     11          8           0        0.346137   -2.427883   -0.000126
     12          8           0       -3.609869    0.172570    0.000070
     13          1           0       -2.060929    2.194087    0.000102
     14          1           0       -2.173479   -2.115631   -0.000046
     15          1           0       -0.036675    3.101863    0.000121
     16          1           0        2.784518    1.650757    0.876121
     17          1           0        3.976098    0.639331    0.000052
     18          1           0        2.784589    1.650806   -0.876055
     19          1           0        1.341787   -2.253564   -0.000164
     20          1           0       -4.015716   -0.702868    0.000046
 ---------------------------------------------------------------------
                    Distance matrix (angstroms):
                    1          2          3          4          5
     1  C    0.000000
     2  C    1.400377   0.000000
     3  C    2.429277   1.388246   0.000000
     4  C    2.799066   2.405393   1.398165   0.000000
     5  C    2.456465   2.828592   2.471671   1.434662   0.000000
     6  C    1.386325   2.406236   2.800113   2.428456   1.421461
     7  O    2.375080   3.649293   4.159860   3.670573   2.386727
     8  C    3.823064   4.289267   3.784687   2.487928   1.462385
     9  C    4.488567   5.302342   5.076599   3.892982   2.607821
    10  O    4.803920   4.990401   4.167113   2.768987   2.347750
    11  O    4.125922   3.597985   2.330325   1.327585   2.404969
    12  O    2.341716   1.355073   2.404473   3.663875   4.182108
    13  H    1.085954   2.150700   3.402826   3.884739   3.444893
    14  H    3.423954   2.169992   1.085723   2.140752   3.442117
    15  H    2.380700   3.773791   4.566265   4.335289   3.192584
    16  H    4.420317   5.363753   5.310470   4.256609   2.918834
    17  H    5.538830   6.263749   5.886523   4.597778   3.474606
    18  H    4.420401   5.363835   5.310536   4.256654   2.918877
    19  H    4.527492   4.276941   3.152231   1.871699   2.351702
    20  H    3.159912   1.911261   2.440756   3.827289   4.631579
                    6          7          8          9         10
     6  C    0.000000
     7  O    1.359748   0.000000
     8  C    2.559968   2.906312   0.000000
     9  C    3.102476   2.729793   1.504750   0.000000
    10  O    3.669226   4.152023   1.249573   2.355516   0.000000
    11  O    3.658605   4.786857   2.817372   4.321729   2.469345
    12  O    3.614474   4.716760   5.643596   6.617661   6.327063
    13  H    2.160535   2.638091   4.716585   5.150309   5.780370
    14  H    3.885620   5.245355   4.628542   6.009147   4.786601
    15  H    1.907112   0.964753   3.861767   3.644231   5.102881
    16  H    3.089981   2.480983   2.154360   1.093414   3.088273
    17  H    4.157606   3.811093   2.111385   1.090738   2.411868
    18  H    3.090054   2.481049   2.154355   1.093412   3.088305
    19  H    3.757490   4.671003   2.197656   3.647663   1.533396
    20  H    4.313221   5.512926   6.063336   7.178683   6.586168
                   11         12         13         14         15
    11  O    0.000000
    12  O    4.734167   0.000000
    13  H    5.211197   2.546713   0.000000
    14  H    2.538891   2.701681   4.311187   0.000000
    15  H    5.542981   4.620441   2.218482   5.638100   0.000000
    16  H    4.832061   6.621230   4.953885   6.287693   3.291233
    17  H    4.752307   7.600313   6.234016   6.738480   4.708122
    18  H    4.832081   6.621319   4.953973   6.287756   3.291319
    19  H    1.010795   5.514075   5.600007   3.517971   5.529987
    20  H    4.690569   0.964937   3.494788   2.321581   5.505338
                   16         17         18         19         20
    16  H    0.000000
    17  H    1.791743   0.000000
    18  H    1.752176   1.791742   0.000000
    19  H    4.253595   3.912600   4.253583   0.000000
    20  H    7.249154   8.103739   7.249240   5.577409   0.000000
 Stoichiometry    C8H8O4
 Framework group  C1[X(C8H8O4)]
 Deg. of freedom    54
 Full point group                 C1      NOp   1
 Largest Abelian subgroup         C1      NOp   1
 Largest concise Abelian subgroup C1      NOp   1
                         Standard orientation:                         
 ---------------------------------------------------------------------
 Center     Atomic      Atomic             Coordinates (Angstroms)
 Number     Number       Type             X           Y           Z
 ---------------------------------------------------------------------
      1          6           0       -1.529278    1.247175    0.000059
      2          6           0       -2.260114    0.052631    0.000035
      3          6           0       -1.622116   -1.180327   -0.000024
      4          6           0       -0.224810   -1.229342   -0.000061
      5          6           0        0.567179   -0.033094   -0.000032
      6          6           0       -0.143834    1.197764    0.000029
      7          8           0        0.572333    2.353627    0.000057
      8          6           0        2.023660   -0.164368   -0.000055
      9          6           0        2.953472    1.018732    0.000021
     10          8           0        2.543255   -1.300790   -0.000003
     11          8           0        0.346137   -2.427883   -0.000126
     12          8           0       -3.609869    0.172569    0.000070
     13          1           0       -2.060929    2.194087    0.000102
     14          1           0       -2.173479   -2.115631   -0.000046
     15          1           0       -0.036675    3.101863    0.000121
     16          1           0        2.784518    1.650758    0.876121
     17          1           0        3.976098    0.639332    0.000052
     18          1           0        2.784589    1.650807   -0.876055
     19          1           0        1.341787   -2.253564   -0.000164
     20          1           0       -4.015716   -0.702869    0.000046
 ---------------------------------------------------------------------
 Rotational constants (GHZ):      1.5520496      0.7667849      0.5148446
 Standard basis: 6-31+G(d,p) (6D, 7F)
 There are   268 symmetry adapted cartesian basis functions of A   symmetry.
 There are   268 symmetry adapted basis functions of A   symmetry.
   268 basis functions,   440 primitive gaussians,   268 cartesian basis functions
    44 alpha electrons       44 beta electrons
       nuclear repulsion energy       698.6002325153 Hartrees.
 NAtoms=   20 NActive=   20 NUniq=   20 SFac= 1.00D+00 NAtFMM=   60 NAOKFM=F Big=F
 Integral buffers will be    131072 words long.
 Regular integral format.
 Two-electron integral symmetry is turned on.
 Nuclear repulsion after empirical dispersion term =      698.5775719097 Hartrees.
 One-electron integrals computed using PRISM.
 NBasis=   268 RedAO= T EigKep=  1.53D-06  NBF=   268
 NBsUse=   268 1.00D-06 EigRej= -1.00D+00 NBFU=   268
 ExpMin= 4.38D-02 ExpMax= 5.48D+03 ExpMxC= 8.25D+02 IAcc=2 IRadAn=         4 AccDes= 0.00D+00
 Harris functional with IExCor=  419 and IRadAn=       4 diagonalized for initial guess.
 HarFok:  IExCor=  419 AccDes= 0.00D+00 IRadAn=         4 IDoV= 1 UseB2=F ITyADJ=14
 ICtDFT=  3500011 ScaDFX=  1.000000  1.000000  1.000000  1.000000
 FoFCou: FMM=F IPFlag=           0 FMFlag=      100000 FMFlg1=           0
         NFxFlg=           0 DoJE=T BraDBF=F KetDBF=T FulRan=T
         wScrn=  0.000000 ICntrl=     500 IOpCl=  0 I1Cent=   200000004 NGrid=           0
         NMat0=    1 NMatS0=      1 NMatT0=    0 NMatD0=    1 NMtDS0=    0 NMtDT0=    0
 Petite list used in FoFCou.
 Keep R1 ints in memory in canonical form, NReq=659648347.
 Requested convergence on RMS density matrix=1.00D-08 within 128 cycles.
 Requested convergence on MAX density matrix=1.00D-06.
 Requested convergence on             energy=1.00D-06.
 No special actions if energy rises.
 SCF Done:  E(RB2PLYP) =  -609.456297395     A.U. after   15 cycles
            NFock= 15  Conv=0.83D-08     -V/T= 2.0066
 DoSCS=T DFT=T ScalE2(SS,OS)=  0.270000  0.270000
 ExpMin= 4.38D-02 ExpMax= 5.48D+03 ExpMxC= 8.25D+02 IAcc=3 IRadAn=         5 AccDes= 0.00D+00
 HarFok:  IExCor=  205 AccDes= 0.00D+00 IRadAn=         5 IDoV=-2 UseB2=F ITyADJ=14
 ICtDFT= 12500011 ScaDFX=  1.000000  1.000000  1.000000  1.000000
 Range of M.O.s used for correlation:    13   268
 NBasis=   268 NAE=    44 NBE=    44 NFC=    12 NFV=     0
 NROrb=    256 NOA=    32 NOB=    32 NVA=   224 NVB=   224

 **** Warning!!: The largest alpha MO coefficient is  0.15739263D+03

 DoSCS=T DFT=T ScalE2(SS,OS)=  0.270000  0.270000
 Fully direct method using O(ONN) memory.
 JobTyp=1 Pass  1:  I=  13 to  16 NPSUse= 18 ParTrn=T ParDer=T DoDerP=T.
 JobTyp=1 Pass  2:  I=  17 to  20 NPSUse= 18 ParTrn=T ParDer=T DoDerP=T.
 JobTyp=1 Pass  3:  I=  21 to  24 NPSUse= 18 ParTrn=T ParDer=T DoDerP=T.
 JobTyp=1 Pass  4:  I=  25 to  28 NPSUse= 18 ParTrn=T ParDer=T DoDerP=T.
 JobTyp=1 Pass  5:  I=  29 to  32 NPSUse= 18 ParTrn=T ParDer=T DoDerP=T.
 JobTyp=1 Pass  6:  I=  33 to  36 NPSUse= 18 ParTrn=T ParDer=T DoDerP=T.
 JobTyp=1 Pass  7:  I=  37 to  40 NPSUse= 18 ParTrn=T ParDer=T DoDerP=T.
 JobTyp=1 Pass  8:  I=  41 to  44 NPSUse= 18 ParTrn=T ParDer=T DoDerP=T.
 Spin components of T(2) and E(2):
     alpha-alpha T2 =       0.1287775750D+00 E2=     -0.8182927232D-01
     alpha-beta  T2 =       0.6557167680D+00 E2=     -0.4337137245D+00
     beta-beta   T2 =       0.1287775750D+00 E2=     -0.8182927232D-01
 E2(B2PLYP) =    -0.5973722691D+00 E(B2PLYP) =    -0.61005366966399D+03
          IDoAtm=11111111111111111111
          Differentiating once with respect to electric field.
                with respect to dipole field.
          Differentiating once with respect to nuclear coordinates.
 Keep R1 ints in memory in canonical form, NReq=659410000.
          There are     1 degrees of freedom in the 1st order CPHF.  IDoFFX=0 NUNeed=     1.
 LinEq1:  Iter=  0 NonCon=     1 RMS=1.97D-03 Max=6.48D-02 NDo=     1
 AX will form     1 AO Fock derivatives at one time.
 LinEq1:  Iter=  1 NonCon=     1 RMS=9.55D-04 Max=2.18D-02 NDo=     1
 LinEq1:  Iter=  2 NonCon=     1 RMS=3.36D-04 Max=9.92D-03 NDo=     1
 LinEq1:  Iter=  3 NonCon=     1 RMS=2.38D-04 Max=6.42D-03 NDo=     1
 LinEq1:  Iter=  4 NonCon=     1 RMS=1.03D-04 Max=4.03D-03 NDo=     1
 LinEq1:  Iter=  5 NonCon=     1 RMS=4.85D-05 Max=1.99D-03 NDo=     1
 LinEq1:  Iter=  6 NonCon=     1 RMS=1.81D-05 Max=6.33D-04 NDo=     1
 LinEq1:  Iter=  7 NonCon=     1 RMS=7.03D-06 Max=3.07D-04 NDo=     1
 LinEq1:  Iter=  8 NonCon=     1 RMS=3.55D-06 Max=9.27D-05 NDo=     1
 LinEq1:  Iter=  9 NonCon=     1 RMS=1.50D-06 Max=4.54D-05 NDo=     1
 LinEq1:  Iter= 10 NonCon=     1 RMS=5.06D-07 Max=1.12D-05 NDo=     1
 LinEq1:  Iter= 11 NonCon=     1 RMS=1.96D-07 Max=5.17D-06 NDo=     1
 LinEq1:  Iter= 12 NonCon=     1 RMS=9.97D-08 Max=2.74D-06 NDo=     1
 LinEq1:  Iter= 13 NonCon=     1 RMS=2.83D-08 Max=5.28D-07 NDo=     1
 LinEq1:  Iter= 14 NonCon=     1 RMS=1.53D-08 Max=3.83D-07 NDo=     1
 LinEq1:  Iter= 15 NonCon=     1 RMS=5.16D-09 Max=1.82D-07 NDo=     1
 LinEq1:  Iter= 16 NonCon=     1 RMS=2.51D-09 Max=5.89D-08 NDo=     1
 LinEq1:  Iter= 17 NonCon=     1 RMS=8.60D-10 Max=1.58D-08 NDo=     1
 LinEq1:  Iter= 18 NonCon=     1 RMS=3.11D-10 Max=6.24D-09 NDo=     1
 LinEq1:  Iter= 19 NonCon=     1 RMS=1.12D-10 Max=2.03D-09 NDo=     1
 LinEq1:  Iter= 20 NonCon=     1 RMS=3.12D-11 Max=1.04D-09 NDo=     1
 LinEq1:  Iter= 21 NonCon=     0 RMS=1.24D-11 Max=2.69D-10 NDo=     1
 Linear equations converged to 1.000D-10 1.000D-09 after    21 iterations.
 End of Minotr F.D. properties file   721 does not exist.
 End of Minotr F.D. properties file   722 does not exist.
 End of Minotr F.D. properties file   788 does not exist.

 **********************************************************************

            Population analysis using the SCF density.

 **********************************************************************

 Orbital symmetries:
       Occupied  (A) (A) (A) (A) (A) (A) (A) (A) (A) (A) (A) (A)
                 (A) (A) (A) (A) (A) (A) (A) (A) (A) (A) (A) (A)
                 (A) (A) (A) (A) (A) (A) (A) (A) (A) (A) (A) (A)
                 (A) (A) (A) (A) (A) (A) (A) (A)
       Virtual   (A) (A) (A) (A) (A) (A) (A) (A) (A) (A) (A) (A)
                 (A) (A) (A) (A) (A) (A) (A) (A) (A) (A) (A) (A)
                 (A) (A) (A) (A) (A) (A) (A) (A) (A) (A) (A) (A)
                 (A) (A) (A) (A) (A) (A) (A) (A) (A) (A) (A) (A)
                 (A) (A) (A) (A) (A) (A) (A) (A) (A) (A) (A) (A)
                 (A) (A) (A) (A) (A) (A) (A) (A) (A) (A) (A) (A)
                 (A) (A) (A) (A) (A) (A) (A) (A) (A) (A) (A) (A)
                 (A) (A) (A) (A) (A) (A) (A) (A) (A) (A) (A) (A)
                 (A) (A) (A) (A) (A) (A) (A) (A) (A) (A) (A) (A)
                 (A) (A) (A) (A) (A) (A) (A) (A) (A) (A) (A) (A)
                 (A) (A) (A) (A) (A) (A) (A) (A) (A) (A) (A) (A)
                 (A) (A) (A) (A) (A) (A) (A) (A) (A) (A) (A) (A)
                 (A) (A) (A) (A) (A) (A) (A) (A) (A) (A) (A) (A)
                 (A) (A) (A) (A) (A) (A) (A) (A) (A) (A) (A) (A)
                 (A) (A) (A) (A) (A) (A) (A) (A) (A) (A) (A) (A)
                 (A) (A) (A) (A) (A) (A) (A) (A) (A) (A) (A) (A)
                 (A) (A) (A) (A) (A) (A) (A) (A) (A) (A) (A) (A)
                 (A) (A) (A) (A) (A) (A) (A) (A) (A) (A) (A) (A)
                 (A) (A) (A) (A) (A) (A) (A) (A)
 The electronic state is 1-A.
 Alpha  occ. eigenvalues --  -19.80859 -19.80532 -19.76607 -19.74811 -10.74117
 Alpha  occ. eigenvalues --  -10.73318 -10.72815 -10.72404 -10.64674 -10.63751
 Alpha  occ. eigenvalues --  -10.63187 -10.62701  -1.24230  -1.23663  -1.22285
 Alpha  occ. eigenvalues --   -1.18374  -0.98906  -0.90128  -0.87193  -0.84813
 Alpha  occ. eigenvalues --   -0.75989  -0.73769  -0.68725  -0.67326  -0.61040
 Alpha  occ. eigenvalues --   -0.60400  -0.59049  -0.56312  -0.53750  -0.52593
 Alpha  occ. eigenvalues --   -0.51574  -0.50717  -0.49582  -0.49196  -0.49117
 Alpha  occ. eigenvalues --   -0.47724  -0.45981  -0.44256  -0.44061  -0.42570
 Alpha  occ. eigenvalues --   -0.36917  -0.33709  -0.28793  -0.27427
 Alpha virt. eigenvalues --   -0.00493   0.01606   0.02414   0.04495   0.04732
 Alpha virt. eigenvalues --    0.06082   0.06504   0.07202   0.07462   0.08050
 Alpha virt. eigenvalues --    0.08838   0.09167   0.10841   0.10986   0.11661
 Alpha virt. eigenvalues --    0.12874   0.13266   0.13442   0.15000   0.16115
 Alpha virt. eigenvalues --    0.16279   0.16907   0.17577   0.18676   0.18791
 Alpha virt. eigenvalues --    0.19528   0.20128   0.20157   0.21195   0.22092
 Alpha virt. eigenvalues --    0.23183   0.23413   0.24101   0.24663   0.24900
 Alpha virt. eigenvalues --    0.25411   0.26780   0.28287   0.28566   0.28590
 Alpha virt. eigenvalues --    0.29074   0.30512   0.30599   0.30985   0.31741
 Alpha virt. eigenvalues --    0.32640   0.32843   0.33567   0.34148   0.34837
 Alpha virt. eigenvalues --    0.35356   0.36853   0.37067   0.37210   0.38086
 Alpha virt. eigenvalues --    0.38244   0.39092   0.39385   0.40804   0.42768
 Alpha virt. eigenvalues --    0.43915   0.44436   0.46162   0.47310   0.49675
 Alpha virt. eigenvalues --    0.51822   0.53670   0.54211   0.56881   0.57589
 Alpha virt. eigenvalues --    0.68429   0.72064   0.72924   0.74510   0.77904
 Alpha virt. eigenvalues --    0.79483   0.79494   0.80770   0.81859   0.82722
 Alpha virt. eigenvalues --    0.82912   0.83831   0.85402   0.86597   0.90135
 Alpha virt. eigenvalues --    0.92067   0.95709   0.96157   0.97833   1.00445
 Alpha virt. eigenvalues --    1.01935   1.03249   1.08204   1.08973   1.13409
 Alpha virt. eigenvalues --    1.14513   1.15963   1.16630   1.19345   1.19805
 Alpha virt. eigenvalues --    1.22640   1.25877   1.26634   1.28128   1.29643
 Alpha virt. eigenvalues --    1.29744   1.30661   1.31777   1.33488   1.33493
 Alpha virt. eigenvalues --    1.33999   1.35915   1.37514   1.37893   1.39271
 Alpha virt. eigenvalues --    1.39491   1.42910   1.44935   1.45835   1.46500
 Alpha virt. eigenvalues --    1.47939   1.48571   1.49124   1.49901   1.50970
 Alpha virt. eigenvalues --    1.51906   1.55422   1.57267   1.59542   1.68292
 Alpha virt. eigenvalues --    1.68928   1.69442   1.71554   1.73472   1.79572
 Alpha virt. eigenvalues --    1.82686   1.82979   1.85158   1.87654   1.91161
 Alpha virt. eigenvalues --    1.94314   1.95647   1.97864   1.98599   2.00712
 Alpha virt. eigenvalues --    2.02120   2.02395   2.02673   2.03439   2.06237
 Alpha virt. eigenvalues --    2.09193   2.10900   2.13745   2.15038   2.15616
 Alpha virt. eigenvalues --    2.16107   2.18383   2.20822   2.26824   2.30139
 Alpha virt. eigenvalues --    2.33416   2.34290   2.34880   2.39465   2.44834
 Alpha virt. eigenvalues --    2.45709   2.47373   2.50605   2.52060   2.54792
 Alpha virt. eigenvalues --    2.55485   2.57355   2.58528   2.63133   2.63322
 Alpha virt. eigenvalues --    2.63967   2.66630   2.67312   2.68423   2.69438
 Alpha virt. eigenvalues --    2.71746   2.77323   2.78526   2.79735   2.84090
 Alpha virt. eigenvalues --    2.85151   2.85852   2.87454   2.87532   2.89316
 Alpha virt. eigenvalues --    2.92660   2.97286   3.00297   3.02385   3.07056
 Alpha virt. eigenvalues --    3.12972   3.16806   3.21661   3.24525   3.29442
 Alpha virt. eigenvalues --    3.34338   3.36017   3.39949   3.46344   3.56816
 Alpha virt. eigenvalues --    3.58655   3.58796   3.63573   3.66149   3.68704
 Alpha virt. eigenvalues --    3.82587   3.93213   4.40352   4.41698   4.43701
 Alpha virt. eigenvalues --    4.51639   4.56787   4.62609   4.63613   4.68909
 Alpha virt. eigenvalues --    4.84647   4.93092   4.98321   5.08589
          Condensed to atoms (all electrons):
               1          2          3          4          5          6
     1  C   12.612890  -1.834433   0.747935  -3.216087  -0.931942  -3.678828
     2  C   -1.834433   6.779146  -0.615588   1.770594  -1.431732   2.368062
     3  C    0.747935  -0.615588  12.659246  -4.174751  -1.054982  -2.191932
     4  C   -3.216087   1.770594  -4.174751  14.398408  -1.770128   2.022503
     5  C   -0.931942  -1.431732  -1.054982  -1.770128  14.248629  -3.636642
     6  C   -3.678828   2.368062  -2.191932   2.022503  -3.636642  14.280786
     7  O    0.224482   0.004087   0.004889   0.008512  -0.425747   0.204102
     8  C    1.498835  -0.614601   0.189045  -1.942398  -1.300866  -0.890806
     9  C   -0.273784   0.004359  -0.395618  -0.274760   0.119606  -0.381026
    10  O    0.017158  -0.005843  -0.052894  -0.236509  -0.105498  -0.043278
    11  O    0.044447  -0.025604  -0.403886   0.265850   0.264929   0.001447
    12  O   -0.245967   0.162610   0.019540   0.020911  -0.014765   0.060708
    13  H    0.190235   0.134486   0.040143  -0.025360   0.006141  -0.012901
    14  H   -0.024569  -0.026145   0.147643   0.202992   0.030333   0.000696
    15  H   -0.164997  -0.002950   0.000429   0.005744   0.173886  -0.016544
    16  H    0.006032   0.000129  -0.000362  -0.008199   0.005678   0.024022
    17  H   -0.001353   0.000194  -0.003368  -0.020223   0.043507   0.009257
    18  H    0.006021   0.000129  -0.000362  -0.008160   0.005751   0.023967
    19  H    0.004461  -0.000477   0.189828   0.068609  -0.222622  -0.059885
    20  H    0.116438  -0.015558  -0.068851  -0.018481   0.019965  -0.033621
               7          8          9         10         11         12
     1  C    0.224482   1.498835  -0.273784   0.017158   0.044447  -0.245967
     2  C    0.004087  -0.614601   0.004359  -0.005843  -0.025604   0.162610
     3  C    0.004889   0.189045  -0.395618  -0.052894  -0.403886   0.019540
     4  C    0.008512  -1.942398  -0.274760  -0.236509   0.265850   0.020911
     5  C   -0.425747  -1.300866   0.119606  -0.105498   0.264929  -0.014765
     6  C    0.204102  -0.890806  -0.381026  -0.043278   0.001447   0.060708
     7  O    8.434712   0.005392  -0.093706   0.001041  -0.000534  -0.000614
     8  C    0.005392   9.501692  -1.230249   0.605311  -0.136589  -0.002372
     9  C   -0.093706  -1.230249   7.695449  -0.019648  -0.051532  -0.000604
    10  O    0.001041   0.605311  -0.019648   8.316758   0.011148  -0.000020
    11  O   -0.000534  -0.136589  -0.051532   0.011148   8.461274  -0.000496
    12  O   -0.000614  -0.002372  -0.000604  -0.000020  -0.000496   8.341250
    13  H   -0.014411   0.008565   0.000622   0.000018   0.000057  -0.007020
    14  H    0.000046   0.008856   0.000459   0.000105  -0.007274  -0.010403
    15  H    0.217864  -0.002255   0.012097  -0.000025   0.000018  -0.000066
    16  H   -0.006303  -0.061379   0.396537   0.003765   0.000112   0.000001
    17  H    0.001762  -0.106459   0.451699  -0.009550   0.000097  -0.000000
    18  H   -0.006301  -0.061408   0.396515   0.003770   0.000112   0.000001
    19  H    0.000019   0.012819   0.007757   0.065033   0.182548   0.000019
    20  H    0.000032   0.002109  -0.000011   0.000001   0.000015   0.226284
              13         14         15         16         17         18
     1  C    0.190235  -0.024569  -0.164997   0.006032  -0.001353   0.006021
     2  C    0.134486  -0.026145  -0.002950   0.000129   0.000194   0.000129
     3  C    0.040143   0.147643   0.000429  -0.000362  -0.003368  -0.000362
     4  C   -0.025360   0.202992   0.005744  -0.008199  -0.020223  -0.008160
     5  C    0.006141   0.030333   0.173886   0.005678   0.043507   0.005751
     6  C   -0.012901   0.000696  -0.016544   0.024022   0.009257   0.023967
     7  O   -0.014411   0.000046   0.217864  -0.006303   0.001762  -0.006301
     8  C    0.008565   0.008856  -0.002255  -0.061379  -0.106459  -0.061408
     9  C    0.000622   0.000459   0.012097   0.396537   0.451699   0.396515
    10  O    0.000018   0.000105  -0.000025   0.003765  -0.009550   0.003770
    11  O    0.000057  -0.007274   0.000018   0.000112   0.000097   0.000112
    12  O   -0.007020  -0.010403  -0.000066   0.000001  -0.000000   0.000001
    13  H    0.533553  -0.000109   0.007220  -0.000001  -0.000000  -0.000001
    14  H   -0.000109   0.527744  -0.000001   0.000000  -0.000000   0.000000
    15  H    0.007220  -0.000001   0.378273   0.000172  -0.000015   0.000172
    16  H   -0.000001   0.000000   0.000172   0.513562  -0.023255  -0.023193
    17  H   -0.000000  -0.000000  -0.000015  -0.023255   0.507284  -0.023255
    18  H   -0.000001   0.000000   0.000172  -0.023193  -0.023255   0.513568
    19  H    0.000000   0.000006   0.000000  -0.000050   0.000003  -0.000050
    20  H   -0.000044   0.004886   0.000000   0.000000  -0.000000   0.000000
              19         20
     1  C    0.004461   0.116438
     2  C   -0.000477  -0.015558
     3  C    0.189828  -0.068851
     4  C    0.068609  -0.018481
     5  C   -0.222622   0.019965
     6  C   -0.059885  -0.033621
     7  O    0.000019   0.000032
     8  C    0.012819   0.002109
     9  C    0.007757  -0.000011
    10  O    0.065033   0.000001
    11  O    0.182548   0.000015
    12  O    0.000019   0.226284
    13  H    0.000000  -0.000044
    14  H    0.000006   0.004886
    15  H    0.000000   0.000000
    16  H   -0.000050   0.000000
    17  H    0.000003  -0.000000
    18  H   -0.000050   0.000000
    19  H    0.278311   0.000000
    20  H    0.000000   0.394862
 Mulliken charges:
               1
     1  C    0.903028
     2  C   -0.650865
     3  C    0.963896
     4  C   -1.069067
     5  C    1.976500
     6  C   -2.050085
     7  O   -0.559324
     8  C    0.516759
     9  C   -0.364164
    10  O   -0.550841
    11  O   -0.606140
    12  O   -0.548996
    13  H    0.138807
    14  H    0.144736
    15  H    0.390978
    16  H    0.172730
    17  H    0.173677
    18  H    0.172725
    19  H    0.473673
    20  H    0.371974
 Sum of Mulliken charges =  -0.00000
 Mulliken charges with hydrogens summed into heavy atoms:
               1
     1  C    1.041836
     2  C   -0.650865
     3  C    1.108632
     4  C   -1.069067
     5  C    1.976500
     6  C   -2.050085
     7  O   -0.168347
     8  C    0.516759
     9  C    0.154968
    10  O   -0.550841
    11  O   -0.132467
    12  O   -0.177021
 Electronic spatial extent (au):  <R**2>=           2068.9894
 Charge=             -0.0000 electrons
 Dipole moment (field-independent basis, Debye):
    X=             -2.3057    Y=              3.2947    Z=              0.0000  Tot=              4.0214
 Quadrupole moment (field-independent basis, Debye-Ang):
   XX=            -67.5046   YY=            -66.6561   ZZ=            -72.1179
   XY=              9.3109   XZ=             -0.0003   YZ=              0.0006
 Traceless Quadrupole moment (field-independent basis, Debye-Ang):
   XX=              1.2549   YY=              2.1034   ZZ=             -3.3584
   XY=              9.3109   XZ=             -0.0003   YZ=              0.0006
 Octapole moment (field-independent basis, Debye-Ang**2):
  XXX=            -30.4770  YYY=             45.2175  ZZZ=              0.0001  XYY=            -19.8963
  XXY=            -15.5878  XXZ=             -0.0010  XZZ=              5.1682  YZZ=             -0.2137
  YYZ=              0.0022  XYZ=              0.0006
 Hexadecapole moment (field-independent basis, Debye-Ang**3):
 XXXX=          -1617.5718 YYYY=           -764.4257 ZZZZ=            -82.6932 XXXY=            168.6364
 XXXZ=              0.0099 YYYX=            -29.5228 YYYZ=             -0.0076 ZZZX=              0.0081
 ZZZY=             -0.0142 XXYY=           -405.9996 XXZZ=           -305.5265 YYZZ=           -160.2522
 XXYZ=             -0.0041 YYXZ=             -0.0001 ZZXY=              0.3158
 N-N= 6.985775719097D+02 E-N=-2.822883832351D+03  KE= 6.054328649693D+02
 Calling FoFJK, ICntrl=  10002127 FMM=F ISym2X=0 I1Cent= 0 IOpClX= 0 NMat=1 NMatS=1 NMatT=0.
 ***** Axes restored to original set *****
 -------------------------------------------------------------------
 Center     Atomic                   Forces (Hartrees/Bohr)
 Number     Number              X              Y              Z
 -------------------------------------------------------------------
      1        6          -0.001684509    0.002058496    0.000000575
      2        6           0.005387151   -0.000835245   -0.000000175
      3        6          -0.001613186   -0.002183673   -0.000000028
      4        6          -0.001635663    0.006558502    0.000000073
      5        6          -0.001509281   -0.000187929   -0.000003789
      6        6          -0.002546090   -0.004562621   -0.000001378
      7        8           0.004380174    0.004344517   -0.000000102
      8        6          -0.002097091    0.005984410    0.000016007
      9        6           0.001747292    0.003622332   -0.000003193
     10        8           0.004611574   -0.005974719   -0.000008407
     11        8           0.004296254   -0.006147921   -0.000003059
     12        8          -0.005488723    0.001466581    0.000000181
     13        1           0.000888913   -0.001391766    0.000000084
     14        1           0.000734030    0.001428407    0.000000006
     15        1          -0.000479898    0.000895201   -0.000000110
     16        1           0.000016850   -0.001279696   -0.001372057
     17        1          -0.001685557    0.000323801   -0.000000333
     18        1           0.000017568   -0.001277429    0.001370978
     19        1          -0.002734961   -0.001990933    0.000004739
     20        1          -0.000604848   -0.000850315   -0.000000011
 -------------------------------------------------------------------
 Cartesian Forces:  Max     0.006558502 RMS     0.002543810

 GradGradGradGradGradGradGradGradGradGradGradGradGradGradGradGradGradGrad
 Berny optimization.
 FormGI is forming the generalized inverse of G from B-inverse, IUseBI=4.
 Internal  Forces:  Max     0.008018947 RMS     0.002030728
 Search for a local minimum.
 Step number   1 out of a maximum of  100
 All quantities printed in internal units (Hartrees-Bohrs-Radians)
 Mixed Optimization -- RFO/linear search
 Second derivative matrix not updated -- first step.
 ITU=  0
     Eigenvalues ---    0.00703   0.00934   0.01264   0.01596   0.01779
     Eigenvalues ---    0.01985   0.02064   0.02104   0.02150   0.02184
     Eigenvalues ---    0.02185   0.02213   0.02224   0.02286   0.02650
     Eigenvalues ---    0.07307   0.07496   0.16000   0.16000   0.16000
     Eigenvalues ---    0.16000   0.16000   0.16000   0.16000   0.16000
     Eigenvalues ---    0.23478   0.23498   0.25000   0.25000   0.25000
     Eigenvalues ---    0.25000   0.25000   0.25000   0.25000   0.31884
     Eigenvalues ---    0.34421   0.34421   0.34728   0.35284   0.35312
     Eigenvalues ---    0.36667   0.38825   0.40618   0.43684   0.44924
     Eigenvalues ---    0.45840   0.46758   0.47509   0.52998   0.53956
     Eigenvalues ---    0.54425   0.54464   0.60080   0.83395
 RFO step:  Lambda=-9.65623203D-04 EMin= 7.03109463D-03
 Linear search not attempted -- first point.
 Iteration  1 RMS(Cart)=  0.03191022 RMS(Int)=  0.00028364
 Iteration  2 RMS(Cart)=  0.00043264 RMS(Int)=  0.00000088
 Iteration  3 RMS(Cart)=  0.00000007 RMS(Int)=  0.00000088
 Variable       Old X    -DE/DX   Delta X   Delta X   Delta X     New X
                                 (Linear)    (Quad)   (Total)
    R1        2.64633   0.00034   0.00000   0.00061   0.00061   2.64694
    R2        2.61977   0.00077   0.00000   0.00154   0.00154   2.62131
    R3        2.05215  -0.00165   0.00000  -0.00466  -0.00466   2.04750
    R4        2.62340   0.00052   0.00000   0.00102   0.00102   2.62443
    R5        2.56072   0.00612   0.00000   0.01133   0.01133   2.57205
    R6        2.64215   0.00160   0.00000   0.00354   0.00354   2.64569
    R7        2.05172  -0.00160   0.00000  -0.00453  -0.00453   2.04719
    R8        2.71112   0.00272   0.00000   0.00687   0.00687   2.71799
    R9        2.50877   0.00802   0.00000   0.01333   0.01333   2.52210
   R10        2.68617   0.00051   0.00000   0.00126   0.00126   2.68743
   R11        2.76351   0.00248   0.00000   0.00673   0.00673   2.77024
   R12        2.56955   0.00651   0.00000   0.01226   0.01226   2.58181
   R13        1.82312   0.00100   0.00000   0.00183   0.00183   1.82495
   R14        2.84357   0.00115   0.00000   0.00359   0.00359   2.84716
   R15        2.36135   0.00735   0.00000   0.00881   0.00881   2.37016
   R16        2.06625  -0.00184   0.00000  -0.00534  -0.00534   2.06092
   R17        2.06120  -0.00169   0.00000  -0.00486  -0.00486   2.05634
   R18        2.06625  -0.00184   0.00000  -0.00533  -0.00533   2.06092
   R19        1.91013  -0.00304   0.00000  -0.00661  -0.00661   1.90351
   R20        1.82347   0.00102   0.00000   0.00188   0.00188   1.82535
    A1        2.08421  -0.00019   0.00000  -0.00133  -0.00133   2.08287
    A2        2.08094   0.00019   0.00000   0.00127   0.00127   2.08221
    A3        2.11804  -0.00000   0.00000   0.00006   0.00006   2.11811
    A4        2.11502  -0.00001   0.00000  -0.00043  -0.00043   2.11459
    A5        2.03123  -0.00027   0.00000  -0.00088  -0.00087   2.03035
    A6        2.13694   0.00028   0.00000   0.00130   0.00130   2.13824
    A7        2.08337   0.00073   0.00000   0.00328   0.00328   2.08665
    A8        2.13142  -0.00046   0.00000  -0.00224  -0.00224   2.12918
    A9        2.06840  -0.00027   0.00000  -0.00104  -0.00104   2.06736
   A10        2.12054  -0.00096   0.00000  -0.00348  -0.00348   2.11706
   A11        2.05042  -0.00357   0.00000  -0.01439  -0.01439   2.03604
   A12        2.11222   0.00453   0.00000   0.01787   0.01787   2.13009
   A13        2.03296  -0.00043   0.00000  -0.00141  -0.00141   2.03155
   A14        2.06572   0.00568   0.00000   0.02247   0.02247   2.08819
   A15        2.18451  -0.00525   0.00000  -0.02106  -0.02106   2.16345
   A16        2.13027   0.00086   0.00000   0.00337   0.00337   2.13364
   A17        2.08985   0.00046   0.00000   0.00187   0.00187   2.09172
   A18        2.06306  -0.00132   0.00000  -0.00524  -0.00524   2.05782
   A19        1.90372   0.00035   0.00000   0.00219   0.00219   1.90591
   A20        2.14700  -0.00295   0.00000  -0.01175  -0.01175   2.13525
   A21        2.08953   0.00349   0.00000   0.01392   0.01392   2.10344
   A22        2.04666  -0.00054   0.00000  -0.00216  -0.00216   2.04450
   A23        1.93803  -0.00039   0.00000  -0.00248  -0.00248   1.93555
   A24        1.88162  -0.00024   0.00000  -0.00137  -0.00137   1.88025
   A25        1.93802  -0.00039   0.00000  -0.00246  -0.00246   1.93556
   A26        1.92400   0.00033   0.00000   0.00217   0.00217   1.92618
   A27        1.85874   0.00036   0.00000   0.00205   0.00205   1.86079
   A28        1.92400   0.00033   0.00000   0.00217   0.00217   1.92617
   A29        1.84204   0.00285   0.00000   0.01768   0.01768   1.85971
   A30        1.91627   0.00035   0.00000   0.00217   0.00217   1.91844
    D1       -0.00000   0.00000   0.00000   0.00002   0.00002   0.00001
    D2        3.14159   0.00000   0.00000   0.00001   0.00001  -3.14159
    D3        3.14159   0.00000   0.00000   0.00000   0.00000   3.14159
    D4       -0.00000  -0.00000   0.00000  -0.00001  -0.00001  -0.00001
    D5        0.00001  -0.00000   0.00000  -0.00002  -0.00002  -0.00001
    D6       -3.14159  -0.00000   0.00000  -0.00004  -0.00004   3.14156
    D7       -3.14159   0.00000   0.00000   0.00000   0.00000  -3.14159
    D8        0.00000  -0.00000   0.00000  -0.00002  -0.00002  -0.00002
    D9       -0.00000   0.00000   0.00000   0.00001   0.00001   0.00000
   D10       -3.14159  -0.00000   0.00000  -0.00003  -0.00003   3.14157
   D11        3.14159   0.00000   0.00000   0.00001   0.00001  -3.14158
   D12        0.00000  -0.00000   0.00000  -0.00002  -0.00002  -0.00002
   D13        3.14159   0.00000   0.00000   0.00000   0.00000  -3.14159
   D14       -0.00000  -0.00000   0.00000  -0.00000  -0.00000  -0.00001
   D15        0.00001  -0.00000   0.00000  -0.00003  -0.00003  -0.00003
   D16       -3.14159  -0.00000   0.00000  -0.00008  -0.00008   3.14152
   D17       -3.14159  -0.00000   0.00000  -0.00000  -0.00000   3.14159
   D18        0.00000  -0.00000   0.00000  -0.00005  -0.00005  -0.00004
   D19       -0.00001   0.00000   0.00000   0.00003   0.00003   0.00003
   D20        3.14158   0.00000   0.00000   0.00009   0.00009  -3.14152
   D21        3.14159   0.00000   0.00000   0.00008   0.00008  -3.14152
   D22       -0.00002   0.00000   0.00000   0.00013   0.00013   0.00012
   D23        3.14157   0.00000   0.00000   0.00018   0.00018  -3.14144
   D24       -0.00002   0.00000   0.00000   0.00014   0.00014   0.00012
   D25       -0.00000  -0.00000   0.00000  -0.00001  -0.00001  -0.00001
   D26       -3.14159   0.00000   0.00000   0.00001   0.00001  -3.14158
   D27       -3.14158  -0.00000   0.00000  -0.00007  -0.00006   3.14154
   D28        0.00001  -0.00000   0.00000  -0.00005  -0.00005  -0.00003
   D29       -3.14155  -0.00000   0.00000  -0.00012  -0.00012   3.14151
   D30       -0.00009   0.00000   0.00000   0.00041   0.00042   0.00033
   D31        0.00003   0.00000   0.00000  -0.00007  -0.00007  -0.00004
   D32        3.14149   0.00001   0.00000   0.00047   0.00047  -3.14122
   D33        0.00003   0.00000   0.00000   0.00000   0.00000   0.00003
   D34       -3.14157  -0.00000   0.00000  -0.00002  -0.00002  -3.14158
   D35        1.03223  -0.00002   0.00000  -0.00002  -0.00002   1.03221
   D36        3.14153   0.00000   0.00000   0.00028   0.00028  -3.14138
   D37       -1.03236   0.00003   0.00000   0.00059   0.00059  -1.03178
   D38       -2.10924  -0.00003   0.00000  -0.00055  -0.00055  -2.10978
   D39        0.00006  -0.00000   0.00000  -0.00025  -0.00025  -0.00019
   D40        2.10935   0.00002   0.00000   0.00006   0.00006   2.10941
         Item               Value     Threshold  Converged?
 Maximum Force            0.008019     0.000450     NO 
 RMS     Force            0.002031     0.000300     NO 
 Maximum Displacement     0.149699     0.001800     NO 
 RMS     Displacement     0.032063     0.001200     NO 
 Predicted change in Energy=-4.842983D-04
 GradGradGradGradGradGradGradGradGradGradGradGradGradGradGradGradGradGrad

                          Input orientation:                          
 ---------------------------------------------------------------------
 Center     Atomic      Atomic             Coordinates (Angstroms)
 Number     Number       Type             X           Y           Z
 ---------------------------------------------------------------------
      1          6           0       -1.515920    1.244922    0.000069
      2          6           0       -2.255727    0.055533   -0.000021
      3          6           0       -1.626076   -1.182315   -0.000058
      4          6           0       -0.227473   -1.245712    0.000000
      5          6           0        0.574606   -0.051826    0.000066
      6          6           0       -0.130145    1.183397    0.000104
      7          8           0        0.601695    2.337091    0.000154
      8          6           0        2.036524   -0.160459    0.000034
      9          6           0        2.934626    1.049258   -0.000010
     10          8           0        2.591622   -1.285166   -0.000404
     11          8           0        0.316669   -2.464385    0.000041
     12          8           0       -3.610413    0.187196   -0.000060
     13          1           0       -2.038168    2.194239    0.000094
     14          1           0       -2.184779   -2.110457   -0.000106
     15          1           0        0.001699    3.093807    0.000185
     16          1           0        2.746949    1.673144    0.874592
     17          1           0        3.964369    0.697501   -0.000246
     18          1           0        2.746617    1.673347   -0.874398
     19          1           0        1.315330   -2.332781    0.000232
     20          1           0       -4.025799   -0.684859   -0.000120
 ---------------------------------------------------------------------
                    Distance matrix (angstroms):
                    1          2          3          4          5
     1  C    0.000000
     2  C    1.400700   0.000000
     3  C    2.429735   1.388787   0.000000
     4  C    2.804167   2.409783   1.400039   0.000000
     5  C    2.460052   2.832368   2.474067   1.438296   0.000000
     6  C    1.387140   2.406278   2.799001   2.431059   1.422129
     7  O    2.382672   3.656551   4.165235   3.677499   2.389070
     8  C    3.820334   4.297682   3.802477   2.510669   1.465948
     9  C    4.454845   5.284624   5.077393   3.907142   2.604242
    10  O    4.824235   5.029340   4.218952   2.819371   2.364208
    11  O    4.137311   3.601001   2.327652   1.334636   2.426309
    12  O    2.346420   1.361069   2.411048   3.673896   4.191840
    13  H    1.083488   2.149743   3.401608   3.887400   3.445489
    14  H    3.421395   2.167152   1.083327   2.139821   3.442698
    15  H    2.391975   3.785113   4.575464   4.345566   3.197378
    16  H    4.372666   5.329950   5.295470   4.258147   2.908503
    17  H    5.507562   6.253136   5.898032   4.620348   3.471596
    18  H    4.372352   5.329663   5.295255   4.258015   2.908357
    19  H    4.562449   4.296102   3.158393   1.887316   2.398214
    20  H    3.165998   1.918680   2.450741   3.839510   4.643755
                    6          7          8          9         10
     6  C    0.000000
     7  O    1.366235   0.000000
     8  C    2.549589   2.880362   0.000000
     9  C    3.067705   2.664785   1.506652   0.000000
    10  O    3.674483   4.132863   1.254233   2.359489   0.000000
    11  O    3.675045   4.809928   2.875061   4.381710   2.562414
    12  O    3.620039   4.729049   5.657629   6.601567   6.374409
    13  H    2.159248   2.643725   4.706136   5.102907   5.791478
    14  H    3.882138   5.248345   4.649935   6.015988   4.847176
    15  H    1.914953   0.965719   3.838067   3.575226   5.087544
    16  H    3.046678   2.409892   2.152128   1.090590   3.088906
    17  H    4.123244   3.741101   2.110138   1.088166   2.411514
    18  H    3.046403   2.409583   2.152140   1.090591   3.088801
    19  H    3.801699   4.724085   2.288909   3.749708   1.651187
    20  H    4.320474   5.526832   6.084961   7.173191   6.644594
                   11         12         13         14         15
    11  O    0.000000
    12  O    4.738445   0.000000
    13  H    5.219965   2.549545   0.000000
    14  H    2.526363   2.704005   4.307192   0.000000
    15  H    5.567109   4.636350   2.229412   5.644914   0.000000
    16  H    4.877524   6.587041   4.892201   6.277155   3.212362
    17  H    4.827342   7.591952   6.186330   6.759930   4.630879
    18  H    4.877511   6.586725   4.891854   6.276960   3.212036
    19  H    1.007295   5.532923   5.633814   3.507163   5.583322
    20  H    4.692946   0.965932   3.498554   2.328451   5.522594
                   16         17         18         19         20
    16  H    0.000000
    17  H    1.788669   0.000000
    18  H    1.748990   1.788669   0.000000
    19  H    4.342980   4.024924   4.343112   0.000000
    20  H    7.224639   8.108865   7.224342   5.589571   0.000000
 Stoichiometry    C8H8O4
 Framework group  C1[X(C8H8O4)]
 Deg. of freedom    54
 Full point group                 C1      NOp   1
 Largest Abelian subgroup         C1      NOp   1
 Largest concise Abelian subgroup C1      NOp   1
                         Standard orientation:                         
 ---------------------------------------------------------------------
 Center     Atomic      Atomic             Coordinates (Angstroms)
 Number     Number       Type             X           Y           Z
 ---------------------------------------------------------------------
      1          6           0       -1.512018    1.258786    0.000078
      2          6           0       -2.260526    0.074854   -0.000012
      3          6           0       -1.639969   -1.167579   -0.000049
      4          6           0       -0.241868   -1.241229    0.000009
      5          6           0        0.568944   -0.053256    0.000075
      6          6           0       -0.126732    1.187102    0.000113
      7          8           0        0.613548    2.335398    0.000163
      8          6           0        2.030026   -0.172605    0.000043
      9          6           0        2.936973    1.030493   -0.000001
     10          8           0        2.576862   -1.301353   -0.000395
     11          8           0        0.293323   -2.463859    0.000051
     12          8           0       -3.614211    0.216446   -0.000051
     13          1           0       -2.027291    2.211907    0.000103
     14          1           0       -2.205462   -2.091599   -0.000097
     15          1           0        0.019117    3.096493    0.000194
     16          1           0        2.753876    1.655738    0.874602
     17          1           0        3.964110    0.671195   -0.000237
     18          1           0        2.753546    1.655944   -0.874389
     19          1           0        1.292922   -2.339582    0.000242
     20          1           0       -4.035979   -0.652539   -0.000111
 ---------------------------------------------------------------------
 Rotational constants (GHZ):      1.5402502      0.7640112      0.5122882
 Standard basis: 6-31+G(d,p) (6D, 7F)
 There are   268 symmetry adapted cartesian basis functions of A   symmetry.
 There are   268 symmetry adapted basis functions of A   symmetry.
   268 basis functions,   440 primitive gaussians,   268 cartesian basis functions
    44 alpha electrons       44 beta electrons
       nuclear repulsion energy       696.7066265047 Hartrees.
 NAtoms=   20 NActive=   20 NUniq=   20 SFac= 1.00D+00 NAtFMM=   60 NAOKFM=F Big=F
 Integral buffers will be    131072 words long.
 Regular integral format.
 Two-electron integral symmetry is turned on.
 Nuclear repulsion after empirical dispersion term =      696.6839775044 Hartrees.
 One-electron integrals computed using PRISM.
 NBasis=   268 RedAO= T EigKep=  1.50D-06  NBF=   268
 NBsUse=   268 1.00D-06 EigRej= -1.00D+00 NBFU=   268
 Initial guess from the checkpoint file:  "B2PLYPD3BJTHAP.chk"
 B after Tr=    -0.000000   -0.000000   -0.000000
         Rot=    0.999992   -0.000006   -0.000002    0.004059 Ang=  -0.47 deg.
 ExpMin= 4.38D-02 ExpMax= 5.48D+03 ExpMxC= 8.25D+02 IAcc=2 IRadAn=         4 AccDes= 0.00D+00
 Harris functional with IExCor=  419 and IRadAn=       4 diagonalized for initial guess.
 HarFok:  IExCor=  419 AccDes= 0.00D+00 IRadAn=         4 IDoV= 1 UseB2=F ITyADJ=14
 ICtDFT=  3500011 ScaDFX=  1.000000  1.000000  1.000000  1.000000
 FoFCou: FMM=F IPFlag=           0 FMFlag=      100000 FMFlg1=           0
         NFxFlg=           0 DoJE=T BraDBF=F KetDBF=T FulRan=T
         wScrn=  0.000000 ICntrl=     500 IOpCl=  0 I1Cent=   200000004 NGrid=           0
         NMat0=    1 NMatS0=      1 NMatT0=    0 NMatD0=    1 NMtDS0=    0 NMtDT0=    0
 Petite list used in FoFCou.
 Keep R1 ints in memory in canonical form, NReq=659648347.
 Requested convergence on RMS density matrix=1.00D-08 within 128 cycles.
 Requested convergence on MAX density matrix=1.00D-06.
 Requested convergence on             energy=1.00D-06.
 No special actions if energy rises.
 SCF Done:  E(RB2PLYP) =  -609.455389319     A.U. after   13 cycles
            NFock= 13  Conv=0.82D-08     -V/T= 2.0068
 DoSCS=T DFT=T ScalE2(SS,OS)=  0.270000  0.270000
 ExpMin= 4.38D-02 ExpMax= 5.48D+03 ExpMxC= 8.25D+02 IAcc=3 IRadAn=         5 AccDes= 0.00D+00
 HarFok:  IExCor=  205 AccDes= 0.00D+00 IRadAn=         5 IDoV=-2 UseB2=F ITyADJ=14
 ICtDFT= 12500011 ScaDFX=  1.000000  1.000000  1.000000  1.000000
 Range of M.O.s used for correlation:    13   268
 NBasis=   268 NAE=    44 NBE=    44 NFC=    12 NFV=     0
 NROrb=    256 NOA=    32 NOB=    32 NVA=   224 NVB=   224

 **** Warning!!: The largest alpha MO coefficient is  0.14490939D+03

 DoSCS=T DFT=T ScalE2(SS,OS)=  0.270000  0.270000
 Fully direct method using O(ONN) memory.
 JobTyp=1 Pass  1:  I=  13 to  16 NPSUse= 18 ParTrn=T ParDer=T DoDerP=T.
 JobTyp=1 Pass  2:  I=  17 to  20 NPSUse= 18 ParTrn=T ParDer=T DoDerP=T.
 JobTyp=1 Pass  3:  I=  21 to  24 NPSUse= 18 ParTrn=T ParDer=T DoDerP=T.
 JobTyp=1 Pass  4:  I=  25 to  28 NPSUse= 18 ParTrn=T ParDer=T DoDerP=T.
 JobTyp=1 Pass  5:  I=  29 to  32 NPSUse= 18 ParTrn=T ParDer=T DoDerP=T.
 JobTyp=1 Pass  6:  I=  33 to  36 NPSUse= 18 ParTrn=T ParDer=T DoDerP=T.
 JobTyp=1 Pass  7:  I=  37 to  40 NPSUse= 18 ParTrn=T ParDer=T DoDerP=T.
 JobTyp=1 Pass  8:  I=  41 to  44 NPSUse= 18 ParTrn=T ParDer=T DoDerP=T.
 Spin components of T(2) and E(2):
     alpha-alpha T2 =       0.1292974680D+00 E2=     -0.8185199138D-01
     alpha-beta  T2 =       0.6590603658D+00 E2=     -0.4343495099D+00
     beta-beta   T2 =       0.1292974680D+00 E2=     -0.8185199138D-01
 E2(B2PLYP) =    -0.5980534927D+00 E(B2PLYP) =    -0.61005344281183D+03
          IDoAtm=11111111111111111111
          Differentiating once with respect to electric field.
                with respect to dipole field.
          Differentiating once with respect to nuclear coordinates.
 Keep R1 ints in memory in canonical form, NReq=659410000.
          There are     1 degrees of freedom in the 1st order CPHF.  IDoFFX=0 NUNeed=     1.
 LinEq1:  Iter=  0 NonCon=     1 RMS=1.97D-03 Max=6.56D-02 NDo=     1
 AX will form     1 AO Fock derivatives at one time.
 LinEq1:  Iter=  1 NonCon=     1 RMS=9.62D-04 Max=2.22D-02 NDo=     1
 LinEq1:  Iter=  2 NonCon=     1 RMS=3.43D-04 Max=1.01D-02 NDo=     1
 LinEq1:  Iter=  3 NonCon=     1 RMS=2.49D-04 Max=6.45D-03 NDo=     1
 LinEq1:  Iter=  4 NonCon=     1 RMS=1.09D-04 Max=4.21D-03 NDo=     1
 LinEq1:  Iter=  5 NonCon=     1 RMS=4.98D-05 Max=2.07D-03 NDo=     1
 LinEq1:  Iter=  6 NonCon=     1 RMS=1.87D-05 Max=6.72D-04 NDo=     1
 LinEq1:  Iter=  7 NonCon=     1 RMS=6.98D-06 Max=3.01D-04 NDo=     1
 LinEq1:  Iter=  8 NonCon=     1 RMS=3.53D-06 Max=9.33D-05 NDo=     1
 LinEq1:  Iter=  9 NonCon=     1 RMS=1.54D-06 Max=5.22D-05 NDo=     1
 LinEq1:  Iter= 10 NonCon=     1 RMS=5.08D-07 Max=1.07D-05 NDo=     1
 LinEq1:  Iter= 11 NonCon=     1 RMS=1.88D-07 Max=4.55D-06 NDo=     1
 LinEq1:  Iter= 12 NonCon=     1 RMS=9.95D-08 Max=2.28D-06 NDo=     1
 LinEq1:  Iter= 13 NonCon=     1 RMS=2.83D-08 Max=6.29D-07 NDo=     1
 LinEq1:  Iter= 14 NonCon=     1 RMS=1.33D-08 Max=2.82D-07 NDo=     1
 LinEq1:  Iter= 15 NonCon=     1 RMS=5.43D-09 Max=1.85D-07 NDo=     1
 LinEq1:  Iter= 16 NonCon=     1 RMS=2.53D-09 Max=6.24D-08 NDo=     1
 LinEq1:  Iter= 17 NonCon=     1 RMS=8.64D-10 Max=2.32D-08 NDo=     1
 LinEq1:  Iter= 18 NonCon=     1 RMS=3.23D-10 Max=1.17D-08 NDo=     1
 LinEq1:  Iter= 19 NonCon=     1 RMS=1.38D-10 Max=4.39D-09 NDo=     1
 LinEq1:  Iter= 20 NonCon=     1 RMS=4.90D-11 Max=1.25D-09 NDo=     1
 LinEq1:  Iter= 21 NonCon=     0 RMS=1.73D-11 Max=3.07D-10 NDo=     1
 Linear equations converged to 1.000D-10 1.000D-09 after    21 iterations.
 End of Minotr F.D. properties file   721 does not exist.
 End of Minotr F.D. properties file   722 does not exist.
 End of Minotr F.D. properties file   788 does not exist.
 Calling FoFJK, ICntrl=  10002127 FMM=F ISym2X=0 I1Cent= 0 IOpClX= 0 NMat=1 NMatS=1 NMatT=0.
 ***** Axes restored to original set *****
 -------------------------------------------------------------------
 Center     Atomic                   Forces (Hartrees/Bohr)
 Number     Number              X              Y              Z
 -------------------------------------------------------------------
      1        6          -0.000953295    0.000181129   -0.000001258
      2        6           0.002172850    0.000462730   -0.000000209
      3        6           0.000846164   -0.000912824   -0.000000734
      4        6          -0.000636515    0.008237880    0.000004359
      5        6          -0.002491459   -0.002735889    0.000011552
      6        6          -0.000933940   -0.002141737    0.000001912
      7        8          -0.001081764    0.002047345    0.000002412
      8        6           0.003014441   -0.002941821   -0.000053121
      9        6           0.001443443    0.000789605    0.000011966
     10        8          -0.006265740   -0.001040108    0.000031804
     11        8           0.013208574   -0.001385125    0.000010952
     12        8          -0.001353899    0.000379389   -0.000000033
     13        1           0.000017651   -0.000007302   -0.000000321
     14        1           0.000008982   -0.000065114    0.000000266
     15        1          -0.000524664   -0.000204675   -0.000000102
     16        1           0.000345655   -0.000245708   -0.000186826
     17        1          -0.000075542   -0.000464461    0.000001110
     18        1           0.000343870   -0.000252128    0.000187929
     19        1          -0.007316691    0.000416601   -0.000021625
     20        1           0.000231879   -0.000117784   -0.000000032
 -------------------------------------------------------------------
 Cartesian Forces:  Max     0.013208574 RMS     0.002562922

 GradGradGradGradGradGradGradGradGradGradGradGradGradGradGradGradGradGrad
 Berny optimization.
 Using GEDIIS/GDIIS optimizer.
 FormGI is forming the generalized inverse of G from B-inverse, IUseBI=4.
 Internal  Forces:  Max     0.016897841 RMS     0.003530172
 Search for a local minimum.
 Step number   2 out of a maximum of  100
 All quantities printed in internal units (Hartrees-Bohrs-Radians)
 Mixed Optimization -- RFO/linear search
 Update second derivatives using D2CorX and points    2    1
 DE=  2.27D-04 DEPred=-4.84D-04 R=-4.68D-01
 Trust test=-4.68D-01 RLast= 5.54D-02 DXMaxT set to 1.50D-01
 ITU= -1  0
 Use linear search instead of GDIIS.
     Eigenvalues ---    0.00703   0.00936   0.01264   0.01594   0.01780
     Eigenvalues ---    0.01982   0.02064   0.02104   0.02150   0.02184
     Eigenvalues ---    0.02185   0.02213   0.02224   0.02286   0.02650
     Eigenvalues ---    0.07336   0.07517   0.15418   0.16000   0.16000
     Eigenvalues ---    0.16000   0.16000   0.16000   0.16000   0.16034
     Eigenvalues ---    0.23473   0.23515   0.24083   0.25000   0.25000
     Eigenvalues ---    0.25000   0.25000   0.25000   0.30475   0.32533
     Eigenvalues ---    0.34421   0.34633   0.35053   0.35299   0.36310
     Eigenvalues ---    0.37027   0.40103   0.41269   0.43690   0.44821
     Eigenvalues ---    0.46704   0.47252   0.48415   0.53505   0.54414
     Eigenvalues ---    0.54456   0.57866   0.78833   1.04057
 RFO step:  Lambda=-3.90258841D-04 EMin= 7.03109505D-03
 Quartic linear search produced a step of -0.60821.
 Iteration  1 RMS(Cart)=  0.02488846 RMS(Int)=  0.00015597
 Iteration  2 RMS(Cart)=  0.00025587 RMS(Int)=  0.00000121
 Iteration  3 RMS(Cart)=  0.00000001 RMS(Int)=  0.00000121
 Variable       Old X    -DE/DX   Delta X   Delta X   Delta X     New X
                                 (Linear)    (Quad)   (Total)
    R1        2.64694  -0.00005  -0.00037   0.00077   0.00040   2.64734
    R2        2.62131   0.00085  -0.00094   0.00235   0.00141   2.62273
    R3        2.04750  -0.00001   0.00283  -0.00452  -0.00169   2.04580
    R4        2.62443   0.00021  -0.00062   0.00125   0.00063   2.62506
    R5        2.57205   0.00114  -0.00689   0.01204   0.00515   2.57720
    R6        2.64569  -0.00182  -0.00215   0.00178  -0.00037   2.64532
    R7        2.04719   0.00005   0.00275  -0.00433  -0.00157   2.04562
    R8        2.71799  -0.00977  -0.00418  -0.00303  -0.00721   2.71078
    R9        2.52210   0.00329  -0.00810   0.01538   0.00728   2.52937
   R10        2.68743   0.00157  -0.00077   0.00262   0.00185   2.68929
   R11        2.77024  -0.00088  -0.00410   0.00559   0.00150   2.77174
   R12        2.58181   0.00070  -0.00746   0.01264   0.00518   2.58699
   R13        1.82495   0.00016  -0.00111   0.00193   0.00082   1.82576
   R14        2.84716   0.00108  -0.00219   0.00478   0.00260   2.84976
   R15        2.37016  -0.00184  -0.00536   0.00798   0.00262   2.37278
   R16        2.06092  -0.00035   0.00325  -0.00556  -0.00231   2.05861
   R17        2.05634   0.00008   0.00296  -0.00461  -0.00165   2.05468
   R18        2.06092  -0.00036   0.00324  -0.00555  -0.00231   2.05861
   R19        1.90351  -0.00720   0.00402  -0.01264  -0.00862   1.89489
   R20        1.82535   0.00000  -0.00114   0.00186   0.00072   1.82607
    A1        2.08287  -0.00014   0.00081  -0.00063   0.00018   2.08306
    A2        2.08221   0.00008  -0.00077   0.00089   0.00011   2.08232
    A3        2.11811   0.00005  -0.00004  -0.00026  -0.00030   2.11781
    A4        2.11459   0.00001   0.00026   0.00021   0.00047   2.11507
    A5        2.03035   0.00003   0.00053  -0.00108  -0.00055   2.02980
    A6        2.13824  -0.00004  -0.00079   0.00087   0.00008   2.13831
    A7        2.08665  -0.00202  -0.00199  -0.00062  -0.00262   2.08403
    A8        2.12918   0.00105   0.00136  -0.00013   0.00123   2.13041
    A9        2.06736   0.00097   0.00063   0.00075   0.00138   2.06874
   A10        2.11706   0.00336   0.00212   0.00135   0.00347   2.12053
   A11        2.03604   0.00591   0.00875  -0.00400   0.00475   2.04078
   A12        2.13009  -0.00926  -0.01087   0.00265  -0.00822   2.12187
   A13        2.03155   0.00101   0.00086  -0.00024   0.00062   2.03217
   A14        2.08819  -0.01690  -0.01367  -0.00502  -0.01869   2.06950
   A15        2.16345   0.01589   0.01281   0.00526   0.01807   2.18152
   A16        2.13364  -0.00222  -0.00205  -0.00008  -0.00213   2.13152
   A17        2.09172  -0.00240  -0.00114  -0.00210  -0.00324   2.08848
   A18        2.05782   0.00462   0.00319   0.00218   0.00537   2.06319
   A19        1.90591  -0.00098  -0.00133  -0.00043  -0.00177   1.90414
   A20        2.13525   0.00922   0.00715   0.00335   0.01049   2.14574
   A21        2.10344  -0.01181  -0.00846  -0.00537  -0.01384   2.08961
   A22        2.04450   0.00260   0.00132   0.00203   0.00334   2.04784
   A23        1.93555   0.00036   0.00151  -0.00107   0.00044   1.93599
   A24        1.88025  -0.00089   0.00084  -0.00393  -0.00309   1.87716
   A25        1.93556   0.00035   0.00150  -0.00107   0.00042   1.93599
   A26        1.92618   0.00007  -0.00132   0.00159   0.00027   1.92645
   A27        1.86079   0.00006  -0.00125   0.00300   0.00175   1.86254
   A28        1.92617   0.00007  -0.00132   0.00159   0.00027   1.92645
   A29        1.85971  -0.00260  -0.01075   0.00941  -0.00134   1.85837
   A30        1.91844  -0.00047  -0.00132   0.00079  -0.00053   1.91791
    D1        0.00001  -0.00000  -0.00001  -0.00003  -0.00004  -0.00003
    D2       -3.14159  -0.00000  -0.00001  -0.00001  -0.00002   3.14158
    D3        3.14159  -0.00000  -0.00000  -0.00000  -0.00000   3.14159
    D4       -0.00001   0.00000   0.00000   0.00002   0.00002   0.00001
    D5       -0.00001   0.00000   0.00001   0.00002   0.00003   0.00002
    D6        3.14156   0.00000   0.00002   0.00007   0.00009  -3.14153
    D7       -3.14159  -0.00000  -0.00000  -0.00001  -0.00002   3.14158
    D8       -0.00002   0.00000   0.00001   0.00004   0.00005   0.00003
    D9        0.00000  -0.00000  -0.00000  -0.00000  -0.00001  -0.00000
   D10        3.14157   0.00000   0.00002   0.00005   0.00007  -3.14155
   D11       -3.14158  -0.00000  -0.00001  -0.00002  -0.00003   3.14157
   D12       -0.00002   0.00000   0.00001   0.00003   0.00004   0.00003
   D13       -3.14159  -0.00000  -0.00000  -0.00001  -0.00001   3.14158
   D14       -0.00001   0.00000   0.00000   0.00001   0.00001   0.00001
   D15       -0.00003   0.00000   0.00002   0.00006   0.00008   0.00005
   D16        3.14152   0.00001   0.00005   0.00016   0.00021  -3.14145
   D17        3.14159  -0.00000   0.00000   0.00000   0.00000  -3.14159
   D18       -0.00004   0.00000   0.00003   0.00011   0.00013   0.00009
   D19        0.00003  -0.00000  -0.00002  -0.00007  -0.00009  -0.00006
   D20       -3.14152  -0.00001  -0.00005  -0.00017  -0.00022   3.14144
   D21       -3.14152  -0.00001  -0.00005  -0.00018  -0.00023   3.14144
   D22        0.00012  -0.00001  -0.00008  -0.00028  -0.00036  -0.00024
   D23       -3.14144  -0.00002  -0.00011  -0.00029  -0.00040   3.14135
   D24        0.00012  -0.00002  -0.00008  -0.00018  -0.00027  -0.00015
   D25       -0.00001   0.00000   0.00001   0.00003   0.00004   0.00003
   D26       -3.14158  -0.00000  -0.00001  -0.00002  -0.00003   3.14158
   D27        3.14154   0.00000   0.00004   0.00014   0.00018  -3.14147
   D28       -0.00003   0.00000   0.00003   0.00009   0.00012   0.00008
   D29        3.14151   0.00000   0.00008   0.00035   0.00042  -3.14126
   D30        0.00033  -0.00002  -0.00025  -0.00110  -0.00135  -0.00102
   D31       -0.00004  -0.00000   0.00004   0.00024   0.00028   0.00024
   D32       -3.14122  -0.00002  -0.00029  -0.00121  -0.00149   3.14047
   D33        0.00003  -0.00000  -0.00000  -0.00003  -0.00003   0.00000
   D34       -3.14158   0.00000   0.00001   0.00002   0.00003  -3.14155
   D35        1.03221   0.00025   0.00001   0.00041   0.00042   1.03263
   D36       -3.14138  -0.00001  -0.00017  -0.00078  -0.00095   3.14086
   D37       -1.03178  -0.00027  -0.00036  -0.00196  -0.00232  -1.03410
   D38       -2.10978   0.00027   0.00033   0.00181   0.00214  -2.10764
   D39       -0.00019   0.00001   0.00015   0.00063   0.00078   0.00059
   D40        2.10941  -0.00026  -0.00004  -0.00056  -0.00060   2.10882
         Item               Value     Threshold  Converged?
 Maximum Force            0.016898     0.000450     NO 
 RMS     Force            0.003530     0.000300     NO 
 Maximum Displacement     0.086511     0.001800     NO 
 RMS     Displacement     0.024943     0.001200     NO 
 Predicted change in Energy=-3.671458D-04
 GradGradGradGradGradGradGradGradGradGradGradGradGradGradGradGradGradGrad

                          Input orientation:                          
 ---------------------------------------------------------------------
 Center     Atomic      Atomic             Coordinates (Angstroms)
 Number     Number       Type             X           Y           Z
 ---------------------------------------------------------------------
      1          6           0       -1.530356    1.248074    0.000059
      2          6           0       -2.260887    0.052715    0.000153
      3          6           0       -1.621940   -1.180737    0.000026
      4          6           0       -0.222970   -1.230115   -0.000204
      5          6           0        0.569171   -0.034182   -0.000252
      6          6           0       -0.143383    1.197690   -0.000130
      7          8           0        0.576818    2.361908   -0.000151
      8          6           0        2.030452   -0.160623   -0.000304
      9          6           0        2.956544    1.029544    0.000068
     10          8           0        2.556732   -1.300627    0.000809
     11          8           0        0.340725   -2.444115   -0.000485
     12          8           0       -3.619215    0.174695    0.000353
     13          1           0       -2.059517    2.192530    0.000159
     14          1           0       -2.172184   -2.112952    0.000054
     15          1           0       -0.033286    3.111055   -0.000021
     16          1           0        2.783848    1.656596    0.873969
     17          1           0        3.976079    0.651721    0.000703
     18          1           0        2.784850    1.656360   -0.874200
     19          1           0        1.332624   -2.297117   -0.000851
     20          1           0       -4.027897   -0.700942    0.000393
 ---------------------------------------------------------------------
                    Distance matrix (angstroms):
                    1          2          3          4          5
     1  C    0.000000
     2  C    1.400914   0.000000
     3  C    2.430537   1.389121   0.000000
     4  C    2.801907   2.408061   1.399841   0.000000
     5  C    2.460121   2.831392   2.472964   1.434483   0.000000
     6  C    1.387888   2.407237   2.800543   2.429109   1.423110
     7  O    2.383445   3.658544   4.169517   3.679986   2.396103
     8  C    3.829331   4.296638   3.792175   2.494338   1.466741
     9  C    4.492218   5.308086   5.084078   3.900688   2.613630
    10  O    4.816655   5.004097   4.180391   2.780596   2.356753
    11  O    4.139227   3.605904   2.334133   1.338487   2.420736
    12  O    2.348505   1.363794   2.413774   3.675320   4.193591
    13  H    1.082593   2.149269   3.401529   3.884251   3.445032
    14  H    3.421760   2.167483   1.082495   2.139822   3.440394
    15  H    2.389962   3.783603   4.576385   4.345312   3.202416
    16  H    4.420743   5.365197   5.312739   4.258901   2.920238
    17  H    5.538633   6.265664   5.890306   4.601447   3.475268
    18  H    4.421767   5.366156   5.313490   4.259411   2.920779
    19  H    4.556867   4.293604   3.158441   1.886363   2.388250
    20  H    3.168024   1.921021   2.453331   3.841548   4.645169
                    6          7          8          9         10
     6  C    0.000000
     7  O    1.368976   0.000000
     8  C    2.563312   2.911394   0.000000
     9  C    3.104483   2.727322   1.508026   0.000000
    10  O    3.678615   4.163439   1.255620   2.364222   0.000000
    11  O    3.673840   4.811819   2.840689   4.348427   2.493643
    12  O    3.623248   4.731871   5.659609   6.631091   6.349716
    13  H    2.158999   2.641770   4.718598   5.149116   5.788946
    14  H    3.882832   5.251799   4.633977   6.014909   4.798179
    15  H    1.916530   0.966151   3.868189   3.643044   5.115772
    16  H    3.089227   2.476395   2.152729   1.089367   3.091789
    17  H    4.155484   3.805222   2.108404   1.087291   2.413753
    18  H    3.090133   2.477330   2.152727   1.089367   3.092159
    19  H    3.793715   4.719932   2.247570   3.701863   1.578428
    20  H    4.323685   5.530321   6.082395   7.195623   6.611880
                   11         12         13         14         15
    11  O    0.000000
    12  O    4.747556   0.000000
    13  H    5.221076   2.550356   0.000000
    14  H    2.534636   2.706885   4.306956   0.000000
    15  H    5.567746   4.634771   2.224702   5.644921   0.000000
    16  H    4.852768   6.630117   4.950651   6.287725   3.288700
    17  H    4.774935   7.610259   6.229166   6.741258   4.703544
    18  H    4.852939   6.631155   4.951754   6.288419   3.289713
    19  H    1.002733   5.534489   5.627037   3.509644   5.577996
    20  H    4.703563   0.966313   3.499529   2.331832   5.521615
                   16         17         18         19         20
    16  H    0.000000
    17  H    1.787116   0.000000
    18  H    1.748169   1.787115   0.000000
    19  H    4.301536   3.960240   4.301357   0.000000
    20  H    7.260922   8.117470   7.261907   5.593117   0.000000
 Stoichiometry    C8H8O4
 Framework group  C1[X(C8H8O4)]
 Deg. of freedom    54
 Full point group                 C1      NOp   1
 Largest Abelian subgroup         C1      NOp   1
 Largest concise Abelian subgroup C1      NOp   1
[...]
 1675278,-0.24268683,-0.00001022,-0.11912952,0.61969008,-0.00000081,-0.
 00000210,0.00890063,-0.00000011,-0.00000024,0.01024701,-0.00000011,-0.
 00000016,-0.00209367,-0.00000067,-0.00000003,0.00391176,0.00000098,-0.
 00000169,0.00273595,-0.00000974,-0.00000882,-0.03814191,0.00000567,0.0
 0002053,0.02529108,0.01207462,0.00476496,0.00000015,-0.00957528,-0.006
 32028,-0.00000055,0.00084336,-0.00305217,0.00000169,-0.02565148,-0.044
 02569,-0.00000718,-0.20561517,-0.01146839,-0.00001715,-0.01797468,0.03
 802397,-0.00000027,-0.00637305,-0.01483090,-0.00000069,0.58540892,-0.0
 0197903,-0.00758112,0.00000016,0.00239203,0.00010443,-0.00000031,-0.00
 216839,-0.00722515,-0.00000060,-0.03466596,0.03295629,-0.00000051,-0.0
 2956528,-0.11210147,0.00000057,0.03795051,-0.00030694,0.00000130,-0.00
 203353,0.00232156,0.00000012,-0.07367538,0.78243808,0.00000052,-0.0000
 0094,0.00706776,0.00000004,-0.00000068,-0.00157585,-0.00000064,0.00000
 066,0.00259366,0.00000225,0.00000015,0.00068801,-0.00001203,-0.0000005
 4,-0.05337047,0.00000103,0.00000067,-0.01190297,0.00000018,0.00000033,
 -0.00237823,0.00000178,-0.00000219,0.20643044,-0.00060914,-0.00030090,
 0.00000008,0.00057027,0.00007884,0.00000011,-0.00005309,-0.00161753,-0
 .00000087,-0.00510118,0.00379217,0.00000109,-0.01192570,-0.02350923,0.
 00000657,0.00013164,-0.00007005,-0.00000107,-0.00771563,0.00526196,0.0
 0000113,-0.15155703,-0.06853090,0.00000489,0.57100185,-0.00084882,-0.0
 0029629,-0.00000014,0.00058923,0.00006916,-0.00000020,-0.00008749,0.00
 179688,0.00000097,0.00474890,-0.00093179,-0.00000071,-0.00364254,0.009
 58458,0.00000128,0.00003552,-0.00211587,0.00000076,0.00384629,-0.00026
 199,-0.00000100,-0.05279404,-0.14128249,0.00001058,-0.07329456,0.54396
 515,-0.00000006,0.00000026,-0.00054464,-0.00000027,0.00000028,0.000022
 35,0.00000018,-0.00000073,-0.00032737,-0.00000134,-0.00000037,0.001204
 90,-0.00000058,-0.00000047,0.01144345,-0.00000005,0.00000105,0.0007377
 4,-0.00000054,-0.00000055,-0.00067316,0.00001368,0.00002052,-0.0844817
 0,0.00001211,0.00000628,0.54833119,-0.00210762,0.00206441,-0.00000006,
 0.00380990,-0.00035408,0.00000023,-0.00295216,0.00357368,-0.00000083,0
 .00896453,-0.00223280,-0.00000021,-0.03474557,0.05450299,0.00000109,-0
 .00656029,-0.01313411,-0.00000054,0.00281758,0.00469161,0.00000022,-0.
 18569476,0.18306830,0.00000094,0.01801198,-0.01716829,0.00000312,0.243
 43642,0.00783091,0.00422310,0.00000054,-0.00446720,-0.00800323,-0.0000
 0033,-0.00424815,0.00444441,0.00000058,0.00398305,-0.03931016,-0.00000
 459,0.06365719,-0.01345943,0.00000150,-0.00858559,0.01382905,-0.000001
 27,0.00059133,-0.00252495,-0.00000027,0.14745776,-0.49454856,-0.000009
 05,0.01248991,-0.06084297,0.00000075,-0.20051609,0.57741915,0.00000145
 ,0.00000127,-0.00123178,-0.00000022,-0.00000225,0.00026026,-0.00000217
 ,0.00000175,0.00033430,0.00000175,-0.00000865,-0.00163085,0.00000424,0
 .00000126,0.01529152,-0.00000195,0.00000131,0.00617359,0.00000010,-0.0
 0000004,0.00000340,-0.00000305,-0.00001124,-0.06432846,0.00000286,0.00
 000503,0.02191884,-0.00000323,0.00000148,0.03253659,0.01007650,0.00940
 256,0.00000037,-0.00450180,-0.02171203,-0.00000050,-0.04291719,0.06670
 464,0.00000752,-0.15126690,0.09953868,0.00002009,0.03529987,-0.0090356
 9,0.00000145,-0.01629294,0.00436228,-0.00000038,0.00339051,-0.00010691
 ,0.00000009,-0.03331508,0.02562343,-0.00000250,0.00218205,-0.00443410,
 0.00000183,-0.03391770,-0.05763874,-0.00001840,0.56175102,-0.00181126,
 -0.00691435,0.00000046,-0.00490337,0.00909536,-0.00000128,0.03008974,-
 0.01123338,-0.00000447,0.06994962,-0.30827078,-0.00002962,0.00064618,-
 0.04974813,-0.00000588,-0.00206956,-0.00019415,-0.00000211,0.00056098,
 -0.00252350,0.00000004,0.02169497,-0.00745563,0.00000037,-0.00046785,-
 0.00075523,0.00000052,-0.01876629,0.01207126,-0.00000068,-0.05302890,0
 .43145672,-0.00000116,-0.00000101,-0.00234333,-0.00000037,0.00000202,0
 .00552225,0.00000499,-0.00000491,0.00602551,0.00001718,-0.00003979,-0.
 04366981,0.00000094,-0.00000474,0.00637814,0.00000059,-0.00000111,0.00
 774584,-0.00000023,-0.00000067,0.00024604,0.00000475,-0.00000112,-0.00
 224561,-0.00000027,-0.00000022,-0.00065200,-0.00000540,0.00000162,0.00
 790574,-0.00007417,0.00004290,0.04047152,-0.04740872,-0.01114129,-0.00
 000139,-0.31193530,0.04767684,-0.00000446,-0.04596936,0.00831695,-0.00
 000138,0.01136041,0.00386075,-0.00000020,-0.01338501,-0.00068991,0.000
 00026,0.00824301,-0.00207393,-0.00000024,-0.00218559,-0.00160761,-0.00
 000007,0.01127775,-0.00229514,-0.00000004,-0.00048514,-0.00083080,0.00
 000047,-0.00426410,0.00434071,0.00000021,-0.00272454,0.00114700,0.0000
 0053,0.51210609,-0.04885370,0.00709237,-0.00000086,-0.00665760,-0.1138
 0244,-0.00000203,0.04668294,0.00238752,0.00000064,-0.00847737,-0.00725
 061,-0.00000064,-0.00017604,0.00455996,0.00000003,0.00669095,-0.009483
 33,-0.00000029,-0.00351748,-0.00055051,-0.00000003,0.00083668,0.000040
 45,-0.00000008,0.00005731,0.00004709,0.00000002,0.00005770,0.00127444,
 0.00000034,0.00440513,-0.00044853,-0.00000042,0.15301331,0.55519102,-0
 .00000206,0.00000031,0.00531405,-0.00000641,-0.00000121,-0.04059993,0.
 00000069,-0.00000085,0.00836892,0.,-0.00000112,0.01016651,-0.00000007,
 0.00000022,-0.00161458,-0.00000015,-0.00000030,0.00393212,-0.00000007,
 -0.00000005,0.00002810,0.00000014,0.,-0.00040476,0.,0.00000003,0.00021
 021,0.,0.00000008,-0.00011543,-0.00000032,0.00000038,-0.00030353,0.000
 01641,0.00002289,0.02708340,-0.12609227,0.12326160,0.00000258,0.012085
 95,-0.01565667,-0.00000028,-0.00192112,-0.00302526,-0.00000019,-0.0013
 3972,-0.00080478,0.,-0.00496405,-0.00199596,-0.00000051,-0.01062504,0.
 02827439,0.00000059,0.00289701,0.00133024,0.00000015,0.00086836,0.0013
 1657,0.00000021,0.00000834,-0.00001644,0.,-0.00079949,0.00046909,0.000
 00005,0.00055183,-0.00002165,-0.00000004,0.00115760,0.00082571,0.00000
 005,0.12930746,0.12194136,-0.27931186,-0.00000573,0.01771282,-0.019688
 65,-0.00000031,-0.00431076,-0.00255025,-0.00000027,-0.00128532,0.00023
 473,0.00000004,-0.00020928,0.00130547,-0.00000015,-0.00417473,-0.00014
 352,-0.00000007,-0.00082085,0.00345700,0.00000025,-0.00062231,0.000049
 30,-0.00000005,0.00001983,0.00003182,-0.00000004,0.00025906,0.00003088
 ,0.00000005,0.00037392,0.00001766,-0.00000007,0.00078190,0.00198492,0.
 00000015,-0.13161982,0.29468985,0.00000231,-0.00000571,-0.02123738,0.0
 0000054,-0.00000024,0.00097542,0.00000031,-0.00000069,0.00435104,-0.00
 000001,0.00000002,-0.00209849,-0.00000076,-0.00000014,0.00551684,-0.00
 000063,0.00000030,0.00012939,0.00000037,0.00000057,-0.00476345,0.00000
 022,-0.00000008,0.00147430,-0.00000004,-0.00000004,-0.00017243,-0.0000
 0005,0.00000008,-0.00057243,0.00000006,-0.00000010,0.00018939,0.000000
 26,0.00000003,-0.00270805,-0.00000243,0.00000617,0.01762802,-0.0010082
 7,0.00289854,0.00000005,0.00872889,0.01473167,0.00000131,-0.13378231,-
 0.12637150,-0.00001023,-0.01153417,-0.03084473,-0.00000252,-0.00505631
 ,0.00223599,-0.00000029,-0.00124357,0.00124601,-0.00000003,0.00027494,
 -0.00022872,0.,0.00021686,-0.00216209,0.00000008,-0.00049125,0.0003413
 6,-0.00000005,0.00026099,0.00071962,0.00000024,0.00342259,0.00030847,-
 0.00000010,0.00348847,0.00021894,0.00000016,0.00057001,0.00073027,-0.0
 0000009,0.13712202,0.00387414,-0.00247716,-0.00000038,-0.01821224,-0.0
 1784364,-0.00000158,-0.12818164,-0.27282723,-0.00001899,0.00246010,0.0
 0358834,0.00000029,0.00047726,0.00067985,-0.00000034,0.00100085,0.0000
 9776,0.00000013,-0.00019467,0.00015512,0.,0.00055417,-0.00007035,0.000
 00008,0.00000088,0.00000306,0.00000001,-0.00008164,0.00026779,0.,0.000
 21111,0.00043620,0.00000027,-0.00055573,0.00278776,0.00000047,-0.00082
 744,-0.00091036,-0.00000005,0.13734759,0.28681398,-0.00000080,-0.00000
 054,0.00522194,-0.00000130,0.00000074,0.00001122,-0.00000876,-0.000020
 13,-0.02319712,-0.00000213,-0.00000047,0.00208969,0.00000007,0.0000000
 3,0.00512595,0.00000094,-0.00000022,-0.00158556,-0.00000025,-0.0000002
 0,-0.00014004,0.00000011,-0.00000007,0.00055981,-0.00000004,0.,-0.0001
 4375,0.,0.00000013,-0.00008977,0.00000008,0.00000041,-0.00320485,0.000
 00054,0.00000034,-0.00417127,-0.00000003,-0.00000004,0.00092786,0.0000
 1161,0.00002018,0.01856221,0.00042669,-0.00552392,0.,-0.00094821,0.000
 02544,-0.00000012,-0.00018029,0.00004419,0.00000013,0.00094080,-0.0008
 6244,-0.00000023,-0.00160062,-0.00379957,-0.00000035,0.01374655,-0.024
 62871,-0.00000049,-0.24457215,0.26298839,0.00000428,-0.00066295,-0.000
 50903,0.00000017,-0.00145405,0.00011635,-0.00000022,0.00019192,-0.0001
 3143,-0.00000005,-0.00049061,0.00017580,0.00000002,0.00014533,0.000096
 06,0.,-0.00144028,0.00117667,0.,-0.00009192,0.00014469,0.,0.23602804,0
 .00282045,0.00540735,0.00000037,-0.00038899,-0.00205427,0.00000003,-0.
 00065973,0.00107164,0.00000002,0.00286898,-0.00097412,-0.00000016,-0.0
 0673712,-0.00219289,-0.00000049,0.02675430,-0.03882488,-0.00000060,0.2
 0688460,-0.31449724,-0.00000725,0.00078627,0.00003423,0.00000009,-0.00
 015093,0.00007198,0.00000004,-0.00048168,0.00042805,-0.00000003,-0.000
 84869,0.00007409,0.00000001,0.00088672,0.00053139,0.00000001,-0.001452
 42,0.00038069,-0.00000015,-0.00006417,0.00008442,0.00000003,-0.2303735
 3,0.35028929,-0.00000002,0.00000016,-0.00118223,0.00000004,-0.00000003
 ,-0.00124354,-0.00000015,-0.00000001,0.00003914,0.00000008,-0.00000007
 ,0.00191445,-0.00000034,-0.00000049,0.00188368,0.00000161,-0.00000189,
 -0.00234862,0.00000213,-0.00000607,-0.00422803,0.00000002,0.00000006,-
 0.00043461,-0.00000025,0.00000011,-0.00021780,0.00000005,0.00000009,-0
 .00007428,0.,0.00000011,-0.00026069,0.00000005,0.00000002,-0.00007454,
 -0.00000006,0.,0.00108180,0.,0.00000001,0.00002453,-0.00000343,0.00000
 809,0.00449333,-0.00013389,0.00013561,-0.00005866,0.00016565,-0.000035
 55,0.00014094,-0.00006002,0.00035166,-0.00033754,0.00053434,0.00022164
 ,0.00062239,-0.00228450,0.00075287,0.00134817,-0.00107504,-0.00273599,
 -0.00001629,-0.00158411,0.00188571,-0.00062369,0.00751739,-0.00808991,
 -0.02020855,-0.05700563,0.02366759,0.03710961,-0.00100118,-0.00278561,
 0.00208900,-0.00037147,-0.00008957,-0.00005195,-0.00022278,0.00004369,
 0.00001929,-0.00004164,0.00002146,-0.00006498,0.00001826,-0.00000066,-
 0.00002128,-0.00003909,0.00021574,0.00008002,0.05644823,0.00008110,0.0
 0000937,-0.00023480,-0.00001593,-0.00016467,-0.00001510,-0.00020258,0.
 00009032,-0.00027324,0.00029294,-0.00044762,0.00057119,-0.00026766,0.0
 0035942,0.00188494,-0.00036449,0.00029914,-0.00016469,0.00125275,-0.00
 080467,0.00086679,0.00747466,-0.01500183,-0.02219230,0.02461373,-0.133
 97281,-0.13461335,-0.00369968,-0.00473910,0.00278166,-0.00085786,0.000
 13015,-0.00014858,-0.00000160,0.00000523,0.00005363,0.00000713,-0.0000
 0058,0.00000648,0.00001001,-0.00000082,-0.00001805,0.00027755,0.000024
 55,0.00021284,-0.02755648,0.14781533,0.00042210,0.00041134,-0.00017257
 ,-0.00002544,-0.00033840,-0.00005283,-0.00015381,0.00016026,0.00002468
 ,0.00010842,-0.00004163,0.00017873,-0.00042755,-0.00027689,0.00011031,
 -0.00059313,-0.00172342,0.00011424,0.00139670,0.00059737,0.00046849,0.
 00029798,0.00243477,0.00178301,0.03655030,-0.13052277,-0.22398407,-0.0
 0036978,0.00111564,-0.00088116,-0.00016132,0.00015605,-0.00003989,0.00
 002724,0.00006912,0.00000872,-0.00003777,0.00002738,0.00003427,-0.0000
 1236,0.00000658,-0.00000274,0.00047241,-0.00001362,0.00010299,-0.04141
 750,0.14153019,0.24214569,-0.00016392,-0.00004024,-0.00000002,0.000276
 46,0.00006973,-0.00000001,-0.00009233,-0.00046328,-0.00000007,-0.00112
 728,0.00141465,0.00000006,-0.00028627,-0.00425279,0.00000090,0.0007183
 8,-0.00013946,-0.00000011,-0.00021846,0.00061156,0.00000011,-0.0247140
 5,0.00867355,-0.00000018,-0.29639879,0.09033036,0.00000419,0.00469427,
 0.00299115,-0.00000007,0.00103833,-0.00028773,-0.00000003,-0.00024445,
 -0.00000140,0.,-0.00000625,0.00002282,0.,-0.00013611,-0.00000323,0.,-0
 .00006727,-0.00023185,0.,-0.00176771,-0.00000599,-0.00036829,0.3211390
 8,0.00026570,0.00037356,0.00000004,0.00004514,-0.00024990,-0.00000004,
 -0.00015999,-0.00033952,-0.00000004,-0.00126220,0.00063978,-0.00000010
 ,-0.00127013,-0.00458305,0.00000082,-0.00032170,-0.00165162,-0.0000001
 4,0.00176451,0.00008206,0.,-0.03039940,0.00734331,0.00000023,0.0970932
 1,-0.08351712,-0.00000156,0.00083645,0.00241610,0.00000012,0.00043583,
 0.00012703,0.00000003,-0.00001388,0.00006493,0.,-0.00005101,0.00003083
 ,0.,-0.00014833,0.00001148,0.00000001,0.00040841,0.00012206,0.,0.01586
 983,-0.00521716,0.00266424,-0.09832506,0.08968872,0.,-0.00000005,-0.00
 022010,-0.00000002,0.00000005,0.00002328,0.00000006,0.00000015,-0.0002
 1377,0.00000018,-0.00000016,0.00058068,-0.00000024,0.00000097,0.001382
 07,0.00000001,-0.00000006,-0.00007611,0.00000026,-0.00000031,0.0007921
 8,0.00000596,-0.00000188,-0.00129013,0.00000360,-0.00000126,-0.0518230
 5,-0.00000064,-0.00000050,-0.00099268,-0.00000004,-0.00000004,-0.00008
 168,-0.00000003,0.,0.00001035,0.,0.,0.00002017,0.00000003,0.,-0.000011
 78,0.00000012,0.00000005,0.00020899,0.02525932,-0.00704721,0.00190658,
 -0.00000545,0.00000060,0.04784294,-0.00013424,0.00013538,0.00005861,0.
 00016586,-0.00003546,-0.00014094,-0.00006006,0.00035156,0.00033767,0.0
 0053458,0.00022217,-0.00062240,-0.00228443,0.00075240,-0.00134895,-0.0
 0107476,-0.00273532,0.00001687,-0.00158244,0.00188463,0.00062310,0.007
 51790,-0.00808702,0.02021049,-0.05701409,0.02367638,-0.03713840,-0.001
 00204,-0.00278423,-0.00208913,-0.00037149,-0.00008978,0.00005192,-0.00
 022295,0.00004367,-0.00001929,-0.00004163,0.00002146,0.00006497,0.0000
 1826,-0.00000067,0.00002130,-0.00003907,0.00021565,-0.00007972,0.00038
 113,-0.00202718,0.00414287,-0.00177200,0.01586212,-0.02526326,0.056458
 98,0.00008116,0.00000922,0.00023473,-0.00001598,-0.00016477,0.00001507
 ,-0.00020262,0.00009029,0.00027325,0.00029305,-0.00044747,-0.00057115,
 -0.00026691,0.00035929,-0.00188555,-0.00036442,0.00029971,0.00016459,0
 .00125087,-0.00080416,-0.00086617,0.00747639,-0.01499665,0.02219430,0.
 02462415,-0.13390291,0.13459006,-0.00369977,-0.00473739,-0.00278274,-0
 .00085809,0.00013004,0.00014858,-0.00000156,0.00000523,-0.00005363,0.0
 0000715,-0.00000059,-0.00000647,0.00001002,-0.00000083,0.00001804,0.00
 027719,0.00002458,-0.00021288,-0.00203113,0.01120294,-0.01636081,-0.00
 000458,-0.00521587,0.00704961,-0.02756516,0.14773592,-0.00042204,-0.00
 041128,-0.00017274,0.00002554,0.00033830,-0.00005280,0.00015373,-0.000
 16021,0.00002455,-0.00010840,0.00004199,0.00017920,0.00042718,0.000276
 42,0.00011108,0.00059356,0.00172321,0.00011439,-0.00139636,-0.00059739
 ,0.00046896,-0.00030144,-0.00243191,0.00177537,-0.03658040,0.13049904,
 -0.22404443,0.00037055,-0.00111379,-0.00088023,0.00016154,-0.00015618,
 -0.00004006,-0.00002737,-0.00006910,0.00000874,0.00003776,-0.00002738,
 0.00003427,0.00001234,-0.00000658,-0.00000277,-0.00047227,0.00001352,0
 .00010296,-0.00414591,0.01635170,-0.02165388,0.00036921,-0.00266414,0.
 00190864,0.04145176,-0.14150165,0.24220921,-0.00499188,-0.00469059,-0.
 00000019,-0.00007901,0.00853917,0.00000067,0.00973046,-0.00524105,0.00
 000025,-0.03389963,0.03548505,0.00000772,-0.01619438,-0.00395298,-0.00
 000168,0.00351811,-0.00407334,-0.00000007,-0.00099310,-0.00109426,0.00
 000009,0.03629377,-0.02555279,0.00000138,-0.00218991,0.00569099,-0.000
 00364,-0.00963974,0.03677190,0.00001830,-0.33266183,-0.04240157,0.0000
 5299,-0.00039751,-0.00127949,-0.00000014,-0.00028745,-0.00014738,-0.00
 000007,-0.00051579,0.00008711,-0.00000015,0.00010723,-0.00003864,-0.00
 000003,0.00050958,0.00098429,0.00014354,-0.00091307,-0.00064425,0.0000
 0014,0.00050999,0.00098494,-0.00014361,0.35249343,-0.00311804,-0.00214
 435,-0.00000038,0.00248102,0.00511600,0.00000031,0.00524391,-0.0095137
 0,-0.00000169,0.04492164,0.01194347,-0.00000499,-0.00836927,-0.0022012
 8,-0.00000123,0.00320168,-0.00305457,0.00000093,-0.00053455,0.00061615
 ,0.00000006,0.00919629,-0.02494358,-0.00000178,-0.00008204,0.00222937,
 -0.00000263,0.01077217,0.01229571,0.00001143,-0.06263334,-0.06587233,0
 .00000723,-0.00069162,-0.00115462,0.00000012,-0.00023176,-0.00004729,-
 0.00000002,-0.00033160,0.00006453,-0.00000003,0.00010021,0.00001040,-0
 .00000005,0.00012980,0.00041492,0.00010396,-0.00036501,-0.00012099,0.0
 0000003,0.00013010,0.00041552,-0.00010394,0.00033477,0.07582793,-0.000
 00071,-0.00000063,0.00006743,0.00000022,0.00000114,0.00242906,0.000000
 54,-0.00000145,0.00355900,0.00000608,0.00000687,-0.00204375,-0.0000037
 0,-0.00000035,-0.00024822,0.00000087,-0.00000041,-0.00137871,-0.000000
 19,0.00000025,-0.00005948,0.00000391,-0.00000760,-0.00001833,0.0000001
 7,0.00000232,0.00328358,0.00000453,0.00000733,-0.01366125,0.00006450,-
 0.00000075,-0.02162528,-0.00000044,-0.00000012,-0.00059575,-0.00000009
 ,0.,-0.00003345,-0.00000010,0.00000001,-0.00080565,0.00000005,0.000000
 05,0.00008868,0.00029491,0.00044883,-0.00010062,-0.00000024,-0.0000000
 7,0.00002609,-0.00029473,-0.00044814,-0.00010053,-0.00007554,-0.000007
 33,0.03111110,-0.00621359,0.00360175,-0.00000011,-0.02574489,-0.047286
 42,-0.00000198,0.00368481,-0.00067011,-0.00000004,-0.00167890,-0.00005
 252,0.00000024,0.00109461,0.00044111,-0.00000002,-0.00019250,-0.002479
 06,-0.00000018,-0.00035017,0.00061385,0.00000007,-0.00088539,0.0002900
 7,-0.00000003,0.00009450,0.00007411,-0.00000003,0.00049706,-0.00014560
 ,0.00000007,0.00111887,-0.00063521,-0.00000018,-0.11833319,-0.14400901
 ,-0.00000822,0.00011237,0.00012890,0.,-0.00026160,0.00190003,0.0000001
 0,-0.00000004,-0.00000497,0.,0.00001250,0.00000529,0.00000538,0.000041
 41,0.00001473,0.,0.00001252,0.00000528,-0.00000536,-0.00039926,-0.0001
 5437,-0.00000003,0.14739091,0.00171134,0.00195961,-0.00000004,0.005074
 10,0.00187860,0.00000029,0.00590555,0.00290080,0.00000064,-0.00067078,
 -0.00106955,-0.00000022,0.00117652,0.00004272,-0.00000007,-0.00063875,
 0.00030077,0.,0.00001657,-0.00009492,-0.00000001,-0.00107755,0.0002261
 3,0.00000014,-0.00000801,0.00008035,-0.00000009,0.00030804,-0.00053415
 ,-0.00000006,0.00009677,-0.00012250,0.,-0.20012113,-0.44328226,-0.0000
 2113,0.00021131,0.00043997,0.00000003,-0.00064734,-0.00085990,-0.00000
 019,-0.00000232,-0.00001130,0.,0.00002930,-0.00000211,0.00000064,0.000
 00681,-0.00000461,0.,0.00002931,-0.00000211,-0.00000063,0.00023812,0.0
 0011870,0.00000005,0.18836216,0.43803576,0.00000005,0.00000008,0.00259
 836,-0.00000024,-0.00000111,-0.00287822,0.00000030,0.00000038,-0.00107
 429,-0.00000005,0.00000012,-0.00127911,0.,-0.00000004,-0.00019464,-0.0
 0000012,-0.00000004,0.00269984,0.00000004,0.00000005,-0.00061562,-0.00
 000005,0.,0.00005877,0.,-0.00000004,-0.00008786,0.,-0.00000001,0.00003
 408,0.00000010,-0.00000011,-0.00001770,-0.00001035,-0.00001987,-0.0045
 4326,0.00000002,0.00000003,-0.00077710,-0.00000005,-0.00000009,0.00083
 207,0.,0.,0.00012380,-0.00001728,-0.00000093,0.00001006,0.,0.,0.000007
 34,0.00001728,0.00000095,0.00001007,0.00000003,-0.00000003,0.00010609,
 0.00001033,0.00002066,0.00498733\\0.00001721,0.00002120,0.00000075,0.0
 0012374,-0.00003103,0.00000017,0.00000209,0.00000788,-0.00000272,-0.00
 001655,0.00001686,0.00000984,0.00008442,-0.00006065,-0.00000973,-0.000
 06820,-0.00008210,-0.00000580,0.00000967,0.00004020,0.00000009,-0.0001
 0484,0.00012190,0.00004131,0.00002910,-0.00006287,-0.00001790,0.000060
 43,0.00000650,-0.00000513,-0.00010677,0.00001113,0.00000415,-0.0000444
 4,0.00001153,-0.00000022,-0.00001177,0.00002154,0.00000029,-0.00001948
 ,-0.00001626,0.00000076,-0.00000714,-0.00000397,-0.00000002,-0.0000122
 9,0.00000187,0.00002680,0.00002393,-0.00001875,0.00000002,-0.00000696,
 0.00000716,-0.00002600,0.00004043,0.00000855,-0.00001648,0.00000742,-0
 .00000069,-0.00000018\\\@


 POCKETA-POCKETA
 BARON VON RICHTOFEN
 SLAUGHTERED THE ALLIES WITH
 HARDLY A CARE.
 KILLED EIGHTY-ONE WITH HIS
 BLOOD-COLORED TRIPLANE, THEN
 UN-AEROBATICALLY
 PLUNGED FROM THE AIR.
   -- TONY HOFFMAN
 Job cpu time:       0 days  5 hours 18 minutes 51.9 seconds.
 File lengths (MBytes):  RWF=  27606 Int=      0 D2E=      0 Chk=      8 Scr=      1
 Normal termination of Gaussian 09 at Thu Dec 19 00:50:46 2024.
