 Entering Gaussian System, Link 0=g09
 Input=b3lypTHAPyang.gjf
 Output=b3lypTHAPyang.log
 Initial command:
 /home/phzd/g09E/g09/l1.exe "/home/phzd/g09E/scratch/Gau-83299.inp" -scrdir="/home/phzd/g09E/scratch/"
 Default is to use a total of  18 processors:
                               18 via shared-memory
                                1 via Linda
 Entering Link 1 = /home/phzd/g09E/g09/l1.exe PID=     83301.
  
 Copyright (c) 1988,1990,1992,1993,1995,1998,2003,2009,2015,
            Gaussian, Inc.  All Rights Reserved.
  
 This is part of the Gaussian(R) 09 program.  It is based on
 the Gaussian(R) 03 system (copyright 2003, Gaussian, Inc.),
 the Gaussian(R) 98 system (copyright 1998, Gaussian, Inc.),
 the Gaussian(R) 94 system (copyright 1995, Gaussian, Inc.),
 the Gaussian 92(TM) system (copyright 1992, Gaussian, Inc.),
 the Gaussian 90(TM) system (copyright 1990, Gaussian, Inc.),
 the Gaussian 88(TM) system (copyright 1988, Gaussian, Inc.),
 the Gaussian 86(TM) system (copyright 1986, Carnegie Mellon
 University), and the Gaussian 82(TM) system (copyright 1983,
 Carnegie Mellon University). Gaussian is a federally registered
 trademark of Gaussian, Inc.
  
 This software contains proprietary and confidential information,
 including trade secrets, belonging to Gaussian, Inc.
  
 This software is provided under written license and may be
 used, copied, transmitted, or stored only in accord with that
 written license.
  
 The following legend is applicable only to US Government
 contracts under FAR:
  
                    RESTRICTED RIGHTS LEGEND
  
 Use, reproduction and disclosure by the US Government is
 subject to restrictions as set forth in subparagraphs (a)
 and (c) of the Commercial Computer Software - Restricted
 Rights clause in FAR 52.227-19.
  
 Gaussian, Inc.
 340 Quinnipiac St., Bldg. 40, Wallingford CT 06492
  
  
 ---------------------------------------------------------------
 Warning -- This program may not be used in any manner that
 competes with the business of Gaussian, Inc. or will provide
 assistance to any competitor of Gaussian, Inc.  The licensee
 of this program is prohibited from giving any competitor of
 Gaussian, Inc. access to this program.  By using this program,
 the user acknowledges that Gaussian, Inc. is engaged in the
 business of creating and licensing software in the field of
 computational chemistry and represents and warrants to the
 licensee that it is not a competitor of Gaussian, Inc. and that
 it will not use this program in any manner prohibited above.
 ---------------------------------------------------------------
  

 Cite this work as:
 Gaussian 09, Revision E.01,
 M. J. Frisch, G. W. Trucks, H. B. Schlegel, G. E. Scuseria, 
 M. A. Robb, J. R. Cheeseman, G. Scalmani, V. Barone, B. Mennucci, 
 G. A. Petersson, H. Nakatsuji, M. Caricato, X. Li, H. P. Hratchian, 
 A. F. Izmaylov, J. Bloino, G. Zheng, J. L. Sonnenberg, M. Hada, 
 M. Ehara, K. Toyota, R. Fukuda, J. Hasegawa, M. Ishida, T. Nakajima, 
 Y. Honda, O. Kitao, H. Nakai, T. Vreven, J. A. Montgomery, Jr., 
 J. E. Peralta, F. Ogliaro, M. Bearpark, J. J. Heyd, E. Brothers, 
 K. N. Kudin, V. N. Staroverov, T. Keith, R. Kobayashi, J. Normand, 
 K. Raghavachari, A. Rendell, J. C. Burant, S. S. Iyengar, J. Tomasi, 
 M. Cossi, N. Rega, J. M. Millam, M. Klene, J. E. Knox, J. B. Cross, 
 V. Bakken, C. Adamo, J. Jaramillo, R. Gomperts, R. E. Stratmann, 
 O. Yazyev, A. J. Austin, R. Cammi, C. Pomelli, J. W. Ochterski, 
 R. L. Martin, K. Morokuma, V. G. Zakrzewski, G. A. Voth, 
 P. Salvador, J. J. Dannenberg, S. Dapprich, A. D. Daniels, 
 O. Farkas, J. B. Foresman, J. V. Ortiz, J. Cioslowski, 
 and D. J. Fox, Gaussian, Inc., Wallingford CT, 2013.
 
 ******************************************
 Gaussian 09:  ES64L-G09RevE.01 30-Nov-2015
                16-Jun-2024 
 ******************************************
 %chk=b3lypTHAPyang.chk
 -------------------------------------
 # opt freq b3lyp/6-31+g(d,p) em=gd3bj
 -------------------------------------
 1/14=-1,18=20,19=15,26=3,38=1/1,3;
 2/9=110,12=2,17=6,18=5,40=1/2;
 3/5=1,6=6,7=111,11=2,16=1,25=1,30=1,71=1,74=-5,124=41/1,2,3;
 4//1;
 5/5=2,38=5/2;
 6/7=2,8=2,9=2,10=2,28=1/1;
 7//1,2,3,16;
 1/14=-1,18=20,19=15,26=3/3(2);
 2/9=110/2;
 99//99;
 2/9=110/2;
 3/5=1,6=6,7=111,11=2,16=1,25=1,30=1,71=1,74=-5,124=41/1,2,3;
 4/5=5,16=3,69=1/1;
 5/5=2,38=5/2;
 7//1,2,3,16;
 1/14=-1,18=20,19=15,26=3/3(-5);
 2/9=110/2;
 6/7=2,8=2,9=2,10=2,19=2,28=1/1;
 99/9=1/99;
 ----------
 [No Title]
 ----------
 Symbolic Z-matrix:
 Charge =  1 Multiplicity = 1
 C                    -1.92443   0.13891   0.02222 
 C                    -1.93556  -1.20224   0.01706 
 C                    -0.74615  -1.82113  -0.00284 
 C                     0.40391  -1.12955  -0.00007 
 C                     0.39273   0.22962   0.00138 
 C                    -0.79676   0.87122   0.0056 
 O                    -0.92228   2.22485   0.03574 
 C                     1.59092   0.89715   0.00022 
 C                     1.7998    2.39943  -0.01458 
 O                     2.5394    0.14945   0.00138 
 O                     1.58951  -1.90768   0.02046 
 O                    -3.10156  -1.90447   0.02834 
 H                    -2.89518   0.66341   0.04287 
 H                    -0.72197  -2.92351  -0.00879 
 H                    -1.84793   2.47653   0.1824 
 H                     1.3343    2.86333  -0.91254 
 H                     1.4177    2.86651   0.92051 
 H                     2.8858    2.64091  -0.06627 
 H                     2.23953  -1.54118  -0.62383 
 H                     1.38506  -2.84631  -0.2276 
 H                    -2.89967  -2.84857  -0.07411 
 

 GradGradGradGradGradGradGradGradGradGradGradGradGradGradGradGradGradGrad
 Berny optimization.
 Initialization pass.
                           ----------------------------
                           !    Initial Parameters    !
                           ! (Angstroms and Degrees)  !
 --------------------------                            --------------------------
 ! Name  Definition              Value          Derivative Info.                !
 --------------------------------------------------------------------------------
 ! R1    R(1,2)                  1.3412         estimate D2E/DX2                !
 ! R2    R(1,6)                  1.3447         estimate D2E/DX2                !
 ! R3    R(1,13)                 1.1036         estimate D2E/DX2                !
 ! R4    R(2,3)                  1.3409         estimate D2E/DX2                !
 ! R5    R(2,12)                 1.3612         estimate D2E/DX2                !
 ! R6    R(3,4)                  1.342          estimate D2E/DX2                !
 ! R7    R(3,14)                 1.1027         estimate D2E/DX2                !
 ! R8    R(4,5)                  1.3592         estimate D2E/DX2                !
 ! R9    R(4,11)                 1.4183         estimate D2E/DX2                !
 ! R10   R(5,6)                  1.3515         estimate D2E/DX2                !
 ! R11   R(5,8)                  1.3716         estimate D2E/DX2                !
 ! R12   R(6,7)                  1.3598         estimate D2E/DX2                !
 ! R13   R(7,15)                 0.9704         estimate D2E/DX2                !
 ! R14   R(8,9)                  1.5168         estimate D2E/DX2                !
 ! R15   R(8,10)                 1.2077         estimate D2E/DX2                !
 ! R16   R(9,16)                 1.1128         estimate D2E/DX2                !
 ! R17   R(9,17)                 1.1129         estimate D2E/DX2                !
 ! R18   R(9,18)                 1.1137         estimate D2E/DX2                !
 ! R19   R(11,19)                0.9859         estimate D2E/DX2                !
 ! R20   R(11,20)                0.9921         estimate D2E/DX2                !
 ! R21   R(12,21)                0.9709         estimate D2E/DX2                !
 ! A1    A(2,1,6)              123.4685         estimate D2E/DX2                !
 ! A2    A(2,1,13)             117.9064         estimate D2E/DX2                !
 ! A3    A(6,1,13)             118.6251         estimate D2E/DX2                !
 ! A4    A(1,2,3)              117.0146         estimate D2E/DX2                !
 ! A5    A(1,2,12)             121.5302         estimate D2E/DX2                !
 ! A6    A(3,2,12)             121.4551         estimate D2E/DX2                !
 ! A7    A(2,3,4)              121.4839         estimate D2E/DX2                !
 ! A8    A(2,3,14)             118.7478         estimate D2E/DX2                !
 ! A9    A(4,3,14)             119.7637         estimate D2E/DX2                !
 ! A10   A(3,4,5)              120.5491         estimate D2E/DX2                !
 ! A11   A(3,4,11)             115.7011         estimate D2E/DX2                !
 ! A12   A(5,4,11)             123.7438         estimate D2E/DX2                !
 ! A13   A(4,5,6)              118.8136         estimate D2E/DX2                !
 ! A14   A(4,5,8)              118.6513         estimate D2E/DX2                !
 ! A15   A(6,5,8)              122.5351         estimate D2E/DX2                !
 ! A16   A(1,6,5)              118.6582         estimate D2E/DX2                !
 ! A17   A(1,6,7)              117.6745         estimate D2E/DX2                !
 ! A18   A(5,6,7)              123.635          estimate D2E/DX2                !
 ! A19   A(6,7,15)             110.4618         estimate D2E/DX2                !
 ! A20   A(5,8,9)              127.037          estimate D2E/DX2                !
 ! A21   A(5,8,10)             112.6282         estimate D2E/DX2                !
 ! A22   A(9,8,10)             120.3322         estimate D2E/DX2                !
 ! A23   A(8,9,16)             111.2946         estimate D2E/DX2                !
 ! A24   A(8,9,17)             111.1125         estimate D2E/DX2                !
 ! A25   A(8,9,18)             110.4552         estimate D2E/DX2                !
 ! A26   A(16,9,17)            111.066          estimate D2E/DX2                !
 ! A27   A(16,9,18)            106.2646         estimate D2E/DX2                !
 ! A28   A(17,9,18)            106.4266         estimate D2E/DX2                !
 ! A29   A(4,11,19)            109.7395         estimate D2E/DX2                !
 ! A30   A(4,11,20)            110.0695         estimate D2E/DX2                !
 ! A31   A(19,11,20)           108.9155         estimate D2E/DX2                !
 ! A32   A(2,12,21)            108.8243         estimate D2E/DX2                !
 ! D1    D(6,1,2,3)              0.1528         estimate D2E/DX2                !
 ! D2    D(6,1,2,12)          -179.6979         estimate D2E/DX2                !
 ! D3    D(13,1,2,3)          -179.7452         estimate D2E/DX2                !
 ! D4    D(13,1,2,12)            0.4041         estimate D2E/DX2                !
 ! D5    D(2,1,6,5)             -0.9159         estimate D2E/DX2                !
 ! D6    D(2,1,6,7)           -178.9263         estimate D2E/DX2                !
 ! D7    D(13,1,6,5)           178.9814         estimate D2E/DX2                !
 ! D8    D(13,1,6,7)             0.971          estimate D2E/DX2                !
 ! D9    D(1,2,3,4)              0.8458         estimate D2E/DX2                !
 ! D10   D(1,2,3,14)          -179.9282         estimate D2E/DX2                !
 ! D11   D(12,2,3,4)          -179.3034         estimate D2E/DX2                !
 ! D12   D(12,2,3,14)           -0.0774         estimate D2E/DX2                !
 ! D13   D(1,2,12,21)          173.9859         estimate D2E/DX2                !
 ! D14   D(3,2,12,21)           -5.8582         estimate D2E/DX2                !
 ! D15   D(2,3,4,5)             -1.0688         estimate D2E/DX2                !
 ! D16   D(2,3,4,11)           178.067          estimate D2E/DX2                !
 ! D17   D(14,3,4,5)           179.7129         estimate D2E/DX2                !
 ! D18   D(14,3,4,11)           -1.1513         estimate D2E/DX2                !
 ! D19   D(3,4,5,6)              0.2722         estimate D2E/DX2                !
 ! D20   D(3,4,5,8)           -179.8097         estimate D2E/DX2                !
 ! D21   D(11,4,5,6)          -178.7914         estimate D2E/DX2                !
 ! D22   D(11,4,5,8)             1.1268         estimate D2E/DX2                !
 ! D23   D(3,4,11,19)          135.8742         estimate D2E/DX2                !
 ! D24   D(3,4,11,20)           16.0214         estimate D2E/DX2                !
 ! D25   D(5,4,11,19)          -45.0208         estimate D2E/DX2                !
 ! D26   D(5,4,11,20)         -164.8736         estimate D2E/DX2                !
 ! D27   D(4,5,6,1)              0.6806         estimate D2E/DX2                !
 ! D28   D(4,5,6,7)            178.5643         estimate D2E/DX2                !
 ! D29   D(8,5,6,1)           -179.2342         estimate D2E/DX2                !
 ! D30   D(8,5,6,7)             -1.3505         estimate D2E/DX2                !
 ! D31   D(4,5,8,9)            179.2405         estimate D2E/DX2                !
 ! D32   D(4,5,8,10)            -0.176          estimate D2E/DX2                !
 ! D33   D(6,5,8,9)             -0.8445         estimate D2E/DX2                !
 ! D34   D(6,5,8,10)           179.7389         estimate D2E/DX2                !
 ! D35   D(1,6,7,15)             7.3386         estimate D2E/DX2                !
 ! D36   D(5,6,7,15)          -170.5645         estimate D2E/DX2                !
 ! D37   D(5,8,9,16)           -59.2199         estimate D2E/DX2                !
 ! D38   D(5,8,9,17)            65.1159         estimate D2E/DX2                !
 ! D39   D(5,8,9,18)          -177.0084         estimate D2E/DX2                !
 ! D40   D(10,8,9,16)          120.1562         estimate D2E/DX2                !
 ! D41   D(10,8,9,17)         -115.5081         estimate D2E/DX2                !
 ! D42   D(10,8,9,18)            2.3676         estimate D2E/DX2                !
 --------------------------------------------------------------------------------
 Trust Radius=3.00D-01 FncErr=1.00D-07 GrdErr=1.00D-06
 Number of steps in this run=    105 maximum allowed number of steps=    126.
 GradGradGradGradGradGradGradGradGradGradGradGradGradGradGradGradGradGrad

                          Input orientation:                          
 ---------------------------------------------------------------------
 Center     Atomic      Atomic             Coordinates (Angstroms)
 Number     Number       Type             X           Y           Z
 ---------------------------------------------------------------------
      1          6           0       -1.924431    0.138911    0.022218
      2          6           0       -1.935557   -1.202241    0.017057
      3          6           0       -0.746152   -1.821133   -0.002842
      4          6           0        0.403909   -1.129549   -0.000067
      5          6           0        0.392726    0.229617    0.001379
      6          6           0       -0.796760    0.871218    0.005597
      7          8           0       -0.922277    2.224850    0.035744
      8          6           0        1.590917    0.897145    0.000215
      9          6           0        1.799798    2.399434   -0.014580
     10          8           0        2.539396    0.149452    0.001377
     11          8           0        1.589510   -1.907676    0.020461
     12          8           0       -3.101558   -1.904466    0.028344
     13          1           0       -2.895181    0.663412    0.042873
     14          1           0       -0.721966   -2.923505   -0.008785
     15          1           0       -1.847929    2.476527    0.182401
     16          1           0        1.334302    2.863333   -0.912539
     17          1           0        1.417701    2.866514    0.920510
     18          1           0        2.885801    2.640908   -0.066270
     19          1           0        2.239531   -1.541175   -0.623825
     20          1           0        1.385056   -2.846305   -0.227599
     21          1           0       -2.899670   -2.848565   -0.074106
 ---------------------------------------------------------------------
                    Distance matrix (angstroms):
                    1          2          3          4          5
     1  C    0.000000
     2  C    1.341208   0.000000
     3  C    2.287082   1.340935   0.000000
     4  C    2.651538   2.340658   1.341990   0.000000
     5  C    2.319025   2.733380   2.345770   1.359213   0.000000
     6  C    1.344690   2.365634   2.692840   2.333390   1.351498
     7  O    2.314225   3.573799   4.049998   3.607221   2.389847
     8  C    3.596258   4.104111   3.584820   2.348718   1.371589
     9  C    4.356742   5.189021   4.929015   3.795054   2.586158
    10  O    4.463888   4.674668   3.831194   2.489207   2.148166
    11  O    4.066485   3.594961   2.337381   1.418292   2.449628
    12  O    2.358189   1.361178   2.357086   3.590209   4.094516
    13  H    1.103578   2.098143   3.285328   3.755070   3.316660
    14  H    3.290179   2.106234   1.102653   2.118006   3.344371
    15  H    2.344346   3.683524   4.440508   4.255332   3.178350
    16  H    4.349205   5.299530   5.205772   4.200160   2.942494
    17  H    4.406426   5.349330   5.244890   4.224187   2.974660
    18  H    5.422744   6.166217   5.753687   4.514479   3.469052
    19  H    4.536369   4.237566   3.062401   1.981923   2.633870
    20  H    4.463925   3.713391   2.375614   1.990395   3.240131
    21  H    3.144103   1.910028   2.387119   3.724800   4.507857
                    6          7          8          9         10
     6  C    0.000000
     7  O    1.359773   0.000000
     8  C    2.387824   2.842570   0.000000
     9  C    3.012966   2.728132   1.516813   0.000000
    10  O    3.413342   4.036290   1.207749   2.368476   0.000000
    11  O    3.662889   4.836019   2.804894   4.312383   2.265927
    12  O    3.607913   4.669108   5.465266   6.522936   6.003305
    13  H    2.109015   2.516046   4.492385   5.005987   5.458984
    14  H    3.795487   5.152443   4.466192   5.890077   4.481032
    15  H    1.926975   0.970403   3.788575   3.653855   4.969574
    16  H    3.058255   2.529634   2.182857   1.112753   3.106870
    17  H    3.118030   2.582642   2.180679   1.112904   3.079843
    18  H    4.086346   3.832097   2.172983   1.113725   2.516332
    19  H    3.928724   4.961351   2.599140   4.011601   1.827298
    20  H    4.316790   5.577611   3.756021   5.266419   3.218616
    21  H    4.273800   5.446255   5.848183   7.044859   6.211058
                   11         12         13         14         15
    11  O    0.000000
    12  O    4.691076   0.000000
    13  H    5.169473   2.576199   0.000000
    14  H    2.525012   2.588876   4.194223   0.000000
    15  H    5.573459   4.559432   2.098473   5.519483   0.000000
    16  H    4.868074   6.579819   4.862200   6.207455   3.387493
    17  H    4.861327   6.631886   4.921875   6.242282   3.370643
    18  H    4.730487   7.517835   6.110823   6.631891   4.743106
    19  H    0.985878   5.393008   5.627607   3.325594   5.787854
    20  H    0.992149   4.591544   5.541814   2.119760   6.241220
    21  H    4.587696   0.970864   3.513928   2.179972   5.434019
                   16         17         18         19         20
    16  H    0.000000
    17  H    1.834948   0.000000
    18  H    1.781234   1.783242   0.000000
    19  H    4.505828   4.742162   4.268296   0.000000
    20  H    5.750799   5.827137   5.691025   1.609499   0.000000
    21  H    7.159278   7.231257   7.975340   5.331308   4.287475
                   21
    21  H    0.000000
 Stoichiometry    C8H9O4(1+)
 Framework group  C1[X(C8H9O4)]
 Deg. of freedom    57
 Full point group                 C1      NOp   1
 Largest Abelian subgroup         C1      NOp   1
 Largest concise Abelian subgroup C1      NOp   1
                         Standard orientation:                         
 ---------------------------------------------------------------------
 Center     Atomic      Atomic             Coordinates (Angstroms)
 Number     Number       Type             X           Y           Z
 ---------------------------------------------------------------------
      1          6           0       -1.386027   -1.264108    0.009514
      2          6           0       -2.172198   -0.177532   -0.001705
      3          6           0       -1.561357    1.016181   -0.007248
      4          6           0       -0.223342    1.118752   -0.018705
      5          6           0        0.555104    0.004642   -0.003215
      6          6           0       -0.042565   -1.207330    0.018288
      7          8           0        0.639348   -2.383699    0.006725
      8          6           0        1.918425    0.154770   -0.011751
      9          6           0        2.959237   -0.948191    0.018449
     10          8           0        2.258173    1.313487   -0.036334
     11          8           0        0.291926    2.439267   -0.066575
     12          8           0       -3.529441   -0.280928   -0.004200
     13          1           0       -1.873364   -2.254253    0.009864
     14          1           0       -2.180384    1.928643   -0.015268
     15          1           0        0.030042   -3.127751   -0.122944
     16          1           0        2.853202   -1.579064    0.928929
     17          1           0        2.913756   -1.567674   -0.904984
     18          1           0        3.984504   -0.514906    0.056852
     19          1           0        1.037311    2.529208    0.572382
     20          1           0       -0.417337    3.090380    0.172919
     21          1           0       -3.911443    0.607301    0.083561
 ---------------------------------------------------------------------
 Rotational constants (GHZ):      1.5198154      0.8262636      0.5377351
 Standard basis: 6-31+G(d,p) (6D, 7F)
 There are   273 symmetry adapted cartesian basis functions of A   symmetry.
 There are   273 symmetry adapted basis functions of A   symmetry.
   273 basis functions,   447 primitive gaussians,   273 cartesian basis functions
    44 alpha electrons       44 beta electrons
       nuclear repulsion energy       730.3430497291 Hartrees.
 NAtoms=   21 NActive=   21 NUniq=   21 SFac= 1.00D+00 NAtFMM=   60 NAOKFM=F Big=F
 Integral buffers will be    131072 words long.
 Raffenetti 2 integral format.
 Two-electron integral symmetry is turned on.
 Nuclear repulsion after empirical dispersion term =      730.3037534279 Hartrees.
 One-electron integrals computed using PRISM.
 NBasis=   273 RedAO= T EigKep=  1.10D-06  NBF=   273
 NBsUse=   273 1.00D-06 EigRej= -1.00D+00 NBFU=   273
 ExpMin= 4.38D-02 ExpMax= 5.48D+03 ExpMxC= 8.25D+02 IAcc=2 IRadAn=         4 AccDes= 0.00D+00
 Harris functional with IExCor=  402 and IRadAn=       4 diagonalized for initial guess.
 HarFok:  IExCor=  402 AccDes= 0.00D+00 IRadAn=         4 IDoV= 1 UseB2=F ITyADJ=14
 ICtDFT=  3500011 ScaDFX=  1.000000  1.000000  1.000000  1.000000
 FoFCou: FMM=F IPFlag=           0 FMFlag=      100000 FMFlg1=           0
         NFxFlg=           0 DoJE=T BraDBF=F KetDBF=T FulRan=T
         wScrn=  0.000000 ICntrl=     500 IOpCl=  0 I1Cent=   200000004 NGrid=           0
         NMat0=    1 NMatS0=      1 NMatT0=    0 NMatD0=    1 NMtDS0=    0 NMtDT0=    0
 Petite list used in FoFCou.
 Keep R1 ints in memory in canonical form, NReq=709970467.
 Requested convergence on RMS density matrix=1.00D-08 within 128 cycles.
 Requested convergence on MAX density matrix=1.00D-06.
 Requested convergence on             energy=1.00D-06.
 No special actions if energy rises.
 SCF Done:  E(RB3LYP) =  -610.894394661     A.U. after   19 cycles
            NFock= 19  Conv=0.78D-08     -V/T= 2.0071

 **********************************************************************

            Population analysis using the SCF density.

 **********************************************************************

 Orbital symmetries:
       Occupied  (A) (A) (A) (A) (A) (A) (A) (A) (A) (A) (A) (A)
                 (A) (A) (A) (A) (A) (A) (A) (A) (A) (A) (A) (A)
                 (A) (A) (A) (A) (A) (A) (A) (A) (A) (A) (A) (A)
                 (A) (A) (A) (A) (A) (A) (A) (A)
       Virtual   (A) (A) (A) (A) (A) (A) (A) (A) (A) (A) (A) (A)
                 (A) (A) (A) (A) (A) (A) (A) (A) (A) (A) (A) (A)
                 (A) (A) (A) (A) (A) (A) (A) (A) (A) (A) (A) (A)
                 (A) (A) (A) (A) (A) (A) (A) (A) (A) (A) (A) (A)
                 (A) (A) (A) (A) (A) (A) (A) (A) (A) (A) (A) (A)
                 (A) (A) (A) (A) (A) (A) (A) (A) (A) (A) (A) (A)
                 (A) (A) (A) (A) (A) (A) (A) (A) (A) (A) (A) (A)
                 (A) (A) (A) (A) (A) (A) (A) (A) (A) (A) (A) (A)
                 (A) (A) (A) (A) (A) (A) (A) (A) (A) (A) (A) (A)
                 (A) (A) (A) (A) (A) (A) (A) (A) (A) (A) (A) (A)
                 (A) (A) (A) (A) (A) (A) (A) (A) (A) (A) (A) (A)
                 (A) (A) (A) (A) (A) (A) (A) (A) (A) (A) (A) (A)
                 (A) (A) (A) (A) (A) (A) (A) (A) (A) (A) (A) (A)
                 (A) (A) (A) (A) (A) (A) (A) (A) (A) (A) (A) (A)
                 (A) (A) (A) (A) (A) (A) (A) (A) (A) (A) (A) (A)
                 (A) (A) (A) (A) (A) (A) (A) (A) (A) (A) (A) (A)
                 (A) (A) (A) (A) (A) (A) (A) (A) (A) (A) (A) (A)
                 (A) (A) (A) (A) (A) (A) (A) (A) (A) (A) (A) (A)
                 (A) (A) (A) (A) (A) (A) (A) (A) (A) (A) (A) (A)
                 (A)
 The electronic state is 1-A.
 Alpha  occ. eigenvalues --  -19.51270 -19.35344 -19.35036 -19.29348 -10.46609
 Alpha  occ. eigenvalues --  -10.43206 -10.43179 -10.42917 -10.37841 -10.36705
 Alpha  occ. eigenvalues --  -10.35186 -10.31908  -1.38750  -1.23764  -1.23402
 Alpha  occ. eigenvalues --   -1.22125  -1.07723  -0.97006  -0.96107  -0.89354
 Alpha  occ. eigenvalues --   -0.86522  -0.85370  -0.81658  -0.78502  -0.74375
 Alpha  occ. eigenvalues --   -0.72725  -0.69077  -0.68636  -0.68002  -0.64398
 Alpha  occ. eigenvalues --   -0.61928  -0.60433  -0.58842  -0.58600  -0.55900
 Alpha  occ. eigenvalues --   -0.55837  -0.54931  -0.53653  -0.52176  -0.49907
 Alpha  occ. eigenvalues --   -0.49576  -0.42196  -0.41560  -0.41328
 Alpha virt. eigenvalues --   -0.21984  -0.20133  -0.17533  -0.14918  -0.13386
 Alpha virt. eigenvalues --   -0.12349  -0.11816  -0.09917  -0.09159  -0.08084
 Alpha virt. eigenvalues --   -0.07609  -0.06100  -0.04955  -0.04264  -0.03812
 Alpha virt. eigenvalues --   -0.03619  -0.02958  -0.02023  -0.01136  -0.00802
 Alpha virt. eigenvalues --   -0.00705   0.00020   0.01101   0.01445   0.02089
 Alpha virt. eigenvalues --    0.02498   0.02908   0.03782   0.03967   0.04193
 Alpha virt. eigenvalues --    0.05185   0.05507   0.07026   0.07637   0.08057
 Alpha virt. eigenvalues --    0.08320   0.08807   0.09261   0.09617   0.10177
 Alpha virt. eigenvalues --    0.10852   0.11871   0.12529   0.13016   0.13455
 Alpha virt. eigenvalues --    0.13982   0.15048   0.15782   0.15990   0.16909
 Alpha virt. eigenvalues --    0.17252   0.17610   0.18525   0.18938   0.19352
 Alpha virt. eigenvalues --    0.19769   0.20529   0.21119   0.21648   0.22402
 Alpha virt. eigenvalues --    0.23969   0.24883   0.25669   0.26656   0.27789
 Alpha virt. eigenvalues --    0.28720   0.30383   0.32173   0.33145   0.35425
 Alpha virt. eigenvalues --    0.38322   0.48832   0.49323   0.50462   0.52113
 Alpha virt. eigenvalues --    0.53297   0.54748   0.55853   0.56419   0.58081
 Alpha virt. eigenvalues --    0.58216   0.59864   0.60442   0.62428   0.63738
 Alpha virt. eigenvalues --    0.67884   0.68391   0.70789   0.71455   0.71966
 Alpha virt. eigenvalues --    0.74886   0.75304   0.77622   0.81971   0.84909
 Alpha virt. eigenvalues --    0.86115   0.86683   0.87027   0.90226   0.92986
 Alpha virt. eigenvalues --    0.93724   0.95159   0.95736   0.97857   0.98462
 Alpha virt. eigenvalues --    1.00301   1.01169   1.02472   1.02921   1.03960
 Alpha virt. eigenvalues --    1.04951   1.05079   1.06567   1.08285   1.09554
 Alpha virt. eigenvalues --    1.10633   1.10897   1.14089   1.15066   1.16232
 Alpha virt. eigenvalues --    1.17466   1.18417   1.21296   1.21867   1.23870
 Alpha virt. eigenvalues --    1.24557   1.26878   1.27928   1.29023   1.31969
 Alpha virt. eigenvalues --    1.34412   1.38071   1.43468   1.45471   1.49041
 Alpha virt. eigenvalues --    1.54004   1.54975   1.56455   1.58389   1.59255
 Alpha virt. eigenvalues --    1.61934   1.65484   1.66949   1.68091   1.71125
 Alpha virt. eigenvalues --    1.72193   1.73166   1.75159   1.76245   1.76685
 Alpha virt. eigenvalues --    1.79220   1.84220   1.87839   1.88556   1.90298
 Alpha virt. eigenvalues --    1.92466   1.92865   1.95862   1.97612   1.98532
 Alpha virt. eigenvalues --    2.02165   2.03497   2.04827   2.06941   2.09038
 Alpha virt. eigenvalues --    2.09280   2.11262   2.13674   2.16604   2.19430
 Alpha virt. eigenvalues --    2.23553   2.23969   2.24681   2.27019   2.28754
 Alpha virt. eigenvalues --    2.30688   2.31948   2.32962   2.35726   2.37784
 Alpha virt. eigenvalues --    2.39553   2.42427   2.43850   2.44282   2.46022
 Alpha virt. eigenvalues --    2.49990   2.50743   2.53881   2.54987   2.58051
 Alpha virt. eigenvalues --    2.58272   2.61769   2.63356   2.63933   2.67181
 Alpha virt. eigenvalues --    2.67812   2.74398   2.75948   2.78795   2.82077
 Alpha virt. eigenvalues --    2.87544   2.90349   2.99781   3.00473   3.05859
 Alpha virt. eigenvalues --    3.08030   3.13734   3.15536   3.19888   3.27337
 Alpha virt. eigenvalues --    3.28515   3.30103   3.34943   3.36428   3.38642
 Alpha virt. eigenvalues --    3.43365   3.67737   4.07228   4.10555   4.14796
 Alpha virt. eigenvalues --    4.26117   4.28313   4.30840   4.33931   4.41237
 Alpha virt. eigenvalues --    4.51897   4.64123   4.70012   4.90917
          Condensed to atoms (all electrons):
               1          2          3          4          5          6
     1  C   17.161041  -3.660170   1.362189  -5.699794  -0.131641  -7.504929
     2  C   -3.660170  10.195968  -1.793158   2.563314  -4.016596   4.942660
     3  C    1.362189  -1.793158  19.768082  -4.642277  -3.107453  -4.779006
     4  C   -5.699794   2.563314  -4.642277  27.232010  -6.461709   1.754606
     5  C   -0.131641  -4.016596  -3.107453  -6.461709  23.291253  -6.659906
     6  C   -7.504929   4.942660  -4.779006   1.754606  -6.659906  23.749636
     7  O    0.317021  -0.015375   0.039147   0.041217  -0.420643   0.019723
     8  C    2.906629  -1.446380  -1.151594  -5.054540  -0.109966  -2.874079
     9  C   -0.050847   0.029671  -0.950965  -1.947948   0.851919   0.253741
    10  O    0.073763  -0.031248   0.251791   0.095523  -0.327378  -0.379325
    11  O   -0.051309   0.117646  -0.055462  -0.476540   0.010197   0.214126
    12  O   -0.151387  -0.023171   0.076934   0.060771  -0.021090   0.029735
    13  H    0.084047   0.151387   0.063214  -0.025030   0.020087   0.021727
    14  H    0.066397   0.198006   0.104883  -0.036960   0.010874  -0.055353
    15  H   -0.120770   0.015055   0.002533   0.003372   0.157154  -0.062677
    16  H    0.002411   0.001971  -0.009951  -0.020539   0.003402   0.032805
    17  H   -0.001805   0.003113  -0.002632   0.028778   0.040301  -0.003120
    18  H   -0.003503  -0.000044  -0.000940  -0.021675   0.051014   0.026916
    19  H    0.007568  -0.000086   0.181696   0.057425  -0.181075  -0.059413
    20  H    0.009991  -0.031159  -0.253515   0.034281   0.181279  -0.015850
    21  H    0.101398  -0.032424  -0.043629   0.001654   0.028914  -0.049415
               7          8          9         10         11         12
     1  C    0.317021   2.906629  -0.050847   0.073763  -0.051309  -0.151387
     2  C   -0.015375  -1.446380   0.029671  -0.031248   0.117646  -0.023171
     3  C    0.039147  -1.151594  -0.950965   0.251791  -0.055462   0.076934
     4  C    0.041217  -5.054540  -1.947948   0.095523  -0.476540   0.060771
     5  C   -0.420643  -0.109966   0.851919  -0.327378   0.010197  -0.021090
     6  C    0.019723  -2.874079   0.253741  -0.379325   0.214126   0.029735
     7  O    8.455763  -0.007092  -0.085846   0.004707  -0.001126  -0.000351
     8  C   -0.007092  13.633815  -0.971311   0.339863  -0.070902   0.000627
     9  C   -0.085846  -0.971311   7.922245   0.015579   0.065046  -0.001384
    10  O    0.004707   0.339863   0.015579   8.473915  -0.076540   0.000101
    11  O   -0.001126  -0.070902   0.065046  -0.076540   8.319918  -0.002218
    12  O   -0.000351   0.000627  -0.001384   0.000101  -0.002218   8.344881
    13  H   -0.022842   0.010856   0.001116   0.000049   0.000118  -0.010030
    14  H    0.000081   0.030742  -0.000202  -0.000015  -0.023938  -0.021731
    15  H    0.202418   0.004586   0.012190   0.000004   0.000031  -0.000072
    16  H   -0.001873  -0.125776   0.466962   0.002294   0.000424   0.000000
    17  H   -0.001479  -0.138396   0.422611   0.004892  -0.000457  -0.000000
    18  H   -0.000000  -0.092652   0.404739  -0.008000  -0.000041  -0.000000
    19  H   -0.000017   0.000201  -0.005881   0.079673   0.189292   0.000018
    20  H    0.000023   0.078812   0.006832   0.008738   0.175164  -0.000133
    21  H    0.000025   0.003725  -0.000032   0.000004  -0.000125   0.203293
              13         14         15         16         17         18
     1  C    0.084047   0.066397  -0.120770   0.002411  -0.001805  -0.003503
     2  C    0.151387   0.198006   0.015055   0.001971   0.003113  -0.000044
     3  C    0.063214   0.104883   0.002533  -0.009951  -0.002632  -0.000940
     4  C   -0.025030  -0.036960   0.003372  -0.020539   0.028778  -0.021675
     5  C    0.020087   0.010874   0.157154   0.003402   0.040301   0.051014
     6  C    0.021727  -0.055353  -0.062677   0.032805  -0.003120   0.026916
     7  O   -0.022842   0.000081   0.202418  -0.001873  -0.001479  -0.000000
     8  C    0.010856   0.030742   0.004586  -0.125776  -0.138396  -0.092652
     9  C    0.001116  -0.000202   0.012190   0.466962   0.422611   0.404739
    10  O    0.000049  -0.000015   0.000004   0.002294   0.004892  -0.008000
    11  O    0.000118  -0.023938   0.000031   0.000424  -0.000457  -0.000041
    12  O   -0.010030  -0.021731  -0.000072   0.000000  -0.000000  -0.000000
    13  H    0.542930  -0.000223   0.010161  -0.000002  -0.000001  -0.000000
    14  H   -0.000223   0.587482  -0.000001   0.000000  -0.000000  -0.000000
    15  H    0.010161  -0.000001   0.376893   0.000347   0.000183  -0.000026
    16  H   -0.000002   0.000000   0.000347   0.494406  -0.015840  -0.025020
    17  H   -0.000001  -0.000000   0.000183  -0.015840   0.491095  -0.023476
    18  H   -0.000000  -0.000000  -0.000026  -0.025020  -0.023476   0.497225
    19  H   -0.000000   0.000403  -0.000000  -0.000057  -0.000001   0.000006
    20  H   -0.000000   0.013456  -0.000000  -0.000001  -0.000001  -0.000000
    21  H   -0.000070   0.009422   0.000001  -0.000000   0.000000  -0.000000
              19         20         21
     1  C    0.007568   0.009991   0.101398
     2  C   -0.000086  -0.031159  -0.032424
     3  C    0.181696  -0.253515  -0.043629
     4  C    0.057425   0.034281   0.001654
     5  C   -0.181075   0.181279   0.028914
     6  C   -0.059413  -0.015850  -0.049415
     7  O   -0.000017   0.000023   0.000025
     8  C    0.000201   0.078812   0.003725
     9  C   -0.005881   0.006832  -0.000032
    10  O    0.079673   0.008738   0.000004
    11  O    0.189292   0.175164  -0.000125
    12  O    0.000018  -0.000133   0.203293
    13  H   -0.000000  -0.000000  -0.000070
    14  H    0.000403   0.013456   0.009422
    15  H   -0.000000  -0.000000   0.000001
    16  H   -0.000057  -0.000001  -0.000000
    17  H   -0.000001  -0.000001   0.000000
    18  H    0.000006  -0.000000  -0.000000
    19  H    0.284417  -0.010711   0.000001
    20  H   -0.010711   0.362937   0.000022
    21  H    0.000001   0.000022   0.409142
 Mulliken charges:
               1
     1  C    1.283701
     2  C   -1.168979
     3  C    0.940113
     4  C   -1.485937
     5  C    2.791061
     6  C   -2.602602
     7  O   -0.523481
     8  C    1.032831
     9  C   -0.438236
    10  O   -0.528391
    11  O   -0.333304
    12  O   -0.484793
    13  H    0.152506
    14  H    0.116678
    15  H    0.398618
    16  H    0.194036
    17  H    0.196233
    18  H    0.195476
    19  H    0.456542
    20  H    0.439835
    21  H    0.368092
 Sum of Mulliken charges =   1.00000
 Mulliken charges with hydrogens summed into heavy atoms:
               1
     1  C    1.436207
     2  C   -1.168979
     3  C    1.056790
     4  C   -1.485937
     5  C    2.791061
     6  C   -2.602602
     7  O   -0.124863
     8  C    1.032831
     9  C    0.147510
    10  O   -0.528391
    11  O    0.563073
    12  O   -0.116701
 Electronic spatial extent (au):  <R**2>=           1972.9517
 Charge=              1.0000 electrons
 Dipole moment (field-independent basis, Debye):
    X=             -3.0344    Y=              4.4393    Z=              1.3293  Tot=              5.5391
 Quadrupole moment (field-independent basis, Debye-Ang):
   XX=            -54.0648   YY=            -32.0976   ZZ=            -67.6338
   XY=            -10.0568   XZ=              0.7086   YZ=              5.2867
 Traceless Quadrupole moment (field-independent basis, Debye-Ang):
   XX=             -2.7994   YY=             19.1678   ZZ=            -16.3684
   XY=            -10.0568   XZ=              0.7086   YZ=              5.2867
 Octapole moment (field-independent basis, Debye-Ang**2):
  XXX=            -25.5837  YYY=             42.0838  ZZZ=              0.4259  XYY=            -22.5531
  XXY=             14.2054  XXZ=              4.0588  XZZ=              4.9646  YZZ=              4.0001
  YYZ=              9.6900  XYZ=              2.9484
 Hexadecapole moment (field-independent basis, Debye-Ang**3):
 XXXX=          -1335.8250 YYYY=           -436.9027 ZZZZ=            -74.5182 XXXY=           -156.7680
 XXXZ=             -8.7899 YYYX=             15.6067 YYYZ=             45.9031 ZZZX=              0.3671
 ZZZY=              3.1742 XXYY=           -369.0606 XXZZ=           -271.3562 YYZZ=           -144.7636
 XXYZ=              6.7687 YYXZ=              8.3769 ZZXY=              0.7313
 N-N= 7.303037534279D+02 E-N=-2.872817636121D+03  KE= 6.065715168336D+02
 Calling FoFJK, ICntrl=      2127 FMM=F ISym2X=0 I1Cent= 0 IOpClX= 0 NMat=1 NMatS=1 NMatT=0.
 ***** Axes restored to original set *****
 -------------------------------------------------------------------
 Center     Atomic                   Forces (Hartrees/Bohr)
 Number     Number              X              Y              Z
 -------------------------------------------------------------------
      1        6          -0.078564132    0.032493841    0.001651738
      2        6          -0.049886717   -0.021787668   -0.000336359
      3        6           0.030806795   -0.081102148   -0.000581883
      4        6          -0.021059370   -0.016713830    0.000559009
      5        6          -0.001398100    0.012855012   -0.000545785
      6        6          -0.040150546    0.041591800    0.005192450
      7        8           0.014034171   -0.004411405   -0.000243406
      8        6           0.042305509    0.064288971   -0.000997036
      9        6           0.009917454    0.011096794    0.000714238
     10        8           0.078911604   -0.016704579   -0.009600364
     11        8           0.001792254   -0.034957509   -0.011856289
     12        8           0.010033095    0.007279239   -0.001412203
     13        1           0.007379256   -0.006315113   -0.000754824
     14        1           0.000542674    0.006882270    0.000530389
     15        1           0.002635057   -0.001369949   -0.001856538
     16        1          -0.001282926   -0.004196977    0.013764753
     17        1          -0.002233950   -0.003665528   -0.013523045
     18        1          -0.011701168   -0.010827339    0.001091244
     19        1           0.014633800    0.018542513    0.010026794
     20        1          -0.000684752    0.005390238    0.006731275
     21        1          -0.006030010    0.001631365    0.001445844
 -------------------------------------------------------------------
 Cartesian Forces:  Max     0.081102148 RMS     0.024578309

 GradGradGradGradGradGradGradGradGradGradGradGradGradGradGradGradGradGrad
 Berny optimization.
 FormGI is forming the generalized inverse of G from B-inverse, IUseBI=4.
 Internal  Forces:  Max     0.120733091 RMS     0.023963029
 Search for a local minimum.
 Step number   1 out of a maximum of  105
 All quantities printed in internal units (Hartrees-Bohrs-Radians)
 Mixed Optimization -- RFO/linear search
 Second derivative matrix not updated -- first step.
 ITU=  0
     Eigenvalues ---    0.00544   0.01251   0.01450   0.02205   0.02224
     Eigenvalues ---    0.02347   0.02465   0.02621   0.02661   0.02702
     Eigenvalues ---    0.02750   0.02809   0.02843   0.02862   0.02865
     Eigenvalues ---    0.05853   0.06927   0.07292   0.15999   0.16000
     Eigenvalues ---    0.16000   0.16000   0.16000   0.16000   0.16000
     Eigenvalues ---    0.16000   0.16000   0.23450   0.23480   0.24983
     Eigenvalues ---    0.24997   0.24998   0.24999   0.25000   0.25000
     Eigenvalues ---    0.25000   0.30676   0.32209   0.32294   0.32310
     Eigenvalues ---    0.33290   0.33390   0.42719   0.49074   0.49096
     Eigenvalues ---    0.49980   0.50260   0.50672   0.52710   0.52993
     Eigenvalues ---    0.53201   0.53295   0.54443   0.55881   0.56444
     Eigenvalues ---    0.56905   1.01024
 RFO step:  Lambda=-1.01461819D-01 EMin= 5.43540511D-03
 Linear search not attempted -- first point.
 Maximum step size (   0.300) exceeded in Quadratic search.
    -- Step size scaled by   0.695
 Iteration  1 RMS(Cart)=  0.08489103 RMS(Int)=  0.00289852
 Iteration  2 RMS(Cart)=  0.00363513 RMS(Int)=  0.00023126
 Iteration  3 RMS(Cart)=  0.00001118 RMS(Int)=  0.00023113
 Iteration  4 RMS(Cart)=  0.00000000 RMS(Int)=  0.00023113
 Variable       Old X    -DE/DX   Delta X   Delta X   Delta X     New X
                                 (Linear)    (Quad)   (Total)
    R1        2.53452   0.05061   0.00000   0.05256   0.05244   2.58695
    R2        2.54110   0.06053   0.00000   0.06383   0.06382   2.60491
    R3        2.08546  -0.00951   0.00000  -0.01521  -0.01521   2.07025
    R4        2.53400   0.07143   0.00000   0.07364   0.07353   2.60753
    R5        2.57225  -0.00803   0.00000  -0.00887  -0.00887   2.56338
    R6        2.53599   0.04396   0.00000   0.04525   0.04526   2.58125
    R7        2.08371  -0.00687   0.00000  -0.01097  -0.01097   2.07275
    R8        2.56854   0.06382   0.00000   0.06997   0.07009   2.63863
    R9        2.68018   0.01928   0.00000   0.02534   0.02534   2.70552
   R10        2.55396   0.07556   0.00000   0.08125   0.08136   2.63532
   R11        2.59193   0.12073   0.00000   0.13794   0.13794   2.72986
   R12        2.56960  -0.00734   0.00000  -0.00808  -0.00808   2.56152
   R13        1.83380  -0.00315   0.00000  -0.00345  -0.00345   1.83034
   R14        2.86636  -0.00827   0.00000  -0.01408  -0.01408   2.85228
   R15        2.28232   0.07230   0.00000   0.04519   0.04519   2.32751
   R16        2.10280  -0.01232   0.00000  -0.02016  -0.02016   2.08264
   R17        2.10308  -0.01214   0.00000  -0.01987  -0.01987   2.08322
   R18        2.10464  -0.01381   0.00000  -0.02265  -0.02265   2.08198
   R19        1.86304   0.00999   0.00000   0.01149   0.01149   1.87453
   R20        1.87489  -0.00664   0.00000  -0.00779  -0.00779   1.86710
   R21        1.83467  -0.00299   0.00000  -0.00328  -0.00328   1.83138
    A1        2.15493  -0.01125   0.00000  -0.02262  -0.02275   2.13218
    A2        2.05785   0.00350   0.00000   0.00565   0.00571   2.06356
    A3        2.07040   0.00776   0.00000   0.01698   0.01704   2.08744
    A4        2.04229   0.00798   0.00000   0.01609   0.01584   2.05813
    A5        2.12110  -0.01623   0.00000  -0.03225  -0.03213   2.08897
    A6        2.11979   0.00826   0.00000   0.01617   0.01629   2.13608
    A7        2.12029  -0.00910   0.00000  -0.02040  -0.02053   2.09977
    A8        2.07254   0.00524   0.00000   0.01200   0.01203   2.08458
    A9        2.09027   0.00384   0.00000   0.00830   0.00834   2.09861
   A10        2.10398   0.02115   0.00000   0.04138   0.04148   2.14546
   A11        2.01936  -0.00692   0.00000  -0.01354  -0.01363   2.00574
   A12        2.15974  -0.01426   0.00000  -0.02804  -0.02812   2.13162
   A13        2.07369  -0.02658   0.00000  -0.05166  -0.05142   2.02226
   A14        2.07086   0.02851   0.00000   0.05592   0.05576   2.12662
   A15        2.13864  -0.00192   0.00000  -0.00424  -0.00439   2.13425
   A16        2.07098   0.01780   0.00000   0.03721   0.03727   2.10825
   A17        2.05381   0.01123   0.00000   0.02140   0.02131   2.07511
   A18        2.15784  -0.02894   0.00000  -0.05806  -0.05817   2.09967
   A19        1.92792  -0.00107   0.00000  -0.00284  -0.00284   1.92508
   A20        2.21721  -0.03024   0.00000  -0.05983  -0.05988   2.15734
   A21        1.96573   0.05593   0.00000   0.11053   0.11047   2.07620
   A22        2.10019  -0.02571   0.00000  -0.05086  -0.05090   2.04929
   A23        1.94246   0.00063   0.00000   0.00052   0.00052   1.94298
   A24        1.93928   0.00152   0.00000   0.00274   0.00275   1.94203
   A25        1.92781  -0.01005   0.00000  -0.02431  -0.02428   1.90353
   A26        1.93847  -0.00521   0.00000  -0.01809  -0.01811   1.92036
   A27        1.85467   0.00705   0.00000   0.02122   0.02124   1.87591
   A28        1.85749   0.00632   0.00000   0.01901   0.01904   1.87653
   A29        1.91532   0.00307   0.00000   0.01590   0.01541   1.93072
   A30        1.92108   0.00305   0.00000   0.01580   0.01530   1.93638
   A31        1.90093   0.01058   0.00000   0.04336   0.04247   1.94341
   A32        1.89934   0.01028   0.00000   0.02731   0.02731   1.92665
    D1        0.00267   0.00096   0.00000   0.00521   0.00515   0.00782
    D2       -3.13632  -0.00022   0.00000  -0.00090  -0.00100  -3.13732
    D3       -3.13715   0.00008   0.00000   0.00008   0.00015  -3.13700
    D4        0.00705  -0.00109   0.00000  -0.00603  -0.00600   0.00105
    D5       -0.01598   0.00039   0.00000   0.00259   0.00302  -0.01296
    D6       -3.12285  -0.00208   0.00000  -0.01307  -0.01322  -3.13607
    D7        3.12382   0.00127   0.00000   0.00774   0.00808   3.13189
    D8        0.01695  -0.00120   0.00000  -0.00792  -0.00816   0.00878
    D9        0.01476  -0.00052   0.00000  -0.00249  -0.00275   0.01201
   D10       -3.14034  -0.00225   0.00000  -0.01192  -0.01220   3.13064
   D11       -3.12944   0.00062   0.00000   0.00354   0.00350  -3.12593
   D12       -0.00135  -0.00111   0.00000  -0.00589  -0.00595  -0.00730
   D13        3.03663   0.00138   0.00000   0.00752   0.00755   3.04417
   D14       -0.10224   0.00016   0.00000   0.00114   0.00112  -0.10113
   D15       -0.01865  -0.00168   0.00000  -0.00894  -0.00903  -0.02769
   D16        3.10786  -0.00417   0.00000  -0.02262  -0.02289   3.08496
   D17        3.13658   0.00006   0.00000   0.00056   0.00047   3.13706
   D18       -0.02009  -0.00243   0.00000  -0.01312  -0.01339  -0.03348
   D19        0.00475   0.00330   0.00000   0.01729   0.01714   0.02189
   D20       -3.13827   0.00567   0.00000   0.03000   0.02998  -3.10829
   D21       -3.12050   0.00590   0.00000   0.03191   0.03179  -3.08871
   D22        0.01967   0.00826   0.00000   0.04462   0.04463   0.06430
   D23        2.37145   0.01753   0.00000   0.09115   0.09128   2.46273
   D24        0.27963   0.00064   0.00000   0.01783   0.01727   0.29689
   D25       -0.78576   0.01529   0.00000   0.07765   0.07821  -0.70755
   D26       -2.87759  -0.00159   0.00000   0.00433   0.00420  -2.87339
   D27        0.01188  -0.00245   0.00000  -0.01364  -0.01357  -0.00169
   D28        3.11654   0.00112   0.00000   0.00486   0.00462   3.12116
   D29       -3.12823  -0.00493   0.00000  -0.02692  -0.02652   3.12843
   D30       -0.02357  -0.00137   0.00000  -0.00842  -0.00833  -0.03190
   D31        3.12834   0.00310   0.00000   0.01682   0.01613  -3.13872
   D32       -0.00307   0.00627   0.00000   0.03506   0.03530   0.03223
   D33       -0.01474   0.00554   0.00000   0.03000   0.02976   0.01502
   D34        3.13704   0.00870   0.00000   0.04823   0.04893  -3.09722
   D35        0.12808   0.00062   0.00000   0.00248   0.00225   0.13033
   D36       -2.97691  -0.00306   0.00000  -0.01619  -0.01596  -2.99287
   D37       -1.03358   0.00403   0.00000   0.01947   0.01914  -1.01444
   D38        1.13649  -0.00116   0.00000  -0.00165  -0.00195   1.13454
   D39       -3.08938   0.00127   0.00000   0.00825   0.00793  -3.08145
   D40        2.09712   0.00107   0.00000   0.00079   0.00110   2.09822
   D41       -2.01600  -0.00412   0.00000  -0.02033  -0.01999  -2.03599
   D42        0.04132  -0.00169   0.00000  -0.01042  -0.01011   0.03121
         Item               Value     Threshold  Converged?
 Maximum Force            0.120733     0.000450     NO 
 RMS     Force            0.023963     0.000300     NO 
 Maximum Displacement     0.388701     0.001800     NO 
 RMS     Displacement     0.085001     0.001200     NO 
 Predicted change in Energy=-5.194632D-02
 GradGradGradGradGradGradGradGradGradGradGradGradGradGradGradGradGradGrad

                          Input orientation:                          
 ---------------------------------------------------------------------
 Center     Atomic      Atomic             Coordinates (Angstroms)
 Number     Number       Type             X           Y           Z
 ---------------------------------------------------------------------
      1          6           0       -1.969142    0.139693    0.027907
      2          6           0       -1.983379   -1.229008    0.005646
      3          6           0       -0.771014   -1.887510   -0.017148
      4          6           0        0.397725   -1.180656   -0.002994
      5          6           0        0.440604    0.214980    0.001951
      6          6           0       -0.794862    0.861594    0.018961
      7          8           0       -0.857956    2.215293    0.048901
      8          6           0        1.690231    0.939261   -0.023877
      9          6           0        1.782973    2.445752   -0.016001
     10          8           0        2.745088    0.306449   -0.085706
     11          8           0        1.585134   -1.979163    0.044061
     12          8           0       -3.168605   -1.888749    0.010775
     13          1           0       -2.928790    0.667662    0.050498
     14          1           0       -0.753286   -2.984190   -0.024812
     15          1           0       -1.770714    2.506049    0.191990
     16          1           0        1.245212    2.884872   -0.871907
     17          1           0        1.397283    2.865229    0.927686
     18          1           0        2.840698    2.741629   -0.102613
     19          1           0        2.292827   -1.587034   -0.529860
     20          1           0        1.392381   -2.914107   -0.210738
     21          1           0       -3.025241   -2.841341   -0.095156
 ---------------------------------------------------------------------
                    Distance matrix (angstroms):
                    1          2          3          4          5
     1  C    0.000000
     2  C    1.368956   0.000000
     3  C    2.355227   1.379845   0.000000
     4  C    2.710412   2.381610   1.365940   0.000000
     5  C    2.411061   2.821490   2.426695   1.396304   0.000000
     6  C    1.378461   2.404863   2.749445   2.365065   1.394552
     7  O    2.354419   3.623762   4.104255   3.621035   2.385312
     8  C    3.746064   4.265873   3.748121   2.482954   1.444582
     9  C    4.404339   5.262104   5.029912   3.881999   2.603579
    10  O    4.718546   4.972360   4.145012   2.780006   2.307964
    11  O    4.137958   3.646710   2.358725   1.431702   2.475073
    12  O    2.356604   1.356483   2.397754   3.635972   4.177576
    13  H    1.095530   2.119710   3.345067   3.805896   3.400013
    14  H    3.352570   2.143530   1.096850   2.139634   3.414788
    15  H    2.380323   3.745744   4.510710   4.281582   3.189834
    16  H    4.321775   5.302632   5.250849   4.242849   2.922216
    17  H    4.423908   5.389045   5.308743   4.270184   2.965812
    18  H    5.470070   6.248952   5.872027   4.621944   3.486452
    19  H    4.632177   4.324452   3.120942   2.008517   2.638334
    20  H    4.547799   3.779171   2.402427   2.009316   3.277545
    21  H    3.164973   1.922305   2.448962   3.805661   4.621970
                    6          7          8          9         10
     6  C    0.000000
     7  O    1.355499   0.000000
     8  C    2.486676   2.850756   0.000000
     9  C    3.025891   2.651760   1.509363   0.000000
    10  O    3.584744   4.079673   1.231664   2.346730   0.000000
    11  O    3.706065   4.854089   2.921106   4.429743   2.566390
    12  O    3.633058   4.709958   5.622022   6.580786   6.308721
    13  H    2.142954   2.585249   4.627596   5.036540   5.686995
    14  H    3.846258   5.201058   4.622147   5.993075   4.803189
    15  H    1.920015   0.968577   3.805202   3.560280   5.030688
    16  H    3.008189   2.391556   2.168548   1.102084   3.084802
    17  H    3.105774   2.506149   2.168097   1.102390   3.064457
    18  H    4.094706   3.738988   2.139698   1.101738   2.437115
    19  H    3.978795   4.971930   2.645999   4.097239   1.996770
    20  H    4.369521   5.607332   3.869377   5.377599   3.495344
    21  H    4.324273   5.503400   6.044312   7.146925   6.573078
                   11         12         13         14         15
    11  O    0.000000
    12  O    4.754716   0.000000
    13  H    5.232709   2.567942   0.000000
    14  H    2.546179   2.652363   4.251413   0.000000
    15  H    5.603636   4.615321   2.177343   5.587923   0.000000
    16  H    4.961188   6.561125   4.815510   6.257591   3.220434
    17  H    4.927902   6.654950   4.930889   6.304593   3.272074
    18  H    4.887110   7.587159   6.132844   6.760753   4.626815
    19  H    0.991957   5.496413   5.717145   3.389088   5.812638
    20  H    0.988026   4.680066   5.618703   2.154847   6.288518
    21  H    4.692365   0.969127   3.513349   2.277528   5.500079
                   16         17         18         19         20
    16  H    0.000000
    17  H    1.806113   0.000000
    18  H    1.777050   1.777707   0.000000
    19  H    4.605697   4.769600   4.384066   0.000000
    20  H    5.838404   5.890396   5.839236   1.635165   0.000000
    21  H    7.185375   7.291767   8.098077   5.481249   4.419732
                   21
    21  H    0.000000
 Stoichiometry    C8H9O4(1+)
 Framework group  C1[X(C8H9O4)]
 Deg. of freedom    57
 Full point group                 C1      NOp   1
 Largest Abelian subgroup         C1      NOp   1
 Largest concise Abelian subgroup C1      NOp   1
                         Standard orientation:                         
 ---------------------------------------------------------------------
 Center     Atomic      Atomic             Coordinates (Angstroms)
 Number     Number       Type             X           Y           Z
 ---------------------------------------------------------------------
      1          6           0       -1.447070   -1.286509    0.005271
      2          6           0       -2.242813   -0.172588    0.008993
      3          6           0       -1.626382    1.061876   -0.000152
      4          6           0       -0.263656    1.151697   -0.026657
      5          6           0        0.571126    0.032491   -0.013239
      6          6           0       -0.071005   -1.205335    0.001962
      7          8           0        0.652709   -2.351420   -0.008183
      8          6           0        2.010432    0.155240   -0.001060
      9          6           0        2.949574   -1.026312    0.010010
     10          8           0        2.512797    1.279306    0.032145
     11          8           0        0.251572    2.485054   -0.107084
     12          8           0       -3.592204   -0.310885    0.017178
     13          1           0       -1.931184   -2.269266    0.008056
     14          1           0       -2.240176    1.970873   -0.007890
     15          1           0        0.070187   -3.115599   -0.130007
     16          1           0        2.766979   -1.675245    0.881866
     17          1           0        2.866669   -1.611780   -0.920376
     18          1           0        3.986604   -0.661072    0.080695
     19          1           0        1.060595    2.581706    0.458706
     20          1           0       -0.440168    3.146424    0.138441
     21          1           0       -4.019728    0.554164    0.107289
 ---------------------------------------------------------------------
 Rotational constants (GHZ):      1.4937004      0.7760399      0.5128929
 Standard basis: 6-31+G(d,p) (6D, 7F)
 There are   273 symmetry adapted cartesian basis functions of A   symmetry.
 There are   273 symmetry adapted basis functions of A   symmetry.
   273 basis functions,   447 primitive gaussians,   273 cartesian basis functions
    44 alpha electrons       44 beta electrons
       nuclear repulsion energy       715.3868999586 Hartrees.
 NAtoms=   21 NActive=   21 NUniq=   21 SFac= 1.00D+00 NAtFMM=   60 NAOKFM=F Big=F
 Integral buffers will be    131072 words long.
 Raffenetti 2 integral format.
 Two-electron integral symmetry is turned on.
 Nuclear repulsion after empirical dispersion term =      715.3479361457 Hartrees.
 One-electron integrals computed using PRISM.
 NBasis=   273 RedAO= T EigKep=  1.25D-06  NBF=   273
 NBsUse=   273 1.00D-06 EigRej= -1.00D+00 NBFU=   273
 Initial guess from the checkpoint file:  "b3lypTHAPyang.chk"
 B after Tr=    -0.000000    0.000000    0.000000
         Rot=    0.999993   -0.000401    0.000074    0.003740 Ang=  -0.43 deg.
 ExpMin= 4.38D-02 ExpMax= 5.48D+03 ExpMxC= 8.25D+02 IAcc=2 IRadAn=         4 AccDes= 0.00D+00
 Harris functional with IExCor=  402 and IRadAn=       4 diagonalized for initial guess.
 HarFok:  IExCor=  402 AccDes= 0.00D+00 IRadAn=         4 IDoV= 1 UseB2=F ITyADJ=14
 ICtDFT=  3500011 ScaDFX=  1.000000  1.000000  1.000000  1.000000
 FoFCou: FMM=F IPFlag=           0 FMFlag=      100000 FMFlg1=           0
         NFxFlg=           0 DoJE=T BraDBF=F KetDBF=T FulRan=T
         wScrn=  0.000000 ICntrl=     500 IOpCl=  0 I1Cent=   200000004 NGrid=           0
         NMat0=    1 NMatS0=      1 NMatT0=    0 NMatD0=    1 NMtDS0=    0 NMtDT0=    0
 Petite list used in FoFCou.
 Keep R1 ints in memory in canonical form, NReq=709970467.
 Requested convergence on RMS density matrix=1.00D-08 within 128 cycles.
 Requested convergence on MAX density matrix=1.00D-06.
 Requested convergence on             energy=1.00D-06.
 No special actions if energy rises.
 SCF Done:  E(RB3LYP) =  -610.935157231     A.U. after   14 cycles
            NFock= 14  Conv=0.93D-08     -V/T= 2.0087
 Calling FoFJK, ICntrl=      2127 FMM=F ISym2X=0 I1Cent= 0 IOpClX= 0 NMat=1 NMatS=1 NMatT=0.
 ***** Axes restored to original set *****
 -------------------------------------------------------------------
 Center     Atomic                   Forces (Hartrees/Bohr)
 Number     Number              X              Y              Z
 -------------------------------------------------------------------
      1        6          -0.031910954    0.016550369    0.000987212
      2        6          -0.019237569   -0.008675468   -0.000450492
      3        6           0.016038633   -0.037184639    0.000300742
      4        6          -0.025102610    0.006721184    0.000022158
      5        6           0.011409095    0.000412274    0.001098319
      6        6          -0.018755220    0.014074326    0.003525998
      7        8           0.004075696   -0.007214637    0.000613026
      8        6           0.023718833    0.023369335   -0.002470299
      9        6           0.006709863    0.007817056    0.000546581
     10        8           0.009822986   -0.023583154   -0.007099776
     11        8           0.006137519   -0.012457750   -0.009100801
     12        8           0.010331795    0.006065977   -0.001237380
     13        1           0.004810602   -0.003343036   -0.000538067
     14        1           0.000123722    0.004687711    0.000539564
     15        1           0.000241182    0.000245327   -0.001543208
     16        1          -0.001021624   -0.001775765    0.007966868
     17        1          -0.002870310   -0.001189275   -0.007421172
     18        1          -0.005166749   -0.007232956    0.000904138
     19        1           0.011822917    0.016221919    0.008654093
     20        1           0.002266368    0.006053290    0.003581491
     21        1          -0.003444175    0.000437912    0.001121003
 -------------------------------------------------------------------
 Cartesian Forces:  Max     0.037184639 RMS     0.011254183

 GradGradGradGradGradGradGradGradGradGradGradGradGradGradGradGradGradGrad
 Berny optimization.
 Using GEDIIS/GDIIS optimizer.
 FormGI is forming the generalized inverse of G from B-inverse, IUseBI=4.
 Internal  Forces:  Max     0.043248878 RMS     0.011681749
 Search for a local minimum.
 Step number   2 out of a maximum of  105
 All quantities printed in internal units (Hartrees-Bohrs-Radians)
 Mixed Optimization -- RFO/linear search
 Update second derivatives using D2CorX and points    1    2
 DE= -4.08D-02 DEPred=-5.19D-02 R= 7.85D-01
 TightC=F SS=  1.41D+00  RLast= 3.42D-01 DXNew= 5.0454D-01 1.0260D+00
 Trust test= 7.85D-01 RLast= 3.42D-01 DXMaxT set to 5.05D-01
 ITU=  1  0
 Use linear search instead of GDIIS.
     Eigenvalues ---    0.00544   0.01329   0.01441   0.02205   0.02224
     Eigenvalues ---    0.02369   0.02473   0.02613   0.02669   0.02705
     Eigenvalues ---    0.02752   0.02808   0.02842   0.02863   0.02865
     Eigenvalues ---    0.05348   0.06972   0.07399   0.15552   0.15996
     Eigenvalues ---    0.16000   0.16000   0.16000   0.16000   0.16000
     Eigenvalues ---    0.16000   0.16015   0.19478   0.23497   0.23839
     Eigenvalues ---    0.24994   0.24994   0.24997   0.24999   0.25000
     Eigenvalues ---    0.30429   0.31140   0.32244   0.32303   0.33023
     Eigenvalues ---    0.33359   0.33905   0.42676   0.47957   0.49119
     Eigenvalues ---    0.50205   0.50217   0.52554   0.52917   0.53135
     Eigenvalues ---    0.53217   0.53306   0.54388   0.56258   0.56900
     Eigenvalues ---    0.83150   1.03175
 RFO step:  Lambda=-6.00354177D-02 EMin= 5.43518852D-03
 Quartic linear search produced a step of  0.35250.
 Iteration  1 RMS(Cart)=  0.21425301 RMS(Int)=  0.01517416
 Iteration  2 RMS(Cart)=  0.02837859 RMS(Int)=  0.00147829
 Iteration  3 RMS(Cart)=  0.00060442 RMS(Int)=  0.00140320
 Iteration  4 RMS(Cart)=  0.00000132 RMS(Int)=  0.00140320
 Iteration  5 RMS(Cart)=  0.00000001 RMS(Int)=  0.00140320
 Variable       Old X    -DE/DX   Delta X   Delta X   Delta X     New X
                                 (Linear)    (Quad)   (Total)
    R1        2.58695   0.02401   0.01848   0.06218   0.08048   2.66743
    R2        2.60491   0.02157   0.02250   0.05955   0.08174   2.68666
    R3        2.07025  -0.00584  -0.00536  -0.02189  -0.02725   2.04300
    R4        2.60753   0.02874   0.02592   0.07494   0.10095   2.70848
    R5        2.56338  -0.00918  -0.00313  -0.02147  -0.02460   2.53878
    R6        2.58125   0.00940   0.01595   0.02779   0.04401   2.62527
    R7        2.07275  -0.00469  -0.00387  -0.01727  -0.02113   2.05161
    R8        2.63863  -0.00565   0.02471   0.00195   0.02692   2.66555
    R9        2.70552   0.01140   0.00893   0.03490   0.04383   2.74936
   R10        2.63532   0.02761   0.02868   0.07449   0.10305   2.73837
   R11        2.72986   0.02582   0.04862   0.08884   0.13747   2.86733
   R12        2.56152  -0.00718  -0.00285  -0.01699  -0.01983   2.54169
   R13        1.83034  -0.00038  -0.00122  -0.00161  -0.00283   1.82752
   R14        2.85228  -0.00252  -0.00496  -0.01171  -0.01667   2.83561
   R15        2.32751   0.02089   0.01593   0.03508   0.05101   2.37851
   R16        2.08264  -0.00640  -0.00711  -0.02530  -0.03241   2.05023
   R17        2.08322  -0.00580  -0.00700  -0.02332  -0.03033   2.05289
   R18        2.08198  -0.00697  -0.00798  -0.02779  -0.03578   2.04621
   R19        1.87453   0.00984   0.00405   0.02437   0.02842   1.90294
   R20        1.86710  -0.00709  -0.00275  -0.01778  -0.02053   1.84657
   R21        1.83138  -0.00107  -0.00116  -0.00300  -0.00416   1.82722
    A1        2.13218  -0.00583  -0.00802  -0.02064  -0.02918   2.10300
    A2        2.06356   0.00228   0.00201   0.00553   0.00777   2.07133
    A3        2.08744   0.00355   0.00601   0.01508   0.02131   2.10875
    A4        2.05813   0.00557   0.00558   0.03451   0.03994   2.09807
    A5        2.08897  -0.00884  -0.01133  -0.04690  -0.05821   2.03076
    A6        2.13608   0.00327   0.00574   0.01235   0.01813   2.15421
    A7        2.09977  -0.01463  -0.00724  -0.06868  -0.07568   2.02409
    A8        2.08458   0.00747   0.00424   0.03552   0.03940   2.12398
    A9        2.09861   0.00713   0.00294   0.03276   0.03551   2.13412
   A10        2.14546   0.01954   0.01462   0.08063   0.09563   2.24108
   A11        2.00574   0.02335  -0.00480   0.09354   0.08820   2.09393
   A12        2.13162  -0.04293  -0.00991  -0.17479  -0.18490   1.94672
   A13        2.02226  -0.00293  -0.01813  -0.02969  -0.04773   1.97454
   A14        2.12662  -0.04034   0.01966  -0.14574  -0.12625   2.00036
   A15        2.13425   0.04325  -0.00155   0.17505   0.17283   2.30708
   A16        2.10825  -0.00174   0.01314   0.00341   0.01587   2.12413
   A17        2.07511   0.00628   0.00751   0.02904   0.03648   2.11159
   A18        2.09967  -0.00451  -0.02050  -0.03190  -0.05242   2.04725
   A19        1.92508   0.00065  -0.00100   0.00307   0.00207   1.92714
   A20        2.15734   0.01139  -0.02111   0.03200   0.01070   2.16804
   A21        2.07620  -0.02337   0.03894  -0.06892  -0.03016   2.04604
   A22        2.04929   0.01194  -0.01794   0.03623   0.01809   2.06739
   A23        1.94298   0.00114   0.00018   0.00443   0.00466   1.94764
   A24        1.94203   0.00136   0.00097   0.00582   0.00684   1.94886
   A25        1.90353  -0.00704  -0.00856  -0.04047  -0.04890   1.85463
   A26        1.92036  -0.00414  -0.00638  -0.03502  -0.04144   1.87892
   A27        1.87591   0.00460   0.00749   0.03508   0.04269   1.91859
   A28        1.87653   0.00426   0.00671   0.03208   0.03893   1.91547
   A29        1.93072  -0.00090   0.00543   0.01521   0.01640   1.94712
   A30        1.93638   0.00624   0.00539   0.05534   0.05659   1.99296
   A31        1.94341   0.00708   0.01497   0.08006   0.08887   2.03227
   A32        1.92665   0.00620   0.00963   0.04077   0.05039   1.97705
    D1        0.00782   0.00063   0.00182   0.01034   0.01229   0.02011
    D2       -3.13732  -0.00019  -0.00035  -0.00124  -0.00191  -3.13923
    D3       -3.13700   0.00001   0.00005  -0.00014   0.00002  -3.13698
    D4        0.00105  -0.00081  -0.00212  -0.01172  -0.01418  -0.01312
    D5       -0.01296   0.00043   0.00107   0.00606   0.00789  -0.00507
    D6       -3.13607  -0.00172  -0.00466  -0.02755  -0.03349   3.11362
    D7        3.13189   0.00106   0.00285   0.01669   0.02045  -3.13084
    D8        0.00878  -0.00109  -0.00288  -0.01692  -0.02093  -0.01215
    D9        0.01201  -0.00053  -0.00097  -0.00551  -0.00752   0.00450
   D10        3.13064  -0.00188  -0.00430  -0.02534  -0.03166   3.09899
   D11       -3.12593   0.00034   0.00123   0.00654   0.00788  -3.11805
   D12       -0.00730  -0.00101  -0.00210  -0.01330  -0.01626  -0.02356
   D13        3.04417   0.00117   0.00266   0.01788   0.02070   3.06487
   D14       -0.10113   0.00031   0.00039   0.00580   0.00604  -0.09509
   D15       -0.02769  -0.00119  -0.00318  -0.01827  -0.02252  -0.05021
   D16        3.08496  -0.00335  -0.00807  -0.04483  -0.05657   3.02839
   D17        3.13706   0.00017   0.00017   0.00169   0.00173   3.13879
   D18       -0.03348  -0.00198  -0.00472  -0.02486  -0.03232  -0.06580
   D19        0.02189   0.00232   0.00604   0.03399   0.04100   0.06289
   D20       -3.10829   0.00445   0.01057   0.06898   0.07579  -3.03250
   D21       -3.08871   0.00346   0.01121   0.05768   0.06866  -3.02005
   D22        0.06430   0.00558   0.01573   0.09267   0.10345   0.16775
   D23        2.46273   0.01472   0.03218   0.22369   0.25699   2.71972
   D24        0.29689   0.00180   0.00609   0.07028   0.07333   0.37023
   D25       -0.70755   0.01372   0.02757   0.20202   0.23262  -0.47493
   D26       -2.87339   0.00080   0.00148   0.04861   0.04896  -2.82442
   D27       -0.00169  -0.00161  -0.00478  -0.02626  -0.03040  -0.03209
   D28        3.12116   0.00068   0.00163   0.00848   0.01044   3.13160
   D29        3.12843  -0.00434  -0.00935  -0.06372  -0.07563   3.05281
   D30       -0.03190  -0.00205  -0.00294  -0.02899  -0.03479  -0.06670
   D31       -3.13872   0.00192   0.00568   0.02786   0.03281  -3.10591
   D32        0.03223   0.00314   0.01244   0.05612   0.06765   0.09988
   D33        0.01502   0.00453   0.01049   0.06662   0.07802   0.09304
   D34       -3.09722   0.00575   0.01725   0.09488   0.11285  -2.98437
   D35        0.13033  -0.00020   0.00079  -0.00352  -0.00269   0.12764
   D36       -2.99287  -0.00237  -0.00563  -0.03734  -0.04301  -3.03588
   D37       -1.01444   0.00240   0.00675   0.02835   0.03509  -0.97935
   D38        1.13454  -0.00115  -0.00069  -0.00953  -0.01009   1.12445
   D39       -3.08145   0.00049   0.00280   0.00800   0.01085  -3.07060
   D40        2.09822   0.00064   0.00039  -0.00116  -0.00089   2.09733
   D41       -2.03599  -0.00291  -0.00705  -0.03904  -0.04607  -2.08206
   D42        0.03121  -0.00128  -0.00356  -0.02151  -0.02513   0.00608
         Item               Value     Threshold  Converged?
 Maximum Force            0.043249     0.000450     NO 
 RMS     Force            0.011682     0.000300     NO 
 Maximum Displacement     0.974573     0.001800     NO 
 RMS     Displacement     0.231001     0.001200     NO 
 Predicted change in Energy=-3.691577D-02
 GradGradGradGradGradGradGradGradGradGradGradGradGradGradGradGradGradGrad

                          Input orientation:                          
 ---------------------------------------------------------------------
 Center     Atomic      Atomic             Coordinates (Angstroms)
 Number     Number       Type             X           Y           Z
 ---------------------------------------------------------------------
      1          6           0       -2.161088    0.098290    0.048376
      2          6           0       -2.083626   -1.309494   -0.019433
      3          6           0       -0.807316   -1.960825   -0.051767
      4          6           0        0.302703   -1.126676   -0.006863
      5          6           0        0.339083    0.283289    0.011146
      6          6           0       -0.977706    0.886157    0.060717
      7          8           0       -1.040394    2.229314    0.092888
      8          6           0        1.730241    0.880859   -0.088204
      9          6           0        2.021727    2.352176   -0.044718
     10          8           0        2.685733    0.085844   -0.286199
     11          8           0        1.636288   -1.696908    0.107658
     12          8           0       -3.252716   -1.971341   -0.028998
     13          1           0       -3.136601    0.563493    0.075904
     14          1           0       -0.719266   -3.042840   -0.064515
     15          1           0       -1.953463    2.521485    0.220102
     16          1           0        1.473344    2.890622   -0.810508
     17          1           0        1.757236    2.785142    0.915867
     18          1           0        3.086571    2.455407   -0.211814
     19          1           0        2.338451   -1.071313   -0.252393
     20          1           0        1.698415   -2.630043   -0.175619
     21          1           0       -3.150451   -2.925933   -0.144064
 ---------------------------------------------------------------------
                    Distance matrix (angstroms):
                    1          2          3          4          5
     1  C    0.000000
     2  C    1.411543   0.000000
     3  C    2.466309   1.433264   0.000000
     4  C    2.752064   2.393355   1.389231   0.000000
     5  C    2.507282   2.899554   2.520761   1.410550   0.000000
     6  C    1.421717   2.459750   2.854293   2.386527   1.449082
     7  O    2.408152   3.691085   4.199108   3.616148   2.386765
     8  C    3.971588   4.398632   3.809947   2.464687   1.517327
     9  C    4.752326   5.501127   5.158053   3.880578   2.667340
    10  O    4.858370   4.976436   4.055268   2.688320   2.373639
    11  O    4.200751   3.742192   2.462980   1.454898   2.369227
    12  O    2.341156   1.343467   2.445529   3.654443   4.240989
    13  H    1.081109   2.150797   3.437157   3.833058   3.487561
    14  H    3.458076   2.206354   1.085666   2.172424   3.491269
    15  H    2.438129   3.840667   4.634509   4.295449   3.210756
    16  H    4.663035   5.560469   5.414207   4.260860   2.959704
    17  H    4.829594   5.691490   5.480642   4.274274   3.014787
    18  H    5.758613   6.398627   5.889913   4.541282   3.509486
    19  H    4.658785   4.434610   3.275260   2.051248   2.429377
    20  H    4.731779   4.009000   2.596513   2.058301   3.220275
    21  H    3.187757   1.940753   2.535791   3.896206   4.743421
                    6          7          8          9         10
     6  C    0.000000
     7  O    1.345004   0.000000
     8  C    2.712044   3.086672   0.000000
     9  C    3.340198   3.067672   1.500543   0.000000
    10  O    3.765851   4.315343   1.258656   2.373916   0.000000
    11  O    3.675240   4.751848   2.586904   4.070241   2.105864
    12  O    3.653630   4.749181   5.741813   6.820029   6.289939
    13  H    2.182927   2.677560   4.879939   5.460978   5.853104
    14  H    3.939478   5.284269   4.625587   6.051415   4.629451
    15  H    1.910970   0.967080   4.044303   3.987597   5.264107
    16  H    3.283985   2.751787   2.151015   1.084934   3.100252
    17  H    3.437634   2.968665   2.152947   1.086341   3.097302
    18  H    4.365222   4.144370   2.081852   1.082807   2.404378
    19  H    3.863498   4.736026   2.051305   3.444375   1.208619
    20  H    4.425058   5.584489   3.512134   4.994414   2.891896
    21  H    4.392583   5.575397   6.189988   7.390516   6.569021
                   11         12         13         14         15
    11  O    0.000000
    12  O    4.898607   0.000000
    13  H    5.281182   2.539660   0.000000
    14  H    2.718420   2.750953   4.343831   0.000000
    15  H    5.540198   4.683545   2.292235   5.706660   0.000000
    16  H    4.681347   6.825327   5.239546   6.369459   3.597419
    17  H    4.555941   6.972554   5.439751   6.407775   3.784560
    18  H    4.409887   7.734085   6.510759   6.688558   5.058938
    19  H    1.006995   5.667548   5.723334   3.643054   5.617114
    20  H    0.977162   4.996908   5.799941   2.455183   6.327010
    21  H    4.948408   0.966925   3.496380   2.435294   5.589254
                   16         17         18         19         20
    16  H    0.000000
    17  H    1.752738   0.000000
    18  H    1.774921   1.774125   0.000000
    19  H    4.093510   4.071227   3.605424   0.000000
    20  H    5.561607   5.524403   5.271630   1.686766   0.000000
    21  H    7.460291   7.604290   8.237952   5.794773   4.857988
                   21
    21  H    0.000000
 Stoichiometry    C8H9O4(1+)
 Framework group  C1[X(C8H9O4)]
 Deg. of freedom    57
 Full point group                 C1      NOp   1
 Largest Abelian subgroup         C1      NOp   1
 Largest concise Abelian subgroup C1      NOp   1
                         Standard orientation:                         
 ---------------------------------------------------------------------
 Center     Atomic      Atomic             Coordinates (Angstroms)
 Number     Number       Type             X           Y           Z
 ---------------------------------------------------------------------
      1          6           0       -1.696116   -1.203040   -0.003794
      2          6           0       -2.330562    0.057307    0.034410
      3          6           0       -1.549372    1.258822    0.015755
      4          6           0       -0.172071    1.088102   -0.046354
      5          6           0        0.562910   -0.115802   -0.038170
      6          6           0       -0.277821   -1.296060   -0.036462
      7          8           0        0.337751   -2.491922   -0.040744
      8          6           0        2.068065    0.063157    0.030854
      9          6           0        3.054266   -1.067538    0.007095
     10          8           0        2.502306    1.234483    0.184619
     11          8           0        0.696811    2.243247   -0.211924
     12          8           0       -3.673619    0.048191    0.066312
     13          1           0       -2.309527   -2.093213    0.007022
     14          1           0       -2.012946    2.240481    0.004917
     15          1           0       -0.309561   -3.204235   -0.134776
     16          1           0        2.860477   -1.783040    0.799297
     17          1           0        3.025471   -1.604981   -0.936549
     18          1           0        4.031082   -0.620842    0.144069
     19          1           0        1.623303    2.062749    0.138890
     20          1           0        0.289526    3.091600    0.051253
     21          1           0       -4.059599    0.929797    0.159765
 ---------------------------------------------------------------------
 Rotational constants (GHZ):      1.5201981      0.7339967      0.4979828
 Standard basis: 6-31+G(d,p) (6D, 7F)
 There are   273 symmetry adapted cartesian basis functions of A   symmetry.
 There are   273 symmetry adapted basis functions of A   symmetry.
   273 basis functions,   447 primitive gaussians,   273 cartesian basis functions
    44 alpha electrons       44 beta electrons
       nuclear repulsion energy       708.4922959237 Hartrees.
 NAtoms=   21 NActive=   21 NUniq=   21 SFac= 1.00D+00 NAtFMM=   60 NAOKFM=F Big=F
 Integral buffers will be    131072 words long.
 Raffenetti 2 integral format.
 Two-electron integral symmetry is turned on.
 Nuclear repulsion after empirical dispersion term =      708.4544449146 Hartrees.
 One-electron integrals computed using PRISM.
 NBasis=   273 RedAO= T EigKep=  1.67D-06  NBF=   273
 NBsUse=   273 1.00D-06 EigRej= -1.00D+00 NBFU=   273
 Initial guess from the checkpoint file:  "b3lypTHAPyang.chk"
 B after Tr=     0.000000   -0.000000    0.000000
         Rot=    0.999032    0.001669    0.000853    0.043951 Ang=   5.04 deg.
 ExpMin= 4.38D-02 ExpMax= 5.48D+03 ExpMxC= 8.25D+02 IAcc=2 IRadAn=         4 AccDes= 0.00D+00
 Harris functional with IExCor=  402 and IRadAn=       4 diagonalized for initial guess.
 HarFok:  IExCor=  402 AccDes= 0.00D+00 IRadAn=         4 IDoV= 1 UseB2=F ITyADJ=14
 ICtDFT=  3500011 ScaDFX=  1.000000  1.000000  1.000000  1.000000
 FoFCou: FMM=F IPFlag=           0 FMFlag=      100000 FMFlg1=           0
         NFxFlg=           0 DoJE=T BraDBF=F KetDBF=T FulRan=T
         wScrn=  0.000000 ICntrl=     500 IOpCl=  0 I1Cent=   200000004 NGrid=           0
         NMat0=    1 NMatS0=      1 NMatT0=    0 NMatD0=    1 NMtDS0=    0 NMtDT0=    0
 Petite list used in FoFCou.
 Keep R1 ints in memory in canonical form, NReq=709970467.
 Requested convergence on RMS density matrix=1.00D-08 within 128 cycles.
 Requested convergence on MAX density matrix=1.00D-06.
 Requested convergence on             energy=1.00D-06.
[...]
 989,0.12774261,-0.20099382,-0.00909982,0.04932757,-0.04147952,-0.00338
 038,-0.09383834,0.66684700,0.00012451,0.00040698,-0.00144651,-0.000259
 60,-0.00033628,0.00028496,0.00008826,0.00005245,-0.00017433,0.00055224
 ,-0.00139575,-0.00339962,0.00369624,0.00016598,0.01814414,-0.00053090,
 0.00024642,0.00868479,0.00011999,-0.00026042,0.00003117,0.01404354,-0.
 00872429,-0.05871764,0.00204233,-0.00223750,0.00940102,-0.01770601,0.0
 2326117,0.05293940,0.00351903,0.01266171,0.00021979,0.00967667,-0.0195
 4534,-0.00061579,-0.06856908,0.02886323,0.00404543,-0.26327860,0.04882
 717,0.01012083,0.01376023,0.02244238,0.00034427,-0.01424743,-0.0051320
 0,0.00044719,0.00181487,0.00296042,0.00004516,-0.02908012,-0.00220408,
 0.00089246,0.00101078,0.00032244,-0.00000381,0.01192472,-0.02895636,-0
 .00123380,0.39075495,0.00137306,-0.00109424,-0.00003798,-0.00532346,-0
 .00212041,-0.00017857,-0.00545841,0.01552215,0.00029222,0.10356580,-0.
 16420977,-0.00787806,0.04121391,-0.03091927,-0.00267108,-0.00521646,-0
 .00444453,-0.00002997,0.00296435,-0.00140751,-0.00017099,0.00414628,0.
 00586594,0.00008339,0.00139375,-0.00210239,-0.00014210,-0.01654175,-0.
 02181656,-0.00027332,-0.04000673,0.71353443,-0.00014907,-0.00047517,-0
 .00153352,-0.00019210,0.00036272,0.00980523,0.00289942,-0.00098146,0.0
 1227144,0.01178231,-0.00574697,-0.04198559,0.00088507,-0.00193037,0.00
 269507,0.00047158,-0.00001025,0.00245270,0.00004344,-0.00017355,0.0005
 3024,0.00113522,0.00030882,-0.00156605,0.00003637,-0.00010859,0.000559
 49,-0.00082878,0.00022753,0.00345335,-0.01532543,0.02229287,0.02641211
 ,-0.00996211,-0.02969419,-0.00031139,-0.31271258,-0.07348011,0.0075658
 4,-0.06064771,-0.02368743,0.00197804,0.00807895,0.01284120,0.00041320,
 -0.01245844,-0.00871469,0.00013182,0.00947819,0.00673309,0.00003343,0.
 00002194,-0.00180790,-0.00007924,0.01261833,0.00433639,-0.00031980,0.0
 0063258,-0.00182239,-0.00007704,-0.00633281,0.00273611,0.00031076,-0.0
 0417346,0.00013020,0.00010627,0.42050146,-0.06190748,-0.04246752,0.000
 72409,-0.12464281,-0.16649197,0.00083682,0.00750838,0.01573713,-0.0001
 9162,0.00185441,-0.00373102,-0.00044568,-0.00938889,-0.00177004,0.0003
 2233,0.01745784,0.00002987,-0.00079334,-0.00301929,-0.00521451,-0.0000
 3285,0.00797272,0.00318665,-0.00017349,0.00034805,-0.00102484,-0.00005
 018,-0.00459932,0.00262743,0.00024955,0.00219129,0.00136680,0.00001313
 ,0.09521074,0.69524674,-0.00134335,-0.00047199,0.00715876,0.00593835,-
 0.00106910,-0.04738434,0.00299718,0.00097339,0.01276182,0.00006123,-0.
 00086167,0.00791894,0.00012351,0.00030636,-0.00111694,0.00037246,-0.00
 039443,0.00452149,-0.00011859,-0.00008233,-0.00056888,-0.00022679,-0.0
 0005204,-0.00025371,-0.00000843,0.00003163,0.00011933,0.00008962,-0.00
 001773,-0.00002373,0.00016443,0.00008930,-0.00151708,-0.01149193,0.017
 61499,0.03238997,-0.27882756,0.12172890,0.01321566,0.00417725,-0.00095
 398,-0.00005643,0.00083094,-0.00095424,0.00009839,-0.00004308,-0.00079
 694,-0.00006959,-0.00136485,-0.00347457,0.00014006,-0.01865678,0.01437
 203,0.00125951,0.00273125,0.00119431,-0.00024715,-0.00038545,0.0011106
 7,0.00009441,0.00007103,0.00000078,-0.00000630,-0.00044689,-0.00016097
 ,-0.00001556,0.00029949,0.00001071,-0.00001546,0.00006383,-0.00043985,
 -0.00012691,0.29205471,0.12041422,-0.12436958,-0.00753475,0.03065137,-
 0.01108010,-0.00160427,-0.00184039,-0.00508324,-0.00023232,-0.00117791
 ,-0.00104550,0.00005008,-0.00214341,-0.00178777,-0.00014846,-0.0163728
 0,0.00937881,0.00081878,-0.00083451,0.00282718,0.00027515,-0.00071198,
 0.00067227,0.00001326,-0.00002967,0.00004859,0.00000527,-0.00034134,-0
 .00003012,0.00003149,0.00037274,0.00028134,-0.00000132,0.00011264,0.00
 248169,0.00016865,-0.12923175,0.12832799,0.01317226,-0.00757396,-0.029
 46863,0.00094781,-0.00043410,0.00341373,0.00007304,-0.00026475,0.00429
 199,-0.00007976,0.00003952,-0.00122470,0.00017825,-0.00010002,0.005339
 36,0.00027536,-0.00033696,0.00287306,-0.00030897,0.00020235,-0.0048546
 4,0.00003657,-0.00005717,0.00111817,-0.00000687,0.00000387,-0.00009753
 ,-0.00001850,0.00002814,-0.00066533,-0.00000361,0.00001005,-0.00010704
 ,-0.00010601,0.00019108,-0.00293836,-0.01424972,0.00825171,0.02136747,
 -0.00479820,0.00151155,0.00037135,0.00419774,0.02868223,0.00086066,-0.
 05923652,-0.00019578,0.00122171,0.00256980,-0.02859467,-0.00089788,-0.
 00430999,-0.00063146,0.00033948,-0.00162079,-0.00020501,0.00000582,0.0
 0040019,0.00019426,-0.00001051,0.00056814,-0.00150571,-0.00002506,-0.0
 0043780,0.00004969,0.00000132,0.00006926,0.00022148,0.00000373,0.00287
 721,-0.00065344,-0.00031521,0.00296773,0.00011958,-0.00023559,0.000312
 64,0.00140466,0.00005234,0.05896392,0.00253787,0.00082290,-0.00019395,
 -0.00388819,-0.01267779,-0.00033636,-0.00058567,-0.33985583,-0.0102137
 5,0.00317116,-0.01289160,-0.00065725,-0.00233896,0.00109961,-0.0000512
 2,0.00023982,0.00059992,0.00005159,-0.00010307,-0.00001170,0.00000492,
 0.00089302,-0.00068013,-0.00008853,-0.00023902,0.00006872,0.00002338,-
 0.00025722,0.00054213,0.00002809,0.00126316,0.00274290,0.00020600,-0.0
 0043779,0.00242578,0.00020576,-0.00018392,-0.00055922,-0.00002861,0.00
 032667,0.35866259,0.00040257,-0.00015555,0.00381821,-0.00021698,-0.001
 54812,0.00205561,0.00122564,-0.01024695,-0.02695156,0.00012908,0.00053
 807,0.00355583,0.00028770,-0.00011428,0.00531910,0.00002379,0.00007161
 ,-0.00129404,-0.00002053,-0.00000928,-0.00004366,0.00004850,0.00000073
 ,0.00110826,-0.00000438,0.00001284,-0.00039794,-0.00001390,0.00001012,
 -0.00003552,-0.00025709,0.00026869,-0.00502488,-0.00024791,0.00018615,
 -0.00334890,0.00000241,-0.00008817,0.00054135,-0.00150150,0.01110165,0
 .01900688,0.00197497,-0.00782027,-0.00039969,-0.00132808,0.00241645,0.
 00008886,0.00133012,-0.00029386,-0.00006207,-0.00083636,-0.00098097,0.
 00004825,0.00327769,-0.00087866,-0.00001675,0.00223687,0.00031988,-0.0
 0014834,-0.45015955,0.17397975,0.02194624,-0.00117465,-0.00095113,-0.0
 0001082,-0.00105601,-0.00056627,0.00003596,0.00081024,-0.00034548,-0.0
 0004892,0.00022036,-0.00012751,-0.00001192,-0.00055878,-0.00078337,-0.
 00000366,-0.00075525,0.00009510,0.00006560,-0.00006711,0.00004493,0.00
 000559,0.44678257,0.00156388,0.00350867,0.00012050,0.00016459,-0.00230
 743,-0.00004961,-0.00125105,0.00035768,0.00006156,0.00278735,0.0007776
 7,-0.00012197,-0.00370747,-0.00589898,-0.00016127,0.04713528,-0.026198
 26,-0.00251751,0.12122214,-0.09456430,-0.00722934,0.00105494,0.0000386
 1,-0.00001628,-0.00081473,-0.00043719,0.00000103,-0.00066344,0.0002661
 9,0.00003938,-0.00097120,-0.00018262,0.00003202,0.00069660,0.00107208,
 0.00000784,-0.00206594,-0.00030297,0.00003991,-0.00017019,0.00007889,0
 .00000783,-0.16497611,0.12341111,-0.00010344,0.00047100,-0.00210772,0.
 00001853,-0.00013456,-0.00099531,-0.00009560,0.00002413,-0.00009828,0.
 00016847,0.00001970,0.00135018,-0.00011166,-0.00026477,0.00340826,0.00
 133067,-0.00077641,-0.00206364,0.02028413,-0.00919286,-0.00937685,0.00
 005776,0.00005763,-0.00062668,0.00002859,-0.00000975,0.00047576,-0.000
 05903,0.00002869,-0.00023935,-0.00003837,-0.00000105,0.00003103,0.0000
 4393,0.00006301,0.00001806,-0.00000358,-0.00004093,0.00088347,-0.00000
 114,-0.00000065,0.00004682,-0.02155854,0.00979084,0.00883648,-0.000067
 54,0.00008372,-0.00027167,0.00081641,-0.00019895,-0.00017322,-0.000939
 87,0.00035036,0.00019538,0.00024545,0.00178960,-0.00035740,-0.00355843
 ,-0.00191519,-0.00024384,0.00126710,-0.00409618,0.00002726,-0.00277890
 ,0.00149589,0.00143856,0.00237867,0.00463180,0.00635131,-0.10347523,0.
 04909929,-0.10412142,0.00072837,0.00006076,-0.00051641,0.00041006,-0.0
 0031796,-0.00006369,-0.00063646,-0.00028871,0.00003661,-0.00005469,-0.
 00000054,0.00006380,-0.00000290,-0.00000109,0.00003526,-0.00029190,0.0
 0000727,-0.00002327,0.11149551,0.00011639,0.00015082,0.00011130,0.0001
 5281,-0.00029452,-0.00005055,-0.00030059,0.00005489,0.00034942,0.00031
 742,0.00016769,-0.00121058,-0.00085848,-0.00015112,-0.00181155,-0.0002
 8384,-0.00126694,0.00062823,-0.00001785,0.00021636,-0.00038951,0.01706
 361,-0.01439458,0.02730101,0.05155131,-0.09361033,0.09381530,-0.000945
 38,-0.00475139,-0.00049605,-0.00029231,-0.00007738,-0.00014253,-0.0000
 1064,0.00003778,-0.00003942,-0.00000480,0.00001937,0.00000808,0.000014
 63,0.00000804,0.00008568,0.00013142,0.00031486,-0.00026664,-0.05929529
 ,0.10410950,-0.00028432,-0.00074316,-0.00024997,-0.00003787,0.00048854
 ,-0.00003418,0.00014361,-0.00002492,0.00001775,-0.00007294,0.00013173,
 0.00011005,-0.00025306,0.00007586,0.00066698,-0.00011738,0.00158515,0.
 00017474,-0.00077017,-0.00114944,0.00036178,0.00246051,-0.00129562,0.0
 0219802,-0.10206538,0.09335983,-0.20239288,0.00111618,-0.00173828,-0.0
 0099820,0.00013754,-0.00020942,-0.00010747,-0.00017560,-0.00020182,0.0
 0000366,0.00003794,-0.00000086,0.00003973,0.00001009,-0.00000509,-0.00
 000408,-0.00033083,-0.00023827,0.00002358,0.11052276,-0.09927705,0.219
 99161,-0.00002965,0.00011849,0.00026167,0.00082662,-0.00024015,0.00009
 450,-0.00095809,0.00036172,-0.00010190,0.00027882,0.00174839,0.0004641
 7,-0.00350878,-0.00193704,0.00042302,0.00125912,-0.00419309,-0.0003768
 4,-0.00281688,0.00165583,-0.00110281,0.00180217,0.00508815,-0.00607109
 ,-0.08929413,0.03610893,0.09847073,0.00067679,0.00014255,0.00041240,0.
 00040139,-0.00030531,0.00000276,-0.00062458,-0.00027264,-0.00000705,-0
 .00006175,0.00000305,-0.00005711,-0.00000637,0.00000159,-0.00003516,-0
 .00026761,0.00002350,0.00004414,0.00450334,-0.00532262,-0.01226002,0.0
 9629952,0.00008905,0.00010813,-0.00009445,0.00015296,-0.00026378,0.000
 02476,-0.00031511,0.00007514,-0.00032280,0.00039587,0.00010132,0.00118
 387,-0.00075082,-0.00026723,0.00180983,-0.00033533,-0.00113080,-0.0006
 8912,-0.00004912,0.00012263,0.00037525,0.01518971,-0.01259263,-0.02941
 142,0.03866381,-0.08180436,-0.08871186,-0.00084197,-0.00487865,0.00030
 550,-0.00027063,-0.00010373,0.00016167,-0.00001983,0.00002157,0.000042
 09,-0.00000324,0.00001980,-0.00000966,0.00000851,0.00001313,-0.0000856
 5,0.00012857,0.00028187,0.00027432,-0.00527107,0.00607391,0.01208722,-
 0.04547832,0.09155541,0.00027715,0.00076158,-0.00024908,-0.00001339,-0
 .00048953,-0.00007394,-0.00009700,0.00000230,0.00001654,0.00008760,-0.
 00025472,0.00013949,0.00050207,-0.00000074,0.00073066,0.00001447,-0.00
 137857,0.00004961,0.00099532,0.00102632,0.00048414,-0.00145139,-0.0000
 2831,0.00097687,0.09658671,-0.08807551,-0.22835036,-0.00128859,0.00148
 039,-0.00081707,-0.00019071,0.00023353,-0.00007183,0.00021959,0.000223
 32,0.00000668,-0.00003084,-0.00000051,0.00004622,-0.00000945,0.0000059
 8,-0.00000591,0.00036129,0.00025389,0.00003006,0.01008818,-0.00992852,
 -0.02144206,-0.10474584,0.09414081,0.24772542,-0.00010312,-0.00031807,
 -0.00001349,-0.00007934,0.00025202,0.00001255,0.00019328,-0.00006344,-
 0.00001702,-0.00029864,0.00025662,0.00004954,0.00095359,0.00025834,0.0
 0003919,0.00001822,0.00108720,0.00002096,-0.00108659,-0.00036440,0.000
 06311,-0.00382284,-0.00095675,0.00003237,-0.31900272,-0.05879700,0.007
 57864,0.00101725,0.00319629,0.00003676,0.00034117,0.00011190,-0.000011
 77,-0.00002142,-0.00006485,-0.00000127,0.00002362,0.00000805,0.0000002
 6,0.00001172,-0.00000429,-0.00000292,-0.00008172,-0.00030619,-0.000003
 65,-0.01019951,-0.00274526,0.00182277,-0.00863487,-0.00214090,-0.00118
 524,0.34049565,0.00004963,0.00046448,0.00001987,0.00031635,-0.00022371
 ,-0.00002078,0.00000179,-0.00052731,-0.00000976,-0.00179077,0.00033726
 ,0.00004783,0.00230017,-0.00541866,-0.00031665,0.00071146,-0.00133820,
 -0.00005769,0.00116334,0.00115594,-0.00003656,-0.03824568,-0.01171765,
 0.00103278,-0.05022845,-0.06050505,0.00141280,-0.00042021,0.00225025,0
 .00011538,0.00044489,0.00019517,-0.00000483,-0.00010415,0.00001137,0.0
 0000426,-0.00004982,-0.00000825,0.00000088,-0.00015329,-0.00007339,0.0
 0000577,0.00025199,0.00016786,-0.00000717,0.01349631,0.00357302,-0.002
 71977,0.01211918,0.00295760,0.00190692,0.06041320,0.06888318,-0.000002
 32,0.00003384,-0.00021420,0.00001458,-0.00001826,0.00004008,-0.0000152
 1,-0.00000815,-0.00022371,-0.00001744,-0.00002545,0.00084724,0.0001076
 0,-0.00024415,0.00181664,0.00000887,-0.00007216,-0.00035238,0.00011422
 ,0.00002036,0.00101777,-0.00117589,-0.00028302,-0.00197827,0.00785360,
 0.00171403,-0.04970241,-0.00008064,-0.00001033,-0.00087554,-0.00000056
 ,0.00000654,-0.00009573,-0.00000232,0.00000291,0.00000065,-0.00000154,
 -0.00000129,0.00002412,-0.00000798,-0.00000011,-0.00006537,0.00001466,
 0.00001260,0.00010071,-0.02293250,-0.00708847,0.00232409,0.02455772,0.
 00734938,0.00137239,-0.00841012,-0.00138063,0.04613151,-0.00030919,-0.
 00200731,-0.00004710,-0.00125888,0.00169763,0.00010931,0.00273295,-0.0
 0022839,-0.00010151,-0.01523099,0.00525361,0.00074452,-0.00484496,-0.0
 0309154,-0.00002863,0.00206104,0.00068739,-0.00008307,0.00003164,-0.00
 100594,-0.00003905,0.01216498,0.04698935,0.00106857,-0.00511033,0.0013
 6136,0.00061846,-0.06101427,-0.06814220,-0.00098993,-0.00209527,0.0027
 7971,0.00001571,0.00031994,-0.00029215,-0.00002427,0.00001470,-0.00003
 771,0.00000196,-0.00005011,-0.00021519,-0.00000492,-0.00002471,0.00008
 633,0.00000719,0.00012324,0.00077509,0.00013315,0.00011841,0.00090213,
 -0.00013550,0.00022487,-0.00036481,-0.00002744,0.06640802,-0.00189598,
 -0.00439722,-0.00007657,0.00009966,0.00499751,0.00014287,0.00485735,-0
 .00236658,-0.00028206,-0.01472824,0.02315642,0.00131705,-0.01379038,-0
 .00609946,0.00038096,0.00635859,-0.00278358,-0.00029044,-0.00084058,0.
 00049129,0.00005233,0.02744967,-0.02238188,-0.00166446,-0.00032405,0.0
 0256256,-0.00026962,-0.03819403,-0.40969805,-0.01109290,0.01272025,-0.
 01131921,-0.00077752,-0.00143821,-0.00206186,-0.00000751,-0.00017204,-
 0.00019594,-0.00000363,-0.00038178,-0.00046881,0.00000051,0.00018920,-
 0.00007945,-0.00001211,0.00017283,-0.00016688,-0.00018632,0.00018380,-
 0.00028887,0.00020184,0.00017030,-0.00024819,-0.00000761,0.01592305,0.
 43361656,-0.00004411,-0.00008233,0.00019095,0.00005659,0.00010095,0.00
 022091,0.00009042,-0.00008920,0.00046598,0.00006466,0.00058908,0.00029
 334,-0.00038416,-0.00001057,-0.00278804,0.00010675,-0.00008455,-0.0009
 3078,-0.00003593,0.00005559,-0.00016919,0.00046345,-0.00233690,-0.0008
 8873,0.00056404,-0.00032826,0.01129289,-0.00003187,-0.01004025,-0.0266
 0117,0.00033261,-0.00039535,-0.00269942,-0.00006168,-0.00005571,-0.000
 09890,-0.00000196,-0.00000870,0.00010849,-0.00001186,-0.00000874,-0.00
 000031,0.00001069,-0.00000856,0.00009387,-0.00008793,-0.00170921,-0.00
 075180,0.00004222,0.00168217,-0.00062508,-0.00001078,0.00001014,-0.000
 21722,-0.00098107,0.01272344,0.02414182,0.00005031,-0.00039239,-0.0000
 1996,-0.00090134,-0.00003583,0.00000606,0.00074329,0.00200950,-0.00002
 647,0.00464898,0.04300600,0.00100168,-0.00526749,0.00165357,0.00036207
 ,0.00089726,0.00190705,0.00008305,-0.00051224,-0.00055343,0.00000205,-
 0.00250759,0.00082445,0.00008904,0.00023467,-0.00027415,-0.00003224,-0
 .00139828,-0.00599805,-0.00012705,-0.05666873,-0.08371097,-0.00042770,
 0.00060480,-0.00004358,-0.00001996,-0.00002639,-0.00018153,-0.00000210
 ,-0.00119120,-0.00166157,0.00001919,-0.00005104,0.00021216,0.00000962,
 0.00002001,-0.00004040,-0.00002505,0.00002229,-0.00004893,0.00002300,0
 .00004978,0.00006225,0.00000132,0.00598544,0.00389787,-0.00008207,0.05
 562910,0.00045739,0.00162650,0.00003831,0.00180577,-0.00251468,-0.0001
 3186,-0.00611881,0.00490780,0.00044481,0.00202868,-0.02144812,-0.00065
 058,0.00375534,0.00356359,-0.00010727,-0.00211697,-0.00127413,-0.00000
 906,0.00031865,0.00064032,0.00000787,-0.00204768,-0.00047402,0.0000796
 7,-0.00003329,0.00029354,0.00002944,0.00050588,0.00097166,-0.00002142,
 -0.03660558,-0.49935411,-0.01320030,-0.00123925,-0.00018497,0.00003651
 ,0.00003736,0.00000945,-0.00000160,0.00049233,0.00008406,-0.00003675,0
 .00007629,-0.00020299,-0.00000998,0.00009162,-0.00001798,0.00003056,0.
 00008881,-0.00000808,-0.00004051,0.00000235,0.00004943,0.00000023,-0.0
 0102275,-0.00259295,-0.00001370,0.03940999,0.51561870,0.00000833,0.000
 07241,-0.00007397,0.00006406,-0.00005465,-0.00085440,-0.00029556,0.000
 13665,-0.00178180,-0.00015892,-0.00232370,-0.00281381,0.00047081,-0.00
 003732,0.00305020,-0.00005946,-0.00016404,0.00131653,0.00003398,0.0000
 3720,0.00000252,-0.00001366,-0.00001347,-0.00070808,-0.00002749,0.0000
 3723,-0.00048069,0.00007675,0.00017354,0.00102165,0.00092547,-0.011272
 50,-0.00365149,-0.00005527,-0.00000907,0.00014008,0.00000459,0.0000050
 9,0.00005326,0.00008890,0.00003591,0.00090034,0.00000540,-0.00001671,0
 .00002842,-0.00000428,0.00010378,0.00004096,0.00001331,-0.00010362,0.0
 0002939,-0.00000051,-0.00000174,0.00003347,-0.00024619,-0.00016652,-0.
 00109298,-0.00085178,0.01355390,0.00471656,-0.00568526,-0.00106845,0.0
 0034518,-0.00144562,-0.04762408,-0.00161940,0.00164216,-0.00139167,-0.
 00018691,-0.00125698,-0.00038034,-0.00000209,0.00024532,0.00062245,0.0
 0000724,0.00138911,-0.00173171,-0.00000191,-0.00054219,0.00030776,-0.0
 0000574,-0.00050971,-0.00003168,0.00001837,0.00003316,0.00009496,-0.00
 000306,0.00022681,0.00011917,-0.00000257,0.00110174,-0.00002767,-0.000
 03703,-0.04715940,0.07307993,0.00382442,0.00004324,-0.00015831,-0.0000
 3463,-0.00121736,0.00143773,0.00012555,0.00001993,-0.00002773,0.000005
 25,0.00001726,-0.00000521,0.00000807,0.00001422,-0.00000534,-0.0000074
 5,0.00000161,0.00002662,0.00000141,-0.00024650,-0.00025727,0.00000200,
 -0.00036162,0.00011387,0.00002152,0.05369007,-0.00185970,0.00353717,0.
 00004008,0.00130952,-0.02210409,-0.00062309,0.00516235,0.00476654,0.00
 003021,-0.00111520,-0.00168206,0.00001776,0.00205672,0.00135640,-0.000
 02682,-0.00137470,-0.00162463,-0.00009145,-0.00014871,0.00049523,0.000
 05189,-0.00234410,-0.00072309,0.00005946,-0.00012765,0.00031213,0.0000
 1890,0.00124132,-0.00060234,-0.00006448,0.00091453,-0.00035699,-0.0000
 5191,0.01965961,-0.50129814,-0.01648455,0.00003731,0.00039622,0.000034
 87,-0.00053426,0.00006982,-0.00000490,0.00009003,-0.00010129,-0.000012
 45,0.00010555,0.00000489,0.00003114,0.00010519,0.00000761,-0.00003997,
 0.00000489,0.00001485,-0.00000026,-0.00004765,0.00032460,0.00001068,-0
 .00004201,0.00030698,0.00000764,-0.02309303,0.51690020,0.00032130,0.00
 001286,0.00447749,-0.00006223,0.00119639,-0.00408852,0.00002369,0.0002
 7466,-0.00209811,-0.00002747,-0.00000625,-0.00100740,0.00005384,0.0000
 2220,-0.00009990,0.00000555,-0.00007706,0.00278942,-0.00002049,0.00003
 436,-0.00095805,-0.00005469,-0.00002340,0.00004355,-0.00001023,0.00001
 085,-0.00013624,0.00003238,-0.00002518,0.00003355,-0.00000601,-0.00001
 621,0.00014944,0.00212530,-0.01847361,-0.00778859,-0.00002792,0.000042
 10,-0.00074419,0.00006077,-0.00007904,0.00081973,0.00000899,-0.0000078
 9,0.00018110,0.00003651,0.00000729,0.00002769,-0.00002882,-0.00000827,
 0.00002784,0.00000063,-0.00000105,0.00001615,0.00000981,0.00001827,0.0
 0005536,0.00001731,0.00000172,0.00012385,-0.00245824,0.01709725,0.0081
 7585\\0.00001068,-0.00001033,0.00001428,-0.00000337,0.00000760,-0.0000
 0048,-0.00000180,0.00000862,-0.00000329,0.00001232,0.00000441,0.000033
 37,0.00001974,-0.00001859,-0.00000420,-0.00000915,0.00000097,-0.000005
 59,0.00000332,0.00000948,-0.00000849,0.00000045,0.00002636,-0.00001778
 ,-0.00000812,-0.00000589,-0.00000219,0.00001155,0.00009103,0.00001688,
 -0.00002129,-0.00002390,-0.00005765,-0.00000723,-0.00000056,-0.0000060
 2,-0.00000315,0.00000084,0.00000270,0.00000022,-0.00000101,0.00000212,
 0.00000201,-0.00000124,-0.00000121,0.00000299,-0.00000135,-0.00000088,
 0.00000201,0.00000045,0.00000523,0.00000255,0.00000029,0.00000345,-0.0
 0001844,-0.00009046,0.00001342,0.00000416,0.00000223,0.00001404,0.0000
 0056,0.00000103,0.00000229\\\@


 A MUSTACHE HAIR ACROSS A CHIP IS LIKE A REDWOOD
 TREE FALLING THROUGH A HOUSING PROJECT.
 - AN IBM MANAGER IN EAST FISHKILL, NEW YORK
   AS QUOTED IN "FROM SANDS TO CIRCUITS", IBM INNOVATION JANUARY 1985.
 Job cpu time:       0 days  0 hours 37 minutes 15.0 seconds.
 File lengths (MBytes):  RWF=    168 Int=      0 D2E=      0 Chk=      7 Scr=      1
 Normal termination of Gaussian 09 at Sun Jun 16 15:59:20 2024.
