 Entering Gaussian System, Link 0=g09
 Input=B3PW91D3BJTHAP.gjf
 Output=B3PW91D3BJTHAP.log
 Initial command:
 /home/c612/g09E/g09/l1.exe "/mnt/ja_sm883/scratch/Gau-1967765.inp" -scrdir="/mnt/ja_sm883/scratch/"
 Default is to use a total of  18 processors:
                               18 via shared-memory
                                1 via Linda
 Entering Link 1 = /home/c612/g09E/g09/l1.exe PID=   1967767.
  
 Copyright (c) 1988,1990,1992,1993,1995,1998,2003,2009,2015,
            Gaussian, Inc.  All Rights Reserved.
  
 This is part of the Gaussian(R) 09 program.  It is based on
 the Gaussian(R) 03 system (copyright 2003, Gaussian, Inc.),
 the Gaussian(R) 98 system (copyright 1998, Gaussian, Inc.),
 the Gaussian(R) 94 system (copyright 1995, Gaussian, Inc.),
 the Gaussian 92(TM) system (copyright 1992, Gaussian, Inc.),
 the Gaussian 90(TM) system (copyright 1990, Gaussian, Inc.),
 the Gaussian 88(TM) system (copyright 1988, Gaussian, Inc.),
 the Gaussian 86(TM) system (copyright 1986, Carnegie Mellon
 University), and the Gaussian 82(TM) system (copyright 1983,
 Carnegie Mellon University). Gaussian is a federally registered
 trademark of Gaussian, Inc.
  
 This software contains proprietary and confidential information,
 including trade secrets, belonging to Gaussian, Inc.
  
 This software is provided under written license and may be
 used, copied, transmitted, or stored only in accord with that
 written license.
  
 The following legend is applicable only to US Government
 contracts under FAR:
  
                    RESTRICTED RIGHTS LEGEND
  
 Use, reproduction and disclosure by the US Government is
 subject to restrictions as set forth in subparagraphs (a)
 and (c) of the Commercial Computer Software - Restricted
 Rights clause in FAR 52.227-19.
  
 Gaussian, Inc.
 340 Quinnipiac St., Bldg. 40, Wallingford CT 06492
  
  
 ---------------------------------------------------------------
 Warning -- This program may not be used in any manner that
 competes with the business of Gaussian, Inc. or will provide
 assistance to any competitor of Gaussian, Inc.  The licensee
 of this program is prohibited from giving any competitor of
 Gaussian, Inc. access to this program.  By using this program,
 the user acknowledges that Gaussian, Inc. is engaged in the
 business of creating and licensing software in the field of
 computational chemistry and represents and warrants to the
 licensee that it is not a competitor of Gaussian, Inc. and that
 it will not use this program in any manner prohibited above.
 ---------------------------------------------------------------
  

 Cite this work as:
 Gaussian 09, Revision E.01,
 M. J. Frisch, G. W. Trucks, H. B. Schlegel, G. E. Scuseria, 
 M. A. Robb, J. R. Cheeseman, G. Scalmani, V. Barone, B. Mennucci, 
 G. A. Petersson, H. Nakatsuji, M. Caricato, X. Li, H. P. Hratchian, 
 A. F. Izmaylov, J. Bloino, G. Zheng, J. L. Sonnenberg, M. Hada, 
 M. Ehara, K. Toyota, R. Fukuda, J. Hasegawa, M. Ishida, T. Nakajima, 
 Y. Honda, O. Kitao, H. Nakai, T. Vreven, J. A. Montgomery, Jr., 
 J. E. Peralta, F. Ogliaro, M. Bearpark, J. J. Heyd, E. Brothers, 
 K. N. Kudin, V. N. Staroverov, T. Keith, R. Kobayashi, J. Normand, 
 K. Raghavachari, A. Rendell, J. C. Burant, S. S. Iyengar, J. Tomasi, 
 M. Cossi, N. Rega, J. M. Millam, M. Klene, J. E. Knox, J. B. Cross, 
 V. Bakken, C. Adamo, J. Jaramillo, R. Gomperts, R. E. Stratmann, 
 O. Yazyev, A. J. Austin, R. Cammi, C. Pomelli, J. W. Ochterski, 
 R. L. Martin, K. Morokuma, V. G. Zakrzewski, G. A. Voth, 
 P. Salvador, J. J. Dannenberg, S. Dapprich, A. D. Daniels, 
 O. Farkas, J. B. Foresman, J. V. Ortiz, J. Cioslowski, 
 and D. J. Fox, Gaussian, Inc., Wallingford CT, 2013.
 
 ******************************************
 Gaussian 09:  ES64L-G09RevE.01 30-Nov-2015
                19-Dec-2024 
 ******************************************
 %chk=B3PW91D3BJTHAP.chk
 -------------------------------------------------------
 # opt freq b3pw91/6-31+g(d,p) EmpiricalDispersion=GD3BJ
 -------------------------------------------------------
 1/14=-1,18=20,19=15,26=3,38=1/1,3;
 2/9=110,12=2,17=6,18=5,40=1/2;
 3/5=1,6=6,7=111,11=2,16=1,25=1,30=1,71=1,74=-6,124=41/1,2,3;
 4//1;
 5/5=2,38=5/2;
 6/7=2,8=2,9=2,10=2,28=1/1;
 7//1,2,3,16;
 1/14=-1,18=20,19=15,26=3/3(2);
 2/9=110/2;
 99//99;
 2/9=110/2;
 3/5=1,6=6,7=111,11=2,16=1,25=1,30=1,71=1,74=-6,124=41/1,2,3;
 4/5=5,16=3,69=1/1;
 5/5=2,38=5/2;
 7//1,2,3,16;
 1/14=-1,18=20,19=15,26=3/3(-5);
 2/9=110/2;
 6/7=2,8=2,9=2,10=2,19=2,28=1/1;
 99/9=1/99;
 ----------
 [No Title]
 ----------
 Symbolic Z-matrix:
 Charge =  0 Multiplicity = 1
 C                    -1.52928   1.24718   0.00006 
 C                    -2.26011   0.05263   0.00004 
 C                    -1.62212  -1.18033  -0.00002 
 C                    -0.22481  -1.22934  -0.00006 
 C                     0.56718  -0.03309  -0.00003 
 C                    -0.14383   1.19776   0.00003 
 O                     0.57233   2.35363   0.00006 
 C                     2.02366  -0.16437  -0.00006 
 C                     2.95347   1.01873   0.00002 
 O                     2.54326  -1.30079  0. 
 O                     0.34614  -2.42788  -0.00013 
 O                    -3.60987   0.17257   0.00007 
 H                    -2.06093   2.19409   0.0001 
 H                    -2.17348  -2.11563  -0.00005 
 H                    -0.03668   3.10186   0.00012 
 H                     2.78452   1.65076   0.87612 
 H                     3.9761    0.63933   0.00005 
 H                     2.78459   1.65081  -0.87606 
 H                     1.34179  -2.25356  -0.00016 
 H                    -4.01572  -0.70287   0.00005 
 

 GradGradGradGradGradGradGradGradGradGradGradGradGradGradGradGradGradGrad
 Berny optimization.
 Initialization pass.
                           ----------------------------
                           !    Initial Parameters    !
                           ! (Angstroms and Degrees)  !
 --------------------------                            --------------------------
 ! Name  Definition              Value          Derivative Info.                !
 --------------------------------------------------------------------------------
 ! R1    R(1,2)                  1.4004         estimate D2E/DX2                !
 ! R2    R(1,6)                  1.3863         estimate D2E/DX2                !
 ! R3    R(1,13)                 1.086          estimate D2E/DX2                !
 ! R4    R(2,3)                  1.3882         estimate D2E/DX2                !
 ! R5    R(2,12)                 1.3551         estimate D2E/DX2                !
 ! R6    R(3,4)                  1.3982         estimate D2E/DX2                !
 ! R7    R(3,14)                 1.0857         estimate D2E/DX2                !
 ! R8    R(4,5)                  1.4347         estimate D2E/DX2                !
 ! R9    R(4,11)                 1.3276         estimate D2E/DX2                !
 ! R10   R(5,6)                  1.4215         estimate D2E/DX2                !
 ! R11   R(5,8)                  1.4624         estimate D2E/DX2                !
 ! R12   R(6,7)                  1.3597         estimate D2E/DX2                !
 ! R13   R(7,15)                 0.9648         estimate D2E/DX2                !
 ! R14   R(8,9)                  1.5048         estimate D2E/DX2                !
 ! R15   R(8,10)                 1.2496         estimate D2E/DX2                !
 ! R16   R(9,16)                 1.0934         estimate D2E/DX2                !
 ! R17   R(9,17)                 1.0907         estimate D2E/DX2                !
 ! R18   R(9,18)                 1.0934         estimate D2E/DX2                !
 ! R19   R(11,19)                1.0108         estimate D2E/DX2                !
 ! R20   R(12,20)                0.9649         estimate D2E/DX2                !
 ! A1    A(2,1,6)              119.4162         estimate D2E/DX2                !
 ! A2    A(2,1,13)             119.2289         estimate D2E/DX2                !
 ! A3    A(6,1,13)             121.3549         estimate D2E/DX2                !
 ! A4    A(1,2,3)              121.1818         estimate D2E/DX2                !
 ! A5    A(1,2,12)             116.3808         estimate D2E/DX2                !
 ! A6    A(3,2,12)             122.4374         estimate D2E/DX2                !
 ! A7    A(2,3,4)              119.3685         estimate D2E/DX2                !
 ! A8    A(2,3,14)             122.1211         estimate D2E/DX2                !
 ! A9    A(4,3,14)             118.5104         estimate D2E/DX2                !
 ! A10   A(3,4,5)              121.498          estimate D2E/DX2                !
 ! A11   A(3,4,11)             117.4807         estimate D2E/DX2                !
 ! A12   A(5,4,11)             121.0214         estimate D2E/DX2                !
 ! A13   A(4,5,6)              116.4799         estimate D2E/DX2                !
 ! A14   A(4,5,8)              118.3568         estimate D2E/DX2                !
 ! A15   A(6,5,8)              125.1634         estimate D2E/DX2                !
 ! A16   A(1,6,5)              122.0557         estimate D2E/DX2                !
 ! A17   A(1,6,7)              119.7396         estimate D2E/DX2                !
 ! A18   A(5,6,7)              118.2047         estimate D2E/DX2                !
 ! A19   A(6,7,15)             109.0748         estimate D2E/DX2                !
 ! A20   A(5,8,9)              123.014          estimate D2E/DX2                !
 ! A21   A(5,8,10)             119.721          estimate D2E/DX2                !
 ! A22   A(9,8,10)             117.2649         estimate D2E/DX2                !
 ! A23   A(8,9,16)             111.0408         estimate D2E/DX2                !
 ! A24   A(8,9,17)             107.8091         estimate D2E/DX2                !
 ! A25   A(8,9,18)             111.0404         estimate D2E/DX2                !
 ! A26   A(16,9,17)            110.2373         estimate D2E/DX2                !
 ! A27   A(16,9,18)            106.4977         estimate D2E/DX2                !
 ! A28   A(17,9,18)            110.2373         estimate D2E/DX2                !
 ! A29   A(4,11,19)            105.5409         estimate D2E/DX2                !
 ! A30   A(2,12,20)            109.7942         estimate D2E/DX2                !
 ! D1    D(6,1,2,3)             -0.0003         estimate D2E/DX2                !
 ! D2    D(6,1,2,12)           179.9998         estimate D2E/DX2                !
 ! D3    D(13,1,2,3)           179.9998         estimate D2E/DX2                !
 ! D4    D(13,1,2,12)           -0.0001         estimate D2E/DX2                !
 ! D5    D(2,1,6,5)              0.0003         estimate D2E/DX2                !
 ! D6    D(2,1,6,7)           -179.9998         estimate D2E/DX2                !
 ! D7    D(13,1,6,5)          -179.9998         estimate D2E/DX2                !
 ! D8    D(13,1,6,7)             0.0002         estimate D2E/DX2                !
 ! D9    D(1,2,3,4)              0.0            estimate D2E/DX2                !
 ! D10   D(1,2,3,14)          -179.9998         estimate D2E/DX2                !
 ! D11   D(12,2,3,4)           179.9998         estimate D2E/DX2                !
 ! D12   D(12,2,3,14)            0.0            estimate D2E/DX2                !
 ! D13   D(1,2,12,20)          179.9998         estimate D2E/DX2                !
 ! D14   D(3,2,12,20)           -0.0001         estimate D2E/DX2                !
 ! D15   D(2,3,4,5)              0.0003         estimate D2E/DX2                !
 ! D16   D(2,3,4,11)          -179.9996         estimate D2E/DX2                !
 ! D17   D(14,3,4,5)          -179.9999         estimate D2E/DX2                !
 ! D18   D(14,3,4,11)            0.0002         estimate D2E/DX2                !
 ! D19   D(3,4,5,6)             -0.0003         estimate D2E/DX2                !
 ! D20   D(3,4,5,8)            179.9992         estimate D2E/DX2                !
 ! D21   D(11,4,5,6)           179.9996         estimate D2E/DX2                !
 ! D22   D(11,4,5,8)            -0.0009         estimate D2E/DX2                !
 ! D23   D(3,4,11,19)          179.9988         estimate D2E/DX2                !
 ! D24   D(5,4,11,19)           -0.0011         estimate D2E/DX2                !
 ! D25   D(4,5,6,1)              0.0            estimate D2E/DX2                !
 ! D26   D(4,5,6,7)           -180.0            estimate D2E/DX2                !
 ! D27   D(8,5,6,1)           -179.9994         estimate D2E/DX2                !
 ! D28   D(8,5,6,7)              0.0006         estimate D2E/DX2                !
 ! D29   D(4,5,8,9)           -179.9978         estimate D2E/DX2                !
 ! D30   D(4,5,8,10)            -0.0051         estimate D2E/DX2                !
 ! D31   D(6,5,8,9)              0.0017         estimate D2E/DX2                !
 ! D32   D(6,5,8,10)           179.9944         estimate D2E/DX2                !
 ! D33   D(1,6,7,15)             0.0015         estimate D2E/DX2                !
 ! D34   D(5,6,7,15)          -179.9985         estimate D2E/DX2                !
 ! D35   D(5,8,9,16)            59.1425         estimate D2E/DX2                !
 ! D36   D(5,8,9,17)           179.9963         estimate D2E/DX2                !
 ! D37   D(5,8,9,18)           -59.1501         estimate D2E/DX2                !
 ! D38   D(10,8,9,16)         -120.8503         estimate D2E/DX2                !
 ! D39   D(10,8,9,17)            0.0034         estimate D2E/DX2                !
 ! D40   D(10,8,9,18)          120.857          estimate D2E/DX2                !
 --------------------------------------------------------------------------------
 Trust Radius=3.00D-01 FncErr=1.00D-07 GrdErr=1.00D-06
 Number of steps in this run=    100 maximum allowed number of steps=    120.
 GradGradGradGradGradGradGradGradGradGradGradGradGradGradGradGradGradGrad

                          Input orientation:                          
 ---------------------------------------------------------------------
 Center     Atomic      Atomic             Coordinates (Angstroms)
 Number     Number       Type             X           Y           Z
 ---------------------------------------------------------------------
      1          6           0       -1.529278    1.247175    0.000059
      2          6           0       -2.260114    0.052631    0.000035
      3          6           0       -1.622116   -1.180327   -0.000024
      4          6           0       -0.224810   -1.229342   -0.000061
      5          6           0        0.567179   -0.033094   -0.000032
      6          6           0       -0.143834    1.197764    0.000029
      7          8           0        0.572333    2.353627    0.000057
      8          6           0        2.023660   -0.164368   -0.000055
      9          6           0        2.953472    1.018731    0.000021
     10          8           0        2.543255   -1.300790   -0.000003
     11          8           0        0.346137   -2.427883   -0.000126
     12          8           0       -3.609869    0.172570    0.000070
     13          1           0       -2.060929    2.194087    0.000102
     14          1           0       -2.173479   -2.115631   -0.000046
     15          1           0       -0.036675    3.101863    0.000121
     16          1           0        2.784518    1.650757    0.876121
     17          1           0        3.976098    0.639331    0.000052
     18          1           0        2.784589    1.650806   -0.876055
     19          1           0        1.341787   -2.253564   -0.000164
     20          1           0       -4.015716   -0.702868    0.000046
 ---------------------------------------------------------------------
                    Distance matrix (angstroms):
                    1          2          3          4          5
     1  C    0.000000
     2  C    1.400377   0.000000
     3  C    2.429277   1.388246   0.000000
     4  C    2.799066   2.405393   1.398165   0.000000
     5  C    2.456465   2.828592   2.471671   1.434662   0.000000
     6  C    1.386325   2.406236   2.800113   2.428456   1.421461
     7  O    2.375080   3.649293   4.159860   3.670573   2.386727
     8  C    3.823064   4.289267   3.784687   2.487928   1.462385
     9  C    4.488567   5.302342   5.076599   3.892982   2.607821
    10  O    4.803920   4.990401   4.167113   2.768987   2.347750
    11  O    4.125922   3.597985   2.330325   1.327585   2.404969
    12  O    2.341716   1.355073   2.404473   3.663875   4.182108
    13  H    1.085954   2.150700   3.402826   3.884739   3.444893
    14  H    3.423954   2.169992   1.085723   2.140752   3.442117
    15  H    2.380700   3.773791   4.566265   4.335289   3.192584
    16  H    4.420317   5.363753   5.310470   4.256609   2.918834
    17  H    5.538830   6.263749   5.886523   4.597778   3.474606
    18  H    4.420401   5.363835   5.310536   4.256654   2.918877
    19  H    4.527492   4.276941   3.152231   1.871699   2.351702
    20  H    3.159912   1.911261   2.440756   3.827289   4.631579
                    6          7          8          9         10
     6  C    0.000000
     7  O    1.359748   0.000000
     8  C    2.559968   2.906312   0.000000
     9  C    3.102476   2.729793   1.504750   0.000000
    10  O    3.669226   4.152023   1.249573   2.355516   0.000000
    11  O    3.658605   4.786857   2.817372   4.321729   2.469345
    12  O    3.614474   4.716760   5.643596   6.617661   6.327063
    13  H    2.160535   2.638091   4.716585   5.150309   5.780370
    14  H    3.885620   5.245355   4.628542   6.009147   4.786601
    15  H    1.907112   0.964753   3.861767   3.644231   5.102881
    16  H    3.089981   2.480983   2.154360   1.093414   3.088273
    17  H    4.157606   3.811093   2.111385   1.090738   2.411868
    18  H    3.090054   2.481049   2.154355   1.093412   3.088305
    19  H    3.757490   4.671003   2.197656   3.647663   1.533396
    20  H    4.313221   5.512926   6.063336   7.178683   6.586168
                   11         12         13         14         15
    11  O    0.000000
    12  O    4.734167   0.000000
    13  H    5.211197   2.546713   0.000000
    14  H    2.538891   2.701681   4.311187   0.000000
    15  H    5.542981   4.620441   2.218482   5.638100   0.000000
    16  H    4.832061   6.621230   4.953885   6.287693   3.291233
    17  H    4.752307   7.600313   6.234016   6.738480   4.708122
    18  H    4.832081   6.621319   4.953973   6.287756   3.291319
    19  H    1.010795   5.514075   5.600007   3.517971   5.529987
    20  H    4.690569   0.964937   3.494788   2.321581   5.505338
                   16         17         18         19         20
    16  H    0.000000
    17  H    1.791743   0.000000
    18  H    1.752176   1.791742   0.000000
    19  H    4.253595   3.912600   4.253583   0.000000
    20  H    7.249154   8.103739   7.249240   5.577409   0.000000
 Stoichiometry    C8H8O4
 Framework group  C1[X(C8H8O4)]
 Deg. of freedom    54
 Full point group                 C1      NOp   1
 Largest Abelian subgroup         C1      NOp   1
 Largest concise Abelian subgroup C1      NOp   1
                         Standard orientation:                         
 ---------------------------------------------------------------------
 Center     Atomic      Atomic             Coordinates (Angstroms)
 Number     Number       Type             X           Y           Z
 ---------------------------------------------------------------------
      1          6           0       -1.529278    1.247175    0.000059
      2          6           0       -2.260114    0.052631    0.000035
      3          6           0       -1.622116   -1.180327   -0.000024
      4          6           0       -0.224810   -1.229342   -0.000061
      5          6           0        0.567179   -0.033094   -0.000032
      6          6           0       -0.143834    1.197764    0.000029
      7          8           0        0.572333    2.353627    0.000057
      8          6           0        2.023660   -0.164368   -0.000055
      9          6           0        2.953472    1.018732    0.000021
     10          8           0        2.543255   -1.300790   -0.000003
     11          8           0        0.346137   -2.427883   -0.000126
     12          8           0       -3.609869    0.172569    0.000070
     13          1           0       -2.060929    2.194087    0.000102
     14          1           0       -2.173479   -2.115631   -0.000046
     15          1           0       -0.036675    3.101863    0.000121
     16          1           0        2.784518    1.650758    0.876121
     17          1           0        3.976098    0.639332    0.000052
     18          1           0        2.784589    1.650807   -0.876055
     19          1           0        1.341787   -2.253564   -0.000164
     20          1           0       -4.015716   -0.702869    0.000046
 ---------------------------------------------------------------------
 Rotational constants (GHZ):      1.5520496      0.7667849      0.5148446
 Standard basis: 6-31+G(d,p) (6D, 7F)
 There are   268 symmetry adapted cartesian basis functions of A   symmetry.
 There are   268 symmetry adapted basis functions of A   symmetry.
   268 basis functions,   440 primitive gaussians,   268 cartesian basis functions
    44 alpha electrons       44 beta electrons
       nuclear repulsion energy       698.6002325153 Hartrees.
 NAtoms=   20 NActive=   20 NUniq=   20 SFac= 1.00D+00 NAtFMM=   60 NAOKFM=F Big=F
 Integral buffers will be    131072 words long.
 Raffenetti 2 integral format.
 Two-electron integral symmetry is turned on.
 Nuclear repulsion after empirical dispersion term =      698.5623499158 Hartrees.
 One-electron integrals computed using PRISM.
 NBasis=   268 RedAO= T EigKep=  1.53D-06  NBF=   268
 NBsUse=   268 1.00D-06 EigRej= -1.00D+00 NBFU=   268
 ExpMin= 4.38D-02 ExpMax= 5.48D+03 ExpMxC= 8.25D+02 IAcc=2 IRadAn=         4 AccDes= 0.00D+00
 Harris functional with IExCor=  408 and IRadAn=       4 diagonalized for initial guess.
 HarFok:  IExCor=  408 AccDes= 0.00D+00 IRadAn=         4 IDoV= 1 UseB2=F ITyADJ=14
 ICtDFT=  3500011 ScaDFX=  1.000000  1.000000  1.000000  1.000000
 FoFCou: FMM=F IPFlag=           0 FMFlag=      100000 FMFlg1=           0
         NFxFlg=           0 DoJE=T BraDBF=F KetDBF=T FulRan=T
         wScrn=  0.000000 ICntrl=     500 IOpCl=  0 I1Cent=   200000004 NGrid=           0
         NMat0=    1 NMatS0=      1 NMatT0=    0 NMatD0=    1 NMtDS0=    0 NMtDT0=    0
 Petite list used in FoFCou.
 Keep R1 ints in memory in canonical form, NReq=659648347.
 Requested convergence on RMS density matrix=1.00D-08 within 128 cycles.
 Requested convergence on MAX density matrix=1.00D-06.
 Requested convergence on             energy=1.00D-06.
 No special actions if energy rises.
 SCF Done:  E(RB3PW91) =  -610.417192570     A.U. after   15 cycles
            NFock= 15  Conv=0.36D-08     -V/T= 2.0090

 **********************************************************************

            Population analysis using the SCF density.

 **********************************************************************

 Orbital symmetries:
       Occupied  (A) (A) (A) (A) (A) (A) (A) (A) (A) (A) (A) (A)
                 (A) (A) (A) (A) (A) (A) (A) (A) (A) (A) (A) (A)
                 (A) (A) (A) (A) (A) (A) (A) (A) (A) (A) (A) (A)
                 (A) (A) (A) (A) (A) (A) (A) (A)
       Virtual   (A) (A) (A) (A) (A) (A) (A) (A) (A) (A) (A) (A)
                 (A) (A) (A) (A) (A) (A) (A) (A) (A) (A) (A) (A)
                 (A) (A) (A) (A) (A) (A) (A) (A) (A) (A) (A) (A)
                 (A) (A) (A) (A) (A) (A) (A) (A) (A) (A) (A) (A)
                 (A) (A) (A) (A) (A) (A) (A) (A) (A) (A) (A) (A)
                 (A) (A) (A) (A) (A) (A) (A) (A) (A) (A) (A) (A)
                 (A) (A) (A) (A) (A) (A) (A) (A) (A) (A) (A) (A)
                 (A) (A) (A) (A) (A) (A) (A) (A) (A) (A) (A) (A)
                 (A) (A) (A) (A) (A) (A) (A) (A) (A) (A) (A) (A)
                 (A) (A) (A) (A) (A) (A) (A) (A) (A) (A) (A) (A)
                 (A) (A) (A) (A) (A) (A) (A) (A) (A) (A) (A) (A)
                 (A) (A) (A) (A) (A) (A) (A) (A) (A) (A) (A) (A)
                 (A) (A) (A) (A) (A) (A) (A) (A) (A) (A) (A) (A)
                 (A) (A) (A) (A) (A) (A) (A) (A) (A) (A) (A) (A)
                 (A) (A) (A) (A) (A) (A) (A) (A) (A) (A) (A) (A)
                 (A) (A) (A) (A) (A) (A) (A) (A) (A) (A) (A) (A)
                 (A) (A) (A) (A) (A) (A) (A) (A) (A) (A) (A) (A)
                 (A) (A) (A) (A) (A) (A) (A) (A) (A) (A) (A) (A)
                 (A) (A) (A) (A) (A) (A) (A) (A)
 The electronic state is 1-A.
 Alpha  occ. eigenvalues --  -19.20544 -19.20294 -19.16532 -19.14667 -10.28157
 Alpha  occ. eigenvalues --  -10.27520 -10.27097 -10.26618 -10.19891 -10.18952
 Alpha  occ. eigenvalues --  -10.18401 -10.17632  -1.10292  -1.09845  -1.08367
 Alpha  occ. eigenvalues --   -1.04588  -0.87068  -0.79028  -0.76356  -0.74218
 Alpha  occ. eigenvalues --   -0.66851  -0.64867  -0.60765  -0.58687  -0.53241
 Alpha  occ. eigenvalues --   -0.52760  -0.51312  -0.48798  -0.46718  -0.45355
 Alpha  occ. eigenvalues --   -0.44178  -0.43888  -0.42446  -0.41982  -0.41840
 Alpha  occ. eigenvalues --   -0.40822  -0.39028  -0.37434  -0.37170  -0.36641
 Alpha  occ. eigenvalues --   -0.31002  -0.27083  -0.24988  -0.23687
 Alpha virt. eigenvalues --   -0.06224  -0.00768  -0.00486   0.00161   0.02452
 Alpha virt. eigenvalues --    0.02740   0.04414   0.04782   0.05257   0.05847
 Alpha virt. eigenvalues --    0.07083   0.07523   0.08450   0.08683   0.10041
 Alpha virt. eigenvalues --    0.11259   0.11389   0.11752   0.13039   0.13557
 Alpha virt. eigenvalues --    0.14110   0.14765   0.15023   0.15546   0.16295
 Alpha virt. eigenvalues --    0.16411   0.16517   0.17243   0.18370   0.18722
 Alpha virt. eigenvalues --    0.19184   0.20249   0.21355   0.21741   0.22022
 Alpha virt. eigenvalues --    0.22204   0.22233   0.23330   0.24394   0.24811
 Alpha virt. eigenvalues --    0.25434   0.25650   0.27116   0.27301   0.27449
 Alpha virt. eigenvalues --    0.28320   0.29117   0.29709   0.30301   0.30521
 Alpha virt. eigenvalues --    0.31083   0.31734   0.32406   0.32915   0.33280
 Alpha virt. eigenvalues --    0.33674   0.34706   0.35146   0.36230   0.37858
 Alpha virt. eigenvalues --    0.38918   0.39641   0.40710   0.42308   0.43135
 Alpha virt. eigenvalues --    0.44563   0.45576   0.46609   0.48627   0.51324
 Alpha virt. eigenvalues --    0.59773   0.62474   0.64664   0.66457   0.68621
 Alpha virt. eigenvalues --    0.70236   0.70941   0.71363   0.73253   0.73553
 Alpha virt. eigenvalues --    0.74438   0.75154   0.76072   0.77820   0.80676
 Alpha virt. eigenvalues --    0.83195   0.86765   0.87449   0.89210   0.91428
 Alpha virt. eigenvalues --    0.93074   0.94159   0.99284   1.00073   1.04298
 Alpha virt. eigenvalues --    1.05302   1.06964   1.07889   1.10299   1.10704
 Alpha virt. eigenvalues --    1.13620   1.16685   1.16862   1.17295   1.18589
 Alpha virt. eigenvalues --    1.19478   1.20488   1.21833   1.22050   1.23797
 Alpha virt. eigenvalues --    1.24083   1.24956   1.27599   1.28087   1.28108
 Alpha virt. eigenvalues --    1.29285   1.31528   1.34266   1.34462   1.36413
 Alpha virt. eigenvalues --    1.37769   1.37843   1.38420   1.38453   1.39671
 Alpha virt. eigenvalues --    1.41369   1.44347   1.46165   1.48473   1.56095
 Alpha virt. eigenvalues --    1.56868   1.57284   1.60306   1.62188   1.68381
 Alpha virt. eigenvalues --    1.70362   1.70896   1.72767   1.75377   1.79278
 Alpha virt. eigenvalues --    1.82306   1.83380   1.85033   1.86365   1.88451
 Alpha virt. eigenvalues --    1.89417   1.89593   1.89863   1.91243   1.93155
 Alpha virt. eigenvalues --    1.96648   1.98632   2.01478   2.02654   2.02696
 Alpha virt. eigenvalues --    2.03180   2.05608   2.07537   2.13550   2.17081
 Alpha virt. eigenvalues --    2.19948   2.20849   2.21258   2.25765   2.31050
 Alpha virt. eigenvalues --    2.32862   2.33477   2.37038   2.38454   2.40666
 Alpha virt. eigenvalues --    2.41988   2.43897   2.44789   2.49156   2.49330
 Alpha virt. eigenvalues --    2.50554   2.52699   2.53905   2.54312   2.55164
 Alpha virt. eigenvalues --    2.57946   2.63255   2.64959   2.65643   2.70471
 Alpha virt. eigenvalues --    2.71258   2.71362   2.73108   2.73797   2.75133
 Alpha virt. eigenvalues --    2.78787   2.83138   2.86003   2.87932   2.92609
 Alpha virt. eigenvalues --    2.98266   3.02490   3.07112   3.09850   3.14451
 Alpha virt. eigenvalues --    3.19723   3.20987   3.25219   3.31284   3.41680
 Alpha virt. eigenvalues --    3.43546   3.43815   3.48400   3.50796   3.53399
 Alpha virt. eigenvalues --    3.67021   3.77367   4.24000   4.25314   4.27550
 Alpha virt. eigenvalues --    4.35210   4.40047   4.45878   4.46899   4.52405
 Alpha virt. eigenvalues --    4.68274   4.76394   4.81472   4.91851
          Condensed to atoms (all electrons):
               1          2          3          4          5          6
     1  C   13.968323  -2.536092   0.831500  -3.728008  -0.443431  -4.781553
     2  C   -2.536092   7.549846  -1.296878   2.446160  -1.944715   3.206989
     3  C    0.831500  -1.296878  14.050652  -4.831081  -0.988810  -2.860240
     4  C   -3.728008   2.446160  -4.831081  16.352209  -3.106142   2.511243
     5  C   -0.443431  -1.944715  -0.988810  -3.106142  16.580452  -4.657216
     6  C   -4.781553   3.206989  -2.860240   2.511243  -4.657216  16.931602
     7  O    0.274824  -0.010252   0.001254   0.009698  -0.398894   0.118020
     8  C    1.652942  -0.757008   0.465629  -2.203267  -1.700077  -1.487787
     9  C   -0.279980   0.014707  -0.374532  -0.243669  -0.064006  -0.401822
    10  O    0.010800  -0.004960  -0.051937  -0.213029  -0.101617  -0.084385
    11  O    0.046838  -0.030802  -0.401175   0.137627   0.405249   0.005697
    12  O   -0.235048   0.112806   0.071739  -0.007093  -0.019387   0.060983
    13  H    0.096520   0.160769   0.041632  -0.024510   0.006593   0.043826
    14  H   -0.023598   0.016356   0.057781   0.248440   0.018524   0.004389
    15  H   -0.165420   0.003845   0.001279   0.004803   0.173390  -0.017109
    16  H    0.007753   0.000270  -0.001567  -0.016954   0.004391   0.033419
    17  H    0.001141   0.000271  -0.003435  -0.019578   0.047814   0.021823
    18  H    0.007743   0.000270  -0.001566  -0.016917   0.004463   0.033369
    19  H    0.004239  -0.001023   0.206517   0.119623  -0.302297  -0.078008
    20  H    0.123696   0.000758  -0.095673  -0.003993   0.019608  -0.038455
               7          8          9         10         11         12
     1  C    0.274824   1.652942  -0.279980   0.010800   0.046838  -0.235048
     2  C   -0.010252  -0.757008   0.014707  -0.004960  -0.030802   0.112806
     3  C    0.001254   0.465629  -0.374532  -0.051937  -0.401175   0.071739
     4  C    0.009698  -2.203267  -0.243669  -0.213029   0.137627  -0.007093
     5  C   -0.398894  -1.700077  -0.064006  -0.101617   0.405249  -0.019387
     6  C    0.118020  -1.487787  -0.401822  -0.084385   0.005697   0.060983
     7  O    8.436250  -0.004307  -0.085382   0.001316  -0.000424  -0.000741
     8  C   -0.004307  10.606572  -1.268173   0.570910  -0.183986  -0.001890
     9  C   -0.085382  -1.268173   7.967499  -0.005474  -0.064024  -0.000798
    10  O    0.001316   0.570910  -0.005474   8.264744   0.008611  -0.000025
    11  O   -0.000424  -0.183986  -0.064024   0.008611   8.461009  -0.000601
    12  O   -0.000741  -0.001890  -0.000798  -0.000025  -0.000601   8.332805
    13  H   -0.018986   0.009027   0.000853   0.000021   0.000072  -0.009218
    14  H    0.000060   0.010106   0.000632   0.000084  -0.009514  -0.014436
    15  H    0.196458   0.001512   0.011138   0.000012   0.000025  -0.000098
    16  H   -0.003965  -0.074459   0.401379   0.003801   0.000155   0.000001
    17  H    0.000587  -0.110359   0.427007  -0.007405   0.000073  -0.000000
    18  H   -0.003964  -0.074481   0.401346   0.003805   0.000155   0.000001
    19  H    0.000003   0.042998   0.017255   0.079644   0.152791   0.000024
    20  H    0.000043   0.002434   0.000001   0.000001  -0.000022   0.208915
              13         14         15         16         17         18
     1  C    0.096520  -0.023598  -0.165420   0.007753   0.001141   0.007743
     2  C    0.160769   0.016356   0.003845   0.000270   0.000271   0.000270
     3  C    0.041632   0.057781   0.001279  -0.001567  -0.003435  -0.001566
     4  C   -0.024510   0.248440   0.004803  -0.016954  -0.019578  -0.016917
     5  C    0.006593   0.018524   0.173390   0.004391   0.047814   0.004463
     6  C    0.043826   0.004389  -0.017109   0.033419   0.021823   0.033369
     7  O   -0.018986   0.000060   0.196458  -0.003965   0.000587  -0.003964
     8  C    0.009027   0.010106   0.001512  -0.074459  -0.110359  -0.074481
     9  C    0.000853   0.000632   0.011138   0.401379   0.427007   0.401346
    10  O    0.000021   0.000084   0.000012   0.003801  -0.007405   0.003805
    11  O    0.000072  -0.009514   0.000025   0.000155   0.000073   0.000155
    12  O   -0.009218  -0.014436  -0.000098   0.000001  -0.000000   0.000001
    13  H    0.544534  -0.000122   0.008748  -0.000001  -0.000000  -0.000001
    14  H   -0.000122   0.538818  -0.000001   0.000000  -0.000000   0.000000
    15  H    0.008748  -0.000001   0.393794   0.000263  -0.000024   0.000263
    16  H   -0.000001   0.000000   0.000263   0.496727  -0.022266  -0.022688
    17  H   -0.000000  -0.000000  -0.000024  -0.022266   0.497090  -0.022266
    18  H   -0.000001   0.000000   0.000263  -0.022688  -0.022266   0.496733
    19  H    0.000000   0.000040   0.000000  -0.000068   0.000005  -0.000068
    20  H   -0.000057   0.006103   0.000000   0.000000  -0.000000   0.000000
              19         20
     1  C    0.004239   0.123696
     2  C   -0.001023   0.000758
     3  C    0.206517  -0.095673
     4  C    0.119623  -0.003993
     5  C   -0.302297   0.019608
     6  C   -0.078008  -0.038455
     7  O    0.000003   0.000043
     8  C    0.042998   0.002434
     9  C    0.017255   0.000001
    10  O    0.079644   0.000001
    11  O    0.152791  -0.000022
    12  O    0.000024   0.208915
    13  H    0.000000  -0.000057
    14  H    0.000040   0.006103
    15  H    0.000000   0.000000
    16  H   -0.000068   0.000000
    17  H    0.000005  -0.000000
    18  H   -0.000068   0.000000
    19  H    0.315378   0.000000
    20  H    0.000000   0.408143
 Mulliken charges:
               1
     1  C    1.166811
     2  C   -0.931317
     3  C    1.178911
     4  C   -1.415562
     5  C    2.466109
     6  C   -2.564784
     7  O   -0.511597
     8  C    0.503664
     9  C   -0.453958
    10  O   -0.474919
    11  O   -0.527753
    12  O   -0.497939
    13  H    0.140299
    14  H    0.146338
    15  H    0.387121
    16  H    0.193809
    17  H    0.189520
    18  H    0.193805
    19  H    0.442944
    20  H    0.368498
 Sum of Mulliken charges =  -0.00000
 Mulliken charges with hydrogens summed into heavy atoms:
               1
     1  C    1.307111
     2  C   -0.931317
     3  C    1.325248
     4  C   -1.415562
     5  C    2.466109
     6  C   -2.564784
     7  O   -0.124476
     8  C    0.503664
     9  C    0.123176
    10  O   -0.474919
    11  O   -0.084809
    12  O   -0.129441
 Electronic spatial extent (au):  <R**2>=           2066.3827
 Charge=             -0.0000 electrons
 Dipole moment (field-independent basis, Debye):
    X=             -2.3562    Y=              3.1323    Z=              0.0000  Tot=              3.9196
 Quadrupole moment (field-independent basis, Debye-Ang):
   XX=            -66.1209   YY=            -65.2016   ZZ=            -71.4501
   XY=              8.8620   XZ=             -0.0003   YZ=              0.0006
 Traceless Quadrupole moment (field-independent basis, Debye-Ang):
   XX=              1.4699   YY=              2.3893   ZZ=             -3.8592
   XY=              8.8620   XZ=             -0.0003   YZ=              0.0006
 Octapole moment (field-independent basis, Debye-Ang**2):
  XXX=            -32.1651  YYY=             43.8665  ZZZ=              0.0001  XYY=            -19.2316
  XXY=            -15.9535  XXZ=             -0.0009  XZZ=              4.9429  YZZ=             -0.2333
  YYZ=              0.0021  XYZ=              0.0005
 Hexadecapole moment (field-independent basis, Debye-Ang**3):
 XXXX=          -1591.0741 YYYY=           -753.8013 ZZZZ=            -80.2139 XXXY=            162.1662
 XXXZ=              0.0096 YYYX=            -29.4604 YYYZ=             -0.0076 ZZZX=              0.0081
 ZZZY=             -0.0141 XXYY=           -401.7816 XXZZ=           -302.6473 YYZZ=           -158.2040
 XXYZ=             -0.0042 YYXZ=             -0.0001 ZZXY=              0.2977
 N-N= 6.985623499158D+02 E-N=-2.823057826630D+03  KE= 6.049491397082D+02
 Calling FoFJK, ICntrl=      2127 FMM=F ISym2X=0 I1Cent= 0 IOpClX= 0 NMat=1 NMatS=1 NMatT=0.
 ***** Axes restored to original set *****
 -------------------------------------------------------------------
 Center     Atomic                   Forces (Hartrees/Bohr)
 Number     Number              X              Y              Z
 -------------------------------------------------------------------
      1        6           0.000298732   -0.000226633    0.000000531
      2        6           0.000313578   -0.000000659   -0.000000090
      3        6           0.000331386    0.000213502    0.000000074
      4        6           0.000130450    0.000269559   -0.000000190
      5        6          -0.000032995    0.000205741   -0.000004139
      6        6           0.000371931   -0.000253609   -0.000001317
      7        8           0.000028640   -0.000498708   -0.000000125
      8        6          -0.000511097    0.000043735    0.000017141
      9        6          -0.000582853   -0.000106039   -0.000003603
     10        8          -0.000308540    0.000368578   -0.000009266
     11        8          -0.000013820    0.000443624   -0.000002706
     12        8           0.000393533    0.000000678   -0.000000020
     13        1           0.000139078   -0.000248563    0.000000142
     14        1           0.000158411    0.000241578   -0.000000022
     15        1           0.000064658   -0.000331875   -0.000000220
     16        1          -0.000301574   -0.000164651   -0.000109454
     17        1          -0.000231273   -0.000065586   -0.000000258
     18        1          -0.000300728   -0.000162403    0.000108464
     19        1          -0.000210459    0.000222957    0.000005047
     20        1           0.000262940    0.000048775    0.000000011
 -------------------------------------------------------------------
 Cartesian Forces:  Max     0.000582853 RMS     0.000221280

 GradGradGradGradGradGradGradGradGradGradGradGradGradGradGradGradGradGrad
 Berny optimization.
 FormGI is forming the generalized inverse of G from B-inverse, IUseBI=4.
 Internal  Forces:  Max     0.002220757 RMS     0.000529486
 Search for a local minimum.
 Step number   1 out of a maximum of  100
 All quantities printed in internal units (Hartrees-Bohrs-Radians)
 Mixed Optimization -- En-DIIS/RFO-DIIS
 Second derivative matrix not updated -- first step.
 ITU=  0
     Eigenvalues ---    0.00703   0.00934   0.01264   0.01596   0.01779
     Eigenvalues ---    0.01985   0.02064   0.02104   0.02150   0.02184
     Eigenvalues ---    0.02185   0.02213   0.02224   0.02286   0.02650
     Eigenvalues ---    0.07307   0.07496   0.16000   0.16000   0.16000
     Eigenvalues ---    0.16000   0.16000   0.16000   0.16000   0.16000
     Eigenvalues ---    0.23478   0.23498   0.25000   0.25000   0.25000
     Eigenvalues ---    0.25000   0.25000   0.25000   0.25000   0.31884
     Eigenvalues ---    0.34421   0.34421   0.34728   0.35284   0.35312
     Eigenvalues ---    0.36667   0.38825   0.40618   0.43684   0.44924
     Eigenvalues ---    0.45840   0.46758   0.47509   0.52998   0.53956
     Eigenvalues ---    0.54425   0.54464   0.60080   0.83395
 RFO step:  Lambda=-7.98821542D-05 EMin= 7.03109463D-03
 Linear search not attempted -- first point.
 Iteration  1 RMS(Cart)=  0.00972141 RMS(Int)=  0.00002176
 Iteration  2 RMS(Cart)=  0.00003126 RMS(Int)=  0.00000113
 Iteration  3 RMS(Cart)=  0.00000000 RMS(Int)=  0.00000113
 Variable       Old X    -DE/DX   Delta X   Delta X   Delta X     New X
                                 (Linear)    (Quad)   (Total)
    R1        2.64633  -0.00057   0.00000  -0.00117  -0.00117   2.64516
    R2        2.61977  -0.00095   0.00000  -0.00200  -0.00200   2.61778
    R3        2.05215  -0.00029   0.00000  -0.00081  -0.00081   2.05135
    R4        2.62340  -0.00049   0.00000  -0.00093  -0.00094   2.62247
    R5        2.56072  -0.00065   0.00000  -0.00120  -0.00120   2.55951
    R6        2.64215  -0.00095   0.00000  -0.00204  -0.00204   2.64011
    R7        2.05172  -0.00029   0.00000  -0.00082  -0.00082   2.05090
    R8        2.71112  -0.00138   0.00000  -0.00349  -0.00349   2.70763
    R9        2.50877  -0.00070   0.00000  -0.00116  -0.00116   2.50761
   R10        2.68617  -0.00175   0.00000  -0.00424  -0.00424   2.68193
   R11        2.76351  -0.00222   0.00000  -0.00606  -0.00606   2.75745
   R12        2.56955  -0.00066   0.00000  -0.00124  -0.00124   2.56831
   R13        1.82312  -0.00030   0.00000  -0.00055  -0.00055   1.82257
   R14        2.84357  -0.00126   0.00000  -0.00397  -0.00397   2.83960
   R15        2.36135  -0.00046   0.00000  -0.00056  -0.00056   2.36080
   R16        2.06625  -0.00014   0.00000  -0.00039  -0.00039   2.06586
   R17        2.06120  -0.00019   0.00000  -0.00056  -0.00056   2.06063
   R18        2.06625  -0.00013   0.00000  -0.00039  -0.00039   2.06586
   R19        1.91013  -0.00017   0.00000  -0.00037  -0.00037   1.90976
   R20        1.82347  -0.00015   0.00000  -0.00028  -0.00028   1.82318
    A1        2.08421  -0.00030   0.00000  -0.00120  -0.00120   2.08301
    A2        2.08094   0.00015   0.00000   0.00059   0.00059   2.08153
    A3        2.11804   0.00015   0.00000   0.00061   0.00061   2.11865
    A4        2.11502   0.00018   0.00000   0.00109   0.00108   2.11611
    A5        2.03123  -0.00003   0.00000  -0.00028  -0.00028   2.03095
    A6        2.13694  -0.00016   0.00000  -0.00081  -0.00081   2.13613
    A7        2.08337  -0.00023   0.00000  -0.00076  -0.00076   2.08261
    A8        2.13142   0.00013   0.00000   0.00048   0.00048   2.13189
    A9        2.06840   0.00010   0.00000   0.00028   0.00028   2.06868
   A10        2.12054  -0.00029   0.00000  -0.00124  -0.00124   2.11930
   A11        2.05042   0.00050   0.00000   0.00203   0.00203   2.05246
   A12        2.11222  -0.00021   0.00000  -0.00079  -0.00079   2.11143
   A13        2.03296   0.00075   0.00000   0.00272   0.00272   2.03567
   A14        2.06572   0.00051   0.00000   0.00217   0.00217   2.06788
   A15        2.18451  -0.00126   0.00000  -0.00488  -0.00488   2.17963
   A16        2.13027  -0.00011   0.00000  -0.00060  -0.00060   2.12967
   A17        2.08985   0.00057   0.00000   0.00236   0.00236   2.09221
   A18        2.06306  -0.00046   0.00000  -0.00176  -0.00176   2.06130
   A19        1.90372  -0.00029   0.00000  -0.00183  -0.00183   1.90189
   A20        2.14700  -0.00179   0.00000  -0.00717  -0.00717   2.13983
   A21        2.08953   0.00075   0.00000   0.00299   0.00299   2.09251
   A22        2.04666   0.00105   0.00000   0.00418   0.00418   2.05084
   A23        1.93803  -0.00036   0.00000  -0.00258  -0.00258   1.93544
   A24        1.88162  -0.00000   0.00000   0.00061   0.00061   1.88223
   A25        1.93802  -0.00036   0.00000  -0.00256  -0.00256   1.93546
   A26        1.92400   0.00028   0.00000   0.00232   0.00232   1.92633
   A27        1.85874   0.00017   0.00000  -0.00006  -0.00007   1.85867
   A28        1.92400   0.00028   0.00000   0.00232   0.00232   1.92633
   A29        1.84204  -0.00049   0.00000  -0.00306  -0.00306   1.83898
   A30        1.91627  -0.00040   0.00000  -0.00249  -0.00249   1.91377
    D1       -0.00000   0.00000   0.00000   0.00002   0.00002   0.00002
    D2        3.14159   0.00000   0.00000   0.00001   0.00001  -3.14158
    D3        3.14159   0.00000   0.00000   0.00000   0.00000   3.14159
    D4       -0.00000  -0.00000   0.00000  -0.00001  -0.00001  -0.00001
    D5        0.00001  -0.00000   0.00000  -0.00002  -0.00002  -0.00001
    D6       -3.14159  -0.00000   0.00000  -0.00004  -0.00004   3.14156
    D7       -3.14159   0.00000   0.00000   0.00000   0.00000  -3.14159
    D8        0.00000  -0.00000   0.00000  -0.00002  -0.00002  -0.00002
    D9       -0.00000   0.00000   0.00000   0.00000   0.00000   0.00000
   D10       -3.14159  -0.00000   0.00000  -0.00003  -0.00003   3.14156
   D11        3.14159   0.00000   0.00000   0.00002   0.00002  -3.14158
   D12        0.00000  -0.00000   0.00000  -0.00002  -0.00002  -0.00002
   D13        3.14159   0.00000   0.00000   0.00001   0.00001  -3.14159
   D14       -0.00000  -0.00000   0.00000  -0.00001  -0.00001  -0.00001
   D15        0.00001  -0.00000   0.00000  -0.00004  -0.00004  -0.00003
   D16       -3.14159  -0.00000   0.00000  -0.00009  -0.00009   3.14151
   D17       -3.14159  -0.00000   0.00000  -0.00000  -0.00000   3.14159
   D18        0.00000  -0.00000   0.00000  -0.00005  -0.00005  -0.00005
   D19       -0.00001   0.00000   0.00000   0.00004   0.00004   0.00004
   D20        3.14158   0.00000   0.00000   0.00009   0.00010  -3.14151
   D21        3.14159   0.00000   0.00000   0.00009   0.00009  -3.14151
   D22       -0.00002   0.00000   0.00000   0.00015   0.00015   0.00013
   D23        3.14157   0.00001   0.00000   0.00020   0.00020  -3.14141
   D24       -0.00002   0.00000   0.00000   0.00015   0.00015   0.00013
   D25       -0.00000  -0.00000   0.00000  -0.00001  -0.00001  -0.00001
   D26       -3.14159   0.00000   0.00000   0.00001   0.00001  -3.14158
   D27       -3.14158  -0.00000   0.00000  -0.00007  -0.00007   3.14153
   D28        0.00001  -0.00000   0.00000  -0.00005  -0.00005  -0.00004
   D29       -3.14155  -0.00000   0.00000  -0.00013  -0.00013   3.14150
   D30       -0.00009   0.00001   0.00000   0.00048   0.00048   0.00039
   D31        0.00003   0.00000   0.00000  -0.00008  -0.00008  -0.00005
   D32        3.14149   0.00001   0.00000   0.00054   0.00054  -3.14115
   D33        0.00003   0.00000   0.00000   0.00000   0.00000   0.00003
   D34       -3.14157  -0.00000   0.00000  -0.00002  -0.00002  -3.14159
   D35        1.03223  -0.00012   0.00000  -0.00137  -0.00137   1.03086
   D36        3.14153   0.00000   0.00000   0.00031   0.00031  -3.14134
   D37       -1.03236   0.00013   0.00000   0.00201   0.00201  -1.03036
   D38       -2.10924  -0.00013   0.00000  -0.00197  -0.00197  -2.11121
   D39        0.00006  -0.00000   0.00000  -0.00029  -0.00029  -0.00023
   D40        2.10935   0.00012   0.00000   0.00141   0.00141   2.11076
         Item               Value     Threshold  Converged?
 Maximum Force            0.002221     0.000450     NO 
 RMS     Force            0.000529     0.000300     NO 
 Maximum Displacement     0.042629     0.001800     NO 
 RMS     Displacement     0.009724     0.001200     NO 
 Predicted change in Energy=-3.995000D-05
 GradGradGradGradGradGradGradGradGradGradGradGradGradGradGradGradGradGrad

                          Input orientation:                          
 ---------------------------------------------------------------------
 Center     Atomic      Atomic             Coordinates (Angstroms)
 Number     Number       Type             X           Y           Z
 ---------------------------------------------------------------------
      1          6           0       -1.522029    1.247020    0.000068
      2          6           0       -2.254695    0.054325   -0.000029
      3          6           0       -1.620487   -1.180030   -0.000061
      4          6           0       -0.224370   -1.231981    0.000009
      5          6           0        0.567660   -0.037978    0.000075
      6          6           0       -0.137795    1.193491    0.000112
      7          8           0        0.584215    2.344938    0.000165
      8          6           0        2.021116   -0.167106    0.000043
      9          6           0        2.939623    1.022140   -0.000013
     10          8           0        2.545429   -1.301035   -0.000465
     11          8           0        0.346195   -2.430023    0.000070
     12          8           0       -3.603562    0.177018   -0.000077
     13          1           0       -2.051203    2.194828    0.000090
     14          1           0       -2.173886   -2.113630   -0.000110
     15          1           0       -0.021958    3.095101    0.000192
     16          1           0        2.762413    1.651649    0.876008
     17          1           0        3.965362    0.652112   -0.000286
     18          1           0        2.762031    1.651882   -0.875791
     19          1           0        1.341134   -2.252793    0.000287
     20          1           0       -4.008985   -0.698452   -0.000141
 ---------------------------------------------------------------------
                    Distance matrix (angstroms):
                    1          2          3          4          5
     1  C    0.000000
     2  C    1.399757   0.000000
     3  C    2.429047   1.387751   0.000000
     4  C    2.798100   2.403498   1.397084   0.000000
     5  C    2.453165   2.823864   2.468253   1.432814   0.000000
     6  C    1.385269   2.403947   2.798567   2.427016   1.419219
     7  O    2.375224   3.647782   4.157657   3.667173   2.382973
     8  C    3.814922   4.281541   3.779854   2.485189   1.459181
     9  C    4.467316   5.283711   5.064007   3.884831   2.598087
    10  O    4.799666   4.987804   4.167673   2.770659   2.346675
    11  O    4.124428   3.596750   2.330305   1.326970   2.402275
    12  O    2.340445   1.354436   2.402949   3.661177   4.176759
    13  H    1.085526   2.150154   3.402233   3.883341   3.441492
    14  H    3.423286   2.169461   1.085291   2.139607   3.438663
    15  H    2.380255   3.772456   4.564213   4.331813   3.188076
    16  H    4.391746   5.337626   5.291098   4.243061   2.905002
    17  H    5.519545   6.248716   5.878644   4.593872   3.467074
    18  H    4.391379   5.337291   5.290850   4.242909   2.904829
    19  H    4.521768   4.272327   3.149924   1.868919   2.345989
    20  H    3.157501   1.908981   2.436563   3.822037   4.624058
                    6          7          8          9         10
     6  C    0.000000
     7  O    1.359091   0.000000
     8  C    2.551886   2.893968   0.000000
     9  C    3.082185   2.701433   1.502652   0.000000
    10  O    3.663652   4.139985   1.249279   2.356382   0.000000
    11  O    3.655694   4.780889   2.815342   4.317789   2.472093
    12  O    3.611753   4.715650   5.635195   6.597538   6.324138
    13  H    2.159585   2.639690   4.707709   5.126748   5.774953
    14  H    3.883647   5.242704   4.624607   5.998419   4.788761
    15  H    1.905135   0.964464   3.849175   3.614986   5.090922
    16  H    3.064035   2.447916   2.150513   1.093205   3.087658
    17  H    4.138718   3.781245   2.109789   1.090441   2.414745
    18  H    3.063710   2.447551   2.150525   1.093206   3.087528
    19  H    3.750213   4.659619   2.193732   3.644222   1.534981
    20  H    4.308777   5.509965   6.053466   7.158463   6.582055
                   11         12         13         14         15
    11  O    0.000000
    12  O    4.732572   0.000000
    13  H    5.209296   2.545855   0.000000
    14  H    2.539864   2.700192   4.310205   0.000000
    15  H    5.537375   4.619859   2.219983   5.635749   0.000000
    16  H    4.823424   6.593004   4.922720   6.269924   3.256275
    17  H    4.753727   7.583820   6.211202   6.733475   4.676207
    18  H    4.823416   6.592638   4.922315   6.269702   3.255890
    19  H    1.010601   5.509446   5.593683   3.517773   5.518875
    20  H    4.686783   0.964788   3.493420   2.317395   5.503402
                   16         17         18         19         20
    16  H    0.000000
    17  H    1.792778   0.000000
    18  H    1.751799   1.792778   0.000000
    19  H    4.246361   3.914721   4.246521   0.000000
    20  H    7.220972   8.087907   7.220630   5.571333   0.000000
 Stoichiometry    C8H8O4
 Framework group  C1[X(C8H8O4)]
 Deg. of freedom    54
 Full point group                 C1      NOp   1
 Largest Abelian subgroup         C1      NOp   1
 Largest concise Abelian subgroup C1      NOp   1
                         Standard orientation:                         
 ---------------------------------------------------------------------
 Center     Atomic      Atomic             Coordinates (Angstroms)
 Number     Number       Type             X           Y           Z
 ---------------------------------------------------------------------
      1          6           0       -1.523636    1.248434    0.000079
      2          6           0       -2.256582    0.055912   -0.000018
      3          6           0       -1.622666   -1.178593   -0.000050
      4          6           0       -0.226561   -1.230872    0.000020
      5          6           0        0.565751   -0.037056    0.000086
      6          6           0       -0.139414    1.194579    0.000123
      7          8           0        0.582867    2.345856    0.000176
      8          6           0        2.019176   -0.166527    0.000055
      9          6           0        2.937963    1.022503   -0.000002
     10          8           0        2.543222   -1.300579   -0.000454
     11          8           0        0.343722   -2.429049    0.000081
     12          8           0       -3.605421    0.178922   -0.000066
     13          1           0       -2.052587    2.196367    0.000101
     14          1           0       -2.176284   -2.112062   -0.000099
     15          1           0       -0.023130    3.096161    0.000203
     16          1           0        2.760901    1.652054    0.876019
     17          1           0        3.963615    0.652233   -0.000275
     18          1           0        2.760519    1.652287   -0.875780
     19          1           0        1.338703   -2.252053    0.000298
     20          1           0       -4.011050   -0.696453   -0.000129
 ---------------------------------------------------------------------
 Rotational constants (GHZ):      1.5542019      0.7696997      0.5163942
 Standard basis: 6-31+G(d,p) (6D, 7F)
 There are   268 symmetry adapted cartesian basis functions of A   symmetry.
 There are   268 symmetry adapted basis functions of A   symmetry.
   268 basis functions,   440 primitive gaussians,   268 cartesian basis functions
    44 alpha electrons       44 beta electrons
       nuclear repulsion energy       699.4672796748 Hartrees.
 NAtoms=   20 NActive=   20 NUniq=   20 SFac= 1.00D+00 NAtFMM=   60 NAOKFM=F Big=F
 Integral buffers will be    131072 words long.
 Raffenetti 2 integral format.
 Two-electron integral symmetry is turned on.
 Nuclear repulsion after empirical dispersion term =      699.4293166101 Hartrees.
 One-electron integrals computed using PRISM.
 NBasis=   268 RedAO= T EigKep=  1.51D-06  NBF=   268
 NBsUse=   268 1.00D-06 EigRej= -1.00D+00 NBFU=   268
 Initial guess from the checkpoint file:  "B3PW91D3BJTHAP.chk"
 B after Tr=    -0.000000    0.000000   -0.000000
         Rot=    1.000000   -0.000007   -0.000003    0.000443 Ang=  -0.05 deg.
 ExpMin= 4.38D-02 ExpMax= 5.48D+03 ExpMxC= 8.25D+02 IAcc=2 IRadAn=         4 AccDes= 0.00D+00
 Harris functional with IExCor=  408 and IRadAn=       4 diagonalized for initial guess.
 HarFok:  IExCor=  408 AccDes= 0.00D+00 IRadAn=         4 IDoV= 1 UseB2=F ITyADJ=14
 ICtDFT=  3500011 ScaDFX=  1.000000  1.000000  1.000000  1.000000
 FoFCou: FMM=F IPFlag=           0 FMFlag=      100000 FMFlg1=           0
         NFxFlg=           0 DoJE=T BraDBF=F KetDBF=T FulRan=T
         wScrn=  0.000000 ICntrl=     500 IOpCl=  0 I1Cent=   200000004 NGrid=           0
         NMat0=    1 NMatS0=      1 NMatT0=    0 NMatD0=    1 NMtDS0=    0 NMtDT0=    0
 Petite list used in FoFCou.
 Keep R1 ints in memory in canonical form, NReq=659648347.
 Requested convergence on RMS density matrix=1.00D-08 within 128 cycles.
 Requested convergence on MAX density matrix=1.00D-06.
 Requested convergence on             energy=1.00D-06.
 No special actions if energy rises.
 SCF Done:  E(RB3PW91) =  -610.417201801     A.U. after   11 cycles
            NFock= 11  Conv=0.52D-08     -V/T= 2.0090
 Calling FoFJK, ICntrl=      2127 FMM=F ISym2X=0 I1Cent= 0 IOpClX= 0 NMat=1 NMatS=1 NMatT=0.
 ***** Axes restored to original set *****
 -------------------------------------------------------------------
 Center     Atomic                   Forces (Hartrees/Bohr)
 Number     Number              X              Y              Z
 -------------------------------------------------------------------
      1        6          -0.000076986    0.000156091   -0.000001720
      2        6           0.000046465    0.000173242   -0.000000009
      3        6           0.000032648   -0.000072977   -0.000001185
      4        6          -0.000247522   -0.000009418    0.000005130
      5        6          -0.000123887   -0.000195103    0.000015735
      6        6           0.000201800    0.000119755    0.000002861
      7        8          -0.000902005    0.000404344    0.000002547
      8        6           0.000269568    0.000096557   -0.000065659
      9        6           0.000615093   -0.000224150    0.000014293
     10        8          -0.000349535   -0.000173161    0.000041942
     11        8           0.000346214    0.000186716    0.000014103
     12        8          -0.000071815   -0.000080727   -0.000000029
     13        1          -0.000051495   -0.000020029   -0.000000420
     14        1          -0.000066143    0.000003140    0.000000280
     15        1          -0.000047922    0.000100550   -0.000000213
     16        1           0.000113578   -0.000065663   -0.000100694
     17        1           0.000049852    0.000004082    0.000001123
     18        1           0.000111067   -0.000071912    0.000101630
     19        1           0.000233089   -0.000329471   -0.000029657
     20        1          -0.000082064   -0.000001866   -0.000000059
 -------------------------------------------------------------------
 Cartesian Forces:  Max     0.000902005 RMS     0.000195777

 GradGradGradGradGradGradGradGradGradGradGradGradGradGradGradGradGradGrad
 Berny optimization.
 Using GEDIIS/GDIIS optimizer.
 FormGI is forming the generalized inverse of G from B-inverse, IUseBI=4.
 Internal  Forces:  Max     0.002525310 RMS     0.000539014
 Search for a local minimum.
 Step number   2 out of a maximum of  100
 All quantities printed in internal units (Hartrees-Bohrs-Radians)
 Mixed Optimization -- En-DIIS/RFO-DIIS
 Swapping is turned off.
 Update second derivatives using D2CorX and points    1    2
 DE= -9.23D-06 DEPred=-3.99D-05 R= 2.31D-01
 Trust test= 2.31D-01 RLast= 1.70D-02 DXMaxT set to 3.00D-01
 ITU=  0  0
     Eigenvalues ---    0.00703   0.00934   0.01264   0.01596   0.01779
     Eigenvalues ---    0.01986   0.02064   0.02104   0.02150   0.02184
     Eigenvalues ---    0.02185   0.02213   0.02224   0.02286   0.02650
     Eigenvalues ---    0.07292   0.07500   0.15489   0.16000   0.16000
     Eigenvalues ---    0.16000   0.16000   0.16000   0.16000   0.16155
     Eigenvalues ---    0.22195   0.23496   0.23632   0.25000   0.25000
     Eigenvalues ---    0.25000   0.25000   0.25000   0.29979   0.33538
     Eigenvalues ---    0.34393   0.34421   0.34747   0.35292   0.35339
     Eigenvalues ---    0.38193   0.39465   0.43635   0.43978   0.45808
     Eigenvalues ---    0.46705   0.47092   0.52765   0.53687   0.54390
     Eigenvalues ---    0.54435   0.58842   0.66793   0.83325
 En-DIIS/RFO-DIIS IScMMF=        0 using points:     2    1
 RFO step:  Lambda=-3.36117730D-05.
 DidBck=T Rises=F RFO-DIIS coefs:    0.55918    0.44082
 Iteration  1 RMS(Cart)=  0.00652594 RMS(Int)=  0.00001024
 Iteration  2 RMS(Cart)=  0.00001727 RMS(Int)=  0.00000053
 Iteration  3 RMS(Cart)=  0.00000000 RMS(Int)=  0.00000053
 Variable       Old X    -DE/DX   Delta X   Delta X   Delta X     New X
                                 (Linear)    (Quad)   (Total)
    R1        2.64516  -0.00005   0.00052  -0.00084  -0.00033   2.64483
    R2        2.61778   0.00026   0.00088  -0.00097  -0.00009   2.61769
    R3        2.05135   0.00001   0.00036  -0.00051  -0.00015   2.05119
    R4        2.62247  -0.00004   0.00041  -0.00070  -0.00029   2.62218
    R5        2.55951   0.00015   0.00053  -0.00063  -0.00010   2.55942
    R6        2.64011   0.00002   0.00090  -0.00132  -0.00042   2.63969
    R7        2.05090   0.00003   0.00036  -0.00048  -0.00012   2.05079
    R8        2.70763   0.00005   0.00154  -0.00216  -0.00062   2.70700
    R9        2.50761   0.00038   0.00051  -0.00040   0.00011   2.50772
   R10        2.68193   0.00127   0.00187  -0.00100   0.00086   2.68280
   R11        2.75745   0.00084   0.00267  -0.00262   0.00005   2.75750
   R12        2.56831  -0.00008   0.00055  -0.00088  -0.00034   2.56797
   R13        1.82257   0.00011   0.00024  -0.00024  -0.00000   1.82257
   R14        2.83960   0.00026   0.00175  -0.00210  -0.00035   2.83925
   R15        2.36080   0.00001   0.00025  -0.00035  -0.00011   2.36069
   R16        2.06586  -0.00014   0.00017  -0.00048  -0.00030   2.06556
   R17        2.06063   0.00005   0.00025  -0.00029  -0.00004   2.06059
   R18        2.06586  -0.00014   0.00017  -0.00048  -0.00031   2.06555
   R19        1.90976   0.00017   0.00016  -0.00003   0.00013   1.90989
   R20        1.82318   0.00004   0.00012  -0.00014  -0.00002   1.82316
    A1        2.08301   0.00023   0.00053  -0.00019   0.00034   2.08335
    A2        2.08153  -0.00017  -0.00026  -0.00011  -0.00037   2.08116
    A3        2.11865  -0.00006  -0.00027   0.00030   0.00003   2.11868
    A4        2.11611   0.00001  -0.00048   0.00058   0.00010   2.11621
    A5        2.03095   0.00005   0.00012   0.00001   0.00013   2.03108
    A6        2.13613  -0.00006   0.00036  -0.00059  -0.00023   2.13590
    A7        2.08261   0.00002   0.00033  -0.00059  -0.00026   2.08236
    A8        2.13189  -0.00007  -0.00021   0.00015  -0.00006   2.13183
    A9        2.06868   0.00005  -0.00013   0.00044   0.00032   2.06900
   A10        2.11930   0.00034   0.00055  -0.00006   0.00049   2.11979
   A11        2.05246   0.00006  -0.00090   0.00146   0.00056   2.05302
   A12        2.11143  -0.00040   0.00035  -0.00140  -0.00105   2.11038
   A13        2.03567  -0.00035  -0.00120   0.00111  -0.00009   2.03558
   A14        2.06788  -0.00218  -0.00096  -0.00354  -0.00449   2.06339
   A15        2.17963   0.00253   0.00215   0.00243   0.00458   2.18421
   A16        2.12967  -0.00026   0.00027  -0.00085  -0.00058   2.12909
   A17        2.09221  -0.00123  -0.00104  -0.00128  -0.00232   2.08990
   A18        2.06130   0.00148   0.00078   0.00212   0.00290   2.06420
   A19        1.90189   0.00005   0.00080  -0.00101  -0.00021   1.90168
   A20        2.13983   0.00217   0.00316   0.00023   0.00338   2.14322
   A21        2.09251  -0.00154  -0.00132  -0.00153  -0.00284   2.08967
   A22        2.05084  -0.00062  -0.00184   0.00130  -0.00054   2.05030
   A23        1.93544   0.00010   0.00114  -0.00126  -0.00012   1.93532
   A24        1.88223  -0.00003  -0.00027   0.00018  -0.00008   1.88215
   A25        1.93546   0.00009   0.00113  -0.00129  -0.00016   1.93530
   A26        1.92633  -0.00007  -0.00102   0.00115   0.00013   1.92645
   A27        1.85867  -0.00003   0.00003   0.00008   0.00011   1.85878
   A28        1.92633  -0.00007  -0.00102   0.00115   0.00013   1.92646
   A29        1.83898   0.00070   0.00135   0.00046   0.00181   1.84079
   A30        1.91377   0.00013   0.00110  -0.00114  -0.00004   1.91373
    D1        0.00002  -0.00000  -0.00001  -0.00005  -0.00006  -0.00005
    D2       -3.14158  -0.00000  -0.00000  -0.00002  -0.00003   3.14157
    D3        3.14159  -0.00000  -0.00000  -0.00001  -0.00001   3.14158
    D4       -0.00001   0.00000   0.00000   0.00003   0.00003   0.00002
    D5       -0.00001   0.00000   0.00001   0.00002   0.00003   0.00002
    D6        3.14156   0.00000   0.00002   0.00010   0.00012  -3.14151
    D7       -3.14159  -0.00000  -0.00000  -0.00003  -0.00003   3.14157
    D8       -0.00002   0.00000   0.00001   0.00005   0.00006   0.00004
    D9        0.00000  -0.00000  -0.00000  -0.00000  -0.00000  -0.00000
   D10        3.14156   0.00000   0.00001   0.00009   0.00010  -3.14152
   D11       -3.14158  -0.00000  -0.00001  -0.00004  -0.00005   3.14156
   D12       -0.00002   0.00000   0.00001   0.00005   0.00006   0.00004
   D13       -3.14159  -0.00000  -0.00000  -0.00002  -0.00002   3.14157
   D14       -0.00001   0.00000   0.00000   0.00002   0.00002   0.00001
   D15       -0.00003   0.00000   0.00002   0.00009   0.00011   0.00008
   D16        3.14151   0.00001   0.00004   0.00026   0.00029  -3.14138
   D17        3.14159   0.00000   0.00000   0.00000   0.00001  -3.14159
   D18       -0.00005   0.00001   0.00002   0.00017   0.00019   0.00014
   D19        0.00004  -0.00000  -0.00002  -0.00012  -0.00014  -0.00010
   D20       -3.14151  -0.00001  -0.00004  -0.00025  -0.00029   3.14138
   D21       -3.14151  -0.00001  -0.00004  -0.00029  -0.00033   3.14135
   D22        0.00013  -0.00002  -0.00006  -0.00042  -0.00048  -0.00035
   D23       -3.14141  -0.00003  -0.00009  -0.00055  -0.00063   3.14114
   D24        0.00013  -0.00002  -0.00007  -0.00038  -0.00045  -0.00032
   D25       -0.00001   0.00000   0.00001   0.00006   0.00007   0.00005
   D26       -3.14158  -0.00000  -0.00000  -0.00001  -0.00002   3.14158
   D27        3.14153   0.00001   0.00003   0.00020   0.00023  -3.14142
   D28       -0.00004   0.00000   0.00002   0.00012   0.00015   0.00011
   D29        3.14150   0.00000   0.00006   0.00011   0.00017  -3.14152
   D30        0.00039  -0.00002  -0.00021  -0.00096  -0.00118  -0.00078
   D31       -0.00005  -0.00000   0.00003  -0.00003   0.00000  -0.00005
   D32       -3.14115  -0.00003  -0.00024  -0.00111  -0.00134   3.14069
   D33        0.00003  -0.00000  -0.00000  -0.00005  -0.00005  -0.00002
   D34       -3.14159   0.00000   0.00001   0.00003   0.00004  -3.14155
   D35        1.03086   0.00003   0.00060  -0.00133  -0.00073   1.03013
   D36       -3.14134  -0.00001  -0.00014  -0.00057  -0.00070   3.14114
   D37       -1.03036  -0.00006  -0.00089   0.00019  -0.00069  -1.03105
   D38       -2.11121   0.00005   0.00087  -0.00028   0.00058  -2.11062
   D39       -0.00023   0.00001   0.00013   0.00048   0.00061   0.00038
   D40        2.11076  -0.00003  -0.00062   0.00124   0.00062   2.11138
         Item               Value     Threshold  Converged?
 Maximum Force            0.002525     0.000450     NO 
 RMS     Force            0.000539     0.000300     NO 
 Maximum Displacement     0.022846     0.001800     NO 
 RMS     Displacement     0.006524     0.001200     NO 
 Predicted change in Energy=-2.205237D-05
 GradGradGradGradGradGradGradGradGradGradGradGradGradGradGradGradGradGrad

                          Input orientation:                          
 ---------------------------------------------------------------------
 Center     Atomic      Atomic             Coordinates (Angstroms)
 Number     Number       Type             X           Y           Z
 ---------------------------------------------------------------------
      1          6           0       -1.525263    1.247889    0.000053
      2          6           0       -2.255583    0.053958    0.000134
      3          6           0       -1.619239   -1.179127    0.000040
      4          6           0       -0.223241   -1.228215   -0.000141
      5          6           0        0.566750   -0.033257   -0.000136
      6          6           0       -0.140959    1.197444   -0.000069
      7          8           0        0.575716    2.352010   -0.000050
      8          6           0        2.019846   -0.166659   -0.000060
      9          6           0        2.945739    1.016609    0.000045
     10          8           0        2.537569   -1.303548    0.000849
     11          8           0        0.350469   -2.424822   -0.000479
     12          8           0       -3.604645    0.173919    0.000273
     13          1           0       -2.056537    2.194429    0.000122
     14          1           0       -2.170992   -2.113627    0.000032
     15          1           0       -0.034018    3.099282    0.000036
     16          1           0        2.771867    1.647381    0.875626
     17          1           0        3.969065    0.640022    0.000558
     18          1           0        2.772585    1.646951   -0.875986
     19          1           0        1.345337   -2.246789   -0.001003
     20          1           0       -4.008256   -0.702376    0.000302
 ---------------------------------------------------------------------
                    Distance matrix (angstroms):
                    1          2          3          4          5
     1  C    0.000000
     2  C    1.399585   0.000000
     3  C    2.428835   1.387600   0.000000
     4  C    2.797562   2.402995   1.396861   0.000000
     5  C    2.453132   2.823681   2.468110   1.432484   0.000000
     6  C    1.385223   2.403995   2.798822   2.427055   1.419676
     7  O    2.373436   3.646546   4.157735   3.668290   2.385284
     8  C    3.816902   4.281117   3.777305   2.481600   1.459206
     9  C    4.476981   5.289655   5.065598   3.883513   2.600348
    10  O    4.797545   4.981680   4.158671   2.761838   2.344732
    11  O    4.123975   3.596645   2.330559   1.327030   2.401324
    12  O    2.340350   1.354385   2.402617   3.660584   4.176537
    13  H    1.085445   2.149706   3.401781   3.882714   3.441544
    14  H    3.422975   2.169235   1.085229   2.139554   3.438484
    15  H    2.377282   3.769529   4.562643   4.331632   3.189627
    16  H    4.403584   5.346095   5.295055   4.243429   2.907583
    17  H    5.527852   6.252177   5.876942   4.589743   3.468292
    18  H    4.404338   5.346745   5.295494   4.243661   2.907906
    19  H    4.522512   4.273179   3.150970   1.870275   2.346470
    20  H    3.157338   1.908901   2.436122   3.821366   4.623678
                    6          7          8          9         10
     6  C    0.000000
     7  O    1.358914   0.000000
     8  C    2.555358   2.903309   0.000000
     9  C    3.091991   2.720351   1.502465   0.000000
    10  O    3.664625   4.148732   1.249222   2.355787   0.000000
    11  O    3.655450   4.782140   2.808224   4.310322   2.457776
    12  O    3.611748   4.713757   5.634793   6.604367   6.317413
    13  H    2.159495   2.636966   4.710800   5.139069   5.774224
    14  H    3.883842   5.242740   4.621018   5.998276   4.777738
    15  H    1.904842   0.964463   3.858072   3.635448   5.098821
    16  H    3.074709   2.467060   2.150140   1.093045   3.086765
    17  H    4.147652   3.800753   2.109547   1.090419   2.413845
    18  H    3.075390   2.467915   2.150126   1.093043   3.086992
    19  H    3.751242   4.662754   2.186757   3.634701   1.520238
    20  H    4.308747   5.508364   6.051859   7.163306   6.573373
                   11         12         13         14         15
    11  O    0.000000
    12  O    4.732481   0.000000
    13  H    5.208758   2.545408   0.000000
    14  H    2.540592   2.699672   4.309577   0.000000
    15  H    5.537468   4.615964   2.215703   5.633922   0.000000
    16  H    4.818046   6.602820   4.937535   6.272456   3.278362
    17  H    4.742099   7.588039   6.222866   6.729256   4.698152
    18  H    4.817935   6.603538   4.938392   6.272823   3.279283
    19  H    1.010672   5.510186   5.594387   3.518850   5.521149
    20  H    4.686715   0.964777   3.492948   2.316714   5.499743
                   16         17         18         19         20
    16  H    0.000000
    17  H    1.792707   0.000000
    18  H    1.751612   1.792708   0.000000
    19  H    4.238871   3.900978   4.238377   0.000000
    20  H    7.228942   8.089479   7.229593   5.571908   0.000000
 Stoichiometry    C8H8O4
 Framework group  C1[X(C8H8O4)]
 Deg. of freedom    54
 Full point group                 C1      NOp   1
 Largest Abelian subgroup         C1      NOp   1
 Largest concise Abelian subgroup C1      NOp   1
                         Standard orientation:                         
 ---------------------------------------------------------------------
 Center     Atomic      Atomic             Coordinates (Angstroms)
 Number     Number       Type             X           Y           Z
 ---------------------------------------------------------------------
      1          6           0       -1.527700    1.245910    0.000011
      2          6           0       -2.256450    0.051021    0.000093
      3          6           0       -1.618487   -1.181228   -0.000001
      4          6           0       -0.222425   -1.228481   -0.000182
      5          6           0        0.565996   -0.032486   -0.000177
      6          6           0       -0.143330    1.197284   -0.000110
      7          8           0        0.571827    2.352791   -0.000091
      8          6           0        2.019265   -0.163978   -0.000101
      9          6           0        2.943603    1.020505    0.000004
     10          8           0        2.538482   -1.300187    0.000808
     11          8           0        0.352857   -2.424333   -0.000520
     12          8           0       -3.605669    0.169208    0.000232
     13          1           0       -2.060217    2.191751    0.000081
     14          1           0       -2.169011   -2.116452   -0.000009
     15          1           0       -0.038888    3.099261   -0.000005
     16          1           0        2.768901    1.651048    0.875585
     17          1           0        3.967422    0.645263    0.000517
     18          1           0        2.769620    1.650619   -0.876027
     19          1           0        1.347490   -2.244993   -0.001044
     20          1           0       -4.008127   -0.707617    0.000261
 ---------------------------------------------------------------------
 Rotational constants (GHZ):      1.5541632      0.7696522      0.5163682
 Standard basis: 6-31+G(d,p) (6D, 7F)
 There are   268 symmetry adapted cartesian basis functions of A   symmetry.
 There are   268 symmetry adapted basis functions of A   symmetry.
   268 basis functions,   440 primitive gaussians,   268 cartesian basis functions
    44 alpha electrons       44 beta electrons
       nuclear repulsion energy       699.4957111558 Hartrees.
 NAtoms=   20 NActive=   20 NUniq=   20 SFac= 1.00D+00 NAtFMM=   60 NAOKFM=F Big=F
 Integral buffers will be    131072 words long.
 Raffenetti 2 integral format.
 Two-electron integral symmetry is turned on.
 Nuclear repulsion after empirical dispersion term =      699.4577672616 Hartrees.
 One-electron integrals computed using PRISM.
 NBasis=   268 RedAO= T EigKep=  1.52D-06  NBF=   268
 NBsUse=   268 1.00D-06 EigRej= -1.00D+00 NBFU=   268
 Initial guess from the checkpoint file:  "B3PW91D3BJTHAP.chk"
 B after Tr=     0.000000   -0.000000   -0.000000
         Rot=    1.000000    0.000017    0.000013   -0.000923 Ang=   0.11 deg.
 ExpMin= 4.38D-02 ExpMax= 5.48D+03 ExpMxC= 8.25D+02 IAcc=2 IRadAn=         4 AccDes= 0.00D+00
 Harris functional with IExCor=  408 and IRadAn=       4 diagonalized for initial guess.
 HarFok:  IExCor=  408 AccDes= 0.00D+00 IRadAn=         4 IDoV= 1 UseB2=F ITyADJ=14
 ICtDFT=  3500011 ScaDFX=  1.000000  1.000000  1.000000  1.000000
 FoFCou: FMM=F IPFlag=           0 FMFlag=      100000 FMFlg1=           0
         NFxFlg=           0 DoJE=T BraDBF=F KetDBF=T FulRan=T
         wScrn=  0.000000 ICntrl=     500 IOpCl=  0 I1Cent=   200000004 NGrid=           0
         NMat0=    1 NMatS0=      1 NMatT0=    0 NMatD0=    1 NMtDS0=    0 NMtDT0=    0
 Petite list used in FoFCou.
 Keep R1 ints in memory in canonical form, NReq=659648347.
 Requested convergence on RMS density matrix=1.00D-08 within 128 cycles.
 Requested convergence on MAX density matrix=1.00D-06.
 Requested convergence on             energy=1.00D-06.
 No special actions if energy rises.
 SCF Done:  E(RB3PW91) =  -610.417205747     A.U. after   11 cycles
            NFock= 11  Conv=0.94D-08     -V/T= 2.0090
 Calling FoFJK, ICntrl=      2127 FMM=F ISym2X=0 I1Cent= 0 IOpClX= 0 NMat=1 NMatS=1 NMatT=0.
 ***** Axes restored to original set *****
 -------------------------------------------------------------------
 Center     Atomic                   Forces (Hartrees/Bohr)
 Number     Number              X              Y              Z
 -------------------------------------------------------------------
      1        6          -0.000049381    0.000034069    0.000003117
      2        6          -0.000082276   -0.000038476    0.000000075
      3        6          -0.000198866   -0.000046994    0.000003537
      4        6           0.000110405   -0.000947116   -0.000015147
      5        6           0.000261204    0.000275344   -0.000027609
      6        6           0.000070904    0.000140450   -0.000003324
      7        8           0.000175742    0.000032851   -0.000004976
      8        6          -0.000291401    0.000485081    0.000115391
      9        6           0.000099771   -0.000101743   -0.000020382
     10        8           0.001340805    0.000051876   -0.000084991
     11        8          -0.001893456   -0.000236695   -0.000032097
     12        8          -0.000135956   -0.000019991    0.000000042
     13        1          -0.000053432    0.000052299    0.000000821
     14        1          -0.000061832   -0.000038888   -0.000000953
     15        1           0.000026283    0.000072022    0.000000147
     16        1           0.000004522    0.000047413    0.000035014
     17        1           0.000045139    0.000082889   -0.000002409
     18        1           0.000007464    0.000057236   -0.000037383
     19        1           0.000706768    0.000107634    0.000070886
     20        1          -0.000082405   -0.000009262    0.000000240
 -------------------------------------------------------------------
 Cartesian Forces:  Max     0.001893456 RMS     0.000354604

 GradGradGradGradGradGradGradGradGradGradGradGradGradGradGradGradGradGrad
 Berny optimization.
 Using GEDIIS/GDIIS optimizer.
 FormGI is forming the generalized inverse of G from B-inverse, IUseBI=4.
 Internal  Forces:  Max     0.002763399 RMS     0.000572581
 Search for a local minimum.
 Step number   3 out of a maximum of  100
 All quantities printed in internal units (Hartrees-Bohrs-Radians)
 Mixed Optimization -- En-DIIS/RFO-DIIS
 Swapping is turned off.
 Update second derivatives using D2CorX and points    1    2    3
 DE= -3.95D-06 DEPred=-2.21D-05 R= 1.79D-01
 Trust test= 1.79D-01 RLast= 9.48D-03 DXMaxT set to 3.00D-01
 ITU=  0  0  0
     Eigenvalues ---    0.00703   0.00936   0.01266   0.01596   0.01780
     Eigenvalues ---    0.01986   0.02064   0.02104   0.02150   0.02184
     Eigenvalues ---    0.02185   0.02213   0.02224   0.02286   0.02654
     Eigenvalues ---    0.07173   0.07501   0.14805   0.16000   0.16000
     Eigenvalues ---    0.16000   0.16000   0.16000   0.16010   0.16290
     Eigenvalues ---    0.21780   0.23497   0.23574   0.25000   0.25000
     Eigenvalues ---    0.25000   0.25000   0.27775   0.31634   0.34245
     Eigenvalues ---    0.34421   0.34714   0.35211   0.35302   0.37154
     Eigenvalues ---    0.39450   0.43043   0.43674   0.44879   0.46637
     Eigenvalues ---    0.46968   0.52511   0.53382   0.54372   0.54434
     Eigenvalues ---    0.57350   0.59452   0.82926   1.18361
 En-DIIS/RFO-DIIS IScMMF=        0 using points:     3    2    1
 RFO step:  Lambda=-2.79669570D-05.
 DidBck=T Rises=F RFO-DIIS coefs:    0.32901    0.38974    0.28124
[...]
 489669,0.01250624,0.00000051,-0.17340609,-0.06559023,-0.00000196,0.453
 18424,-0.02159819,-0.01506971,-0.00000104,0.00346506,0.00579095,0.0000
 0001,-0.00121124,-0.00450607,-0.00000030,0.00331830,-0.00043321,-0.000
 00056,-0.00995839,-0.04896869,-0.00000203,-0.12256320,-0.25388073,-0.0
 0000812,-0.11284586,0.63414870,-0.00000125,-0.00000146,0.01250059,-0.0
 0000003,-0.00000004,0.00950192,0.00000002,-0.00000012,-0.00156486,0.00
 000011,-0.00000018,0.00358840,-0.00000011,-0.00000198,0.00456131,-0.00
 000477,-0.00000864,-0.04483869,-0.00000663,0.00002620,0.02936897,0.012
 99767,0.00532895,0.00000093,-0.00990476,-0.00667370,-0.00000063,0.0009
 3074,-0.00320211,0.00000067,-0.02630453,-0.04667814,-0.00000182,-0.212
 86044,-0.00975389,-0.00000184,-0.01937546,0.04033892,0.00000320,-0.007
 02890,-0.01583073,-0.00000073,0.59906850,-0.00257070,-0.00793739,-0.00
 000057,0.00277843,0.00071870,0.00000008,-0.00214342,-0.00718849,-0.000
 00071,-0.03471438,0.03567741,0.00000058,-0.02880056,-0.11215439,0.0000
 0095,0.03857506,-0.00152969,-0.00000017,-0.00214221,0.00260304,0.00000
 039,-0.08010668,0.79996579,-0.00000124,-0.00000097,0.00541928,0.000000
 95,0.00000094,-0.00104390,-0.00000009,-0.00000064,0.00279356,-0.000001
 47,0.00000633,0.00301239,-0.00000042,0.00000017,-0.06616452,0.00000319
 ,-0.00000293,-0.00640208,0.00000011,0.00000102,-0.00243449,-0.00004315
 ,0.00009094,0.21833236,-0.00063483,-0.00025535,-0.00000006,0.00064941,
 0.00008134,0.,-0.00009811,-0.00158567,-0.00000024,-0.00516916,0.003959
 17,0.00000019,-0.01295086,-0.02358752,0.00000145,0.00029715,-0.0004334
 4,-0.00000009,-0.00736646,0.00522611,0.00000045,-0.15294552,-0.0696615
 6,-0.00000240,0.56400674,-0.00093656,-0.00024511,-0.00000004,0.0007645
 7,0.00001546,-0.00000007,-0.00023456,0.00187953,0.00000010,0.00479141,
 -0.00047092,0.00000001,-0.00547887,0.00928013,0.00000039,0.00005060,-0
 .00326100,-0.00000047,0.00439147,0.00015060,0.00000005,-0.05450083,-0.
 14060822,-0.00000011,-0.06809415,0.53892380,0.00000036,0.,-0.00019981,
 -0.00000008,-0.00000040,0.00006709,-0.00000031,0.00000044,-0.00096015,
 0.00000032,-0.00000053,0.00223656,0.00000050,0.00000017,0.01274041,-0.
 00000007,0.00000038,-0.00015445,0.00000112,-0.00000063,-0.00105251,0.0
 0000086,0.00000662,-0.08584818,-0.00000685,0.00000972,0.53667242,-0.00
 222623,0.00194977,-0.00000053,0.00394580,-0.00061410,0.00000030,-0.003
 38146,0.00399029,0.00000019,0.00974739,-0.00339306,0.00000110,-0.03513
 515,0.05497161,0.00001138,-0.00620100,-0.01360362,0.00000086,0.0030428
 3,0.00502915,0.00000017,-0.19037478,0.18975336,0.00004540,0.01884179,-
 0.01738268,-0.00000251,0.25339661,0.00884656,0.00478664,0.00000062,-0.
 00496068,-0.00901310,-0.00000057,-0.00467315,0.00491088,0.00000013,0.0
 0451988,-0.04386164,0.00000041,0.06737981,-0.01395436,-0.00000891,-0.0
 0965069,0.01532100,0.00000065,0.00050059,-0.00294538,-0.00000020,0.153
 40627,-0.51083067,-0.00008883,0.01076688,-0.06238660,-0.00001721,-0.20
 660363,0.59672320,-0.00000007,-0.00000048,-0.00142051,-0.00000089,0.00
 000094,0.00033601,0.00000184,-0.00000141,0.00030261,-0.00000230,0.0000
 0070,-0.00216973,0.00000774,-0.00000893,0.01741894,0.00000079,0.000002
 31,0.00647079,-0.00000028,-0.00000084,0.00010092,0.00004847,-0.0000991
 8,-0.06848867,0.00000192,-0.00000767,0.02222962,-0.00005649,0.00011774
 ,0.03654062,0.01035453,0.00981459,0.00000064,-0.00433432,-0.02250211,-
 0.00000124,-0.04449095,0.06707485,-0.00000042,-0.15723231,0.10601587,-
 0.00000463,0.03709441,-0.00723695,-0.00000096,-0.01609552,0.00427158,0
 .00000098,0.00342271,0.00001987,-0.00000006,-0.03628488,0.02936777,0.0
 0000730,0.00229035,-0.00484357,-0.00000160,-0.04116571,-0.06659467,0.0
 0000953,0.53664693,-0.00153032,-0.00703716,-0.00000035,-0.00500523,0.0
 0970225,0.00000075,0.03232761,-0.01052638,0.00000204,0.08175194,-0.326
 54836,-0.00000392,-0.00022083,-0.05286967,-0.00000054,-0.00284133,0.00
 015745,-0.00000072,0.00056239,-0.00269956,-0.00000014,0.02235859,-0.00
 833502,-0.00000248,-0.00054414,-0.00098399,0.00000046,-0.02087379,0.01
 321672,0.00000347,-0.05977329,0.45376204,0.00000089,0.00000010,-0.0017
 4579,-0.00000049,-0.00000137,0.00530742,-0.00000184,0.00000310,0.00883
 936,-0.00000556,0.00000095,-0.05228416,0.00000092,-0.00000128,0.010734
 63,-0.00000098,0.00000023,0.00661611,0.00000021,0.00000025,0.00017758,
 -0.00000145,0.00000101,-0.00251953,0.00000003,0.00000048,-0.00072138,0
 .00000372,-0.00000035,0.00892188,0.00003819,0.00000573,0.04601022,-0.0
 4857714,-0.01297399,-0.00000141,-0.32617814,0.04876604,-0.00000129,-0.
 04788111,0.01009912,-0.00000003,0.01235876,0.00424753,0.00000028,-0.01
 367048,-0.00085002,0.00000005,0.00864739,-0.00221994,-0.00000037,-0.00
 229878,-0.00168924,-0.00000010,0.01148606,-0.00264894,-0.00000084,-0.0
 0057299,-0.00103978,0.,-0.00446898,0.00469825,0.00000094,-0.00295648,0
 .00133309,-0.00000040,0.52770619,-0.04879971,0.00720125,-0.00000068,-0
 .00429121,-0.11500600,-0.00000345,0.04706845,0.00194376,0.00000010,-0.
 00834811,-0.00699815,-0.00000086,-0.00013347,0.00441247,0.00000032,0.0
 0642444,-0.00918242,-0.00000052,-0.00348860,-0.00059600,-0.00000004,0.
 00083778,-0.00002724,-0.00000006,0.00006500,0.00006194,0.00000002,0.00
 012455,0.00139619,-0.00000014,0.00455411,-0.00055767,0.00000036,0.1515
 0313,0.56005155,-0.00000297,-0.00000015,0.00665493,-0.00000369,-0.0000
 0271,-0.04603029,0.00000141,0.,0.01138388,-0.00000049,-0.00000053,0.00
 959832,-0.00000024,0.00000020,-0.00154027,0.00000033,-0.00000064,0.004
 14862,-0.00000020,-0.00000004,-0.00013771,0.00000020,0.,-0.00029431,0.
 00000003,0.,0.00020514,-0.00000022,0.00000016,-0.00011008,0.00000040,-
 0.00000021,-0.00047195,0.00001327,0.00002642,0.03029775,-0.12462941,0.
 12234998,0.00000408,0.01192589,-0.01525373,-0.00000050,-0.00188977,-0.
 00288453,-0.00000015,-0.00122223,-0.00075656,-0.00000008,-0.00488415,-
 0.00210501,-0.00000033,-0.01048880,0.02785036,0.00000096,0.00279631,0.
 00135066,0.00000012,0.00086842,0.00129876,-0.00000005,0.00000047,-0.00
 003680,0.00000004,-0.00080807,0.00049828,0.00000014,0.00054029,0.00000
 384,0.,0.00110652,0.00086930,0.00000006,0.12788167,0.12085996,-0.27514
 173,-0.00000932,0.01758184,-0.01965248,-0.00000065,-0.00435200,-0.0024
 2665,-0.00000038,-0.00125394,0.00023526,0.00000007,-0.00013543,0.00136
 618,-0.00000015,-0.00393547,-0.00040352,-0.00000012,-0.00091531,0.0036
 4772,0.00000035,-0.00065533,0.00004252,-0.00000004,0.00002504,0.000048
 85,0.00000002,0.00030357,-0.00000179,-0.00000003,0.00039542,-0.0000144
 3,0.00000004,0.00066396,0.00200563,0.00000023,-0.13083330,0.29062344,0
 .00000415,-0.00000906,-0.02368375,0.00000079,-0.00000164,0.00247147,-0
 .00000066,-0.00000016,0.00388022,0.00000014,-0.00000006,-0.00187666,0.
 00000004,-0.00000006,0.00495670,-0.00000030,0.00000019,0.00191126,-0.0
 0000002,0.00000040,-0.00501738,-0.00000005,-0.00000002,0.00149601,0.,0
 .00000006,-0.00018460,-0.00000010,0.,-0.00059421,-0.00000019,0.0000001
 3,0.00018481,0.00000014,0.00000028,-0.00294744,-0.00000427,0.00001006,
 0.01810264,-0.00095883,0.00278640,0.00000008,0.00842275,0.01427098,0.0
 0000048,-0.13182384,-0.12513105,-0.00000540,-0.01134670,-0.03059443,-0
 .00000115,-0.00495805,0.00230152,-0.00000007,-0.00117303,0.00118023,0.
 00000003,0.00024908,-0.00025463,0.,0.00024953,-0.00220027,-0.00000018,
 -0.00051390,0.00032344,0.00000008,0.00029315,0.00080544,-0.00000011,0.
 00352436,0.00056189,0.00000025,0.00356152,0.00040021,0.00000011,0.0005
 4210,0.00071788,0.00000006,0.13506417,0.00395421,-0.00236155,-0.000000
 23,-0.01803720,-0.01769067,-0.00000080,-0.12689762,-0.26930369,-0.0000
 0938,0.00216296,0.00343958,-0.00000002,0.00042082,0.00069246,-0.000000
 12,0.00090995,0.00012556,0.00000009,-0.00021540,0.00013132,0.00000001,
 0.00056058,-0.00011158,-0.00000010,-0.00000689,-0.00000433,0.,-0.00010
 070,0.00029118,0.00000008,0.00006204,0.00041414,0.00000011,-0.00050328
 ,0.00277145,0.00000021,-0.00081668,-0.00093299,-0.00000010,0.13626154,
 0.28339402,0.00000045,-0.00000010,0.00474075,-0.00000043,-0.00000114,0
 .00139539,-0.00000598,-0.00000877,-0.02547178,0.00000062,-0.00000041,0
 .00381083,-0.00000033,-0.00000024,0.00464015,-0.00000031,0.00000026,-0
 .00135599,0.00000007,0.00000009,-0.00013492,0.00000002,-0.00000008,0.0
 0054255,-0.00000004,0.00000001,-0.00014990,0.00000003,-0.00000002,-0.0
 0008123,0.00000015,-0.00000002,-0.00361364,-0.00000004,0.00000029,-0.0
 0433697,-0.00000005,-0.00000008,0.00091190,0.00000576,0.00001022,0.019
 00316,0.00069731,-0.00568609,-0.00000023,-0.00105618,0.00018186,0.,-0.
 00008932,0.00004386,-0.00000003,0.00083305,-0.00092166,0.00000002,-0.0
 0162818,-0.00359164,-0.00000014,0.01433938,-0.02373674,-0.00000104,-0.
 24574139,0.26392375,0.00001182,-0.00056644,-0.00047244,-0.00000002,-0.
 00137776,0.00012472,0.00000029,0.00014455,-0.00012376,0.00000001,-0.00
 049163,0.00020280,0.,0.00013189,0.00006656,0.,-0.00143183,0.00150241,0
 .00000007,-0.00009635,0.00015963,0.,0.23626531,0.00272861,0.00566293,0
 .00000036,-0.00041297,-0.00220894,-0.00000004,-0.00077742,0.00111851,0
 .00000005,0.00299340,-0.00088001,-0.00000002,-0.00668639,-0.00205346,-
 0.00000022,0.02600617,-0.04013779,-0.00000168,0.20990234,-0.31633468,-
 0.00001357,0.00081248,-0.00002057,0.,-0.00016026,0.00007162,-0.0000000
 4,-0.00048874,0.00045819,0.00000009,-0.00086199,0.00003515,0.,0.000922
 62,0.00053346,0.00000004,-0.00148965,0.00025671,-0.00000010,-0.0000602
 1,0.00007972,-0.00000001,-0.23261929,0.35327077,0.00000006,0.00000025,
 -0.00167730,0.,0.00000002,-0.00113634,0.00000002,0.00000003,0.00002497
 ,0.00000002,-0.00000020,0.00166259,0.00000015,-0.00000028,0.00273602,0
 .00000118,-0.00000090,-0.00201736,0.00000930,-0.00001401,-0.00570914,-
 0.00000012,0.00000011,-0.00064941,0.00000014,-0.00000014,0.00016010,-0
 .00000005,-0.00000009,-0.00011946,-0.00000007,0.00000004,-0.00023264,0
 .00000003,0.00000002,-0.00004101,-0.00000006,-0.00000003,0.00107377,0.
 ,0.,0.00001290,-0.00001057,0.00001519,0.00547308,-0.00007531,0.0001568
 6,0.00003868,0.00016632,-0.00010002,0.00009736,-0.00009980,0.00040393,
 -0.00031034,0.00062278,0.00027004,0.00055157,-0.00252910,0.00079826,0.
 00166690,-0.00114281,-0.00298064,-0.00026764,-0.00131412,0.00182541,-0
 .00066445,0.00739227,-0.00763346,-0.02020416,-0.05442119,0.02280314,0.
 03616402,-0.00099247,-0.00278302,0.00205426,-0.00039458,-0.00010739,-0
 .00002902,-0.00023348,0.00004804,0.00002149,-0.00004283,0.00002300,-0.
 00006630,0.00001860,-0.00000023,-0.00002234,0.00000663,0.00023540,0.00
 015529,0.05426953,0.00005739,-0.00001309,-0.00019354,-0.00004308,-0.00
 012775,-0.00002870,-0.00016662,0.00005487,-0.00026889,0.00025221,-0.00
 055680,0.00057753,-0.00003012,0.00036445,0.00187873,-0.00031514,0.0005
 3153,-0.00026088,0.00096089,-0.00078381,0.00081950,0.00727058,-0.01496
 420,-0.02158556,0.02404447,-0.13161798,-0.13383662,-0.00381501,-0.0045
 1393,0.00266504,-0.00096219,0.00015688,-0.00014719,0.00003119,0.,0.000
 05558,0.00001160,-0.00000160,0.00000298,0.00001276,-0.00000184,-0.0000
 1821,0.00022309,0.00001577,0.00016370,-0.02641812,0.14554761,0.0004338
 0,0.00040233,-0.00014180,-0.00003639,-0.00034570,-0.00005777,-0.000149
 64,0.00016523,0.00003065,0.00011171,-0.00007055,0.00013421,-0.00039375
 ,-0.00023398,0.00030241,-0.00064157,-0.00173638,-0.00000770,0.00126007
 ,0.00068020,0.00044905,0.00031144,0.00242279,0.00140831,0.03575062,-0.
 13023092,-0.21953251,-0.00039333,0.00118124,-0.00089735,-0.00019143,0.
 00016570,-0.00004750,0.00003550,0.00006801,0.00000598,-0.00003707,0.00
 002553,0.00003384,-0.00001099,0.00000605,-0.00000162,0.00043609,-0.000
 00856,0.00004514,-0.04005244,0.14045375,0.23743586,-0.00016922,-0.0000
 5112,-0.00000002,0.00027174,0.00006901,0.00000001,-0.00010233,-0.00046
 021,-0.00000004,-0.00109499,0.00147851,0.00000004,-0.00024170,-0.00416
 524,0.00000007,0.00070857,-0.00012565,-0.00000004,-0.00018623,0.000580
 30,0.00000013,-0.02412434,0.00890514,0.00000281,-0.29347196,0.08989900
 ,0.00003353,0.00470066,0.00265050,-0.00000041,0.00114172,-0.00030559,0
 .,-0.00024873,0.00000097,0.,-0.00000824,0.00002500,0.,-0.00014006,-0.0
 0000537,0.,-0.00007114,-0.00022134,0.00000001,-0.00164129,-0.00020547,
 -0.00045414,0.31730845,0.00028178,0.00035776,0.00000004,0.00003350,-0.
 00026297,0.,-0.00015744,-0.00032564,0.,-0.00124162,0.00065550,-0.00000
 006,-0.00129458,-0.00449885,-0.00000049,-0.00033657,-0.00162086,-0.000
 00001,0.00172654,0.00009057,-0.00000016,-0.02953710,0.00807414,0.00000
 368,0.09605943,-0.08170352,-0.00001266,0.00130590,0.00222377,0.0000002
 5,0.00054067,0.00012783,0.,-0.00000402,0.00006354,0.,-0.00004965,0.000
 02625,0.,-0.00014956,0.00001166,0.,0.00039904,0.00012000,0.,0.01532159
 ,-0.00517157,0.00278775,-0.09746569,0.08719500,0.,0.,-0.00016575,-0.00
 000002,0.,0.00000194,0.,0.,-0.00018381,-0.00000003,-0.00000012,0.00053
 927,-0.00000005,-0.00000024,0.00155392,0.00000006,0.00000017,-0.000266
 20,-0.00000025,0.00000002,0.00087371,-0.00000013,-0.00000021,-0.001411
 65,0.00003432,-0.00001214,-0.04943601,-0.00000058,0.00000016,-0.001151
 17,-0.00000001,0.00000006,-0.00006987,0.00000003,0.,0.00000773,0.,0.,0
 .00001869,0.,0.,-0.00001085,-0.00000006,0.,0.00015250,0.02442303,-0.00
 662236,0.00172491,-0.00003699,0.00001367,0.04606770,-0.00007540,0.0001
 5695,-0.00003875,0.00016636,-0.00009995,-0.00009739,-0.00009974,0.0004
 0392,0.00031032,0.00062299,0.00027013,-0.00055132,-0.00252927,0.000799
 02,-0.00166684,-0.00114329,-0.00298160,0.00026744,-0.00131579,0.001826
 49,0.00066533,0.00739657,-0.00763811,0.02020191,-0.05443494,0.02283626
 ,-0.03619414,-0.00099283,-0.00278160,-0.00205527,-0.00039457,-0.000107
 53,0.00002907,-0.00023349,0.00004804,-0.00002148,-0.00004286,0.0000229
 9,0.00006635,0.00001860,-0.00000023,0.00002234,0.00000651,0.00023563,-
 0.00015539,-0.00013631,-0.00201462,0.00384284,-0.00164673,0.01532511,-
 0.02441929,0.05428767,0.00005737,-0.00001309,0.00019361,-0.00004310,-0
 .00012767,0.00002870,-0.00016655,0.00005478,0.00026889,0.00025235,-0.0
 0055675,-0.00057756,-0.00003014,0.00036500,-0.00187875,-0.00031535,0.0
 0053138,0.00026100,0.00096212,-0.00078444,-0.00082004,0.00727441,-0.01
 496914,0.02158070,0.02407888,-0.13166659,0.13384888,-0.00381515,-0.004
 51066,-0.00266488,-0.00096183,0.00015682,0.00014725,0.00003124,-0.0000
 0001,-0.00005559,0.00001159,-0.00000160,-0.00000299,0.00001276,-0.0000
 0184,0.00001821,0.00022336,0.00001572,-0.00016372,-0.00201750,0.010653
 37,-0.01585103,-0.00020397,-0.00517197,0.00662101,-0.02645551,0.145599
 06,-0.00043392,-0.00040238,-0.00014183,0.00003641,0.00034578,-0.000057
 73,0.00014966,-0.00016530,0.00003062,-0.00011177,0.00007044,0.00013418
 ,0.00039387,0.00023382,0.00030265,0.00064184,0.00173694,-0.00000748,-0
 .00125986,-0.00068059,0.00044872,-0.00031092,-0.00242489,0.00140798,-0
 .03578024,0.13024277,-0.21946912,0.00039259,-0.00118126,-0.00089806,0.
 00019138,-0.00016575,-0.00004748,-0.00003551,-0.00006802,0.00000596,0.
 00003707,-0.00002554,0.00003384,0.00001098,-0.00000606,-0.00000161,-0.
 00043621,0.00000854,0.00004521,-0.00384781,0.01585703,-0.02079659,0.00
 045486,-0.00279214,0.00173084,0.04008636,-0.14046489,0.23736735,-0.005
 36030,-0.00501835,-0.00000021,0.00003586,0.00930202,0.00000015,0.01059
 147,-0.00613356,-0.00000030,-0.03688055,0.04214675,-0.00000287,-0.0180
 8702,-0.00441445,0.00000020,0.00363324,-0.00422789,-0.00000115,-0.0010
 9306,-0.00123760,-0.00000003,0.04027468,-0.03025052,-0.00000770,-0.002
 24163,0.00646393,0.00000446,-0.00889554,0.04424013,-0.00000967,-0.2923
 6430,-0.04710537,-0.00003366,-0.00035792,-0.00144226,0.00000002,-0.000
 31118,-0.00015956,0.00000014,-0.00065848,0.00008082,0.00000003,0.00012
 037,-0.00005449,0.00000005,0.00053370,0.00110480,0.00017411,-0.0010261
 5,-0.00077177,-0.00000003,0.00053306,0.00110365,-0.00017423,0.31201257
 ,-0.00337966,-0.00234496,-0.00000003,0.00245557,0.00549691,0.00000010,
 0.00556677,-0.00957858,0.00000019,0.04283436,0.01483793,0.00000453,-0.
 00908250,-0.00262115,0.00000003,0.00330333,-0.00325671,-0.00000085,-0.
 00055145,0.00057335,0.00000005,0.00979822,-0.02863105,-0.00000212,0.00
 003309,0.00241872,0.00000137,0.01295630,0.01323427,-0.00000698,-0.0585
 1431,-0.06801455,-0.00000945,-0.00066084,-0.00122166,-0.00000014,-0.00
 024672,-0.00005216,0.00000007,-0.00039907,0.00004414,0.00000004,0.0001
 0059,0.00000597,0.00000002,0.00012354,0.00043297,0.00011804,-0.0004028
 4,-0.00018485,-0.00000002,0.00012343,0.00043251,-0.00011798,-0.0038734
 4,0.07830527,0.00000048,0.00000050,0.00007766,-0.00000006,-0.00000092,
 0.00216819,-0.00000047,0.00000027,0.00381956,0.00000038,-0.00000514,-0
 .00083485,0.00000284,0.00000004,-0.00148914,-0.00000046,0.00000022,-0.
 00121348,0.00000013,-0.00000005,-0.00007600,-0.00000488,0.00000231,0.0
 0084766,0.00000081,-0.00000205,0.00347587,-0.00000198,-0.00000363,-0.0
 1642026,-0.00004796,-0.00000427,-0.02503687,0.00000029,0.00000012,-0.0
 0059046,0.00000005,0.,-0.00002272,0.00000013,0.00000005,-0.00074140,-0
 .00000002,-0.00000002,0.00008445,0.00030986,0.00048860,-0.00009911,0.0
 0000019,0.00000016,0.00001489,-0.00031006,-0.00048928,-0.00009907,0.00
 005072,0.00001313,0.03603371,-0.00597985,0.00364759,0.00000007,-0.0266
 7759,-0.04742387,-0.00000256,0.00379810,-0.00065326,0.00000008,-0.0018
 0469,0.00002133,-0.00000006,0.00108711,0.00045837,0.00000003,-0.000183
 53,-0.00248111,-0.00000010,-0.00036143,0.00062399,0.00000002,-0.000894
 40,0.00030474,0.00000008,0.00011340,0.00009925,0.,0.00052943,-0.000141
 38,-0.00000014,0.00118994,-0.00068735,0.00000008,-0.11732062,-0.145507
 20,-0.00000803,0.00009771,0.00011927,0.00000001,-0.00027463,0.00201106
 ,0.00000004,0.00000523,-0.00000389,0.,0.00001345,0.00000138,0.00000455
 ,0.00004199,0.00001443,0.,0.00001345,0.00000137,-0.00000455,-0.0004588
 4,-0.00018436,0.00000003,0.14706578,0.00154359,0.00193616,0.,0.0034428
 4,0.00193797,0.00000027,0.00606970,0.00322941,0.00000019,-0.00079990,-
 0.00122578,0.00000001,0.00109579,0.00014387,-0.00000002,-0.00046099,0.
 00022376,-0.00000008,-0.00004195,-0.00013396,0.00000002,-0.00104826,0.
 00022604,0.00000007,-0.00001045,0.00009762,0.00000002,0.00030599,-0.00
 054392,-0.00000006,0.00013415,-0.00014248,0.00000002,-0.19970612,-0.44
 685208,-0.00002284,0.00022825,0.00037639,0.00000005,-0.00084581,-0.000
 98674,-0.00000004,-0.00000005,-0.00000908,0.,0.00003117,-0.00000489,0.
 00000051,0.00000408,-0.00000579,0.,0.00003117,-0.00000489,-0.00000051,
 0.00024716,0.00012362,-0.00000005,0.18977965,0.44161475,0.00000002,0.0
 0000004,0.00317635,-0.00000012,-0.00000038,-0.00242413,0.00000030,0.00
 000012,-0.00164056,-0.00000002,-0.00000004,-0.00113362,0.00000010,0.00
 000001,-0.00006008,-0.00000012,-0.00000011,0.00234518,0.,0.00000001,-0
 .00060547,-0.00000009,0.00000002,-0.00000338,0.,0.00000001,-0.00007859
 ,0.00000007,-0.00000004,0.00002932,0.,0.00000004,-0.00000118,-0.000010
 54,-0.00002215,-0.00580782,0.00000002,0.00000004,-0.00074838,-0.000000
 05,-0.00000002,0.00084229,0.,0.,0.00011194,-0.00001796,-0.00000049,0.0
 0001160,0.,0.,0.00000921,0.00001797,0.00000048,0.00001160,-0.00000002,
 0.,0.00010137,0.00001046,0.00002244,0.00586435\\0.00000397,0.00001150,
 0.00000069,-0.00000110,-0.00001327,0.00000002,-0.00001692,-0.00000044,
 0.00000074,0.00002430,0.00004465,-0.00000312,-0.00001185,-0.00002830,-
 0.00000632,-0.00001915,-0.00000222,-0.00000080,0.00000798,0.00001465,-
 0.00000120,0.00002184,-0.00003409,0.00002673,0.00000435,0.00001862,-0.
 00000500,0.00000491,0.00000969,-0.00001910,0.00005295,-0.00002653,-0.0
 0000712,-0.00000999,-0.00000627,0.00000002,-0.00000134,-0.00000165,0.0
 0000017,0.00000062,-0.00000330,-0.00000019,0.00000074,0.00000314,0.000
 00012,0.00000433,-0.00000186,0.00000017,0.00000178,0.00000103,-0.00000
 054,0.00000513,0.00000049,-0.00000072,-0.00006369,0.00001654,0.0000154
 1,-0.00000885,-0.00000241,0.00000004\\\@


 GARBAGE IN, GARBAGE OUT
 Job cpu time:       0 days  0 hours 18 minutes  9.2 seconds.
 File lengths (MBytes):  RWF=    157 Int=      0 D2E=      0 Chk=      6 Scr=      1
 Normal termination of Gaussian 09 at Thu Dec 19 12:11:14 2024.
