 Entering Gaussian System, Link 0=g09
 Input=camb3lypTHAPyang.gjf
 Output=camb3lypTHAPyang.log
 Initial command:
 /home/phzd/g09E/g09/l1.exe "/home/phzd/g09E/scratch/Gau-88850.inp" -scrdir="/home/phzd/g09E/scratch/"
 Default is to use a total of  18 processors:
                               18 via shared-memory
                                1 via Linda
 Entering Link 1 = /home/phzd/g09E/g09/l1.exe PID=     88852.
  
 Copyright (c) 1988,1990,1992,1993,1995,1998,2003,2009,2015,
            Gaussian, Inc.  All Rights Reserved.
  
 This is part of the Gaussian(R) 09 program.  It is based on
 the Gaussian(R) 03 system (copyright 2003, Gaussian, Inc.),
 the Gaussian(R) 98 system (copyright 1998, Gaussian, Inc.),
 the Gaussian(R) 94 system (copyright 1995, Gaussian, Inc.),
 the Gaussian 92(TM) system (copyright 1992, Gaussian, Inc.),
 the Gaussian 90(TM) system (copyright 1990, Gaussian, Inc.),
 the Gaussian 88(TM) system (copyright 1988, Gaussian, Inc.),
 the Gaussian 86(TM) system (copyright 1986, Carnegie Mellon
 University), and the Gaussian 82(TM) system (copyright 1983,
 Carnegie Mellon University). Gaussian is a federally registered
 trademark of Gaussian, Inc.
  
 This software contains proprietary and confidential information,
 including trade secrets, belonging to Gaussian, Inc.
  
 This software is provided under written license and may be
 used, copied, transmitted, or stored only in accord with that
 written license.
  
 The following legend is applicable only to US Government
 contracts under FAR:
  
                    RESTRICTED RIGHTS LEGEND
  
 Use, reproduction and disclosure by the US Government is
 subject to restrictions as set forth in subparagraphs (a)
 and (c) of the Commercial Computer Software - Restricted
 Rights clause in FAR 52.227-19.
  
 Gaussian, Inc.
 340 Quinnipiac St., Bldg. 40, Wallingford CT 06492
  
  
 ---------------------------------------------------------------
 Warning -- This program may not be used in any manner that
 competes with the business of Gaussian, Inc. or will provide
 assistance to any competitor of Gaussian, Inc.  The licensee
 of this program is prohibited from giving any competitor of
 Gaussian, Inc. access to this program.  By using this program,
 the user acknowledges that Gaussian, Inc. is engaged in the
 business of creating and licensing software in the field of
 computational chemistry and represents and warrants to the
 licensee that it is not a competitor of Gaussian, Inc. and that
 it will not use this program in any manner prohibited above.
 ---------------------------------------------------------------
  

 Cite this work as:
 Gaussian 09, Revision E.01,
 M. J. Frisch, G. W. Trucks, H. B. Schlegel, G. E. Scuseria, 
 M. A. Robb, J. R. Cheeseman, G. Scalmani, V. Barone, B. Mennucci, 
 G. A. Petersson, H. Nakatsuji, M. Caricato, X. Li, H. P. Hratchian, 
 A. F. Izmaylov, J. Bloino, G. Zheng, J. L. Sonnenberg, M. Hada, 
 M. Ehara, K. Toyota, R. Fukuda, J. Hasegawa, M. Ishida, T. Nakajima, 
 Y. Honda, O. Kitao, H. Nakai, T. Vreven, J. A. Montgomery, Jr., 
 J. E. Peralta, F. Ogliaro, M. Bearpark, J. J. Heyd, E. Brothers, 
 K. N. Kudin, V. N. Staroverov, T. Keith, R. Kobayashi, J. Normand, 
 K. Raghavachari, A. Rendell, J. C. Burant, S. S. Iyengar, J. Tomasi, 
 M. Cossi, N. Rega, J. M. Millam, M. Klene, J. E. Knox, J. B. Cross, 
 V. Bakken, C. Adamo, J. Jaramillo, R. Gomperts, R. E. Stratmann, 
 O. Yazyev, A. J. Austin, R. Cammi, C. Pomelli, J. W. Ochterski, 
 R. L. Martin, K. Morokuma, V. G. Zakrzewski, G. A. Voth, 
 P. Salvador, J. J. Dannenberg, S. Dapprich, A. D. Daniels, 
 O. Farkas, J. B. Foresman, J. V. Ortiz, J. Cioslowski, 
 and D. J. Fox, Gaussian, Inc., Wallingford CT, 2013.
 
 ******************************************
 Gaussian 09:  ES64L-G09RevE.01 30-Nov-2015
                16-Jun-2024 
 ******************************************
 %chk=camb3lypTHAPyang.chk
 -----------------------------------------
 # opt freq cam-b3lyp/6-31+g(d,p) em=gd3bj
 -----------------------------------------
 1/14=-1,18=20,19=15,26=3,38=1/1,3;
 2/9=110,12=2,17=6,18=5,40=1/2;
 3/5=1,6=6,7=111,11=2,16=1,25=1,30=1,71=1,74=-40,124=41/1,2,3;
 4//1;
 5/5=2,38=5/2;
 6/7=2,8=2,9=2,10=2,28=1/1;
 7//1,2,3,16;
 1/14=-1,18=20,19=15,26=3/3(2);
 2/9=110/2;
 99//99;
 2/9=110/2;
 3/5=1,6=6,7=111,11=2,16=1,25=1,30=1,71=1,74=-40,124=41/1,2,3;
 4/5=5,16=3,69=1/1;
 5/5=2,38=5/2;
 7//1,2,3,16;
 1/14=-1,18=20,19=15,26=3/3(-5);
 2/9=110/2;
 6/7=2,8=2,9=2,10=2,19=2,28=1/1;
 99/9=1/99;
 ----------
 [No Title]
 ----------
 Symbolic Z-matrix:
 Charge =  1 Multiplicity = 1
 C                    -1.54806  -1.26665  -0.00029 
 C                    -2.28376  -0.07663  -0.00083 
 C                    -1.63579   1.17441   0.00004 
 C                    -0.25986   1.2116    0.00105 
 C                     0.55836   0.02496   0.00089 
 C                    -0.16531  -1.22503   0.00096 
 O                     0.55773  -2.3567    0.00206 
 C                     1.9811    0.08289  -0.00068 
 C                     2.90915  -1.0815   -0.00096 
 O                     2.62767   1.21757  -0.00265 
 O                     0.40314   2.40157   0.00303 
 O                    -3.61273  -0.1989   -0.00181 
 H                    -2.08148  -2.21096  -0.00061 
 H                    -2.2118    2.09492   0.00038 
 H                    -0.01495  -3.13862   0.00187 
 H                     2.73548  -1.71264   0.87483 
 H                     2.73327  -1.71402  -0.87533 
 H                     3.93323  -0.71004  -0.00259 
 H                     2.02248   1.99418  -0.0024 
 H                    -0.18847   3.1687    0.00002 
 H                    -4.06915   0.65585  -0.00226 
 

 GradGradGradGradGradGradGradGradGradGradGradGradGradGradGradGradGradGrad
 Berny optimization.
 Initialization pass.
                           ----------------------------
                           !    Initial Parameters    !
                           ! (Angstroms and Degrees)  !
 --------------------------                            --------------------------
 ! Name  Definition              Value          Derivative Info.                !
 --------------------------------------------------------------------------------
 ! R1    R(1,2)                  1.3991         estimate D2E/DX2                !
 ! R2    R(1,6)                  1.3834         estimate D2E/DX2                !
 ! R3    R(1,13)                 1.0846         estimate D2E/DX2                !
 ! R4    R(2,3)                  1.4089         estimate D2E/DX2                !
 ! R5    R(2,12)                 1.3346         estimate D2E/DX2                !
 ! R6    R(3,4)                  1.3764         estimate D2E/DX2                !
 ! R7    R(3,14)                 1.0859         estimate D2E/DX2                !
 ! R8    R(4,5)                  1.4414         estimate D2E/DX2                !
 ! R9    R(4,11)                 1.3622         estimate D2E/DX2                !
 ! R10   R(5,6)                  1.4444         estimate D2E/DX2                !
 ! R11   R(5,8)                  1.4239         estimate D2E/DX2                !
 ! R12   R(6,7)                  1.3429         estimate D2E/DX2                !
 ! R13   R(7,15)                 0.9692         estimate D2E/DX2                !
 ! R14   R(8,9)                  1.489          estimate D2E/DX2                !
 ! R15   R(8,10)                 1.306          estimate D2E/DX2                !
 ! R16   R(9,16)                 1.0934         estimate D2E/DX2                !
 ! R17   R(9,17)                 1.0934         estimate D2E/DX2                !
 ! R18   R(9,18)                 1.0894         estimate D2E/DX2                !
 ! R19   R(10,19)                0.9846         estimate D2E/DX2                !
 ! R20   R(11,20)                0.9688         estimate D2E/DX2                !
 ! R21   R(12,21)                0.969          estimate D2E/DX2                !
 ! A1    A(2,1,6)              120.0012         estimate D2E/DX2                !
 ! A2    A(2,1,13)             118.8136         estimate D2E/DX2                !
 ! A3    A(6,1,13)             121.1852         estimate D2E/DX2                !
 ! A4    A(1,2,3)              120.8929         estimate D2E/DX2                !
 ! A5    A(1,2,12)             116.4686         estimate D2E/DX2                !
 ! A6    A(3,2,12)             122.6384         estimate D2E/DX2                !
 ! A7    A(2,3,4)              118.93           estimate D2E/DX2                !
 ! A8    A(2,3,14)             120.5821         estimate D2E/DX2                !
 ! A9    A(4,3,14)             120.4879         estimate D2E/DX2                !
 ! A10   A(3,4,5)              123.0389         estimate D2E/DX2                !
 ! A11   A(3,4,11)             120.673          estimate D2E/DX2                !
 ! A12   A(5,4,11)             116.288          estimate D2E/DX2                !
 ! A13   A(4,5,6)              115.3445         estimate D2E/DX2                !
 ! A14   A(4,5,8)              122.2554         estimate D2E/DX2                !
 ! A15   A(6,5,8)              122.4            estimate D2E/DX2                !
 ! A16   A(1,6,5)              121.7924         estimate D2E/DX2                !
 ! A17   A(1,6,7)              120.8511         estimate D2E/DX2                !
 ! A18   A(5,6,7)              117.3566         estimate D2E/DX2                !
 ! A19   A(6,7,15)             111.206          estimate D2E/DX2                !
 ! A20   A(5,8,9)              126.2241         estimate D2E/DX2                !
 ! A21   A(5,8,10)             122.0075         estimate D2E/DX2                !
 ! A22   A(9,8,10)             111.7684         estimate D2E/DX2                !
 ! A23   A(8,9,16)             110.6244         estimate D2E/DX2                !
 ! A24   A(8,9,17)             110.6262         estimate D2E/DX2                !
 ! A25   A(8,9,18)             108.6188         estimate D2E/DX2                !
 ! A26   A(16,9,17)            106.3234         estimate D2E/DX2                !
 ! A27   A(16,9,18)            110.3249         estimate D2E/DX2                !
 ! A28   A(17,9,18)            110.321          estimate D2E/DX2                !
 ! A29   A(8,10,19)            112.3958         estimate D2E/DX2                !
 ! A30   A(4,11,20)            113.2354         estimate D2E/DX2                !
 ! A31   A(2,12,21)            112.8446         estimate D2E/DX2                !
 ! D1    D(6,1,2,3)             -0.0068         estimate D2E/DX2                !
 ! D2    D(6,1,2,12)          -179.989          estimate D2E/DX2                !
 ! D3    D(13,1,2,3)           179.9767         estimate D2E/DX2                !
 ! D4    D(13,1,2,12)           -0.0055         estimate D2E/DX2                !
 ! D5    D(2,1,6,5)             -0.0403         estimate D2E/DX2                !
 ! D6    D(2,1,6,7)            179.9718         estimate D2E/DX2                !
 ! D7    D(13,1,6,5)           179.9765         estimate D2E/DX2                !
 ! D8    D(13,1,6,7)            -0.0113         estimate D2E/DX2                !
 ! D9    D(1,2,3,4)              0.0181         estimate D2E/DX2                !
 ! D10   D(1,2,3,14)          -179.9531         estimate D2E/DX2                !
 ! D11   D(12,2,3,4)           179.9991         estimate D2E/DX2                !
 ! D12   D(12,2,3,14)            0.0279         estimate D2E/DX2                !
 ! D13   D(1,2,12,21)         -179.9929         estimate D2E/DX2                !
 ! D14   D(3,2,12,21)            0.0253         estimate D2E/DX2                !
 ! D15   D(2,3,4,5)              0.0179         estimate D2E/DX2                !
 ! D16   D(2,3,4,11)          -179.945          estimate D2E/DX2                !
 ! D17   D(14,3,4,5)           179.9891         estimate D2E/DX2                !
 ! D18   D(14,3,4,11)            0.0263         estimate D2E/DX2                !
 ! D19   D(3,4,5,6)             -0.0605         estimate D2E/DX2                !
 ! D20   D(3,4,5,8)            179.875          estimate D2E/DX2                !
 ! D21   D(11,4,5,6)           179.9039         estimate D2E/DX2                !
 ! D22   D(11,4,5,8)            -0.1606         estimate D2E/DX2                !
 ! D23   D(3,4,11,20)           -0.2303         estimate D2E/DX2                !
 ! D24   D(5,4,11,20)          179.8044         estimate D2E/DX2                !
 ! D25   D(4,5,6,1)              0.0714         estimate D2E/DX2                !
 ! D26   D(4,5,6,7)           -179.9404         estimate D2E/DX2                !
 ! D27   D(8,5,6,1)           -179.8641         estimate D2E/DX2                !
 ! D28   D(8,5,6,7)              0.1242         estimate D2E/DX2                !
 ! D29   D(4,5,8,9)            179.9995         estimate D2E/DX2                !
 ! D30   D(4,5,8,10)            -0.0299         estimate D2E/DX2                !
 ! D31   D(6,5,8,9)             -0.0695         estimate D2E/DX2                !
 ! D32   D(6,5,8,10)           179.9011         estimate D2E/DX2                !
 ! D33   D(1,6,7,15)            -0.0023         estimate D2E/DX2                !
 ! D34   D(5,6,7,15)          -179.9906         estimate D2E/DX2                !
 ! D35   D(5,8,9,16)           -58.7899         estimate D2E/DX2                !
 ! D36   D(5,8,9,17)            58.7609         estimate D2E/DX2                !
 ! D37   D(5,8,9,18)           179.9837         estimate D2E/DX2                !
 ! D38   D(10,8,9,16)          121.237          estimate D2E/DX2                !
 ! D39   D(10,8,9,17)         -121.2122         estimate D2E/DX2                !
 ! D40   D(10,8,9,18)            0.0106         estimate D2E/DX2                !
 ! D41   D(5,8,10,19)            0.0304         estimate D2E/DX2                !
 ! D42   D(9,8,10,19)         -179.9952         estimate D2E/DX2                !
 --------------------------------------------------------------------------------
 Trust Radius=3.00D-01 FncErr=1.00D-07 GrdErr=1.00D-06
 Number of steps in this run=    104 maximum allowed number of steps=    126.
 GradGradGradGradGradGradGradGradGradGradGradGradGradGradGradGradGradGrad

                          Input orientation:                          
 ---------------------------------------------------------------------
 Center     Atomic      Atomic             Coordinates (Angstroms)
 Number     Number       Type             X           Y           Z
 ---------------------------------------------------------------------
      1          6           0       -1.548063   -1.266650   -0.000293
      2          6           0       -2.283760   -0.076630   -0.000828
      3          6           0       -1.635788    1.174409    0.000039
      4          6           0       -0.259863    1.211598    0.001049
      5          6           0        0.558355    0.024956    0.000889
      6          6           0       -0.165312   -1.225029    0.000962
      7          8           0        0.557727   -2.356696    0.002059
      8          6           0        1.981100    0.082889   -0.000681
      9          6           0        2.909153   -1.081501   -0.000963
     10          8           0        2.627673    1.217569   -0.002648
     11          8           0        0.403142    2.401573    0.003033
     12          8           0       -3.612734   -0.198901   -0.001814
     13          1           0       -2.081480   -2.210958   -0.000606
     14          1           0       -2.211797    2.094923    0.000383
     15          1           0       -0.014948   -3.138617    0.001867
     16          1           0        2.735480   -1.712636    0.874829
     17          1           0        2.733271   -1.714018   -0.875326
     18          1           0        3.933226   -0.710042   -0.002591
     19          1           0        2.022480    1.994178   -0.002403
     20          1           0       -0.188469    3.168702    0.000021
     21          1           0       -4.069150    0.655847   -0.002256
 ---------------------------------------------------------------------
                    Distance matrix (angstroms):
                    1          2          3          4          5
     1  C    0.000000
     2  C    1.399070   0.000000
     3  C    2.442635   1.408889   0.000000
     4  C    2.793058   2.399103   1.376428   0.000000
     5  C    2.470879   2.843930   2.476995   1.441388   0.000000
     6  C    1.383378   2.409698   2.814179   2.438461   1.444353
     7  O    2.371193   3.643180   4.156948   3.660762   2.381652
     8  C    3.778392   4.267842   3.778001   2.509164   1.423925
     9  C    4.461060   5.289245   5.074014   3.911645   2.598173
    10  O    4.858819   5.079087   4.263680   2.887545   2.388392
    11  O    4.154885   3.655263   2.379743   1.362211   2.381681
    12  O    2.324426   1.334587   2.407135   3.637480   4.177093
    13  H    1.084551   2.143892   3.414579   3.877136   3.459486
    14  H    3.426473   2.172745   1.085879   2.142501   3.458107
    15  H    2.419650   3.810942   4.607529   4.357104   3.215101
    16  H    4.394711   5.351267   5.311146   4.276297   2.919396
    17  H    4.392680   5.349429   5.310174   4.276227   2.919254
    18  H    5.509478   6.249170   5.879207   4.612452   3.453982
    19  H    4.835471   4.778279   3.748993   2.412785   2.453876
    20  H    4.639056   3.862955   2.464130   1.958406   3.231236
    21  H    3.170470   1.929804   2.488004   3.849615   4.670314
                    6          7          8          9         10
     6  C    0.000000
     7  O    1.342928   0.000000
     8  C    2.513511   2.824460   0.000000
     9  C    3.077814   2.674946   1.488988   0.000000
    10  O    3.710399   4.130384   1.305971   2.316238   0.000000
    11  O    3.670884   4.760779   2.804685   4.290910   2.520007
    12  O    3.596897   4.695619   5.600927   6.581337   6.399146
    13  H    2.154938   2.643229   4.665436   5.116844   5.825026
    14  H    3.900023   5.242822   4.650663   6.026093   4.918356
    15  H    1.919487   0.969204   3.789765   3.575206   5.095078
    16  H    3.068550   2.432930   2.135303   1.093392   3.060668
    17  H    3.067373   2.432248   2.135331   1.093400   3.060542
    18  H    4.130767   3.755727   2.107021   1.089362   2.328122
    19  H    3.892267   4.590820   1.911738   3.200936   0.984571
    20  H    4.393792   5.575557   3.772171   5.259229   3.426016
    21  H    4.333319   5.521180   6.077319   7.191321   6.720340
                   11         12         13         14         15
    11  O    0.000000
    12  O    4.784323   0.000000
    13  H    5.239160   2.528461   0.000000
    14  H    2.632859   2.687798   4.307853   0.000000
    15  H    5.555943   4.646074   2.265196   5.675922   0.000000
    16  H    4.809007   6.584810   4.921160   6.303785   3.218748
    17  H    4.810312   6.582582   4.918731   6.303062   3.217399
    18  H    4.705706   7.563252   6.199148   6.754935   4.635307
    19  H    1.669807   6.046919   5.875854   4.235476   5.522383
    20  H    0.968762   4.802743   5.703002   2.290602   6.309706
    21  H    4.800936   0.968974   3.488468   2.349618   5.552885
                   16         17         18         19         20
    16  H    0.000000
    17  H    1.750157   0.000000
    18  H    1.791551   1.791515   0.000000
    19  H    3.875355   3.875298   3.311156   0.000000
    20  H    5.756929   5.757061   5.659773   2.503559   0.000000
    21  H    7.258235   7.256131   8.118108   6.236913   4.623216
                   21
    21  H    0.000000
 Stoichiometry    C8H9O4(1+)
 Framework group  C1[X(C8H9O4)]
 Deg. of freedom    57
 Full point group                 C1      NOp   1
 Largest Abelian subgroup         C1      NOp   1
 Largest concise Abelian subgroup C1      NOp   1
                         Standard orientation:                         
 ---------------------------------------------------------------------
 Center     Atomic      Atomic             Coordinates (Angstroms)
 Number     Number       Type             X           Y           Z
 ---------------------------------------------------------------------
      1          6           0        1.548063   -1.266650    0.000293
      2          6           0        2.283760   -0.076630    0.000828
      3          6           0        1.635788    1.174409   -0.000039
      4          6           0        0.259863    1.211598   -0.001049
      5          6           0       -0.558355    0.024956   -0.000889
      6          6           0        0.165312   -1.225029   -0.000962
      7          8           0       -0.557727   -2.356696   -0.002059
      8          6           0       -1.981100    0.082889    0.000681
      9          6           0       -2.909153   -1.081501    0.000963
     10          8           0       -2.627673    1.217569    0.002648
     11          8           0       -0.403142    2.401573   -0.003033
     12          8           0        3.612734   -0.198901    0.001814
     13          1           0        2.081480   -2.210958    0.000606
     14          1           0        2.211797    2.094923   -0.000383
     15          1           0        0.014948   -3.138617   -0.001867
     16          1           0       -2.735480   -1.712636   -0.874829
     17          1           0       -2.733271   -1.714018    0.875326
     18          1           0       -3.933226   -0.710042    0.002591
     19          1           0       -2.022480    1.994178    0.002403
     20          1           0        0.188469    3.168702   -0.000021
     21          1           0        4.069150    0.655847    0.002256
 ---------------------------------------------------------------------
 Rotational constants (GHZ):      1.5200905      0.7583146      0.5074959
 Standard basis: 6-31+G(d,p) (6D, 7F)
 There are   273 symmetry adapted cartesian basis functions of A   symmetry.
 There are   273 symmetry adapted basis functions of A   symmetry.
   273 basis functions,   447 primitive gaussians,   273 cartesian basis functions
    44 alpha electrons       44 beta electrons
       nuclear repulsion energy       712.8601112192 Hartrees.
 NAtoms=   21 NActive=   21 NUniq=   21 SFac= 1.00D+00 NAtFMM=   60 NAOKFM=F Big=F
 Integral buffers will be    131072 words long.
 Raffenetti 2 integral format.
 Two-electron integral symmetry is turned on.
 Nuclear repulsion after empirical dispersion term =      712.8422331827 Hartrees.
 One-electron integrals computed using PRISM.
 NBasis=   273 RedAO= T EigKep=  1.39D-06  NBF=   273
 NBsUse=   273 1.00D-06 EigRej= -1.00D+00 NBFU=   273
 ExpMin= 4.38D-02 ExpMax= 5.48D+03 ExpMxC= 8.25D+02 IAcc=2 IRadAn=         4 AccDes= 0.00D+00
 Harris functional with IExCor=20419 and IRadAn=       4 diagonalized for initial guess.
 HarFok:  IExCor=20419 AccDes= 0.00D+00 IRadAn=         4 IDoV= 1 UseB2=F ITyADJ=14
 ICtDFT=  3500011 ScaDFX=  1.000000  1.000000  1.000000  1.000000
 FoFCou: FMM=F IPFlag=           0 FMFlag=      100000 FMFlg1=           0
         NFxFlg=           0 DoJE=T BraDBF=F KetDBF=T FulRan=T
         wScrn=  0.000000 ICntrl=     500 IOpCl=  0 I1Cent=   200000004 NGrid=           0
         NMat0=    1 NMatS0=      1 NMatT0=    0 NMatD0=    1 NMtDS0=    0 NMtDT0=    0
 Petite list used in FoFCou.
 Requested convergence on RMS density matrix=1.00D-08 within 128 cycles.
 Requested convergence on MAX density matrix=1.00D-06.
 Requested convergence on             energy=1.00D-06.
 No special actions if energy rises.
 SCF Done:  E(RCAM-B3LYP) =  -610.713775713     A.U. after   15 cycles
            NFock= 15  Conv=0.45D-08     -V/T= 2.0091

 **********************************************************************

            Population analysis using the SCF density.

 **********************************************************************

 Orbital symmetries:
       Occupied  (A) (A) (A) (A) (A) (A) (A) (A) (A) (A) (A) (A)
                 (A) (A) (A) (A) (A) (A) (A) (A) (A) (A) (A) (A)
                 (A) (A) (A) (A) (A) (A) (A) (A) (A) (A) (A) (A)
                 (A) (A) (A) (A) (A) (A) (A) (A)
       Virtual   (A) (A) (A) (A) (A) (A) (A) (A) (A) (A) (A) (A)
                 (A) (A) (A) (A) (A) (A) (A) (A) (A) (A) (A) (A)
                 (A) (A) (A) (A) (A) (A) (A) (A) (A) (A) (A) (A)
                 (A) (A) (A) (A) (A) (A) (A) (A) (A) (A) (A) (A)
                 (A) (A) (A) (A) (A) (A) (A) (A) (A) (A) (A) (A)
                 (A) (A) (A) (A) (A) (A) (A) (A) (A) (A) (A) (A)
                 (A) (A) (A) (A) (A) (A) (A) (A) (A) (A) (A) (A)
                 (A) (A) (A) (A) (A) (A) (A) (A) (A) (A) (A) (A)
                 (A) (A) (A) (A) (A) (A) (A) (A) (A) (A) (A) (A)
                 (A) (A) (A) (A) (A) (A) (A) (A) (A) (A) (A) (A)
                 (A) (A) (A) (A) (A) (A) (A) (A) (A) (A) (A) (A)
                 (A) (A) (A) (A) (A) (A) (A) (A) (A) (A) (A) (A)
                 (A) (A) (A) (A) (A) (A) (A) (A) (A) (A) (A) (A)
                 (A) (A) (A) (A) (A) (A) (A) (A) (A) (A) (A) (A)
                 (A) (A) (A) (A) (A) (A) (A) (A) (A) (A) (A) (A)
                 (A) (A) (A) (A) (A) (A) (A) (A) (A) (A) (A) (A)
                 (A) (A) (A) (A) (A) (A) (A) (A) (A) (A) (A) (A)
                 (A) (A) (A) (A) (A) (A) (A) (A) (A) (A) (A) (A)
                 (A) (A) (A) (A) (A) (A) (A) (A) (A) (A) (A) (A)
                 (A)
 The electronic state is 1-A.
 Alpha  occ. eigenvalues --  -19.46397 -19.45620 -19.43839 -19.43483 -10.56138
 Alpha  occ. eigenvalues --  -10.53780 -10.52987 -10.52721 -10.46137 -10.44071
 Alpha  occ. eigenvalues --  -10.42808 -10.41235  -1.36708  -1.34145  -1.33313
 Alpha  occ. eigenvalues --   -1.32816  -1.11895  -1.04805  -1.00791  -0.99297
 Alpha  occ. eigenvalues --   -0.91215  -0.89565  -0.87039  -0.83640  -0.81456
 Alpha  occ. eigenvalues --   -0.79269  -0.75305  -0.73065  -0.70930  -0.69048
 Alpha  occ. eigenvalues --   -0.68347  -0.67934  -0.67151  -0.65689  -0.64399
 Alpha  occ. eigenvalues --   -0.63811  -0.62570  -0.60625  -0.60353  -0.58764
 Alpha  occ. eigenvalues --   -0.58265  -0.54106  -0.46764  -0.45851
 Alpha virt. eigenvalues --   -0.20484  -0.11968  -0.11485  -0.09488  -0.09236
 Alpha virt. eigenvalues --   -0.08873  -0.07617  -0.05414  -0.05175  -0.04519
 Alpha virt. eigenvalues --   -0.03851  -0.02916  -0.01910  -0.01163  -0.01122
 Alpha virt. eigenvalues --   -0.00230   0.01273   0.01445   0.02373   0.02752
 Alpha virt. eigenvalues --    0.03514   0.04298   0.04398   0.05179   0.05785
 Alpha virt. eigenvalues --    0.06193   0.06606   0.06648   0.07698   0.08143
 Alpha virt. eigenvalues --    0.08268   0.09476   0.10431   0.10861   0.11328
 Alpha virt. eigenvalues --    0.12192   0.12391   0.12571   0.13277   0.13675
 Alpha virt. eigenvalues --    0.14514   0.15568   0.16200   0.16608   0.16762
 Alpha virt. eigenvalues --    0.17623   0.17694   0.18124   0.18762   0.20052
 Alpha virt. eigenvalues --    0.20160   0.20581   0.21340   0.22023   0.22577
 Alpha virt. eigenvalues --    0.23041   0.23412   0.24120   0.26075   0.26382
 Alpha virt. eigenvalues --    0.27768   0.28027   0.29772   0.30707   0.32385
 Alpha virt. eigenvalues --    0.33646   0.34372   0.35206   0.36869   0.37679
 Alpha virt. eigenvalues --    0.42659   0.49242   0.51076   0.54602   0.56702
 Alpha virt. eigenvalues --    0.58590   0.60382   0.60397   0.61577   0.62630
 Alpha virt. eigenvalues --    0.63418   0.64738   0.65139   0.66232   0.67528
 Alpha virt. eigenvalues --    0.71424   0.73612   0.76045   0.76364   0.78556
 Alpha virt. eigenvalues --    0.82558   0.83450   0.85715   0.90684   0.92046
 Alpha virt. eigenvalues --    0.93961   0.94933   0.95595   0.98596   0.98974
 Alpha virt. eigenvalues --    1.00335   1.00957   1.03781   1.04497   1.07037
 Alpha virt. eigenvalues --    1.08567   1.08932   1.09910   1.10037   1.10641
 Alpha virt. eigenvalues --    1.11737   1.11960   1.13306   1.15390   1.16421
 Alpha virt. eigenvalues --    1.18243   1.18782   1.20132   1.22118   1.22405
 Alpha virt. eigenvalues --    1.25140   1.26032   1.26516   1.27744   1.27948
 Alpha virt. eigenvalues --    1.28200   1.30382   1.33450   1.36346   1.37463
 Alpha virt. eigenvalues --    1.41848   1.43085   1.49822   1.49991   1.50765
 Alpha virt. eigenvalues --    1.51914   1.54037   1.61089   1.61176   1.63415
 Alpha virt. eigenvalues --    1.65448   1.70776   1.71707   1.73551   1.75668
 Alpha virt. eigenvalues --    1.77319   1.79201   1.80184   1.81613   1.83113
 Alpha virt. eigenvalues --    1.83963   1.85616   1.87130   1.89823   1.90950
 Alpha virt. eigenvalues --    1.92672   1.95619   1.96567   1.99157   2.05174
 Alpha virt. eigenvalues --    2.06121   2.08087   2.10372   2.11012   2.16465
 Alpha virt. eigenvalues --    2.17564   2.21296   2.21666   2.24870   2.27817
 Alpha virt. eigenvalues --    2.29718   2.31988   2.32252   2.36308   2.36839
 Alpha virt. eigenvalues --    2.37079   2.38800   2.40745   2.41960   2.43127
 Alpha virt. eigenvalues --    2.44218   2.45989   2.46685   2.51855   2.54548
 Alpha virt. eigenvalues --    2.54951   2.56619   2.57384   2.59957   2.61719
 Alpha virt. eigenvalues --    2.64010   2.64134   2.65196   2.67647   2.69583
 Alpha virt. eigenvalues --    2.74011   2.78591   2.78957   2.84682   2.92741
 Alpha virt. eigenvalues --    2.94625   2.97503   3.02228   3.04473   3.07282
 Alpha virt. eigenvalues --    3.12030   3.15470   3.23705   3.30955   3.37029
 Alpha virt. eigenvalues --    3.37062   3.38407   3.42224   3.45490   3.47046
 Alpha virt. eigenvalues --    3.55919   3.67466   4.15033   4.16853   4.19407
 Alpha virt. eigenvalues --    4.24955   4.30997   4.35364   4.38785   4.44536
 Alpha virt. eigenvalues --    4.55474   4.66787   4.70994   4.81727
          Condensed to atoms (all electrons):
               1          2          3          4          5          6
     1  C   11.388208  -1.566582   0.995366  -3.808573  -0.183878  -3.888063
     2  C   -1.566582   7.076605  -0.609542   1.933464  -1.889711   2.504727
     3  C    0.995366  -0.609542  10.140575  -3.223091  -0.106181  -2.074228
     4  C   -3.808573   1.933464  -3.223091  16.325794  -2.952509   2.187256
     5  C   -0.183878  -1.889711  -0.106181  -2.952509  14.730195  -3.616673
     6  C   -3.888063   2.504727  -2.074228   2.187256  -3.616673  14.710260
     7  O    0.144537  -0.001193   0.017911   0.038337  -0.200586   0.064706
     8  C    2.074877  -0.961966   0.006585  -3.400498  -2.140858  -1.008881
     9  C   -0.206778  -0.025147  -0.333846  -0.073985   0.082265  -0.789474
    10  O   -0.001178   0.003328   0.004316  -0.124484   0.225378   0.049791
    11  O    0.045310   0.029698   0.410761  -0.114617  -0.079000  -0.042250
    12  O   -0.176094   0.146837  -0.093227   0.083673  -0.032197   0.099994
    13  H    0.258052   0.085631   0.048673  -0.025764   0.014047  -0.048292
    14  H    0.018986   0.028027   0.248999   0.012195   0.036366  -0.029958
    15  H   -0.063060   0.008946   0.002461   0.000865   0.096507  -0.048309
    16  H   -0.005755   0.000607  -0.002438  -0.000750   0.049614   0.002513
    17  H   -0.005867   0.000551  -0.002471  -0.001728   0.048141   0.003163
    18  H    0.000149   0.000275  -0.001843  -0.020365   0.022077   0.022795
    19  H    0.001244  -0.000593   0.007891   0.071395  -0.199196  -0.057287
    20  H    0.004868  -0.004469  -0.063548  -0.067220   0.095102  -0.000715
    21  H    0.068411  -0.062663   0.007152  -0.001862   0.026742  -0.041493
               7          8          9         10         11         12
     1  C    0.144537   2.074877  -0.206778  -0.001178   0.045310  -0.176094
     2  C   -0.001193  -0.961966  -0.025147   0.003328   0.029698   0.146837
     3  C    0.017911   0.006585  -0.333846   0.004316   0.410761  -0.093227
     4  C    0.038337  -3.400498  -0.073985  -0.124484  -0.114617   0.083673
     5  C   -0.200586  -2.140858   0.082265   0.225378  -0.079000  -0.032197
     6  C    0.064706  -1.008881  -0.789474   0.049791  -0.042250   0.099994
     7  O    8.403462  -0.039200  -0.094721   0.001772  -0.000865  -0.000728
     8  C   -0.039200  11.905788  -0.984314   0.346555  -0.303051   0.001355
     9  C   -0.094721  -0.984314   7.785289  -0.441224  -0.013409   0.000207
    10  O    0.001772   0.346555  -0.441224   8.082750   0.034718  -0.000030
    11  O   -0.000865  -0.303051  -0.013409   0.034718   8.405189  -0.000995
    12  O   -0.000728   0.001355   0.000207  -0.000030  -0.000995   8.242464
    13  H   -0.014610   0.005296   0.000783   0.000010   0.000029  -0.008006
    14  H    0.000015   0.019498  -0.000363  -0.000033  -0.016889  -0.012571
    15  H    0.223020  -0.003451   0.010031   0.000011   0.000011  -0.000045
    16  H   -0.002673  -0.085141   0.394628   0.004023  -0.000053   0.000000
    17  H   -0.002696  -0.081749   0.393292   0.003941  -0.000030   0.000000
    18  H    0.000572  -0.112746   0.456014  -0.007735   0.000130  -0.000000
    19  H   -0.000029   0.093716   0.078626   0.208475   0.031004   0.000004
    20  H    0.000015   0.026542   0.002964   0.002065   0.239036  -0.000030
    21  H    0.000027   0.002856  -0.000032  -0.000000  -0.000067   0.228147
              13         14         15         16         17         18
     1  C    0.258052   0.018986  -0.063060  -0.005755  -0.005867   0.000149
     2  C    0.085631   0.028027   0.008946   0.000607   0.000551   0.000275
     3  C    0.048673   0.248999   0.002461  -0.002438  -0.002471  -0.001843
     4  C   -0.025764   0.012195   0.000865  -0.000750  -0.001728  -0.020365
     5  C    0.014047   0.036366   0.096507   0.049614   0.048141   0.022077
     6  C   -0.048292  -0.029958  -0.048309   0.002513   0.003163   0.022795
     7  O   -0.014610   0.000015   0.223020  -0.002673  -0.002696   0.000572
     8  C    0.005296   0.019498  -0.003451  -0.085141  -0.081749  -0.112746
     9  C    0.000783  -0.000363   0.010031   0.394628   0.393292   0.456014
    10  O    0.000010  -0.000033   0.000011   0.004023   0.003941  -0.007735
    11  O    0.000029  -0.016889   0.000011  -0.000053  -0.000030   0.000130
    12  O   -0.008006  -0.012571  -0.000045   0.000000   0.000000  -0.000000
    13  H    0.509593  -0.000107   0.006523  -0.000000  -0.000000  -0.000000
    14  H   -0.000107   0.538344  -0.000000   0.000000   0.000000  -0.000000
    15  H    0.006523  -0.000000   0.347120   0.000369   0.000370  -0.000026
    16  H   -0.000000   0.000000   0.000369   0.463749  -0.018993  -0.019819
    17  H   -0.000000   0.000000   0.000370  -0.018993   0.463834  -0.019813
    18  H   -0.000000  -0.000000  -0.000026  -0.019819  -0.019813   0.471831
    19  H   -0.000000  -0.000005  -0.000000  -0.000249  -0.000252   0.000257
    20  H   -0.000000   0.007504  -0.000000  -0.000000  -0.000000  -0.000000
    21  H    0.000001   0.005174   0.000000   0.000000   0.000000  -0.000000
              19         20         21
     1  C    0.001244   0.004868   0.068411
     2  C   -0.000593  -0.004469  -0.062663
     3  C    0.007891  -0.063548   0.007152
     4  C    0.071395  -0.067220  -0.001862
     5  C   -0.199196   0.095102   0.026742
     6  C   -0.057287  -0.000715  -0.041493
     7  O   -0.000029   0.000015   0.000027
     8  C    0.093716   0.026542   0.002856
     9  C    0.078626   0.002964  -0.000032
    10  O    0.208475   0.002065  -0.000000
    11  O    0.031004   0.239036  -0.000067
    12  O    0.000004  -0.000030   0.228147
    13  H   -0.000000  -0.000000   0.000001
    14  H   -0.000005   0.007504   0.005174
    15  H   -0.000000  -0.000000   0.000000
    16  H   -0.000249  -0.000000   0.000000
    17  H   -0.000252  -0.000000   0.000000
    18  H    0.000257  -0.000000  -0.000000
    19  H    0.300704   0.000221  -0.000000
    20  H    0.000221   0.323587   0.000010
    21  H   -0.000000   0.000010   0.377278
 Mulliken charges:
               1
     1  C    0.905820
     2  C   -0.696829
     3  C    0.619725
     4  C   -0.837535
     5  C    1.974357
     6  C   -1.999581
     7  O   -0.537073
     8  C    0.638785
     9  C   -0.240808
    10  O   -0.392449
    11  O   -0.624660
    12  O   -0.478759
    13  H    0.168143
    14  H    0.144818
    15  H    0.418659
    16  H    0.220368
    17  H    0.220307
    18  H    0.208247
    19  H    0.464075
    20  H    0.434069
    21  H    0.390319
 Sum of Mulliken charges =   1.00000
 Mulliken charges with hydrogens summed into heavy atoms:
               1
     1  C    1.073963
     2  C   -0.696829
     3  C    0.764543
     4  C   -0.837535
     5  C    1.974357
     6  C   -1.999581
     7  O   -0.118414
     8  C    0.638785
     9  C    0.408114
    10  O    0.071627
    11  O   -0.190591
    12  O   -0.088440
 Electronic spatial extent (au):  <R**2>=           2073.5454
 Charge=              1.0000 electrons
 Dipole moment (field-independent basis, Debye):
    X=              1.5955    Y=              1.7038    Z=              0.0072  Tot=              2.3342
 Quadrupole moment (field-independent basis, Debye-Ang):
   XX=            -43.6830   YY=            -36.9178   ZZ=            -69.9358
   XY=              9.0924   XZ=              0.0005   YZ=              0.0222
 Traceless Quadrupole moment (field-independent basis, Debye-Ang):
   XX=              6.4958   YY=             13.2611   ZZ=            -19.7569
   XY=              9.0924   XZ=              0.0005   YZ=              0.0222
 Octapole moment (field-independent basis, Debye-Ang**2):
  XXX=             28.5068  YYY=             14.1185  ZZZ=              0.0013  XYY=             15.8644
  XXY=             20.1202  XXZ=              0.0336  XZZ=             -5.1747  YZZ=              0.0680
  YYZ=              0.0444  XYZ=              0.0103
 Hexadecapole moment (field-independent basis, Debye-Ang**3):
 XXXX=          -1329.9183 YYYY=           -485.5160 ZZZZ=            -76.2890 XXXY=            157.2302
 XXXZ=              0.1589 YYYX=            -14.5819 YYYZ=              0.2096 ZZZX=              0.0067
 ZZZY=              0.0168 XXYY=           -356.0385 XXZZ=           -293.4755 YYZZ=           -155.7550
 XXYZ=              0.0547 YYXZ=             -0.0488 ZZXY=              1.3998
 N-N= 7.128422331827D+02 E-N=-2.836659674556D+03  KE= 6.052310103873D+02
 Calling FoFJK, ICntrl=      2127 FMM=F ISym2X=0 I1Cent= 0 IOpClX= 0 NMat=1 NMatS=1 NMatT=0.
 ***** Axes restored to original set *****
 -------------------------------------------------------------------
 Center     Atomic                   Forces (Hartrees/Bohr)
 Number     Number              X              Y              Z
 -------------------------------------------------------------------
      1        6           0.002161185    0.003130885    0.000018388
      2        6           0.000118829   -0.001182801   -0.000000032
      3        6           0.002541914   -0.002477998   -0.000002070
      4        6           0.000150483   -0.000151345    0.000039434
      5        6          -0.001755879    0.000187575   -0.000004727
      6        6           0.000543478    0.000152957   -0.000008594
      7        8          -0.004059741    0.004273740   -0.000016112
      8        6           0.002765768    0.004516692   -0.000027401
      9        6          -0.001255412    0.001005653   -0.000001000
     10        8          -0.005981990   -0.006790261    0.000029440
     11        8          -0.003181519   -0.004620575   -0.000079222
     12        8           0.005957605    0.002284266   -0.000002051
     13        1           0.000080742    0.000319503    0.000002885
     14        1           0.000232371   -0.000302220    0.000002646
     15        1           0.000861048    0.000775617   -0.000000104
     16        1          -0.000097835    0.000626057   -0.000561563
     17        1          -0.000096781    0.000629181    0.000565067
     18        1          -0.000648449    0.000145565    0.000004399
     19        1           0.000457769   -0.000504034    0.000018013
     20        1           0.000814540   -0.000679599    0.000019818
     21        1           0.000391875   -0.001338858    0.000002787
 -------------------------------------------------------------------
 Cartesian Forces:  Max     0.006790261 RMS     0.002025453

 GradGradGradGradGradGradGradGradGradGradGradGradGradGradGradGradGradGrad
 Berny optimization.
 FormGI is forming the generalized inverse of G from B-inverse, IUseBI=4.
 Internal  Forces:  Max     0.009072263 RMS     0.002134343
 Search for a local minimum.
 Step number   1 out of a maximum of  104
 All quantities printed in internal units (Hartrees-Bohrs-Radians)
 Mixed Optimization -- RFO/linear search
 Second derivative matrix not updated -- first step.
 ITU=  0
     Eigenvalues ---    0.00912   0.01530   0.01566   0.01711   0.01772
     Eigenvalues ---    0.01951   0.02025   0.02078   0.02112   0.02166
     Eigenvalues ---    0.02192   0.02212   0.02237   0.02447   0.02557
     Eigenvalues ---    0.02936   0.07506   0.07538   0.16000   0.16000
     Eigenvalues ---    0.16000   0.16000   0.16000   0.16000   0.16000
     Eigenvalues ---    0.16000   0.16000   0.23480   0.23491   0.25000
     Eigenvalues ---    0.25000   0.25000   0.25000   0.25000   0.25000
     Eigenvalues ---    0.25000   0.33561   0.34423   0.34424   0.34886
     Eigenvalues ---    0.35293   0.35450   0.37535   0.38420   0.41875
     Eigenvalues ---    0.43032   0.44357   0.46877   0.49265   0.50507
     Eigenvalues ---    0.52503   0.53540   0.53587   0.53631   0.56554
     Eigenvalues ---    0.58435   0.65562
 RFO step:  Lambda=-8.98157763D-04 EMin= 9.11609498D-03
 Linear search not attempted -- first point.
 Iteration  1 RMS(Cart)=  0.01371178 RMS(Int)=  0.00002321
 Iteration  2 RMS(Cart)=  0.00004056 RMS(Int)=  0.00000128
 Iteration  3 RMS(Cart)=  0.00000000 RMS(Int)=  0.00000128
 Variable       Old X    -DE/DX   Delta X   Delta X   Delta X     New X
                                 (Linear)    (Quad)   (Total)
    R1        2.64386  -0.00482   0.00000  -0.01045  -0.01045   2.63341
    R2        2.61421  -0.00555   0.00000  -0.01141  -0.01141   2.60279
    R3        2.04950  -0.00032   0.00000  -0.00089  -0.00089   2.04861
    R4        2.66241  -0.00445   0.00000  -0.01001  -0.01001   2.65241
    R5        2.52200  -0.00641   0.00000  -0.01095  -0.01095   2.51105
    R6        2.60107  -0.00594   0.00000  -0.01193  -0.01193   2.58914
    R7        2.05201  -0.00038   0.00000  -0.00107  -0.00107   2.05094
    R8        2.72383  -0.00610   0.00000  -0.01552  -0.01552   2.70831
    R9        2.57421  -0.00578   0.00000  -0.01100  -0.01100   2.56321
   R10        2.72943  -0.00582   0.00000  -0.01492  -0.01492   2.71451
   R11        2.69083  -0.00487   0.00000  -0.01160  -0.01160   2.67923
   R12        2.53777  -0.00598   0.00000  -0.01055  -0.01055   2.52722
   R13        1.83153  -0.00113   0.00000  -0.00212  -0.00212   1.82941
   R14        2.81378  -0.00319   0.00000  -0.00948  -0.00948   2.80430
   R15        2.46793  -0.00907   0.00000  -0.01382  -0.01382   2.45411
   R16        2.06621  -0.00080   0.00000  -0.00231  -0.00231   2.06390
   R17        2.06623  -0.00080   0.00000  -0.00232  -0.00232   2.06391
   R18        2.05860  -0.00056   0.00000  -0.00160  -0.00160   2.05700
   R19        1.86057  -0.00068   0.00000  -0.00134  -0.00134   1.85923
   R20        1.83069  -0.00104   0.00000  -0.00193  -0.00193   1.82877
   R21        1.83109  -0.00137   0.00000  -0.00255  -0.00255   1.82855
    A1        2.09442  -0.00081   0.00000  -0.00334  -0.00335   2.09107
    A2        2.07369   0.00032   0.00000   0.00112   0.00112   2.07481
    A3        2.11508   0.00050   0.00000   0.00222   0.00222   2.11730
    A4        2.10998   0.00100   0.00000   0.00430   0.00430   2.11428
    A5        2.03276  -0.00031   0.00000  -0.00139  -0.00139   2.03137
    A6        2.14044  -0.00069   0.00000  -0.00291  -0.00291   2.13754
    A7        2.07572  -0.00106   0.00000  -0.00459  -0.00459   2.07113
    A8        2.10455   0.00057   0.00000   0.00253   0.00253   2.10708
    A9        2.10291   0.00049   0.00000   0.00207   0.00207   2.10498
   A10        2.14743   0.00029   0.00000   0.00120   0.00120   2.14863
   A11        2.10614   0.00072   0.00000   0.00286   0.00286   2.10900
   A12        2.02961  -0.00102   0.00000  -0.00406  -0.00406   2.02555
   A13        2.01314   0.00071   0.00000   0.00283   0.00283   2.01597
   A14        2.13376  -0.00140   0.00000  -0.00556  -0.00556   2.12820
   A15        2.13628   0.00068   0.00000   0.00274   0.00273   2.13902
   A16        2.12568  -0.00013   0.00000  -0.00038  -0.00038   2.12529
   A17        2.10925   0.00031   0.00000   0.00118   0.00118   2.11043
   A18        2.04826  -0.00018   0.00000  -0.00079  -0.00079   2.04747
   A19        1.94091   0.00043   0.00000   0.00270   0.00270   1.94361
   A20        2.20303   0.00075   0.00000   0.00298   0.00298   2.20600
   A21        2.12943  -0.00179   0.00000  -0.00715  -0.00715   2.12229
   A22        1.95073   0.00105   0.00000   0.00417   0.00417   1.95490
   A23        1.93076  -0.00028   0.00000  -0.00176  -0.00176   1.92900
   A24        1.93079  -0.00028   0.00000  -0.00174  -0.00175   1.92904
   A25        1.89576  -0.00038   0.00000  -0.00238  -0.00239   1.89337
   A26        1.85569   0.00029   0.00000   0.00178   0.00178   1.85747
   A27        1.92553   0.00034   0.00000   0.00209   0.00209   1.92762
   A28        1.92546   0.00034   0.00000   0.00213   0.00213   1.92760
   A29        1.96168   0.00010   0.00000   0.00059   0.00059   1.96227
   A30        1.97633   0.00042   0.00000   0.00261   0.00261   1.97894
   A31        1.96951   0.00052   0.00000   0.00325   0.00325   1.97276
    D1       -0.00012   0.00000   0.00000   0.00008   0.00008  -0.00004
    D2       -3.14140  -0.00000   0.00000  -0.00019  -0.00019   3.14159
    D3        3.14119   0.00000   0.00000   0.00022   0.00022   3.14141
    D4       -0.00010  -0.00000   0.00000  -0.00005  -0.00005  -0.00015
    D5       -0.00070   0.00001   0.00000   0.00044   0.00044  -0.00026
    D6        3.14110   0.00000   0.00000   0.00021   0.00021   3.14131
    D7        3.14118   0.00001   0.00000   0.00029   0.00029   3.14148
    D8       -0.00020   0.00000   0.00000   0.00007   0.00007  -0.00013
    D9        0.00032  -0.00000   0.00000  -0.00022  -0.00022   0.00010
   D10       -3.14077  -0.00001   0.00000  -0.00044  -0.00044  -3.14122
   D11        3.14158   0.00000   0.00000   0.00007   0.00007  -3.14153
   D12        0.00049  -0.00000   0.00000  -0.00015  -0.00015   0.00034
   D13       -3.14147   0.00000   0.00000   0.00006   0.00006  -3.14140
   D14        0.00044  -0.00000   0.00000  -0.00021  -0.00021   0.00023
   D15        0.00031  -0.00000   0.00000  -0.00016  -0.00016   0.00015
   D16       -3.14063  -0.00002   0.00000  -0.00098  -0.00098   3.14157
   D17        3.14140   0.00000   0.00000   0.00006   0.00006   3.14146
   D18        0.00046  -0.00002   0.00000  -0.00076  -0.00076  -0.00030
   D19       -0.00106   0.00001   0.00000   0.00063   0.00063  -0.00042
   D20        3.13941   0.00001   0.00000   0.00093   0.00093   3.14034
   D21        3.13991   0.00003   0.00000   0.00142   0.00142   3.14133
   D22       -0.00280   0.00003   0.00000   0.00172   0.00172  -0.00109
   D23       -0.00402   0.00002   0.00000   0.00097   0.00097  -0.00305
   D24        3.13818   0.00001   0.00000   0.00021   0.00021   3.13839
   D25        0.00125  -0.00001   0.00000  -0.00077  -0.00077   0.00048
   D26       -3.14055  -0.00001   0.00000  -0.00055  -0.00055  -3.14110
   D27       -3.13922  -0.00002   0.00000  -0.00106  -0.00106  -3.14028
   D28        0.00217  -0.00001   0.00000  -0.00084  -0.00084   0.00133
   D29        3.14158   0.00001   0.00000   0.00047   0.00048  -3.14112
   D30       -0.00052   0.00003   0.00000   0.00149   0.00149   0.00097
   D31       -0.00121   0.00002   0.00000   0.00079   0.00079  -0.00042
   D32        3.13987   0.00003   0.00000   0.00181   0.00181  -3.14151
   D33       -0.00004   0.00000   0.00000   0.00013   0.00013   0.00009
   D34       -3.14143  -0.00000   0.00000  -0.00009  -0.00009  -3.14152
   D35       -1.02608   0.00001   0.00000   0.00052   0.00052  -1.02555
   D36        1.02557   0.00001   0.00000   0.00055   0.00055   1.02612
   D37        3.14131   0.00001   0.00000   0.00056   0.00056  -3.14131
   D38        2.11598  -0.00001   0.00000  -0.00040  -0.00041   2.11558
   D39       -2.11555  -0.00001   0.00000  -0.00038  -0.00038  -2.11593
   D40        0.00018  -0.00001   0.00000  -0.00036  -0.00036  -0.00018
   D41        0.00053   0.00001   0.00000   0.00008   0.00008   0.00061
   D42       -3.14151   0.00002   0.00000   0.00096   0.00096  -3.14055
         Item               Value     Threshold  Converged?
 Maximum Force            0.009072     0.000450     NO 
 RMS     Force            0.002134     0.000300     NO 
 Maximum Displacement     0.060729     0.001800     NO 
 RMS     Displacement     0.013711     0.001200     NO 
 Predicted change in Energy=-4.499999D-04
 GradGradGradGradGradGradGradGradGradGradGradGradGradGradGradGradGradGrad

                          Input orientation:                          
 ---------------------------------------------------------------------
 Center     Atomic      Atomic             Coordinates (Angstroms)
 Number     Number       Type             X           Y           Z
 ---------------------------------------------------------------------
      1          6           0       -1.543046   -1.264013    0.000093
      2          6           0       -2.271164   -0.075824   -0.000267
      3          6           0       -1.626076    1.170746   -0.000065
      4          6           0       -0.256317    1.201968    0.000378
      5          6           0        0.553658    0.019624    0.000468
      6          6           0       -0.166307   -1.223382    0.000608
      7          8           0        0.554391   -2.349919    0.001282
      8          6           0        1.970120    0.080892   -0.000574
      9          6           0        2.901419   -1.074465   -0.001144
     10          8           0        2.602125    1.215388   -0.000593
     11          8           0        0.412244    2.382150    0.000561
     12          8           0       -3.594673   -0.194193   -0.000760
     13          1           0       -2.078882   -2.206406    0.000096
     14          1           0       -2.199789    2.092023    0.000003
     15          1           0       -0.015053   -3.132812    0.001257
     16          1           0        2.729355   -1.705407    0.873581
     17          1           0        2.728497   -1.705296   -0.875781
     18          1           0        3.921737   -0.695231   -0.001639
     19          1           0        1.990344    1.985910    0.000735
     20          1           0       -0.171285    3.154167   -0.002356
     21          1           0       -4.051053    0.659047   -0.001161
 ---------------------------------------------------------------------
                    Distance matrix (angstroms):
                    1          2          3          4          5
     1  C    0.000000
     2  C    1.393538   0.000000
     3  C    2.436174   1.403593   0.000000
     4  C    2.781498   2.385867   1.370115   0.000000
     5  C    2.458432   2.826434   2.465020   1.433177   0.000000
     6  C    1.377339   2.397356   2.804064   2.427020   1.436459
     7  O    2.361871   3.627020   4.141198   3.643234   2.369543
     8  C    3.761795   4.244178   3.757713   2.492756   1.417787
     9  C    4.448506   5.268102   5.053631   3.892743   2.590177
    10  O    4.830100   5.041446   4.228437   2.858474   2.371934
    11  O    4.137349   3.638998   2.371128   1.356393   2.366754
    12  O    2.313804   1.328792   2.395502   3.618548   4.153838
    13  H    1.084078   2.139242   3.407372   3.865069   3.447532
    14  H    3.419692   2.169022   1.085311   2.137589   3.446203
    15  H    2.413954   3.799370   4.595215   4.341489   3.203324
    16  H    4.383060   5.331448   5.292002   4.257880   2.910621
    17  H    4.382689   5.330883   5.291578   4.257810   2.910857
    18  H    5.494303   6.223800   5.853212   4.588627   3.443106
    19  H    4.800712   4.734046   3.707153   2.379506   2.435231
    20  H    4.626235   3.852575   2.459753   1.954052   3.217283
    21  H    3.160421   1.925628   2.478376   3.833378   4.648895
                    6          7          8          9         10
     6  C    0.000000
     7  O    1.337345   0.000000
     8  C    2.503088   2.813029   0.000000
     9  C    3.071339   2.671204   1.483971   0.000000
    10  O    3.689419   4.111524   1.298658   2.309330   0.000000
    11  O    3.651655   4.734204   2.778987   4.259599   2.481314
    12  O    3.579515   4.675670   5.571588   6.555463   6.355095
    13  H    2.150414   2.637181   4.650392   5.107317   5.798319
    14  H    3.889340   5.226506   4.629557   6.004081   4.881278
    15  H    1.915411   0.968085   3.777407   3.569680   5.075083
    16  H    3.062562   2.430385   2.128719   1.092171   3.051460
    17  H    3.062709   2.431361   2.128753   1.092172   3.051609
    18  H    4.122020   3.751935   2.100280   1.088515   2.322033
    19  H    3.866613   4.567426   1.905126   3.193111   0.983861
    20  H    4.377553   5.551719   3.745749   5.227126   3.383884
    21  H    4.316804   5.501272   6.048866   7.165329   6.676399
                   11         12         13         14         15
    11  O    0.000000
    12  O    4.763709   0.000000
    13  H    5.221164   2.519251   0.000000
    14  H    2.628096   2.678150   4.300130   0.000000
    15  H    5.531490   4.631324   2.262215   5.663213   0.000000
    16  H    4.779046   6.560607   4.912546   6.283317   3.214065
    17  H    4.779144   6.559845   4.912144   6.282885   3.214664
    18  H    4.667635   7.533091   6.187978   6.726208   4.630349
    19  H    1.627085   5.995437   5.842440   4.191477   5.497539
    20  H    0.967742   4.788644   5.689875   2.289757   6.288921
    21  H    4.784360   0.967627   3.478546   2.341068   5.537824
                   16         17         18         19         20
    16  H    0.000000
    17  H    1.749363   0.000000
    18  H    1.791156   1.791139   0.000000
    19  H    3.864430   3.864991   3.304361   0.000000
    20  H    5.726817   5.725905   5.618780   2.457126   0.000000
    21  H    7.233930   7.233075   8.086992   6.185390   4.612833
                   21
    21  H    0.000000
 Stoichiometry    C8H9O4(1+)
 Framework group  C1[X(C8H9O4)]
 Deg. of freedom    57
 Full point group                 C1      NOp   1
 Largest Abelian subgroup         C1      NOp   1
 Largest concise Abelian subgroup C1      NOp   1
                         Standard orientation:                         
 ---------------------------------------------------------------------
 Center     Atomic      Atomic             Coordinates (Angstroms)
 Number     Number       Type             X           Y           Z
 ---------------------------------------------------------------------
      1          6           0        1.543722   -1.262191   -0.000142
      2          6           0        2.271418   -0.073744    0.000218
      3          6           0        1.625888    1.172596    0.000016
      4          6           0        0.256117    1.203332   -0.000427
      5          6           0       -0.553437    0.020701   -0.000517
      6          6           0        0.166969   -1.222050   -0.000657
      7          8           0       -0.553329   -2.348843   -0.001331
      8          6           0       -1.969921    0.081465    0.000525
      9          6           0       -2.900810   -1.074222    0.001095
     10          8           0       -2.602329    1.215737    0.000544
     11          8           0       -0.412862    2.383277   -0.000610
     12          8           0        3.594969   -0.191643    0.000711
     13          1           0        2.079892   -2.204394   -0.000145
     14          1           0        2.199274    2.094078   -0.000052
     15          1           0        0.016393   -3.131533   -0.001306
     16          1           0       -2.728521   -1.705102   -0.873630
     17          1           0       -2.727663   -1.704991    0.875732
     18          1           0       -3.921262   -0.695350    0.001590
     19          1           0       -1.990821    1.986477   -0.000784
     20          1           0        0.170392    3.155501    0.002307
     21          1           0        4.051046    0.661759    0.001112
 ---------------------------------------------------------------------
 Rotational constants (GHZ):      1.5343068      0.7664225      0.5127100
 Standard basis: 6-31+G(d,p) (6D, 7F)
 There are   273 symmetry adapted cartesian basis functions of A   symmetry.
 There are   273 symmetry adapted basis functions of A   symmetry.
   273 basis functions,   447 primitive gaussians,   273 cartesian basis functions
    44 alpha electrons       44 beta electrons
       nuclear repulsion energy       716.2723288906 Hartrees.
 NAtoms=   21 NActive=   21 NUniq=   21 SFac= 1.00D+00 NAtFMM=   60 NAOKFM=F Big=F
 Integral buffers will be    131072 words long.
 Raffenetti 2 integral format.
 Two-electron integral symmetry is turned on.
 Nuclear repulsion after empirical dispersion term =      716.2543823625 Hartrees.
 One-electron integrals computed using PRISM.
 NBasis=   273 RedAO= T EigKep=  1.34D-06  NBF=   273
 NBsUse=   273 1.00D-06 EigRej= -1.00D+00 NBFU=   273
 Initial guess from the checkpoint file:  "camb3lypTHAPyang.chk"
 B after Tr=     0.000000    0.000000   -0.000000
         Rot=    1.000000   -0.000044   -0.000013   -0.000323 Ang=  -0.04 deg.
 ExpMin= 4.38D-02 ExpMax= 5.48D+03 ExpMxC= 8.25D+02 IAcc=2 IRadAn=         4 AccDes= 0.00D+00
 Harris functional with IExCor=20419 and IRadAn=       4 diagonalized for initial guess.
 HarFok:  IExCor=20419 AccDes= 0.00D+00 IRadAn=         4 IDoV= 1 UseB2=F ITyADJ=14
 ICtDFT=  3500011 ScaDFX=  1.000000  1.000000  1.000000  1.000000
 FoFCou: FMM=F IPFlag=           0 FMFlag=      100000 FMFlg1=           0
         NFxFlg=           0 DoJE=T BraDBF=F KetDBF=T FulRan=T
         wScrn=  0.000000 ICntrl=     500 IOpCl=  0 I1Cent=   200000004 NGrid=           0
         NMat0=    1 NMatS0=      1 NMatT0=    0 NMatD0=    1 NMtDS0=    0 NMtDT0=    0
 Petite list used in FoFCou.
 Requested convergence on RMS density matrix=1.00D-08 within 128 cycles.
 Requested convergence on MAX density matrix=1.00D-06.
 Requested convergence on             energy=1.00D-06.
 No special actions if energy rises.
 SCF Done:  E(RCAM-B3LYP) =  -610.714097290     A.U. after   12 cycles
            NFock= 12  Conv=0.92D-08     -V/T= 2.0087
 Calling FoFJK, ICntrl=      2127 FMM=F ISym2X=0 I1Cent= 0 IOpClX= 0 NMat=1 NMatS=1 NMatT=0.
 ***** Axes restored to original set *****
 -------------------------------------------------------------------
 Center     Atomic                   Forces (Hartrees/Bohr)
 Number     Number              X              Y              Z
 -------------------------------------------------------------------
      1        6          -0.000363451   -0.000239661    0.000010372
      2        6          -0.001270140   -0.000660352   -0.000010186
      3        6          -0.000284061    0.000713634    0.000008372
      4        6           0.000769915   -0.000009074   -0.000024042
      5        6          -0.001539188   -0.000587867   -0.000027340
      6        6           0.001271490   -0.000842180    0.000007928
      7        8          -0.000631739    0.000121906   -0.000011985
      8        6           0.003132128    0.002114793    0.000087436
      9        6          -0.000067303   -0.000230588   -0.000034407
     10        8           0.001073095   -0.003038171    0.000022224
     11        8          -0.002706904    0.001571270   -0.000010622
     12        8           0.000125337    0.000705403    0.000000104
     13        1          -0.000123133    0.000059357    0.000000999
     14        1          -0.000112687   -0.000031749   -0.000001970
     15        1           0.000340763   -0.000093026    0.000000693
     16        1           0.000070227   -0.000092259   -0.000038343
     17        1           0.000070115   -0.000106109    0.000039302
     18        1           0.000036414   -0.000102229   -0.000001654
     19        1           0.000120135    0.000742706   -0.000043724
     20        1           0.000319343    0.000313458    0.000023590
     21        1          -0.000230354   -0.000309263    0.000003254
 -------------------------------------------------------------------
 Cartesian Forces:  Max     0.003132128 RMS     0.000845515

 GradGradGradGradGradGradGradGradGradGradGradGradGradGradGradGradGradGrad
 Berny optimization.
 Using GEDIIS/GDIIS optimizer.
 FormGI is forming the generalized inverse of G from B-inverse, IUseBI=4.
 Internal  Forces:  Max     0.005352867 RMS     0.001244814
 Search for a local minimum.
 Step number   2 out of a maximum of  104
 All quantities printed in internal units (Hartrees-Bohrs-Radians)
 Mixed Optimization -- RFO/linear search
 Update second derivatives using D2CorX and points    1    2
 DE= -3.22D-04 DEPred=-4.50D-04 R= 7.15D-01
 TightC=F SS=  1.41D+00  RLast= 4.52D-02 DXNew= 5.0454D-01 1.3565D-01
 Trust test= 7.15D-01 RLast= 4.52D-02 DXMaxT set to 3.00D-01
 ITU=  1  0
 Use linear search instead of GDIIS.
     Eigenvalues ---    0.00912   0.01526   0.01565   0.01710   0.01772
     Eigenvalues ---    0.01952   0.02026   0.02078   0.02111   0.02165
     Eigenvalues ---    0.02192   0.02212   0.02237   0.02447   0.02557
     Eigenvalues ---    0.02936   0.07526   0.07561   0.15557   0.16000
     Eigenvalues ---    0.16000   0.16000   0.16000   0.16000   0.16000
     Eigenvalues ---    0.16000   0.16042   0.22457   0.23501   0.24424
     Eigenvalues ---    0.25000   0.25000   0.25000   0.25000   0.25000
     Eigenvalues ---    0.25569   0.33789   0.34423   0.34433   0.34886
     Eigenvalues ---    0.35294   0.35450   0.37908   0.39054   0.41318
     Eigenvalues ---    0.43808   0.46636   0.46962   0.50469   0.51493
     Eigenvalues ---    0.53455   0.53563   0.53619   0.55181   0.57662
     Eigenvalues ---    0.63327   0.68975
 RFO step:  Lambda=-2.67042910D-04 EMin= 9.11611650D-03
 Quartic linear search produced a step of -0.22371.
 Iteration  1 RMS(Cart)=  0.01942998 RMS(Int)=  0.00010254
 Iteration  2 RMS(Cart)=  0.00015655 RMS(Int)=  0.00000100
 Iteration  3 RMS(Cart)=  0.00000000 RMS(Int)=  0.00000100
 Variable       Old X    -DE/DX   Delta X   Delta X   Delta X     New X
                                 (Linear)    (Quad)   (Total)
    R1        2.63341   0.00013   0.00234  -0.00545  -0.00311   2.63030
    R2        2.60279   0.00104   0.00255  -0.00439  -0.00183   2.60096
    R3        2.04861   0.00001   0.00020  -0.00045  -0.00025   2.04836
    R4        2.65241   0.00045   0.00224  -0.00459  -0.00235   2.65006
    R5        2.51105   0.00007   0.00245  -0.00566  -0.00321   2.50785
    R6        2.58914   0.00121   0.00267  -0.00433  -0.00167   2.58748
    R7        2.05094   0.00003   0.00024  -0.00050  -0.00026   2.05068
    R8        2.70831   0.00365   0.00347  -0.00082   0.00266   2.71097
    R9        2.56321   0.00046   0.00246  -0.00510  -0.00264   2.56058
   R10        2.71451   0.00105   0.00334  -0.00567  -0.00233   2.71218
   R11        2.67923   0.00440   0.00259   0.00204   0.00463   2.68386
   R12        2.52722  -0.00018   0.00236  -0.00579  -0.00343   2.52379
   R13        1.82941  -0.00013   0.00047  -0.00129  -0.00082   1.82859
   R14        2.80430   0.00048   0.00212  -0.00390  -0.00178   2.80252
   R15        2.45411  -0.00142   0.00309  -0.00893  -0.00584   2.44827
   R16        2.06390   0.00001   0.00052  -0.00119  -0.00068   2.06323
   R17        2.06391   0.00002   0.00052  -0.00118  -0.00067   2.06324
   R18        2.05700  -0.00000   0.00036  -0.00085  -0.00049   2.05651
   R19        1.85923   0.00051   0.00030   0.00007   0.00037   1.85960
   R20        1.82877   0.00006   0.00043  -0.00093  -0.00050   1.82827
   R21        1.82855  -0.00016   0.00057  -0.00158  -0.00101   1.82754
    A1        2.09107   0.00036   0.00075  -0.00104  -0.00029   2.09078
    A2        2.07481  -0.00032  -0.00025  -0.00045  -0.00071   2.07411
    A3        2.11730  -0.00004  -0.00050   0.00149   0.00099   2.11829
    A4        2.11428  -0.00041  -0.00096   0.00046  -0.00050   2.11378
    A5        2.03137   0.00039   0.00031   0.00075   0.00106   2.03243
    A6        2.13754   0.00002   0.00065  -0.00121  -0.00056   2.13697
    A7        2.07113   0.00088   0.00103   0.00045   0.00148   2.07261
    A8        2.10708  -0.00055  -0.00057  -0.00066  -0.00123   2.10585
    A9        2.10498  -0.00032  -0.00046   0.00021  -0.00025   2.10473
   A10        2.14863  -0.00041  -0.00027  -0.00033  -0.00060   2.14803
   A11        2.10900  -0.00324  -0.00064  -0.00869  -0.00933   2.09967
   A12        2.02555   0.00366   0.00091   0.00902   0.00993   2.03548
   A13        2.01597  -0.00128  -0.00063  -0.00203  -0.00267   2.01330
   A14        2.12820   0.00535   0.00124   0.01343   0.01467   2.14287
   A15        2.13902  -0.00407  -0.00061  -0.01139  -0.01200   2.12701
   A16        2.12529   0.00086   0.00009   0.00249   0.00257   2.12787
   A17        2.11043  -0.00042  -0.00026  -0.00068  -0.00094   2.10948
   A18        2.04747  -0.00044   0.00018  -0.00181  -0.00163   2.04583
   A19        1.94361   0.00060  -0.00060   0.00438   0.00378   1.94739
   A20        2.20600  -0.00256  -0.00067  -0.00637  -0.00704   2.19896
   A21        2.12229   0.00445   0.00160   0.00999   0.01159   2.13388
   A22        1.95490  -0.00188  -0.00093  -0.00362  -0.00455   1.95034
   A23        1.92900   0.00012   0.00039  -0.00040  -0.00001   1.92899
   A24        1.92904   0.00014   0.00039  -0.00030   0.00009   1.92914
   A25        1.89337   0.00011   0.00053  -0.00073  -0.00019   1.89318
   A26        1.85747  -0.00015  -0.00040   0.00017  -0.00022   1.85725
   A27        1.92762  -0.00011  -0.00047   0.00062   0.00015   1.92778
   A28        1.92760  -0.00011  -0.00048   0.00066   0.00018   1.92778
   A29        1.96227   0.00103  -0.00013   0.00532   0.00519   1.96746
   A30        1.97894   0.00081  -0.00058   0.00533   0.00475   1.98369
   A31        1.97276   0.00064  -0.00073   0.00484   0.00412   1.97687
    D1       -0.00004  -0.00000  -0.00002   0.00001  -0.00001  -0.00005
    D2        3.14159   0.00000   0.00004  -0.00003   0.00001  -3.14158
    D3        3.14141  -0.00000  -0.00005   0.00013   0.00008   3.14149
    D4       -0.00015   0.00000   0.00001   0.00009   0.00010  -0.00005
    D5       -0.00026   0.00000  -0.00010   0.00034   0.00025  -0.00002
    D6        3.14131   0.00000  -0.00005   0.00029   0.00024   3.14156
    D7        3.14148   0.00000  -0.00007   0.00022   0.00016  -3.14155
    D8       -0.00013   0.00000  -0.00001   0.00017   0.00015   0.00002
    D9        0.00010   0.00000   0.00005  -0.00006  -0.00001   0.00009
   D10       -3.14122   0.00000   0.00010  -0.00015  -0.00005  -3.14127
   D11       -3.14153  -0.00000  -0.00002  -0.00002  -0.00003  -3.14157
   D12        0.00034  -0.00000   0.00003  -0.00011  -0.00008   0.00026
   D13       -3.14140  -0.00000  -0.00001  -0.00011  -0.00012  -3.14153
   D14        0.00023  -0.00000   0.00005  -0.00015  -0.00010   0.00012
   D15        0.00015  -0.00000   0.00004  -0.00025  -0.00021  -0.00006
   D16        3.14157   0.00001   0.00022  -0.00016   0.00006  -3.14156
   D17        3.14146  -0.00000  -0.00001  -0.00016  -0.00017   3.14130
   D18       -0.00030   0.00001   0.00017  -0.00007   0.00010  -0.00020
   D19       -0.00042   0.00000  -0.00014   0.00057   0.00042   0.00000
   D20        3.14034   0.00001  -0.00021   0.00118   0.00097   3.14132
   D21        3.14133  -0.00001  -0.00032   0.00049   0.00017   3.14150
   D22       -0.00109  -0.00001  -0.00038   0.00110   0.00072  -0.00037
   D23       -0.00305   0.00001  -0.00022   0.00103   0.00081  -0.00224
   D24        3.13839   0.00003  -0.00005   0.00111   0.00106   3.13945
   D25        0.00048  -0.00000   0.00017  -0.00061  -0.00044   0.00004
   D26       -3.14110  -0.00000   0.00012  -0.00056  -0.00044  -3.14154
   D27       -3.14028  -0.00001   0.00024  -0.00124  -0.00100  -3.14128
   D28        0.00133  -0.00001   0.00019  -0.00119  -0.00099   0.00033
   D29       -3.14112  -0.00001  -0.00011   0.00006  -0.00005  -3.14117
   D30        0.00097  -0.00003  -0.00033  -0.00030  -0.00064   0.00033
   D31       -0.00042   0.00000  -0.00018   0.00072   0.00054   0.00012
   D32       -3.14151  -0.00002  -0.00040   0.00036  -0.00005  -3.14156
   D33        0.00009  -0.00000  -0.00003   0.00003  -0.00000   0.00009
   D34       -3.14152   0.00000   0.00002  -0.00003  -0.00001  -3.14152
   D35       -1.02555  -0.00000  -0.00012  -0.00027  -0.00038  -1.02594
   D36        1.02612  -0.00003  -0.00012  -0.00049  -0.00061   1.02551
   D37       -3.14131  -0.00001  -0.00013  -0.00032  -0.00045   3.14142
   D38        2.11558   0.00002   0.00009   0.00007   0.00016   2.11574
   D39       -2.11593  -0.00001   0.00009  -0.00015  -0.00007  -2.11600
   D40       -0.00018   0.00001   0.00008   0.00001   0.00009  -0.00009
   D41        0.00061  -0.00003  -0.00002  -0.00051  -0.00053   0.00008
   D42       -3.14055  -0.00005  -0.00021  -0.00082  -0.00104  -3.14159
         Item               Value     Threshold  Converged?
 Maximum Force            0.005353     0.000450     NO 
 RMS     Force            0.001245     0.000300     NO 
 Maximum Displacement     0.086924     0.001800     NO 
 RMS     Displacement     0.019417     0.001200     NO 
 Predicted change in Energy=-1.629221D-04
 GradGradGradGradGradGradGradGradGradGradGradGradGradGradGradGradGradGrad

                          Input orientation:                          
 ---------------------------------------------------------------------
 Center     Atomic      Atomic             Coordinates (Angstroms)
 Number     Number       Type             X           Y           Z
 ---------------------------------------------------------------------
      1          6           0       -1.534345   -1.260612    0.000068
      2          6           0       -2.268488   -0.078072   -0.000104
      3          6           0       -1.630601    1.170802   -0.000141
      4          6           0       -0.261966    1.211302   -0.000108
      5          6           0        0.556114    0.032841    0.000038
      6          6           0       -0.158849   -1.211624    0.000148
      7          8           0        0.566661   -2.332907    0.000354
      8          6           0        1.975495    0.082181   -0.000259
      9          6           0        2.888176   -1.086744   -0.000637
     10          8           0        2.628584    1.201094   -0.000323
     11          8           0        0.386815    2.400883   -0.000103
     12          8           0       -3.589731   -0.202568   -0.000160
     13          1           0       -2.065297   -2.205613    0.000190
     14          1           0       -2.210256    2.088193    0.000024
     15          1           0        0.004486   -3.120503    0.000352
     16          1           0        2.706208   -1.714732    0.873761
     17          1           0        2.705653   -1.714792   -0.874886
     18          1           0        3.913940   -0.723276   -0.000975
     19          1           0        2.036342    1.986983   -0.000071
     20          1           0       -0.205294    3.166008   -0.002106
     21          1           0       -4.053404    0.646124   -0.000338
 ---------------------------------------------------------------------
                    Distance matrix (angstroms):
                    1          2          3          4          5
     1  C    0.000000
     2  C    1.391894   0.000000
     3  C    2.433319   1.402350   0.000000
     4  C    2.780163   2.385082   1.369234   0.000000
     5  C    2.458260   2.826780   2.465093   1.434582   0.000000
     6  C    1.376368   2.394895   2.800359   2.425119   1.435223
     7  O    2.358822   3.622479   4.135691   3.639786   2.365771
     8  C    3.757934   4.247008   3.766832   2.506221   1.420238
     9  C    4.425938   5.254389   5.051323   3.899283   2.586886
    10  O    4.836319   5.061382   4.259293   2.890569   2.379065
    11  O    4.134901   3.632609   2.362851   1.354998   2.374086
    12  O    2.311724   1.327095   2.392558   3.615667   4.152523
    13  H    1.083945   2.137223   3.404283   3.863588   3.447096
    14  H    3.416336   2.167047   1.085176   2.136533   3.446343
    15  H    2.413958   3.797736   4.592255   4.339991   3.201229
    16  H    4.353373   5.309417   5.281849   4.258566   2.905221
    17  H    4.353092   5.309066   5.281565   4.258406   2.905207
    18  H    5.474719   6.216005   5.859136   4.602259   3.441905
    19  H    4.826664   4.774517   3.756677   2.425676   2.451479
    20  H    4.621834   3.844584   2.452009   1.955529   3.224358
    21  H    3.159320   1.926235   2.478964   3.833331   4.650137
                    6          7          8          9         10
     6  C    0.000000
     7  O    1.335530   0.000000
     8  C    2.495868   2.795973   0.000000
     9  C    3.049583   2.634835   1.483028   0.000000
    10  O    3.686597   4.091540   1.295567   2.302518   0.000000
    11  O    3.653485   4.737205   2.810744   4.291893   2.542641
    12  O    3.576191   4.670539   5.572505   6.537969   6.374772
    13  H    2.150014   2.635034   4.643490   5.078264   5.799843
    14  H    3.885494   5.220862   4.641616   6.006183   4.919484
    15  H    1.915854   0.967651   3.760593   3.528717   5.055897
    16  H    3.037247   2.392205   2.127616   1.091813   3.045011
    17  H    3.037142   2.392362   2.127725   1.091820   3.045192
    18  H    4.101962   3.714188   2.099126   1.088256   2.314161
    19  H    3.879427   4.563049   1.905774   3.189580   0.984059
    20  H    4.377879   5.552836   3.777014   5.258845   3.448443
    21  H    4.314949   5.497238   6.055217   7.154604   6.704995
                   11         12         13         14         15
    11  O    0.000000
    12  O    4.752986   0.000000
    13  H    5.218492   2.517159   0.000000
    14  H    2.615828   2.674049   4.296252   0.000000
    15  H    5.534607   4.629550   2.262968   5.660000   0.000000
    16  H    4.804322   6.533699   4.875587   6.276725   3.168333
    17  H    4.804272   6.533285   4.875308   6.276490   3.168338
    18  H    4.711791   7.521716   6.160244   6.738705   4.585906
    19  H    1.700662   6.037121   5.865263   4.247804   5.496804
    20  H    0.967478   4.775115   5.684534   2.276305   6.290010
    21  H    4.774382   0.967094   3.476345   2.340247   5.536601
                   16         17         18         19         20
    16  H    0.000000
    17  H    1.748647   0.000000
    18  H    1.790744   1.790750   0.000000
    19  H    3.861995   3.862178   3.297102   0.000000
    20  H    5.750271   5.749571   5.665212   2.532792   0.000000
    21  H    7.213186   7.212739   8.084172   6.235616   4.599758
                   21
    21  H    0.000000
 Stoichiometry    C8H9O4(1+)
 Framework group  C1[X(C8H9O4)]
 Deg. of freedom    57
 Full point group                 C1      NOp   1
 Largest Abelian subgroup         C1      NOp   1
 Largest concise Abelian subgroup C1      NOp   1
                         Standard orientation:                         
 ---------------------------------------------------------------------
 Center     Atomic      Atomic             Coordinates (Angstroms)
 Number     Number       Type             X           Y           Z
 ---------------------------------------------------------------------
      1          6           0        1.530664   -1.268444   -0.000202
      2          6           0        2.269966   -0.089121   -0.000030
      3          6           0        1.637540    1.162527    0.000008
      4          6           0        0.269095    1.209005   -0.000025
      5          6           0       -0.554125    0.034128   -0.000171
      6          6           0        0.155395   -1.213447   -0.000281
      7          8           0       -0.575006   -2.331551   -0.000487
      8          6           0       -1.973277    0.089668    0.000125
      9          6           0       -2.891055   -1.075258    0.000504
     10          8           0       -2.621472    1.211424    0.000189
     11          8           0       -0.374484    2.401408   -0.000031
     12          8           0        3.590652   -0.219388    0.000026
     13          1           0        2.057483   -2.215755   -0.000323
     14          1           0        2.221197    2.077377   -0.000158
     15          1           0       -0.016276   -3.121595   -0.000486
     16          1           0       -2.711832   -1.704036   -0.873894
     17          1           0       -2.711277   -1.704098    0.874753
     18          1           0       -3.915222   -0.707313    0.000841
     19          1           0       -2.025803    1.994718   -0.000063
     20          1           0        0.220962    3.163940    0.001973
     21          1           0        4.058028    0.627270    0.000204
 ---------------------------------------------------------------------
 Rotational constants (GHZ):      1.5344213      0.7659225      0.5124976
 Standard basis: 6-31+G(d,p) (6D, 7F)
 There are   273 symmetry adapted cartesian basis functions of A   symmetry.
 There are   273 symmetry adapted basis functions of A   symmetry.
   273 basis functions,   447 primitive gaussians,   273 cartesian basis functions
    44 alpha electrons       44 beta electrons
       nuclear repulsion energy       716.1669270990 Hartrees.
 NAtoms=   21 NActive=   21 NUniq=   21 SFac= 1.00D+00 NAtFMM=   60 NAOKFM=F Big=F
 Integral buffers will be    131072 words long.
 Raffenetti 2 integral format.
 Two-electron integral symmetry is turned on.
 Nuclear repulsion after empirical dispersion term =      716.1489774640 Hartrees.
 One-electron integrals computed using PRISM.
 NBasis=   273 RedAO= T EigKep=  1.32D-06  NBF=   273
 NBsUse=   273 1.00D-06 EigRej= -1.00D+00 NBFU=   273
 Initial guess from the checkpoint file:  "camb3lypTHAPyang.chk"
 B after Tr=     0.000000   -0.000000    0.000000
         Rot=    0.999996    0.000006   -0.000009    0.002744 Ang=   0.31 deg.
 ExpMin= 4.38D-02 ExpMax= 5.48D+03 ExpMxC= 8.25D+02 IAcc=2 IRadAn=         4 AccDes= 0.00D+00
 Harris functional with IExCor=20419 and IRadAn=       4 diagonalized for initial guess.
 HarFok:  IExCor=20419 AccDes= 0.00D+00 IRadAn=         4 IDoV= 1 UseB2=F ITyADJ=14
 ICtDFT=  3500011 ScaDFX=  1.000000  1.000000  1.000000  1.000000
 FoFCou: FMM=F IPFlag=           0 FMFlag=      100000 FMFlg1=           0
         NFxFlg=           0 DoJE=T BraDBF=F KetDBF=T FulRan=T
         wScrn=  0.000000 ICntrl=     500 IOpCl=  0 I1Cent=   200000004 NGrid=           0
         NMat0=    1 NMatS0=      1 NMatT0=    0 NMatD0=    1 NMtDS0=    0 NMtDT0=    0
 Petite list used in FoFCou.
 Requested convergence on RMS density matrix=1.00D-08 within 128 cycles.
 Requested convergence on MAX density matrix=1.00D-06.
 Requested convergence on             energy=1.00D-06.
 No special actions if energy rises.
 SCF Done:  E(RCAM-B3LYP) =  -610.713958886     A.U. after   12 cycles
            NFock= 12  Conv=0.68D-08     -V/T= 2.0087
 Calling FoFJK, ICntrl=      2127 FMM=F ISym2X=0 I1Cent= 0 IOpClX= 0 NMat=1 NMatS=1 NMatT=0.
 ***** Axes restored to original set *****
 -------------------------------------------------------------------
 Center     Atomic                   Forces (Hartrees/Bohr)
 Number     Number              X              Y              Z
 -------------------------------------------------------------------
      1        6          -0.000688269   -0.001353354    0.000000579
[...]
 65,0.00875242,-0.00316802,0.00000189,-0.00199238,0.00027373,-0.0000001
 0,0.00347457,-0.03722856,0.00000103,-0.06094046,-0.00745990,0.00001267
 ,0.01171543,0.01803108,-0.00000147,0.00036587,-0.00570106,0.00000098,-
 0.12728393,-0.37646799,0.00005848,-0.01433676,-0.06135127,0.00000854,-
 0.03806336,0.72718192,0.00000058,0.00000008,-0.00156685,-0.00000178,-0
 .00000086,0.00025732,0.00000197,0.00000111,-0.00013384,-0.00000266,0.0
 0000527,-0.00350245,0.00001523,0.00001421,0.01979332,0.00000252,-0.000
 00375,0.00865068,-0.00000095,0.00000133,0.00004737,0.00004523,0.000057
 65,-0.06158225,0.00000098,0.00000256,0.01041791,-0.00008621,-0.0000517
 5,0.05417894,0.00999333,-0.00774125,0.00000059,-0.00541314,0.01936808,
 -0.00000560,-0.03587190,-0.06199869,-0.00000505,-0.17361664,-0.0567195
 9,-0.00006109,0.03275006,0.01629467,0.00000279,-0.01799141,-0.00313685
 ,0.00000155,0.00369527,0.00025790,0.00000084,-0.02057414,-0.01474762,0
 .00000711,0.00098619,0.00174597,-0.00000030,-0.01907164,0.03407143,-0.
 00000293,0.45475283,0.00575989,-0.00738217,0.00000004,0.00348428,0.013
 89525,0.00000007,-0.02800669,-0.01862098,-0.00000979,-0.11032676,-0.27
 631616,0.00000311,-0.00182129,-0.04633355,-0.00000005,-0.00363816,-0.0
 0405109,0.00000263,0.00012327,-0.00290607,0.00000072,-0.02146383,-0.00
 519545,0.00000496,0.00057469,-0.00213500,0.00000028,0.01988869,0.00912
 171,-0.00001049,-0.12361230,0.68519612,0.00000212,-0.00000371,-0.00156
 137,0.00000155,0.00000622,0.01009051,-0.00000623,-0.00000207,0.0133754
 0,-0.00002775,0.00006373,-0.04431703,0.00002034,0.00001159,0.00336542,
 -0.00000719,0.00000271,0.00277648,0.00000071,0.00000202,0.00048134,0.0
 0000044,-0.00000354,-0.00174361,-0.00000014,-0.00000206,0.00052889,-0.
 00001183,0.00000099,0.00364012,0.00044328,-0.00055363,0.02756871,-0.06
 352457,0.02039499,-0.00000491,-0.37913629,-0.04909747,-0.00000538,-0.0
 4821179,-0.01720749,0.00000313,0.01295113,-0.00448969,-0.00000168,-0.0
 2196556,-0.00166283,0.00000186,0.02047923,0.00593298,-0.00000038,-0.00
 371854,0.00274729,-0.00000058,0.01847806,0.00411042,-0.00000291,-0.000
 64012,0.00228823,-0.00000093,-0.00526576,-0.00846675,0.00000186,-0.001
 27073,-0.00176845,0.00000051,0.60935833,0.05262996,0.00813154,0.000001
 48,0.00151068,-0.12172340,0.00000701,-0.04821069,0.00167090,0.00000278
 ,0.00827380,-0.00751700,-0.00000062,-0.00054441,0.00410855,0.00000006,
 -0.00720872,-0.00866963,0.00000093,0.00411245,-0.00161259,0.00000087,-
 0.00026315,0.00032091,0.00000096,-0.00000355,0.00010195,-0.00000100,0.
 00001953,0.00097026,-0.00000014,-0.00408896,-0.00125808,-0.00000090,-0
 .16912784,0.54275135,-0.00000884,0.00000201,0.00782576,-0.00001385,0.0
 0000542,-0.05010516,0.00000306,-0.00000050,0.01379678,-0.00000194,-0.0
 0000080,0.00816092,-0.00000161,-0.00000059,-0.00111011,0.00000160,0.00
 000187,0.00489824,-0.00000034,0.00000020,-0.00070634,0.00000130,0.0000
 0042,-0.00027467,0.00000009,0.00000029,0.00009935,-0.00000027,-0.00000
 074,-0.00000375,0.00000150,0.00000096,-0.00156681,0.00004806,-0.000075
 87,0.03295172,-0.12925743,-0.12535918,0.00001310,0.01377844,0.01636487
 ,-0.00000239,-0.00205040,0.00283120,0.00000022,-0.00126440,0.00065010,
 -0.00000030,-0.00402953,0.00203539,-0.00000043,-0.01126868,-0.02780614
 ,0.00000332,0.00305066,-0.00097311,0.00000066,0.00007173,-0.00145426,-
 0.00000004,0.00006064,0.00001000,-0.00000012,-0.00053500,-0.00017290,0
 .00000026,0.00048594,0.00015781,0.00000001,0.00051664,-0.00090766,0.00
 000038,0.13161712,-0.12393235,-0.28138873,0.00003108,-0.01565727,-0.01
 987466,0.00000259,0.00361633,-0.00227687,0.00000121,0.00112563,0.00005
 681,-0.00000043,0.00066867,0.00079394,0.00000070,0.00332759,0.00303948
 ,0.00000023,0.00085393,0.00247215,-0.00000099,0.00034365,0.00021881,0.
 00000020,0.00003331,0.00006491,-0.00000019,0.00001558,0.00007186,-0.00
 000012,-0.00023486,0.00015056,-0.00000006,-0.00137692,0.00207870,-0.00
 000064,0.13255571,0.29458195,0.00001239,0.00003243,-0.02982695,0.00000
 346,0.00000304,0.00381305,-0.00000086,0.00000022,0.00450127,-0.0000006
 3,0.00000017,-0.00124633,0.00000043,0.00000132,0.00545342,-0.00000019,
 -0.00000164,0.00318207,-0.00000005,-0.00000074,-0.00512281,-0.00000038
 ,-0.00000034,0.00105300,0.00000007,-0.00000007,-0.00008473,-0.00000006
 ,0.,-0.00061955,0.00000048,-0.00000047,-0.00010731,-0.00000035,-0.0000
 0089,-0.00310992,-0.00001438,-0.00003357,0.02119180,-0.00140417,-0.002
 88660,0.00000077,0.01121195,-0.01433459,-0.00000096,-0.14088706,0.1279
 6209,0.00001107,-0.01280749,0.02870275,0.00000172,-0.00416335,-0.00258
 433,0.00000010,-0.00103102,-0.00074362,-0.00000010,0.00034530,-0.00002
 822,0.,-0.00005736,0.00188472,-0.00000086,-0.00035512,-0.00030427,0.00
 000040,0.00018467,-0.00049166,0.00000003,0.00326673,0.00075823,-0.0000
 0114,0.00252320,0.00019806,0.00000001,0.00061460,-0.00065051,0.0000003
 3,0.14501120,-0.00376886,-0.00267548,-0.00000013,0.01861255,-0.0187377
 1,-0.00000168,0.12832972,-0.26561935,-0.00001549,-0.00344996,0.0034697
 7,-0.00000031,-0.00084545,0.00087757,-0.00000035,-0.00130772,-0.000113
 81,-0.00000020,0.00029718,0.00008946,0.00000014,-0.00049814,-0.0000192
 5,0.00000024,-0.00003899,-0.00000167,-0.00000022,0.00002621,0.00041118
 ,-0.00000008,-0.00098361,0.00234219,-0.00000119,0.00058557,0.00283234,
 0.00000079,0.00087552,-0.00085177,0.00000024,-0.13686043,0.27834764,0.
 00000099,0.00000053,0.00401209,0.00000071,0.00000375,0.00246737,0.0000
 1281,-0.00002410,-0.02779546,-0.00000061,0.00000256,0.00397594,-0.0000
 0050,-0.00000054,0.00539694,-0.00000038,0.00000022,-0.00128490,0.00000
 029,-0.00000068,-0.00005474,-0.00000053,0.00000031,0.00109126,-0.00000
 033,-0.00000028,-0.00038195,0.00000029,0.00000029,-0.00003269,0.000001
 34,-0.00000255,-0.00537049,-0.00000124,-0.00000020,-0.00355757,-0.0000
 0011,0.00000015,0.00043072,-0.00001346,0.00001712,0.01922483,-0.000709
 83,0.00525456,-0.00000080,-0.00043472,-0.00140310,0.00000061,0.0003930
 6,0.00040750,-0.00000065,0.00034152,0.00087048,0.00000037,-0.00131782,
 0.00357675,-0.00000104,0.01665315,0.02560947,-0.00000259,-0.21902929,-
 0.25466370,0.00002307,-0.00083654,0.00031376,-0.00000022,-0.00152718,-
 0.00008963,0.00000076,0.00021606,0.00039983,-0.00000002,-0.00042787,-0
 .00007138,-0.00000018,-0.00009918,0.00001138,-0.00000011,-0.00154465,-
 0.00079591,-0.00000003,-0.00007867,-0.00014313,0.00000008,0.20846812,-
 0.00446638,0.00614701,-0.00000135,0.00113129,-0.00352431,0.00000034,0.
 00142774,0.00149984,-0.00000035,-0.00312992,-0.00044184,0.00000037,0.0
 0654068,-0.00136576,0.00000004,-0.02048026,-0.03967080,0.00000456,-0.2
 0240120,-0.33728456,0.00003561,-0.00179302,-0.00052482,0.00000005,0.00
 023883,0.00000888,0.00000043,0.00068884,0.00097737,-0.00000029,0.00082
 083,0.00049227,0.00000061,-0.00155888,0.00066705,-0.00000018,0.0012953
 0,0.00051614,0.00000004,0.00006917,0.00008990,0.00000013,0.22189361,0.
 37272947,0.00000054,-0.00000115,-0.00233366,-0.00000005,0.00000006,-0.
 00096118,0.00000022,0.,-0.00011838,0.00000043,0.00000052,0.00135969,-0
 .00000140,0.00000054,0.00350908,0.00000393,0.00000792,-0.00184914,0.00
 001540,0.00003205,-0.00875772,-0.00000014,-0.00000025,-0.00064121,0.00
 000059,-0.00000007,0.00040975,-0.00000018,-0.00000044,-0.00022353,-0.0
 0000015,0.,0.00001071,0.00000018,-0.00000021,0.00001928,-0.00000033,-0
 .00000002,0.00097600,0.00000002,-0.00000007,0.00005389,-0.00001946,-0.
 00003963,0.00803218,0.00007408,-0.00011870,0.00017801,0.00052660,0.000
 72169,0.00012751,-0.00069688,-0.00083815,-0.00030623,0.00125881,-0.001
 20716,0.00097592,-0.00421018,-0.00036618,0.00130080,-0.00143982,0.0041
 5318,-0.00058912,-0.00114168,-0.00254619,-0.00077661,0.00794089,0.0076
 3506,-0.02087457,-0.05576701,-0.02202170,0.03853828,-0.00122064,0.0023
 0806,0.00073205,-0.00001072,0.00039541,0.00010614,-0.00060429,-0.00010
 187,0.00000010,-0.00004183,-0.00003697,-0.00005221,0.00000266,-0.00000
 287,-0.00006879,-0.00008677,-0.00026062,0.00012931,0.05553849,-0.00015
 593,-0.00000486,0.00023083,0.00035009,0.00005595,0.00002700,-0.0001334
 1,-0.00024627,0.00021916,0.00027672,-0.00076233,-0.00078938,-0.0014383
 8,0.00010867,-0.00145144,0.00026387,0.00157341,0.00047175,-0.00088378,
 -0.00144628,-0.00098869,-0.00369137,-0.01810343,0.02119354,-0.02435925
 ,-0.13276112,0.13487863,0.00309297,-0.00312145,-0.00032869,0.00032878,
 0.00030004,-0.00011376,-0.00037899,-0.00002341,-0.00004321,-0.00003391
 ,0.00000050,-0.00002515,-0.00001558,0.00000146,0.00004957,-0.00038444,
 0.00008156,-0.00024392,0.02597419,0.14876407,0.00069901,-0.00052284,-0
 .00026061,-0.00027695,0.00046487,-0.00004324,-0.00011231,-0.00009769,0
 .00000807,-0.00000032,0.00021273,0.00013243,0.00028444,0.00023346,0.00
 066698,-0.00082836,0.00133420,0.00015099,0.00149140,-0.00041363,0.0003
 9568,-0.00135201,-0.00187434,0.00171460,0.03682252,0.13331529,-0.22111
 503,-0.00008266,-0.00202973,-0.00090512,-0.00001817,-0.00028868,-0.000
 08345,0.00030094,-0.00007826,0.00000557,-0.00003072,-0.00001835,0.0000
 4283,-0.00000440,-0.00000950,-0.00000283,0.00040038,-0.00006170,0.0000
 5082,-0.04082463,-0.14258660,0.23845750,0.00007328,-0.00011848,-0.0001
 7799,0.00052670,0.00072097,-0.00012780,-0.00069625,-0.00083788,0.00030
 675,0.00125767,-0.00120756,-0.00097597,-0.00420974,-0.00036660,-0.0012
 9837,-0.00143968,0.00415337,0.00058851,-0.00114471,-0.00254731,0.00077
 830,0.00795753,0.00764020,0.02086764,-0.05582611,-0.02213288,-0.038650
 96,-0.00122159,0.00231170,-0.00073312,-0.00001082,0.00039554,-0.000105
 37,-0.00060436,-0.00010186,-0.00000006,-0.00004185,-0.00003694,0.00005
 234,0.00000261,-0.00000286,0.00006873,-0.00008742,-0.00026106,-0.00012
 884,0.00009887,0.00167654,0.00358871,0.05560282,-0.00015640,-0.0000045
 0,-0.00023084,0.00035054,0.00005568,-0.00002666,-0.00013341,-0.0002470
 2,-0.00021936,0.00027706,-0.00076166,0.00078924,-0.00143811,0.00010841
 ,0.00145186,0.00026397,0.00157342,-0.00047195,-0.00088505,-0.00144654,
 0.00098960,-0.00370718,-0.01810908,-0.02118070,-0.02447029,-0.13286964
 ,-0.13489931,0.00309435,-0.00312234,0.00032636,0.00032930,0.00030016,0
 .00011434,-0.00037930,-0.00002329,0.00004301,-0.00003389,0.00000052,0.
 00002521,-0.00001558,0.00000162,-0.00004951,-0.00038485,0.00008140,0.0
 0024423,0.00168659,0.01100114,0.01547055,0.02609504,0.14887968,-0.0006
 9940,0.00052319,-0.00026066,0.00027638,-0.00046615,-0.00004267,0.00011
 324,0.00009816,0.00000734,-0.00000132,-0.00021094,0.00013301,-0.000279
 92,-0.00023316,0.00066735,0.00082957,-0.00133825,0.00015184,-0.0014905
 8,0.00041703,0.00039522,0.00134653,0.00187976,0.00170595,-0.03693136,-
 0.13334064,-0.22096136,0.00008166,0.00202870,-0.00090485,0.00001822,0.
 00028825,-0.00008302,-0.00030022,0.00007867,0.00000533,0.00003079,0.00
 001844,0.00004282,0.00000436,0.00000969,-0.00000275,-0.00040031,0.0000
 6157,0.00005117,-0.00360528,-0.01548461,-0.02084370,0.04094950,0.14260
 648,0.23829125,-0.00004685,-0.00002782,-0.00000009,0.00012021,-0.00001
 902,0.00000015,-0.00003593,0.00035908,-0.00000030,-0.00083873,-0.00092
 292,0.00000055,0.00032136,0.00333911,0.00000025,0.00039827,0.00006135,
 0.,-0.00005579,-0.00041938,0.00000031,-0.02378243,-0.00690020,0.000008
 74,-0.30058624,-0.09010004,0.00010522,0.00281741,-0.00315944,-0.000000
 96,0.00057727,0.00008245,-0.00000015,-0.00007307,0.00000221,-0.0000000
 5,-0.00000504,-0.00000460,-0.00000001,-0.00007888,-0.00000276,0.,-0.00
 003842,0.00015545,0.00000008,-0.00080137,-0.00019635,0.00000487,-0.000
 81812,-0.00020091,-0.00000285,0.32289077,-0.00038932,0.00042909,-0.000
 00010,-0.00010118,-0.00045819,0.00000019,0.00033036,-0.00025615,-0.000
 00036,0.00101740,0.00087005,0.00000016,0.00126955,-0.00479224,0.000000
 77,0.00041111,-0.00178177,0.00000023,-0.00205753,0.00014252,0.00000062
 ,0.03137895,0.00854057,-0.00001329,-0.09931248,-0.08640169,0.00004004,
 0.00047683,0.00070857,-0.00000020,-0.00024570,-0.00002779,0.00000028,0
 .00005364,0.00007665,-0.00000008,0.00005255,0.00001807,0.,0.00013449,0
 .00002260,0.00000007,-0.00035771,0.00013718,0.00000014,-0.01549950,-0.
 00485271,-0.00294937,-0.01550547,-0.00485352,0.00296329,0.09784029,0.0
 9256248,0.00000004,-0.00000006,-0.00021079,-0.00000009,-0.00000006,0.0
 0004112,0.00000007,-0.00000003,-0.00022535,0.00000011,0.00000073,0.000
 82047,0.00000053,-0.00000034,0.00182987,0.00000002,-0.00000043,-0.0003
 4985,-0.00000021,0.00000063,0.00104373,0.00000100,0.00000234,-0.001970
 55,0.00010675,0.00003554,-0.05068321,-0.00000117,0.00000037,-0.0009407
 7,-0.00000040,-0.00000012,-0.00010181,0.00000007,0.,0.00000014,0.,0.,0
 .00002396,0.00000004,-0.00000001,-0.00005541,0.00000010,-0.00000009,0.
 00010913,0.02410613,0.00631559,0.00224501,-0.02409747,-0.00631193,0.00
 226397,-0.00011545,-0.00004203,0.04629836,-0.00368339,0.00313082,-0.00
 000014,0.00163133,-0.00433575,0.00000115,0.00350832,0.00392211,0.00000
 136,-0.00893527,-0.02661855,0.00000184,-0.01488652,-0.00101113,0.00000
 115,0.00449813,0.00417237,-0.00000075,-0.00067479,0.00010670,-0.000000
 16,0.03896538,-0.00933549,-0.00000834,-0.00257992,-0.00462158,0.000002
 90,-0.20906228,0.19521697,0.00002535,0.00296340,0.00615904,0.00001676,
 -0.00140611,0.00089669,-0.00000050,-0.00014698,0.00006721,0.,-0.000472
 08,0.00023381,0.00000010,0.00011468,0.00001894,-0.00000005,0.00049459,
 -0.00039626,-0.00003370,0.00049493,-0.00039619,0.00003308,-0.00005378,
 0.00056565,-0.00000005,0.18455307,0.00306355,-0.00179879,0.00000032,-0
 .00278369,0.00263458,-0.00000106,-0.00124988,-0.00306209,0.00000025,-0
 .00545344,0.01781846,-0.00000009,0.01136192,0.00201011,-0.00000182,-0.
 00277536,-0.00520808,0.00000034,0.00011577,0.00137299,-0.00000014,0.00
 676921,-0.04738407,0.00000270,-0.00265455,0.00007428,0.00000230,0.1677
 3170,-0.26731320,-0.00001542,-0.00512354,-0.01698175,0.00000226,0.0023
 3619,-0.00063268,0.00000031,0.00020537,-0.00004592,0.00000003,0.000425
 04,-0.00007742,-0.00000010,-0.00011071,-0.00021102,0.00000009,0.000254
 44,-0.00050773,-0.00017694,0.00025422,-0.00050709,0.00017709,0.0000949
 7,-0.00010108,-0.00000013,-0.17326212,0.32092701,0.00000042,-0.0000001
 7,0.00020069,-0.00000053,0.00000002,0.00022579,-0.00000082,-0.00000045
 ,0.00047110,-0.00000066,0.00000164,0.00044534,0.00000103,-0.00000037,-
 0.00314950,-0.00000091,-0.00000090,-0.00091926,0.00000037,0.00000012,-
 0.00018201,-0.00001041,0.00000816,-0.00043945,0.00000450,0.00000205,0.
 01151084,0.00002866,-0.00002253,-0.02758886,0.00001366,0.00000958,-0.0
 0318043,0.00000033,0.00000026,-0.00009959,0.00000006,0.00000006,0.0001
 0338,0.00000013,0.00000007,-0.00000210,-0.00000011,0.,0.00009785,0.000
 97758,-0.00141239,-0.00067557,-0.00097858,0.00141146,-0.00067529,-0.00
 000035,-0.00000030,-0.00018822,-0.00002668,0.00000993,0.02499243,0.000
 54142,-0.00038279,0.00000059,-0.00055767,0.00135385,0.00000036,-0.0002
 1077,-0.00483777,-0.00000143,0.01863557,-0.01854052,0.00003396,-0.0004
 1924,-0.00391867,-0.00000097,0.00014015,-0.00110114,-0.00000084,-0.000
 32877,0.00003672,-0.00000033,-0.00247134,-0.00197153,0.00000095,0.0001
 0724,0.00013519,-0.00000046,-0.00331051,0.00342625,0.00000283,-0.23633
 392,0.25193781,-0.00043148,-0.00017326,0.00004906,0.,-0.00007496,0.000
 12508,-0.00000031,-0.00142682,0.00068923,0.00000112,0.00002655,-0.0000
 5829,-0.00000003,0.00003551,0.00006785,0.00000101,0.00003561,0.0000677
 2,-0.00000107,0.00007227,-0.00004027,0.,0.00491245,0.00089445,-0.00000
 792,0.22094509,-0.00128665,0.00128447,0.00000036,-0.00066702,-0.003116
 92,-0.00000399,0.00347606,0.00579446,-0.00000275,0.02179889,-0.0343611
 0,0.00003712,-0.00600955,-0.00144960,0.00000527,0.00307032,-0.00060207
 ,-0.00000106,-0.00089072,0.00051554,-0.00000028,0.00086439,-0.00060154
 ,-0.00000089,-0.00009545,0.00042952,-0.00000026,-0.00319561,0.00275709
 ,0.00000289,0.20539007,-0.33026950,0.00047532,0.00131640,0.00061436,0.
 00000052,-0.00009505,0.00005862,0.00000023,-0.00134737,0.00031296,0.00
 000356,0.00006572,-0.00029439,0.00000007,-0.00005917,-0.00002113,0.000
 04791,-0.00005920,-0.00002119,-0.00004777,0.00002082,0.00001953,0.,0.0
 0581288,-0.00134145,-0.00000591,-0.22768793,0.36019318,-0.00000055,0.0
 0000142,-0.00007960,-0.00000065,-0.00000210,-0.00083731,0.00000082,-0.
 00000250,-0.00198055,-0.00000073,-0.00003129,-0.00257482,-0.00001006,-
 0.00000595,0.00313424,0.00000338,-0.00000056,0.00130232,-0.00000017,-0
 .00000194,-0.00001309,0.00000266,0.00000371,-0.00069518,-0.00000026,0.
 00000047,-0.00046098,0.00001108,-0.00000668,0.00099625,-0.00039763,0.0
 0055536,-0.00384414,-0.00000109,-0.00000015,0.00011450,0.00000003,-0.0
 0000009,0.00005895,0.00000224,0.00000135,0.00100547,0.00000014,-0.0000
 0020,0.00003442,-0.00004677,0.00008978,0.00003401,0.00004642,-0.000090
 15,0.00003394,0.00000004,-0.00000006,0.00003563,-0.00001339,0.00000014
 ,-0.00100385,0.00040399,-0.00051025,0.00460042,-0.00414501,-0.00381744
 ,0.00000030,-0.02808594,0.04384085,-0.00000749,0.00453457,0.00115131,0
 .00000110,-0.00230037,0.00022182,-0.00000028,0.00202006,-0.00045500,-0
 .00000004,-0.00101442,0.00212993,-0.00000066,-0.00009686,-0.00077782,0
 .00000025,-0.00182844,-0.00058147,0.00000072,0.00011264,-0.00022459,-0
 .00000020,0.00065164,0.00068178,-0.00000026,0.00112192,0.00099173,-0.0
 0000039,-0.13761294,0.16285489,-0.00002853,0.00006498,-0.00000635,-0.0
 0000002,-0.00040090,-0.00174503,-0.00000054,0.00000522,0.00012893,-0.0
 0000008,0.00005069,0.00003665,-0.00002904,0.00005062,0.00003657,0.0000
 2898,0.00001708,-0.00002165,0.,-0.00023516,-0.00009352,0.00000024,-0.0
 0014459,-0.00042184,0.00000050,0.16723521,-0.00348243,0.00233320,0.000
 00012,-0.00417435,0.00516087,-0.00000001,-0.00562457,0.00187124,-0.000
 00202,0.00103413,-0.00101468,0.00000088,-0.00226718,-0.00026526,0.0000
 0004,0.00225046,0.00087090,0.00000050,-0.00030004,0.00009038,-0.000000
 42,0.00205693,0.00046707,-0.00000127,-0.00002423,0.00024963,0.00000057
 ,-0.00053409,-0.00108194,0.00000035,0.00002593,-0.00032075,0.00000084,
 0.21574889,-0.42286447,0.00006681,-0.00019771,0.00031493,-0.00000006,0
 .00012821,-0.00070222,-0.00000030,0.00000150,-0.00011055,0.00000015,-0
 .00006953,-0.00003609,0.00002863,-0.00006948,-0.00003616,-0.00002877,-
 0.00000229,-0.00000216,0.00000002,-0.00032612,0.00033493,-0.00000032,-
 0.00024430,0.00009917,-0.00000031,-0.20392974,0.41464195,-0.00000029,0
 .00000031,0.00459443,0.00000130,-0.00000003,-0.00411159,0.00000076,0.0
 0000028,-0.00221500,-0.00000013,0.00000043,-0.00099244,0.00000061,-0.0
 0000011,-0.00007967,0.00000011,0.00000049,0.00271536,0.00000002,-0.000
 00027,-0.00091682,-0.00000043,-0.00000019,0.00005220,-0.00000004,-0.00
 000010,-0.00011954,0.00000013,0.00000017,0.00002261,-0.00000004,-0.000
 00017,0.00012191,-0.00003727,0.00006523,-0.00734366,0.,-0.00000024,-0.
 00075569,-0.00000028,-0.00000041,0.00088236,0.00000002,0.00000006,0.00
 017086,-0.00002761,-0.00000800,0.00002505,0.00002761,0.00000808,0.0000
 2510,0.00000002,0.00000002,0.00001458,0.00000008,-0.00000006,0.0000567
 3,0.00000001,-0.00000009,0.00013936,0.00003542,-0.00006541,0.00771387\
 \0.00000437,-0.00002861,-0.00000052,-0.00000989,0.00001080,0.00000032,
 -0.00001905,0.00001006,0.00000082,0.00002189,0.00003362,-0.00000452,0.
 00004324,0.00002753,-0.00000217,-0.00001645,-0.00002454,-0.00000103,-0
 .00000167,0.00000103,0.00000101,-0.00003877,-0.00001478,0.00000863,0.0
 0001355,0.00000988,-0.00000394,0.00001587,0.00002104,-0.00000269,-0.00
 001910,0.00000246,0.00001289,-0.00000119,0.00000178,0.00000018,-0.0000
 0417,0.00000352,0.00000025,0.00000235,-0.00000289,0.00000185,0.0000043
 3,0.00000588,-0.00000040,-0.00000052,-0.00000127,-0.00000111,0.0000008
 2,-0.00000336,0.00000117,-0.00000024,0.00000169,-0.00000045,-0.0000002
 7,-0.00003956,-0.00000079,-0.00000036,-0.00000641,-0.00000891,0.000005
 24,-0.00000788,-0.00000058\\\@


 IN THE FIGHT BETWEEN YOU AND THE WORLD, BACK THE WORLD

                                        -- FRANZ KAFKA
 Job cpu time:       0 days  1 hours  6 minutes 54.1 seconds.
 File lengths (MBytes):  RWF=    165 Int=      0 D2E=      0 Chk=      7 Scr=      1
 Normal termination of Gaussian 09 at Sun Jun 16 16:17:50 2024.
