 Entering Gaussian System, Link 0=g09
 Input=pbeTHAPyanggd3.gjf
 Output=pbeTHAPyanggd3.log
 Initial command:
 /home/phzd/g09E/g09/l1.exe "/home/phzd/g09E/scratch/Gau-100741.inp" -scrdir="/home/phzd/g09E/scratch/"
 Default is to use a total of  18 processors:
                               18 via shared-memory
                                1 via Linda
 Entering Link 1 = /home/phzd/g09E/g09/l1.exe PID=    100743.
  
 Copyright (c) 1988,1990,1992,1993,1995,1998,2003,2009,2015,
            Gaussian, Inc.  All Rights Reserved.
  
 This is part of the Gaussian(R) 09 program.  It is based on
 the Gaussian(R) 03 system (copyright 2003, Gaussian, Inc.),
 the Gaussian(R) 98 system (copyright 1998, Gaussian, Inc.),
 the Gaussian(R) 94 system (copyright 1995, Gaussian, Inc.),
 the Gaussian 92(TM) system (copyright 1992, Gaussian, Inc.),
 the Gaussian 90(TM) system (copyright 1990, Gaussian, Inc.),
 the Gaussian 88(TM) system (copyright 1988, Gaussian, Inc.),
 the Gaussian 86(TM) system (copyright 1986, Carnegie Mellon
 University), and the Gaussian 82(TM) system (copyright 1983,
 Carnegie Mellon University). Gaussian is a federally registered
 trademark of Gaussian, Inc.
  
 This software contains proprietary and confidential information,
 including trade secrets, belonging to Gaussian, Inc.
  
 This software is provided under written license and may be
 used, copied, transmitted, or stored only in accord with that
 written license.
  
 The following legend is applicable only to US Government
 contracts under FAR:
  
                    RESTRICTED RIGHTS LEGEND
  
 Use, reproduction and disclosure by the US Government is
 subject to restrictions as set forth in subparagraphs (a)
 and (c) of the Commercial Computer Software - Restricted
 Rights clause in FAR 52.227-19.
  
 Gaussian, Inc.
 340 Quinnipiac St., Bldg. 40, Wallingford CT 06492
  
  
 ---------------------------------------------------------------
 Warning -- This program may not be used in any manner that
 competes with the business of Gaussian, Inc. or will provide
 assistance to any competitor of Gaussian, Inc.  The licensee
 of this program is prohibited from giving any competitor of
 Gaussian, Inc. access to this program.  By using this program,
 the user acknowledges that Gaussian, Inc. is engaged in the
 business of creating and licensing software in the field of
 computational chemistry and represents and warrants to the
 licensee that it is not a competitor of Gaussian, Inc. and that
 it will not use this program in any manner prohibited above.
 ---------------------------------------------------------------
  

 Cite this work as:
 Gaussian 09, Revision E.01,
 M. J. Frisch, G. W. Trucks, H. B. Schlegel, G. E. Scuseria, 
 M. A. Robb, J. R. Cheeseman, G. Scalmani, V. Barone, B. Mennucci, 
 G. A. Petersson, H. Nakatsuji, M. Caricato, X. Li, H. P. Hratchian, 
 A. F. Izmaylov, J. Bloino, G. Zheng, J. L. Sonnenberg, M. Hada, 
 M. Ehara, K. Toyota, R. Fukuda, J. Hasegawa, M. Ishida, T. Nakajima, 
 Y. Honda, O. Kitao, H. Nakai, T. Vreven, J. A. Montgomery, Jr., 
 J. E. Peralta, F. Ogliaro, M. Bearpark, J. J. Heyd, E. Brothers, 
 K. N. Kudin, V. N. Staroverov, T. Keith, R. Kobayashi, J. Normand, 
 K. Raghavachari, A. Rendell, J. C. Burant, S. S. Iyengar, J. Tomasi, 
 M. Cossi, N. Rega, J. M. Millam, M. Klene, J. E. Knox, J. B. Cross, 
 V. Bakken, C. Adamo, J. Jaramillo, R. Gomperts, R. E. Stratmann, 
 O. Yazyev, A. J. Austin, R. Cammi, C. Pomelli, J. W. Ochterski, 
 R. L. Martin, K. Morokuma, V. G. Zakrzewski, G. A. Voth, 
 P. Salvador, J. J. Dannenberg, S. Dapprich, A. D. Daniels, 
 O. Farkas, J. B. Foresman, J. V. Ortiz, J. Cioslowski, 
 and D. J. Fox, Gaussian, Inc., Wallingford CT, 2013.
 
 ******************************************
 Gaussian 09:  ES64L-G09RevE.01 30-Nov-2015
                20-Jun-2024 
 ******************************************
 %chk=pbeTHAPyang.chk
 --------------------------------------
 # opt freq pbepbe/6-31+g(d,p) em=gd3bj
 --------------------------------------
 1/14=-1,18=20,19=15,26=3,38=1/1,3;
 2/9=110,12=2,17=6,18=5,40=1/2;
 3/5=1,6=6,7=111,11=2,16=1,25=1,30=1,71=1,74=1009,124=41/1,2,3;
 4//1;
 5/5=2,38=5/2;
 6/7=2,8=2,9=2,10=2,28=1/1;
 7//1,2,3,16;
 1/14=-1,18=20,19=15,26=3/3(2);
 2/9=110/2;
 99//99;
 2/9=110/2;
 3/5=1,6=6,7=111,11=2,16=1,25=1,30=1,71=1,74=1009,124=41/1,2,3;
 4/5=5,16=3,69=1/1;
 5/5=2,38=5/2;
 7//1,2,3,16;
 1/14=-1,18=20,19=15,26=3/3(-5);
 2/9=110/2;
 6/7=2,8=2,9=2,10=2,19=2,28=1/1;
 99/9=1/99;
 ----------
 [No Title]
 ----------
 Symbolic Z-matrix:
 Charge =  1 Multiplicity = 1
 C                    -1.55073  -1.26693  -0.00027 
 C                    -2.28677  -0.07618  -0.00034 
 C                    -1.63748   1.17496   0.00028 
 C                    -0.26057   1.21205   0.00054 
 C                     0.55916   0.02433   0.0005 
 C                    -0.16712  -1.22626   0.00053 
 O                     0.55548  -2.35894   0.00127 
 C                     1.98387   0.08227  -0.00032 
 C                     2.91717  -1.08062  -0.00104 
 O                     2.63003   1.21802  -0.00033 
 O                     0.40226   2.40293   0.00038 
 O                    -3.61622  -0.19871  -0.00085 
 H                    -2.08465  -2.21144  -0.00051 
 H                    -2.21322   2.09614   0.00007 
 H                    -0.01678  -3.1415    0.00046 
 H                     2.74814  -1.71364   0.87466 
 H                     2.74642  -1.71386  -0.87626 
 H                     3.94004  -0.70499  -0.00213 
 H                     2.02613   1.99537   0.00028 
 H                    -0.18917   3.17053   0.00103 
 H                    -4.07449   0.65523  -0.00062 
 

 GradGradGradGradGradGradGradGradGradGradGradGradGradGradGradGradGradGrad
 Berny optimization.
 Initialization pass.
                           ----------------------------
                           !    Initial Parameters    !
                           ! (Angstroms and Degrees)  !
 --------------------------                            --------------------------
 ! Name  Definition              Value          Derivative Info.                !
 --------------------------------------------------------------------------------
 ! R1    R(1,2)                  1.3999         estimate D2E/DX2                !
 ! R2    R(1,6)                  1.3842         estimate D2E/DX2                !
 ! R3    R(1,13)                 1.085          estimate D2E/DX2                !
 ! R4    R(2,3)                  1.4096         estimate D2E/DX2                !
 ! R5    R(2,12)                 1.3351         estimate D2E/DX2                !
 ! R6    R(3,4)                  1.3774         estimate D2E/DX2                !
 ! R7    R(3,14)                 1.0863         estimate D2E/DX2                !
 ! R8    R(4,5)                  1.4431         estimate D2E/DX2                !
 ! R9    R(4,11)                 1.3629         estimate D2E/DX2                !
 ! R10   R(5,6)                  1.4462         estimate D2E/DX2                !
 ! R11   R(5,8)                  1.4259         estimate D2E/DX2                !
 ! R12   R(6,7)                  1.3435         estimate D2E/DX2                !
 ! R13   R(7,15)                 0.9695         estimate D2E/DX2                !
 ! R14   R(8,9)                  1.4911         estimate D2E/DX2                !
 ! R15   R(8,10)                 1.3067         estimate D2E/DX2                !
 ! R16   R(9,16)                 1.0937         estimate D2E/DX2                !
 ! R17   R(9,17)                 1.0937         estimate D2E/DX2                !
 ! R18   R(9,18)                 1.0897         estimate D2E/DX2                !
 ! R19   R(10,19)                0.9844         estimate D2E/DX2                !
 ! R20   R(11,20)                0.969          estimate D2E/DX2                !
 ! R21   R(12,21)                0.9691         estimate D2E/DX2                !
 ! A1    A(2,1,6)              120.038          estimate D2E/DX2                !
 ! A2    A(2,1,13)             118.7992         estimate D2E/DX2                !
 ! A3    A(6,1,13)             121.1628         estimate D2E/DX2                !
 ! A4    A(1,2,3)              120.8509         estimate D2E/DX2                !
 ! A5    A(1,2,12)             116.4559         estimate D2E/DX2                !
 ! A6    A(3,2,12)             122.6932         estimate D2E/DX2                !
 ! A7    A(2,3,4)              118.9704         estimate D2E/DX2                !
 ! A8    A(2,3,14)             120.5671         estimate D2E/DX2                !
 ! A9    A(4,3,14)             120.4625         estimate D2E/DX2                !
 ! A10   A(3,4,5)              123.0696         estimate D2E/DX2                !
 ! A11   A(3,4,11)             120.6427         estimate D2E/DX2                !
 ! A12   A(5,4,11)             116.2877         estimate D2E/DX2                !
 ! A13   A(4,5,6)              115.2415         estimate D2E/DX2                !
 ! A14   A(4,5,8)              122.2839         estimate D2E/DX2                !
 ! A15   A(6,5,8)              122.4746         estimate D2E/DX2                !
 ! A16   A(1,6,5)              121.8296         estimate D2E/DX2                !
 ! A17   A(1,6,7)              120.8524         estimate D2E/DX2                !
 ! A18   A(5,6,7)              117.318          estimate D2E/DX2                !
 ! A19   A(6,7,15)             111.2871         estimate D2E/DX2                !
 ! A20   A(5,8,9)              126.4207         estimate D2E/DX2                !
 ! A21   A(5,8,10)             121.9655         estimate D2E/DX2                !
 ! A22   A(9,8,10)             111.6138         estimate D2E/DX2                !
 ! A23   A(8,9,16)             110.7496         estimate D2E/DX2                !
 ! A24   A(8,9,17)             110.7455         estimate D2E/DX2                !
 ! A25   A(8,9,18)             108.5849         estimate D2E/DX2                !
 ! A26   A(16,9,17)            106.3496         estimate D2E/DX2                !
 ! A27   A(16,9,18)            110.2061         estimate D2E/DX2                !
 ! A28   A(17,9,18)            110.2026         estimate D2E/DX2                !
 ! A29   A(8,10,19)            112.5204         estimate D2E/DX2                !
 ! A30   A(4,11,20)            113.2864         estimate D2E/DX2                !
 ! A31   A(2,12,21)            112.9546         estimate D2E/DX2                !
 ! D1    D(6,1,2,3)              0.0062         estimate D2E/DX2                !
 ! D2    D(6,1,2,12)          -179.9865         estimate D2E/DX2                !
 ! D3    D(13,1,2,3)           179.9847         estimate D2E/DX2                !
 ! D4    D(13,1,2,12)           -0.008          estimate D2E/DX2                !
 ! D5    D(2,1,6,5)             -0.0382         estimate D2E/DX2                !
 ! D6    D(2,1,6,7)            179.9668         estimate D2E/DX2                !
 ! D7    D(13,1,6,5)           179.9838         estimate D2E/DX2                !
 ! D8    D(13,1,6,7)            -0.0113         estimate D2E/DX2                !
 ! D9    D(1,2,3,4)              0.0191         estimate D2E/DX2                !
 ! D10   D(1,2,3,14)           179.9904         estimate D2E/DX2                !
 ! D11   D(12,2,3,4)          -179.9886         estimate D2E/DX2                !
 ! D12   D(12,2,3,14)           -0.0174         estimate D2E/DX2                !
 ! D13   D(1,2,12,21)          179.9836         estimate D2E/DX2                !
 ! D14   D(3,2,12,21)           -0.0089         estimate D2E/DX2                !
 ! D15   D(2,3,4,5)             -0.0131         estimate D2E/DX2                !
 ! D16   D(2,3,4,11)           179.963          estimate D2E/DX2                !
 ! D17   D(14,3,4,5)          -179.9844         estimate D2E/DX2                !
 ! D18   D(14,3,4,11)           -0.0082         estimate D2E/DX2                !
 ! D19   D(3,4,5,6)             -0.0165         estimate D2E/DX2                !
 ! D20   D(3,4,5,8)            179.9477         estimate D2E/DX2                !
 ! D21   D(11,4,5,6)          -179.9936         estimate D2E/DX2                !
 ! D22   D(11,4,5,8)            -0.0294         estimate D2E/DX2                !
 ! D23   D(3,4,11,20)            0.0621         estimate D2E/DX2                !
 ! D24   D(5,4,11,20)         -179.9602         estimate D2E/DX2                !
 ! D25   D(4,5,6,1)              0.0423         estimate D2E/DX2                !
 ! D26   D(4,5,6,7)           -179.9625         estimate D2E/DX2                !
 ! D27   D(8,5,6,1)           -179.9218         estimate D2E/DX2                !
 ! D28   D(8,5,6,7)              0.0734         estimate D2E/DX2                !
 ! D29   D(4,5,8,9)           -179.9716         estimate D2E/DX2                !
 ! D30   D(4,5,8,10)             0.0393         estimate D2E/DX2                !
 ! D31   D(6,5,8,9)             -0.01           estimate D2E/DX2                !
 ! D32   D(6,5,8,10)          -179.9991         estimate D2E/DX2                !
 ! D33   D(1,6,7,15)             0.044          estimate D2E/DX2                !
 ! D34   D(5,6,7,15)          -179.9512         estimate D2E/DX2                !
 ! D35   D(5,8,9,16)           -58.8948         estimate D2E/DX2                !
 ! D36   D(5,8,9,17)            58.841          estimate D2E/DX2                !
 ! D37   D(5,8,9,18)           179.9696         estimate D2E/DX2                !
 ! D38   D(10,8,9,16)          121.0953         estimate D2E/DX2                !
 ! D39   D(10,8,9,17)         -121.1689         estimate D2E/DX2                !
 ! D40   D(10,8,9,18)           -0.0403         estimate D2E/DX2                !
 ! D41   D(5,8,10,19)           -0.0004         estimate D2E/DX2                !
 ! D42   D(9,8,10,19)         -179.991          estimate D2E/DX2                !
 --------------------------------------------------------------------------------
 Trust Radius=3.00D-01 FncErr=1.00D-07 GrdErr=1.00D-06
 Number of steps in this run=    104 maximum allowed number of steps=    126.
 GradGradGradGradGradGradGradGradGradGradGradGradGradGradGradGradGradGrad

                          Input orientation:                          
 ---------------------------------------------------------------------
 Center     Atomic      Atomic             Coordinates (Angstroms)
 Number     Number       Type             X           Y           Z
 ---------------------------------------------------------------------
      1          6           0       -1.550730   -1.266928   -0.000274
      2          6           0       -2.286773   -0.076182   -0.000338
      3          6           0       -1.637483    1.174960    0.000276
      4          6           0       -0.260572    1.212049    0.000542
      5          6           0        0.559162    0.024334    0.000498
      6          6           0       -0.167120   -1.226258    0.000528
      7          8           0        0.555480   -2.358938    0.001271
      8          6           0        1.983873    0.082271   -0.000324
      9          6           0        2.917168   -1.080618   -0.001036
     10          8           0        2.630034    1.218020   -0.000326
     11          8           0        0.402256    2.402929    0.000378
     12          8           0       -3.616218   -0.198711   -0.000852
     13          1           0       -2.084653   -2.211436   -0.000505
     14          1           0       -2.213221    2.096137    0.000066
     15          1           0       -0.016783   -3.141501    0.000460
     16          1           0        2.748141   -1.713640    0.874663
     17          1           0        2.746421   -1.713860   -0.876256
     18          1           0        3.940044   -0.704993   -0.002125
     19          1           0        2.026133    1.995365    0.000284
     20          1           0       -0.189173    3.170530    0.001033
     21          1           0       -4.074488    0.655227   -0.000617
 ---------------------------------------------------------------------
                    Distance matrix (angstroms):
                    1          2          3          4          5
     1  C    0.000000
     2  C    1.399870   0.000000
     3  C    2.443429   1.409587   0.000000
     4  C    2.794608   2.401048   1.377410   0.000000
     5  C    2.473662   2.847710   2.479756   1.443132   0.000000
     6  C    1.384208   2.411556   2.815638   2.440097   1.446190
     7  O    2.372469   3.645460   4.159029   3.663044   2.383275
     8  C    3.783353   4.273585   3.782617   2.512754   1.425889
     9  C    4.471781   5.299990   5.082566   3.918463   2.604057
    10  O    4.863513   5.084285   4.267734   2.890612   2.390271
    11  O    4.157163   3.657440   2.380849   1.362915   2.383765
    12  O    2.325366   1.335080   2.408810   3.640138   4.181333
    13  H    1.084974   2.144799   3.415793   3.879114   3.462431
    14  H    3.427696   2.173564   1.086297   2.143467   3.460993
    15  H    2.422193   3.814320   4.610695   4.360370   3.217798
    16  H    4.409689   5.366307   5.323745   4.286735   2.928540
    17  H    4.408242   5.364910   5.322800   4.286225   2.928159
    18  H    5.519454   6.258487   5.885834   4.617384   3.458654
    19  H    4.841126   4.784607   3.754350   2.417148   2.457024
    20  H    4.641645   3.865368   2.465746   1.959782   3.233969
    21  H    3.172386   1.931550   2.491810   3.854349   4.676402
                    6          7          8          9         10
     6  C    0.000000
     7  O    1.343546   0.000000
     8  C    2.517741   2.828394   0.000000
     9  C    3.087725   2.685457   1.491091   0.000000
    10  O    3.714642   4.135022   1.306694   2.316502   0.000000
    11  O    3.673580   4.764332   2.808374   4.296497   2.523292
    12  O    3.598907   4.697835   5.607136   6.592639   6.404904
    13  H    2.155808   2.644251   4.670546   5.128056   5.830046
    14  H    3.901902   5.245322   4.655239   6.034291   4.922216
    15  H    1.921134   0.969479   3.794118   3.585430   5.100104
    16  H    3.082272   2.446832   2.138926   1.093680   3.061729
    17  H    3.081433   2.446712   2.138884   1.093691   3.062143
    18  H    4.140111   3.767070   2.108647   1.089665   2.326824
    19  H    3.897334   4.595952   1.913561   3.202439   0.984359
    20  H    4.396843   5.579384   3.776172   5.265132   3.429318
    21  H    4.336763   5.524654   6.085394   7.203916   6.728102
                   11         12         13         14         15
    11  O    0.000000
    12  O    4.787135   0.000000
    13  H    5.241859   2.529180   0.000000
    14  H    2.633409   2.689745   4.309491   0.000000
    15  H    5.560243   4.649295   2.267401   5.679542   0.000000
    16  H    4.818059   6.600500   4.936559   6.316204   3.232309
    17  H    4.817836   6.598877   4.934957   6.315225   3.231422
    18  H    4.709048   7.573204   6.210181   6.760843   4.646833
    19  H    1.674242   6.053932   5.881814   4.240552   5.528191
    20  H    0.969020   4.805874   5.705997   2.291526   6.314385
    21  H    4.805799   0.969134   3.489585   2.353835   5.556988
                   16         17         18         19         20
    16  H    0.000000
    17  H    1.750920   0.000000
    18  H    1.790743   1.790713   0.000000
    19  H    3.878473   3.878851   3.309833   0.000000
    20  H    5.765948   5.765814   5.663049   2.507707   0.000000
    21  H    7.275020   7.273522   8.129140   6.246083   4.628437
                   21
    21  H    0.000000
 Stoichiometry    C8H9O4(1+)
 Framework group  C1[X(C8H9O4)]
 Deg. of freedom    57
 Full point group                 C1      NOp   1
 Largest Abelian subgroup         C1      NOp   1
 Largest concise Abelian subgroup C1      NOp   1
                         Standard orientation:                         
 ---------------------------------------------------------------------
 Center     Atomic      Atomic             Coordinates (Angstroms)
 Number     Number       Type             X           Y           Z
 ---------------------------------------------------------------------
      1          6           0        1.550730   -1.266928    0.000274
      2          6           0        2.286773   -0.076182    0.000338
      3          6           0        1.637483    1.174960   -0.000276
      4          6           0        0.260572    1.212049   -0.000542
      5          6           0       -0.559162    0.024334   -0.000498
      6          6           0        0.167120   -1.226258   -0.000528
      7          8           0       -0.555481   -2.358938   -0.001271
      8          6           0       -1.983873    0.082271    0.000324
      9          6           0       -2.917168   -1.080618    0.001036
     10          8           0       -2.630034    1.218020    0.000326
     11          8           0       -0.402256    2.402929   -0.000378
     12          8           0        3.616218   -0.198712    0.000852
     13          1           0        2.084653   -2.211436    0.000505
     14          1           0        2.213221    2.096137   -0.000066
     15          1           0        0.016782   -3.141501   -0.000460
     16          1           0       -2.748141   -1.713640   -0.874663
     17          1           0       -2.746421   -1.713860    0.876256
     18          1           0       -3.940044   -0.704992    0.002125
     19          1           0       -2.026133    1.995365   -0.000284
     20          1           0        0.189173    3.170530   -0.001033
     21          1           0        4.074488    0.655226    0.000617
 ---------------------------------------------------------------------
 Rotational constants (GHZ):      1.5183730      0.7561919      0.5063544
 Standard basis: 6-31+G(d,p) (6D, 7F)
 There are   273 symmetry adapted cartesian basis functions of A   symmetry.
 There are   273 symmetry adapted basis functions of A   symmetry.
   273 basis functions,   447 primitive gaussians,   273 cartesian basis functions
    44 alpha electrons       44 beta electrons
       nuclear repulsion energy       712.1628965004 Hartrees.
 NAtoms=   21 NActive=   21 NUniq=   21 SFac= 1.00D+00 NAtFMM=   60 NAOKFM=F Big=F
 Integral buffers will be    131072 words long.
 Raffenetti 2 integral format.
 Two-electron integral symmetry is turned on.
 Nuclear repulsion after empirical dispersion term =      712.1401698848 Hartrees.
 One-electron integrals computed using PRISM.
 NBasis=   273 RedAO= T EigKep=  1.40D-06  NBF=   273
 NBsUse=   273 1.00D-06 EigRej= -1.00D+00 NBFU=   273
 ExpMin= 4.38D-02 ExpMax= 5.48D+03 ExpMxC= 8.25D+02 IAcc=2 IRadAn=         4 AccDes= 0.00D+00
 Harris functional with IExCor= 1009 and IRadAn=       4 diagonalized for initial guess.
 HarFok:  IExCor= 1009 AccDes= 0.00D+00 IRadAn=         4 IDoV= 1 UseB2=F ITyADJ=14
 ICtDFT=  3500011 ScaDFX=  1.000000  1.000000  1.000000  1.000000
 FoFCou: FMM=F IPFlag=           0 FMFlag=      100000 FMFlg1=           0
         NFxFlg=           0 DoJE=T BraDBF=F KetDBF=T FulRan=T
         wScrn=  0.000000 ICntrl=     500 IOpCl=  0 I1Cent=   200000004 NGrid=           0
         NMat0=    1 NMatS0=      1 NMatT0=    0 NMatD0=    1 NMtDS0=    0 NMtDT0=    0
 Petite list used in FoFCou.
 Keep J ints in memory in canonical form, NReq=709970467.
 Requested convergence on RMS density matrix=1.00D-08 within 128 cycles.
 Requested convergence on MAX density matrix=1.00D-06.
 Requested convergence on             energy=1.00D-06.
 No special actions if energy rises.
 SCF Done:  E(RPBE-PBE) =  -610.299627494     A.U. after   17 cycles
            NFock= 17  Conv=0.76D-08     -V/T= 2.0090

 **********************************************************************

            Population analysis using the SCF density.

 **********************************************************************

 Orbital symmetries:
       Occupied  (A) (A) (A) (A) (A) (A) (A) (A) (A) (A) (A) (A)
                 (A) (A) (A) (A) (A) (A) (A) (A) (A) (A) (A) (A)
                 (A) (A) (A) (A) (A) (A) (A) (A) (A) (A) (A) (A)
                 (A) (A) (A) (A) (A) (A) (A) (A)
       Virtual   (A) (A) (A) (A) (A) (A) (A) (A) (A) (A) (A) (A)
                 (A) (A) (A) (A) (A) (A) (A) (A) (A) (A) (A) (A)
                 (A) (A) (A) (A) (A) (A) (A) (A) (A) (A) (A) (A)
                 (A) (A) (A) (A) (A) (A) (A) (A) (A) (A) (A) (A)
                 (A) (A) (A) (A) (A) (A) (A) (A) (A) (A) (A) (A)
                 (A) (A) (A) (A) (A) (A) (A) (A) (A) (A) (A) (A)
                 (A) (A) (A) (A) (A) (A) (A) (A) (A) (A) (A) (A)
                 (A) (A) (A) (A) (A) (A) (A) (A) (A) (A) (A) (A)
                 (A) (A) (A) (A) (A) (A) (A) (A) (A) (A) (A) (A)
                 (A) (A) (A) (A) (A) (A) (A) (A) (A) (A) (A) (A)
                 (A) (A) (A) (A) (A) (A) (A) (A) (A) (A) (A) (A)
                 (A) (A) (A) (A) (A) (A) (A) (A) (A) (A) (A) (A)
                 (A) (A) (A) (A) (A) (A) (A) (A) (A) (A) (A) (A)
                 (A) (A) (A) (A) (A) (A) (A) (A) (A) (A) (A) (A)
                 (A) (A) (A) (A) (A) (A) (A) (A) (A) (A) (A) (A)
                 (A) (A) (A) (A) (A) (A) (A) (A) (A) (A) (A) (A)
                 (A) (A) (A) (A) (A) (A) (A) (A) (A) (A) (A) (A)
                 (A) (A) (A) (A) (A) (A) (A) (A) (A) (A) (A) (A)
                 (A) (A) (A) (A) (A) (A) (A) (A) (A) (A) (A) (A)
                 (A)
 The electronic state is 1-A.
 Alpha  occ. eigenvalues --  -19.01320 -19.00183 -18.98849 -18.98685 -10.18058
 Alpha  occ. eigenvalues --  -10.16373 -10.15580 -10.15319 -10.09951 -10.07822
 Alpha  occ. eigenvalues --  -10.06651 -10.04860  -1.19058  -1.16810  -1.16090
 Alpha  occ. eigenvalues --   -1.15781  -0.95513  -0.88902  -0.85394  -0.84003
 Alpha  occ. eigenvalues --   -0.77374  -0.75547  -0.73332  -0.70945  -0.68298
 Alpha  occ. eigenvalues --   -0.66210  -0.62823  -0.60800  -0.58136  -0.56952
 Alpha  occ. eigenvalues --   -0.55847  -0.55473  -0.54922  -0.53235  -0.52357
 Alpha  occ. eigenvalues --   -0.51748  -0.50955  -0.49008  -0.48879  -0.47236
 Alpha  occ. eigenvalues --   -0.46583  -0.43214  -0.38348  -0.37131
 Alpha virt. eigenvalues --   -0.26844  -0.19432  -0.16979  -0.16659  -0.14714
 Alpha virt. eigenvalues --   -0.14274  -0.12634  -0.10203  -0.09480  -0.09246
 Alpha virt. eigenvalues --   -0.08898  -0.06998  -0.06155  -0.06110  -0.05413
 Alpha virt. eigenvalues --   -0.04924  -0.03776  -0.02976  -0.02356  -0.02201
 Alpha virt. eigenvalues --   -0.01132  -0.01125  -0.00612  -0.00177   0.00730
 Alpha virt. eigenvalues --    0.00768   0.01508   0.02217   0.02847   0.02923
 Alpha virt. eigenvalues --    0.03628   0.04084   0.04169   0.05249   0.06121
 Alpha virt. eigenvalues --    0.06251   0.06883   0.07034   0.07934   0.08228
 Alpha virt. eigenvalues --    0.08348   0.09369   0.09682   0.11117   0.11724
 Alpha virt. eigenvalues --    0.11826   0.12666   0.13071   0.13348   0.13380
 Alpha virt. eigenvalues --    0.14784   0.15261   0.15289   0.16241   0.16474
 Alpha virt. eigenvalues --    0.17560   0.17829   0.18820   0.19663   0.20107
 Alpha virt. eigenvalues --    0.20962   0.21903   0.23503   0.24358   0.25003
 Alpha virt. eigenvalues --    0.25489   0.26024   0.26606   0.28590   0.30098
 Alpha virt. eigenvalues --    0.35866   0.38393   0.40303   0.45478   0.47759
 Alpha virt. eigenvalues --    0.48226   0.50287   0.51126   0.52017   0.53222
 Alpha virt. eigenvalues --    0.54064   0.55262   0.55590   0.56125   0.57842
 Alpha virt. eigenvalues --    0.61130   0.63684   0.66208   0.66403   0.68640
 Alpha virt. eigenvalues --    0.72470   0.73441   0.74973   0.80286   0.81692
 Alpha virt. eigenvalues --    0.83520   0.84394   0.85363   0.88298   0.88515
 Alpha virt. eigenvalues --    0.90078   0.90354   0.93336   0.93951   0.94895
 Alpha virt. eigenvalues --    0.96751   0.97173   0.97786   0.98742   0.99268
 Alpha virt. eigenvalues --    0.99380   1.01626   1.02108   1.04645   1.05176
 Alpha virt. eigenvalues --    1.05580   1.07981   1.08866   1.08947   1.10886
 Alpha virt. eigenvalues --    1.12054   1.13007   1.14670   1.15446   1.16411
 Alpha virt. eigenvalues --    1.17091   1.17297   1.21804   1.24714   1.25591
 Alpha virt. eigenvalues --    1.29368   1.29674   1.36063   1.36760   1.37191
 Alpha virt. eigenvalues --    1.38043   1.41751   1.47308   1.48325   1.50052
 Alpha virt. eigenvalues --    1.51849   1.57370   1.57587   1.60405   1.62248
 Alpha virt. eigenvalues --    1.63567   1.65337   1.65824   1.67217   1.68736
 Alpha virt. eigenvalues --    1.70233   1.72169   1.73088   1.75945   1.76983
 Alpha virt. eigenvalues --    1.79127   1.81688   1.82004   1.84338   1.90523
 Alpha virt. eigenvalues --    1.91489   1.93546   1.96017   1.96065   2.02056
 Alpha virt. eigenvalues --    2.02483   2.06537   2.07060   2.09662   2.13213
 Alpha virt. eigenvalues --    2.14447   2.17481   2.17824   2.21355   2.21646
 Alpha virt. eigenvalues --    2.22356   2.24070   2.25929   2.26825   2.28691
 Alpha virt. eigenvalues --    2.29130   2.30613   2.31834   2.37470   2.39439
 Alpha virt. eigenvalues --    2.40237   2.41450   2.42038   2.45153   2.47008
 Alpha virt. eigenvalues --    2.48453   2.49330   2.49470   2.52693   2.54549
 Alpha virt. eigenvalues --    2.58985   2.63472   2.63494   2.69852   2.77986
 Alpha virt. eigenvalues --    2.79575   2.82216   2.86741   2.89054   2.91792
 Alpha virt. eigenvalues --    2.96311   3.00144   3.08095   3.15332   3.21305
 Alpha virt. eigenvalues --    3.21737   3.22787   3.27042   3.29903   3.31251
 Alpha virt. eigenvalues --    3.40401   3.51216   3.99811   4.01694   4.04464
 Alpha virt. eigenvalues --    4.09672   4.15217   4.19623   4.23086   4.29017
 Alpha virt. eigenvalues --    4.40208   4.50987   4.55307   4.65760
          Condensed to atoms (all electrons):
               1          2          3          4          5          6
     1  C   13.395322  -2.399543   1.213950  -4.803937   0.045802  -5.204298
     2  C   -2.399543   7.986187  -1.111623   2.523653  -2.457575   3.415520
     3  C    1.213950  -1.111623  11.959607  -4.279035  -0.026751  -2.842941
     4  C   -4.803937   2.523653  -4.279035  19.078540  -3.890683   2.980647
     5  C    0.045802  -2.457575  -0.026751  -3.890683  17.586884  -4.974859
     6  C   -5.204298   3.415520  -2.842941   2.980647  -4.974859  17.797268
     7  O    0.194129  -0.020318   0.025972   0.023477  -0.182140   0.014219
     8  C    2.518079  -1.211529   0.003429  -4.181667  -2.855523  -1.607505
     9  C   -0.214766  -0.020288  -0.373790  -0.053443  -0.079380  -0.920734
    10  O   -0.001157   0.003080   0.003601  -0.161930   0.318765   0.052654
    11  O    0.053877   0.019577   0.490721  -0.174989  -0.079501  -0.065746
    12  O   -0.176076   0.116365  -0.057606   0.071723  -0.039335   0.097419
    13  H    0.181483   0.117730   0.045594  -0.019669   0.006547  -0.005420
    14  H    0.019581   0.067888   0.168124   0.053365   0.024335  -0.027929
    15  H   -0.100169   0.012477   0.001271   0.004797   0.118404  -0.033493
    16  H    0.000728   0.001181  -0.003606  -0.008229   0.033377   0.017507
    17  H    0.000288   0.001187  -0.003510  -0.007875   0.034576   0.017588
    18  H    0.001145   0.000207  -0.001462  -0.019298   0.031729   0.028271
    19  H    0.000404   0.000633   0.023873   0.107306  -0.266560  -0.072779
    20  H    0.004474  -0.002838  -0.111988  -0.047943   0.114153   0.001485
    21  H    0.086998  -0.049846  -0.024193   0.005681   0.027405  -0.043754
               7          8          9         10         11         12
     1  C    0.194129   2.518079  -0.214766  -0.001157   0.053877  -0.176076
     2  C   -0.020318  -1.211529  -0.020288   0.003080   0.019577   0.116365
     3  C    0.025972   0.003429  -0.373790   0.003601   0.490721  -0.057606
     4  C    0.023477  -4.181667  -0.053443  -0.161930  -0.174989   0.071723
     5  C   -0.182140  -2.855523  -0.079380   0.318765  -0.079501  -0.039335
     6  C    0.014219  -1.607505  -0.920734   0.052654  -0.065746   0.097419
     7  O    8.373706  -0.048145  -0.093950   0.001711  -0.000862  -0.000768
     8  C   -0.048145  13.955014  -1.061568   0.277561  -0.318026   0.001958
     9  C   -0.093950  -1.061568   8.287788  -0.460364  -0.009781   0.000177
    10  O    0.001711   0.277561  -0.460364   8.053724   0.042720  -0.000038
    11  O   -0.000862  -0.318026  -0.009781   0.042720   8.364887  -0.000972
    12  O   -0.000768   0.001958   0.000177  -0.000038  -0.000972   8.219587
    13  H   -0.017967   0.005381   0.000864   0.000015   0.000045  -0.009081
    14  H    0.000032   0.022706  -0.000283  -0.000074  -0.020287  -0.015693
    15  H    0.202397  -0.003709   0.011434   0.000030   0.000012  -0.000084
    16  H   -0.000714  -0.091290   0.395102   0.004224  -0.000035   0.000000
    17  H   -0.000734  -0.092258   0.394739   0.004255  -0.000040   0.000000
    18  H   -0.000100  -0.111818   0.429126  -0.006057   0.000100  -0.000000
    19  H   -0.000036   0.120178   0.085415   0.191258   0.039256   0.000005
    20  H    0.000019   0.037805   0.003815   0.001733   0.219957  -0.000064
    21  H    0.000035   0.003180  -0.000024   0.000000  -0.000113   0.210061
              13         14         15         16         17         18
     1  C    0.181483   0.019581  -0.100169   0.000728   0.000288   0.001145
     2  C    0.117730   0.067888   0.012477   0.001181   0.001187   0.000207
     3  C    0.045594   0.168124   0.001271  -0.003606  -0.003510  -0.001462
     4  C   -0.019669   0.053365   0.004797  -0.008229  -0.007875  -0.019298
     5  C    0.006547   0.024335   0.118404   0.033377   0.034576   0.031729
     6  C   -0.005420  -0.027929  -0.033493   0.017507   0.017588   0.028271
     7  O   -0.017967   0.000032   0.202397  -0.000714  -0.000734  -0.000100
     8  C    0.005381   0.022706  -0.003709  -0.091290  -0.092258  -0.111818
     9  C    0.000864  -0.000283   0.011434   0.395102   0.394739   0.429126
    10  O    0.000015  -0.000074   0.000030   0.004224   0.004255  -0.006057
    11  O    0.000045  -0.020287   0.000012  -0.000035  -0.000040   0.000100
    12  O   -0.009081  -0.015693  -0.000084   0.000000   0.000000  -0.000000
    13  H    0.516959  -0.000123   0.007793  -0.000001  -0.000001  -0.000000
    14  H   -0.000123   0.545428  -0.000001   0.000000   0.000000  -0.000000
    15  H    0.007793  -0.000001   0.367139   0.000376   0.000374  -0.000033
    16  H   -0.000001   0.000000   0.000376   0.454701  -0.019537  -0.019365
    17  H   -0.000001   0.000000   0.000374  -0.019537   0.454842  -0.019379
    18  H   -0.000000  -0.000000  -0.000033  -0.019365  -0.019379   0.464764
    19  H   -0.000000   0.000003  -0.000000  -0.000289  -0.000289   0.000279
    20  H   -0.000000   0.008899  -0.000000  -0.000000  -0.000000  -0.000000
    21  H   -0.000032   0.006311   0.000000   0.000000   0.000000  -0.000000
              19         20         21
     1  C    0.000404   0.004474   0.086998
     2  C    0.000633  -0.002838  -0.049846
     3  C    0.023873  -0.111988  -0.024193
     4  C    0.107306  -0.047943   0.005681
     5  C   -0.266560   0.114153   0.027405
     6  C   -0.072779   0.001485  -0.043754
     7  O   -0.000036   0.000019   0.000035
     8  C    0.120178   0.037805   0.003180
     9  C    0.085415   0.003815  -0.000024
    10  O    0.191258   0.001733   0.000000
    11  O    0.039256   0.219957  -0.000113
    12  O    0.000005  -0.000064   0.210061
    13  H   -0.000000  -0.000000  -0.000032
    14  H    0.000003   0.008899   0.006311
    15  H   -0.000000  -0.000000   0.000000
    16  H   -0.000289  -0.000000   0.000000
    17  H   -0.000289  -0.000000   0.000000
    18  H    0.000279  -0.000000  -0.000000
    19  H    0.325507  -0.000027  -0.000000
    20  H   -0.000027   0.344300   0.000013
    21  H   -0.000000   0.000013   0.394720
 Mulliken charges:
               1
     1  C    1.183685
     2  C   -0.992127
     3  C    0.900366
     4  C   -1.200493
     5  C    2.510330
     6  C   -2.623118
     7  O   -0.469962
     8  C    0.637747
     9  C   -0.320088
    10  O   -0.325709
    11  O   -0.560799
    12  O   -0.417581
    13  H    0.169881
    14  H    0.147717
    15  H    0.410986
    16  H    0.235871
    17  H    0.235773
    18  H    0.221892
    19  H    0.445863
    20  H    0.426208
    21  H    0.383558
 Sum of Mulliken charges =   1.00000
 Mulliken charges with hydrogens summed into heavy atoms:
               1
     1  C    1.353567
     2  C   -0.992127
     3  C    1.048083
     4  C   -1.200493
     5  C    2.510330
     6  C   -2.623118
     7  O   -0.058976
     8  C    0.637747
     9  C    0.373447
    10  O    0.120154
    11  O   -0.134591
    12  O   -0.034023
 Electronic spatial extent (au):  <R**2>=           2076.0976
 Charge=              1.0000 electrons
 Dipole moment (field-independent basis, Debye):
    X=              1.7515    Y=              1.6503    Z=              0.0001  Tot=              2.4066
 Quadrupole moment (field-independent basis, Debye-Ang):
   XX=            -42.0209   YY=            -36.1071   ZZ=            -69.7038
   XY=              8.6106   XZ=             -0.0025   YZ=             -0.0098
 Traceless Quadrupole moment (field-independent basis, Debye-Ang):
   XX=              7.2564   YY=             13.1702   ZZ=            -20.4265
   XY=              8.6106   XZ=             -0.0025   YZ=             -0.0098
 Octapole moment (field-independent basis, Debye-Ang**2):
  XXX=             32.3819  YYY=             13.7039  ZZZ=              0.0010  XYY=             14.7110
  XXY=             19.6334  XXZ=              0.0106  XZZ=             -4.9168  YZZ=              0.0149
  YYZ=             -0.0134  XYZ=              0.0103
 Hexadecapole moment (field-independent basis, Debye-Ang**3):
 XXXX=          -1302.6030 YYYY=           -483.4397 ZZZZ=            -75.6068 XXXY=            149.8162
 XXXZ=             -0.0081 YYYX=            -14.9375 YYYZ=             -0.0784 ZZZX=              0.0102
 ZZZY=              0.0039 XXYY=           -354.4519 XXZZ=           -292.7781 YYZZ=           -154.9548
 XXYZ=              0.0060 YYXZ=              0.0034 ZZXY=              1.3138
 N-N= 7.121401698848D+02 E-N=-2.835120770188D+03  KE= 6.048632404474D+02
 Calling FoFJK, ICntrl=      2527 FMM=F ISym2X=0 I1Cent= 0 IOpClX= 0 NMat=1 NMatS=1 NMatT=0.
 ***** Axes restored to original set *****
 -------------------------------------------------------------------
 Center     Atomic                   Forces (Hartrees/Bohr)
 Number     Number              X              Y              Z
 -------------------------------------------------------------------
      1        6          -0.000944240    0.000411684    0.000012527
      2        6          -0.000242641    0.001852587    0.000016176
      3        6          -0.001387353   -0.000819887   -0.000010360
      4        6           0.001476779    0.000252780   -0.000020013
      5        6           0.001168557   -0.000245527   -0.000015874
      6        6           0.000703673   -0.000063497   -0.000017938
      7        8           0.009903887    0.002003047   -0.000006919
      8        6          -0.002127738   -0.007109621    0.000051867
      9        6          -0.003656791    0.004401310   -0.000028396
     10        8           0.012418229    0.002019709   -0.000013389
     11        8           0.008974004   -0.001940780    0.000017113
     12        8          -0.003213848   -0.009286116   -0.000007577
     13        1          -0.002761812   -0.004785462    0.000002444
     14        1          -0.002898313    0.004662054    0.000003877
     15        1          -0.005594391   -0.005445968    0.000002831
     16        1          -0.000928765   -0.003263773    0.003945271
     17        1          -0.000934318   -0.003269161   -0.003932078
     18        1           0.004880741    0.001690104    0.000000618
     19        1          -0.006910336    0.006083656    0.000001403
     20        1          -0.005330704    0.005333010   -0.000001539
     21        1          -0.002594620    0.007519851   -0.000000045
 -------------------------------------------------------------------
 Cartesian Forces:  Max     0.012418229 RMS     0.003878498

 GradGradGradGradGradGradGradGradGradGradGradGradGradGradGradGradGradGrad
 Berny optimization.
 FormGI is forming the generalized inverse of G from B-inverse, IUseBI=4.
 Internal  Forces:  Max     0.009765301 RMS     0.002931444
 Search for a local minimum.
 Step number   1 out of a maximum of  104
 All quantities printed in internal units (Hartrees-Bohrs-Radians)
 Mixed Optimization -- RFO/linear search
 Second derivative matrix not updated -- first step.
 ITU=  0
     Eigenvalues ---    0.00884   0.01504   0.01542   0.01689   0.01746
     Eigenvalues ---    0.01935   0.02010   0.02067   0.02098   0.02156
     Eigenvalues ---    0.02182   0.02201   0.02226   0.02439   0.02551
     Eigenvalues ---    0.02926   0.07464   0.07521   0.16000   0.16000
     Eigenvalues ---    0.16000   0.16000   0.16000   0.16000   0.16000
     Eigenvalues ---    0.16000   0.16000   0.23479   0.23491   0.25000
     Eigenvalues ---    0.25000   0.25000   0.25000   0.25000   0.25000
     Eigenvalues ---    0.25000   0.33330   0.34390   0.34391   0.34851
     Eigenvalues ---    0.35244   0.35400   0.37332   0.38199   0.41586
     Eigenvalues ---    0.42916   0.44224   0.46734   0.49093   0.50547
     Eigenvalues ---    0.52363   0.53483   0.53554   0.53578   0.56418
     Eigenvalues ---    0.58322   0.65368
 RFO step:  Lambda=-1.80296444D-03 EMin= 8.83802994D-03
 Linear search not attempted -- first point.
 Iteration  1 RMS(Cart)=  0.00921385 RMS(Int)=  0.00005056
 Iteration  2 RMS(Cart)=  0.00006493 RMS(Int)=  0.00000081
 Iteration  3 RMS(Cart)=  0.00000001 RMS(Int)=  0.00000081
 Variable       Old X    -DE/DX   Delta X   Delta X   Delta X     New X
                                 (Linear)    (Quad)   (Total)
    R1        2.64537   0.00558   0.00000   0.01240   0.01240   2.65777
    R2        2.61577   0.00685   0.00000   0.01411   0.01411   2.62988
    R3        2.05030   0.00552   0.00000   0.01553   0.01553   2.06583
    R4        2.66373   0.00535   0.00000   0.01233   0.01233   2.67606
    R5        2.52293   0.00595   0.00000   0.01016   0.01016   2.53310
    R6        2.60293   0.00720   0.00000   0.01448   0.01448   2.61740
    R7        2.05280   0.00549   0.00000   0.01550   0.01550   2.06830
    R8        2.72712   0.00361   0.00000   0.00894   0.00894   2.73606
    R9        2.57554   0.00474   0.00000   0.00902   0.00902   2.58455
   R10        2.73290   0.00375   0.00000   0.00937   0.00937   2.74227
   R11        2.69454   0.00276   0.00000   0.00661   0.00661   2.70115
   R12        2.53893   0.00522   0.00000   0.00922   0.00922   2.54815
   R13        1.83205   0.00770   0.00000   0.01435   0.01435   1.84640
   R14        2.81775  -0.00005   0.00000  -0.00015  -0.00015   2.81760
   R15        2.46929   0.00977   0.00000   0.01490   0.01490   2.48419
   R16        2.06676   0.00519   0.00000   0.01502   0.01502   2.08178
   R17        2.06678   0.00519   0.00000   0.01500   0.01500   2.08178
   R18        2.05917   0.00516   0.00000   0.01474   0.01474   2.07391
   R19        1.86017   0.00904   0.00000   0.01782   0.01782   1.87799
   R20        1.83118   0.00748   0.00000   0.01391   0.01391   1.84509
   R21        1.83140   0.00786   0.00000   0.01462   0.01462   1.84602
    A1        2.09506   0.00005   0.00000   0.00062   0.00062   2.09568
    A2        2.07344  -0.00008   0.00000  -0.00064  -0.00064   2.07280
    A3        2.11469   0.00003   0.00000   0.00002   0.00002   2.11471
    A4        2.10925  -0.00062   0.00000  -0.00164  -0.00164   2.10761
    A5        2.03254  -0.00007   0.00000  -0.00067  -0.00067   2.03187
    A6        2.14140   0.00068   0.00000   0.00231   0.00231   2.14371
    A7        2.07642   0.00001   0.00000   0.00057   0.00057   2.07700
    A8        2.10429   0.00001   0.00000  -0.00019  -0.00019   2.10411
    A9        2.10247  -0.00002   0.00000  -0.00038  -0.00038   2.10208
   A10        2.14797  -0.00008   0.00000  -0.00069  -0.00069   2.14728
   A11        2.10561   0.00114   0.00000   0.00470   0.00470   2.11031
   A12        2.02960  -0.00106   0.00000  -0.00401  -0.00400   2.02560
   A13        2.01134   0.00069   0.00000   0.00183   0.00182   2.01317
   A14        2.13426  -0.00028   0.00000  -0.00067  -0.00067   2.13358
   A15        2.13758  -0.00040   0.00000  -0.00115  -0.00115   2.13643
   A16        2.12633  -0.00005   0.00000  -0.00068  -0.00068   2.12564
   A17        2.10927   0.00109   0.00000   0.00456   0.00456   2.11384
   A18        2.04759  -0.00104   0.00000  -0.00388  -0.00388   2.04370
   A19        1.94233  -0.00239   0.00000  -0.01475  -0.01475   1.92757
   A20        2.20646  -0.00127   0.00000  -0.00505  -0.00505   2.20141
   A21        2.12870  -0.00000   0.00000  -0.00000  -0.00000   2.12870
   A22        1.94803   0.00127   0.00000   0.00505   0.00505   1.95308
   A23        1.93295   0.00008   0.00000   0.00007   0.00007   1.93302
   A24        1.93287   0.00010   0.00000   0.00021   0.00021   1.93308
   A25        1.89516   0.00020   0.00000   0.00203   0.00203   1.89719
   A26        1.85615  -0.00037   0.00000  -0.00388  -0.00388   1.85227
   A27        1.92346  -0.00001   0.00000   0.00070   0.00070   1.92416
   A28        1.92340  -0.00000   0.00000   0.00078   0.00078   1.92418
   A29        1.96385  -0.00321   0.00000  -0.01982  -0.01982   1.94403
   A30        1.97722  -0.00177   0.00000  -0.01093  -0.01093   1.96629
   A31        1.97143  -0.00233   0.00000  -0.01439  -0.01439   1.95704
    D1        0.00011  -0.00000   0.00000  -0.00006  -0.00006   0.00005
    D2       -3.14136  -0.00000   0.00000  -0.00021  -0.00021  -3.14156
    D3        3.14133   0.00000   0.00000   0.00009   0.00008   3.14141
    D4       -0.00014  -0.00000   0.00000  -0.00006  -0.00006  -0.00020
    D5       -0.00067   0.00001   0.00000   0.00044   0.00044  -0.00023
    D6        3.14101   0.00000   0.00000   0.00014   0.00014   3.14115
    D7        3.14131   0.00001   0.00000   0.00029   0.00029  -3.14159
    D8       -0.00020  -0.00000   0.00000  -0.00001  -0.00001  -0.00020
    D9        0.00033  -0.00001   0.00000  -0.00026  -0.00026   0.00008
   D10        3.14142   0.00000   0.00000   0.00015   0.00015   3.14158
   D11       -3.14139  -0.00000   0.00000  -0.00010  -0.00010  -3.14150
   D12       -0.00030   0.00001   0.00000   0.00031   0.00031   0.00001
   D13        3.14131   0.00000   0.00000   0.00015   0.00015   3.14146
   D14       -0.00016   0.00000   0.00000   0.00001   0.00001  -0.00015
   D15       -0.00023   0.00001   0.00000   0.00020   0.00021  -0.00002
   D16        3.14095   0.00001   0.00000   0.00066   0.00066  -3.14158
   D17       -3.14132  -0.00000   0.00000  -0.00021  -0.00021  -3.14153
   D18       -0.00014   0.00001   0.00000   0.00025   0.00025   0.00011
   D19       -0.00029   0.00000   0.00000   0.00015   0.00015  -0.00014
   D20        3.14068   0.00001   0.00000   0.00051   0.00051   3.14119
   D21       -3.14148  -0.00001   0.00000  -0.00029  -0.00029   3.14141
   D22       -0.00051  -0.00000   0.00000   0.00007   0.00007  -0.00044
   D23        0.00108  -0.00001   0.00000  -0.00046  -0.00046   0.00062
   D24       -3.14090  -0.00000   0.00000  -0.00004  -0.00004  -3.14093
   D25        0.00074  -0.00001   0.00000  -0.00047  -0.00047   0.00027
   D26       -3.14094  -0.00000   0.00000  -0.00018  -0.00018  -3.14112
   D27       -3.14023  -0.00002   0.00000  -0.00083  -0.00083  -3.14106
   D28        0.00128  -0.00001   0.00000  -0.00055  -0.00055   0.00074
   D29       -3.14110  -0.00000   0.00000  -0.00013  -0.00013  -3.14123
   D30        0.00069  -0.00001   0.00000  -0.00061  -0.00061   0.00007
   D31       -0.00017   0.00000   0.00000   0.00026   0.00026   0.00008
   D32       -3.14158  -0.00000   0.00000  -0.00022  -0.00022   3.14139
   D33        0.00077  -0.00001   0.00000  -0.00020  -0.00020   0.00057
   D34       -3.14074  -0.00001   0.00000  -0.00048  -0.00048  -3.14123
   D35       -1.02791   0.00017   0.00000   0.00205   0.00205  -1.02586
   D36        1.02697  -0.00018   0.00000  -0.00258  -0.00258   1.02439
   D37        3.14106   0.00000   0.00000  -0.00017  -0.00017   3.14089
   D38        2.11351   0.00018   0.00000   0.00248   0.00249   2.11600
   D39       -2.11480  -0.00018   0.00000  -0.00214  -0.00214  -2.11694
   D40       -0.00070   0.00001   0.00000   0.00026   0.00026  -0.00044
   D41       -0.00001  -0.00000   0.00000   0.00008   0.00008   0.00007
   D42       -3.14144  -0.00001   0.00000  -0.00034  -0.00034   3.14141
         Item               Value     Threshold  Converged?
 Maximum Force            0.009765     0.000450     NO 
 RMS     Force            0.002931     0.000300     NO 
 Maximum Displacement     0.025712     0.001800     NO 
 RMS     Displacement     0.009209     0.001200     NO 
 Predicted change in Energy=-9.056453D-04
 GradGradGradGradGradGradGradGradGradGradGradGradGradGradGradGradGradGrad

                          Input orientation:                          
 ---------------------------------------------------------------------
 Center     Atomic      Atomic             Coordinates (Angstroms)
 Number     Number       Type             X           Y           Z
 ---------------------------------------------------------------------
      1          6           0       -1.553884   -1.272700   -0.000223
      2          6           0       -2.295309   -0.077567   -0.000192
      3          6           0       -1.642985    1.179350    0.000078
      4          6           0       -0.258437    1.217403    0.000219
      5          6           0        0.563810    0.025676    0.000133
      6          6           0       -0.162854   -1.230425    0.000071
      7          8           0        0.568680   -2.363168    0.000557
      8          6           0        1.991984    0.084508   -0.000209
      9          6           0        2.919961   -1.082526   -0.000759
     10          8           0        2.641440    1.227453   -0.000381
     11          8           0        0.411665    2.409682    0.000501
     12          8           0       -3.629824   -0.203637   -0.000452
     13          1           0       -2.090918   -2.224886   -0.000261
     14          1           0       -2.223223    2.107386    0.000088
     15          1           0       -0.015291   -3.146524    0.000131
     16          1           0        2.745176   -1.720656    0.880050
     17          1           0        2.743773   -1.721026   -0.881023
     18          1           0        3.952612   -0.710965   -0.001649
     19          1           0        2.015906    1.999676   -0.000177
     20          1           0       -0.189486    3.179056    0.001140
     21          1           0       -4.081295    0.662648   -0.000295
 ---------------------------------------------------------------------
                    Distance matrix (angstroms):
                    1          2          3          4          5
     1  C    0.000000
     2  C    1.406432   0.000000
     3  C    2.453668   1.416110   0.000000
     4  C    2.806919   2.413668   1.385071   0.000000
     5  C    2.484031   2.860982   2.490162   1.447862   0.000000
     6  C    1.391672   2.424138   2.828039   2.449694   1.451148
     7  O    2.386295   3.664206   4.176230   3.674863   2.388849
     8  C    3.796734   4.290355   3.796272   2.519493   1.429385
     9  C    4.477885   5.311213   5.092795   3.923250   2.603759
    10  O    4.883800   5.106326   4.284695   2.899894   2.400169
    11  O    4.174125   3.676155   2.394850   1.367686   2.388856
    12  O    2.335042   1.340457   2.420782   3.658635   4.199899
    13  H    1.093191   2.157025   3.433580   3.899660   3.480318
    14  H    3.445721   2.186142   1.094498   2.156954   3.478659
    15  H    2.424559   3.823216   4.621967   4.370696   3.224626
    16  H    4.411061   5.374109   5.332949   4.292783   2.929554
    17  H    4.409837   5.373003   5.332182   4.292345   2.929103
    18  H    5.535075   6.279945   5.906269   4.631582   3.467943
    19  H    4.842711   4.785553   3.749723   2.405117   2.450563
    20  H    4.656147   3.878155   2.472142   1.962864   3.242107
    21  H    3.183296   1.933304   2.492456   3.862900   4.688575
                    6          7          8          9         10
     6  C    0.000000
     7  O    1.348425   0.000000
     8  C    2.524357   2.831415   0.000000
     9  C    3.086361   2.677418   1.491010   0.000000
    10  O    3.728971   4.145949   1.314578   2.326709   0.000000
    11  O    3.685167   4.775432   2.811377   4.299659   2.523799
    12  O    3.615823   4.721336   5.629188   6.608489   6.432478
    13  H    2.169420   2.663191   4.690778   5.139445   5.857803
    14  H    3.922512   5.270728   4.675468   6.052097   4.943604
    15  H    1.921773   0.977072   3.803778   3.588286   5.117606
    16  H    3.077552   2.433817   2.144941   1.101629   3.078517
    17  H    3.076605   2.433220   2.144988   1.101630   3.078885
    18  H    4.148121   3.765737   2.115856   1.097464   2.340222
    19  H    3.896222   4.596615   1.915317   3.212052   0.993791
    20  H    4.409561   5.593841   3.786163   5.275390   3.438443
    21  H    4.351770   5.547777   6.100735   7.215485   6.746419
                   11         12         13         14         15
    11  O    0.000000
    12  O    4.812803   0.000000
    13  H    5.267082   2.540409   0.000000
    14  H    2.652172   2.705431   4.334292   0.000000
    15  H    5.572587   4.661055   2.271045   5.698994   0.000000
    16  H    4.824787   6.611903   4.941356   6.333500   3.229169
    17  H    4.824786   6.610644   4.940026   6.332783   3.228144
    18  H    4.719825   7.599390   6.230267   6.788523   4.655772
    19  H    1.655807   6.060434   5.891768   4.240498   5.532553
    20  H    0.976380   4.824784   5.728703   2.298818   6.327978
    21  H    4.820666   0.976870   3.507058   2.353657   5.571551
                   16         17         18         19         20
    16  H    0.000000
    17  H    1.761074   0.000000
    18  H    1.804099   1.804111   0.000000
    19  H    3.891979   3.892210   3.331427   0.000000
    20  H    5.778572   5.778669   5.682362   2.500938   0.000000
    21  H    7.283945   7.282797   8.150490   6.242076   4.634490
                   21
    21  H    0.000000
 Stoichiometry    C8H9O4(1+)
 Framework group  C1[X(C8H9O4)]
 Deg. of freedom    57
 Full point group                 C1      NOp   1
 Largest Abelian subgroup         C1      NOp   1
 Largest concise Abelian subgroup C1      NOp   1
                         Standard orientation:                         
 ---------------------------------------------------------------------
 Center     Atomic      Atomic             Coordinates (Angstroms)
 Number     Number       Type             X           Y           Z
 ---------------------------------------------------------------------
      1          6           0        1.557703   -1.270876    0.000162
      2          6           0        2.297298   -0.074611    0.000131
      3          6           0        1.643053    1.181307   -0.000140
      4          6           0        0.258448    1.217242   -0.000281
      5          6           0       -0.561975    0.024259   -0.000194
      6          6           0        0.166610   -1.230730   -0.000133
      7          8           0       -0.563191   -2.364590   -0.000619
      8          6           0       -1.990237    0.080906    0.000147
      9          6           0       -2.916428   -1.087546    0.000698
     10          8           0       -2.641441    1.222855    0.000319
     11          8           0       -0.413477    2.408494   -0.000562
     12          8           0        3.632005   -0.198640    0.000390
     13          1           0        2.096193   -2.222240    0.000199
     14          1           0        2.221870    2.110229   -0.000150
     15          1           0        0.021978   -3.147052   -0.000193
     16          1           0       -2.740667   -1.725409   -0.880112
     17          1           0       -2.739264   -1.725776    0.880962
     18          1           0       -3.949647   -0.717566    0.001587
     19          1           0       -2.017090    1.996034    0.000115
     20          1           0        0.186495    3.178787   -0.001202
     21          1           0        4.082150    0.668335    0.000233
 ---------------------------------------------------------------------
 Rotational constants (GHZ):      1.5087271      0.7510855      0.5030100
 Standard basis: 6-31+G(d,p) (6D, 7F)
 There are   273 symmetry adapted cartesian basis functions of A   symmetry.
 There are   273 symmetry adapted basis functions of A   symmetry.
   273 basis functions,   447 primitive gaussians,   273 cartesian basis functions
    44 alpha electrons       44 beta electrons
       nuclear repulsion energy       709.6555897225 Hartrees.
 NAtoms=   21 NActive=   21 NUniq=   21 SFac= 1.00D+00 NAtFMM=   60 NAOKFM=F Big=F
 Integral buffers will be    131072 words long.
 Raffenetti 2 integral format.
 Two-electron integral symmetry is turned on.
 Nuclear repulsion after empirical dispersion term =      709.6329251243 Hartrees.
 One-electron integrals computed using PRISM.
 NBasis=   273 RedAO= T EigKep=  1.45D-06  NBF=   273
 NBsUse=   273 1.00D-06 EigRej= -1.00D+00 NBFU=   273
 Initial guess from the checkpoint file:  "pbeTHAPyang.chk"
 B after Tr=    -0.000000   -0.000000    0.000000
         Rot=    1.000000    0.000028   -0.000013   -0.000495 Ang=   0.06 deg.
 ExpMin= 4.38D-02 ExpMax= 5.48D+03 ExpMxC= 8.25D+02 IAcc=2 IRadAn=         4 AccDes= 0.00D+00
 Harris functional with IExCor= 1009 and IRadAn=       4 diagonalized for initial guess.
 HarFok:  IExCor= 1009 AccDes= 0.00D+00 IRadAn=         4 IDoV= 1 UseB2=F ITyADJ=14
 ICtDFT=  3500011 ScaDFX=  1.000000  1.000000  1.000000  1.000000
 FoFCou: FMM=F IPFlag=           0 FMFlag=      100000 FMFlg1=           0
         NFxFlg=           0 DoJE=T BraDBF=F KetDBF=T FulRan=T
         wScrn=  0.000000 ICntrl=     500 IOpCl=  0 I1Cent=   200000004 NGrid=           0
         NMat0=    1 NMatS0=      1 NMatT0=    0 NMatD0=    1 NMtDS0=    0 NMtDT0=    0
 Petite list used in FoFCou.
 Keep J ints in memory in canonical form, NReq=709970467.
 Requested convergence on RMS density matrix=1.00D-08 within 128 cycles.
 Requested convergence on MAX density matrix=1.00D-06.
 Requested convergence on             energy=1.00D-06.
 No special actions if energy rises.
 SCF Done:  E(RPBE-PBE) =  -610.300573472     A.U. after   12 cycles
            NFock= 12  Conv=0.77D-08     -V/T= 2.0094
 Calling FoFJK, ICntrl=      2527 FMM=F ISym2X=0 I1Cent= 0 IOpClX= 0 NMat=1 NMatS=1 NMatT=0.
 ***** Axes restored to original set *****
 -------------------------------------------------------------------
 Center     Atomic                   Forces (Hartrees/Bohr)
 Number     Number              X              Y              Z
 -------------------------------------------------------------------
      1        6           0.000267277    0.000204570    0.000004489
      2        6           0.001934261    0.000576582   -0.000009486
      3        6           0.000307553   -0.000172153   -0.000001489
      4        6          -0.001148468   -0.001750808    0.000010764
      5        6          -0.000397989    0.000220459   -0.000006596
      6        6          -0.001119070    0.001300373    0.000017361
      7        8           0.001009912   -0.000411467   -0.000016184
      8        6          -0.000635602   -0.002462333   -0.000020680
      9        6          -0.000324497    0.001509440    0.000001369
     10        8           0.002762582    0.000045432    0.000000816
     11        8           0.000856913    0.000216117    0.000000537
     12        8          -0.000884017   -0.001337965    0.000003255
     13        1           0.000000611    0.000018348   -0.000000438
     14        1           0.000016593    0.000052382    0.000000915
     15        1          -0.000793287   -0.000529138    0.000004610
     16        1           0.000019265   -0.000163691    0.000010221
     17        1           0.000017547   -0.000157064   -0.000004551
     18        1           0.000096874   -0.000072240    0.000003733
     19        1          -0.001495019    0.001484979    0.000008042
     20        1          -0.000473069    0.000565834   -0.000005994
     21        1          -0.000018369    0.000862344   -0.000000694
 -------------------------------------------------------------------
 Cartesian Forces:  Max     0.002762582 RMS     0.000792641

 GradGradGradGradGradGradGradGradGradGradGradGradGradGradGradGradGradGrad
 Berny optimization.
 Using GEDIIS/GDIIS optimizer.
 FormGI is forming the generalized inverse of G from B-inverse, IUseBI=4.
 Internal  Forces:  Max     0.002092979 RMS     0.000477971
 Search for a local minimum.
 Step number   2 out of a maximum of  104
 All quantities printed in internal units (Hartrees-Bohrs-Radians)
 Mixed Optimization -- En-DIIS/RFO-DIIS
 Update second derivatives using D2CorX and points    1    2
 DE= -9.46D-04 DEPred=-9.06D-04 R= 1.04D+00
 TightC=F SS=  1.41D+00  RLast= 6.80D-02 DXNew= 5.0454D-01 2.0393D-01
 Trust test= 1.04D+00 RLast= 6.80D-02 DXMaxT set to 3.00D-01
 ITU=  1  0
 Use linear search instead of GDIIS.
     Eigenvalues ---    0.00884   0.01505   0.01542   0.01689   0.01746
     Eigenvalues ---    0.01936   0.02012   0.02067   0.02099   0.02156
     Eigenvalues ---    0.02182   0.02201   0.02226   0.02439   0.02551
     Eigenvalues ---    0.02926   0.07464   0.07499   0.15447   0.16000
     Eigenvalues ---    0.16000   0.16000   0.16000   0.16000   0.16000
     Eigenvalues ---    0.16000   0.16038   0.23468   0.23506   0.24870
     Eigenvalues ---    0.25000   0.25000   0.25000   0.25000   0.25000
     Eigenvalues ---    0.25368   0.33020   0.34390   0.34488   0.34905
     Eigenvalues ---    0.35289   0.35582   0.37349   0.38245   0.41424
     Eigenvalues ---    0.43420   0.44927   0.46754   0.47486   0.51180
     Eigenvalues ---    0.52138   0.53277   0.53559   0.53580   0.56179
     Eigenvalues ---    0.58042   0.64255
 RFO step:  Lambda=-5.50069477D-05 EMin= 8.83803099D-03
 Quartic linear search produced a step of  0.06094.
 Iteration  1 RMS(Cart)=  0.00587993 RMS(Int)=  0.00001135
 Iteration  2 RMS(Cart)=  0.00001790 RMS(Int)=  0.00000022
 Iteration  3 RMS(Cart)=  0.00000000 RMS(Int)=  0.00000022
 Variable       Old X    -DE/DX   Delta X   Delta X   Delta X     New X
                                 (Linear)    (Quad)   (Total)
    R1        2.65777  -0.00064   0.00076  -0.00189  -0.00114   2.65664
    R2        2.62988  -0.00073   0.00086  -0.00201  -0.00115   2.62873
    R3        2.06583  -0.00002   0.00095  -0.00051   0.00044   2.06627
    R4        2.67606  -0.00076   0.00075  -0.00225  -0.00150   2.67456
    R5        2.53310   0.00094   0.00062   0.00141   0.00203   2.53513
    R6        2.61740  -0.00090   0.00088  -0.00237  -0.00148   2.61592
    R7        2.06830   0.00004   0.00094  -0.00035   0.00060   2.06890
    R8        2.73606  -0.00050   0.00054  -0.00157  -0.00103   2.73504
    R9        2.58455   0.00087   0.00055   0.00150   0.00205   2.58660
   R10        2.74227  -0.00002   0.00057  -0.00028   0.00029   2.74256
   R11        2.70115   0.00045   0.00040   0.00094   0.00135   2.70249
   R12        2.54815   0.00091   0.00056   0.00143   0.00199   2.55014
   R13        1.84640   0.00090   0.00087   0.00136   0.00223   1.84863
   R14        2.81760  -0.00099  -0.00001  -0.00314  -0.00315   2.81445
   R15        2.48419   0.00196   0.00091   0.00273   0.00364   2.48783
   R16        2.08178   0.00010   0.00092  -0.00013   0.00079   2.08256
   R17        2.08178   0.00009   0.00091  -0.00015   0.00076   2.08254
   R18        2.07391   0.00007   0.00090  -0.00023   0.00066   2.07457
   R19        1.87799   0.00209   0.00109   0.00386   0.00495   1.88294
   R20        1.84509   0.00074   0.00085   0.00104   0.00189   1.84698
   R21        1.84602   0.00078   0.00089   0.00110   0.00199   1.84801
    A1        2.09568   0.00001   0.00004   0.00003   0.00007   2.09575
    A2        2.07280  -0.00002  -0.00004  -0.00008  -0.00012   2.07268
    A3        2.11471   0.00000   0.00000   0.00005   0.00005   2.11475
    A4        2.10761   0.00021  -0.00010   0.00082   0.00072   2.10833
    A5        2.03187  -0.00024  -0.00004  -0.00092  -0.00096   2.03091
    A6        2.14371   0.00002   0.00014   0.00010   0.00024   2.14395
    A7        2.07700  -0.00026   0.00003  -0.00139  -0.00135   2.07564
    A8        2.10411   0.00018  -0.00001   0.00099   0.00098   2.10509
    A9        2.10208   0.00009  -0.00002   0.00039   0.00037   2.10246
   A10        2.14728   0.00046  -0.00004   0.00205   0.00200   2.14928
   A11        2.11031  -0.00031   0.00029  -0.00148  -0.00120   2.10911
   A12        2.02560  -0.00015  -0.00024  -0.00056  -0.00081   2.02479
   A13        2.01317  -0.00041   0.00011  -0.00159  -0.00148   2.01169
   A14        2.13358  -0.00051  -0.00004  -0.00223  -0.00227   2.13131
   A15        2.13643   0.00091  -0.00007   0.00382   0.00375   2.14018
   A16        2.12564  -0.00002  -0.00004   0.00008   0.00004   2.12568
   A17        2.11384  -0.00071   0.00028  -0.00321  -0.00293   2.11090
   A18        2.04370   0.00073  -0.00024   0.00314   0.00290   2.04660
   A19        1.92757  -0.00059  -0.00090  -0.00352  -0.00442   1.92315
   A20        2.20141   0.00082  -0.00031   0.00362   0.00331   2.20472
   A21        2.12870  -0.00019  -0.00000  -0.00080  -0.00080   2.12790
   A22        1.95308  -0.00063   0.00031  -0.00282  -0.00251   1.95056
   A23        1.93302   0.00011   0.00000   0.00060   0.00061   1.93362
   A24        1.93308   0.00010   0.00001   0.00057   0.00058   1.93366
   A25        1.89719   0.00012   0.00012   0.00095   0.00107   1.89826
   A26        1.85227  -0.00016  -0.00024  -0.00135  -0.00159   1.85068
   A27        1.92416  -0.00009   0.00004  -0.00043  -0.00039   1.92377
   A28        1.92418  -0.00008   0.00005  -0.00039  -0.00034   1.92383
   A29        1.94403  -0.00043  -0.00121  -0.00227  -0.00348   1.94055
   A30        1.96629  -0.00004  -0.00067   0.00003  -0.00064   1.96566
   A31        1.95704  -0.00071  -0.00088  -0.00430  -0.00517   1.95186
    D1        0.00005  -0.00000  -0.00000  -0.00007  -0.00007  -0.00002
    D2       -3.14156  -0.00000  -0.00001  -0.00001  -0.00003  -3.14159
    D3        3.14141   0.00000   0.00001   0.00007   0.00008   3.14149
    D4       -0.00020   0.00000  -0.00000   0.00013   0.00013  -0.00007
    D5       -0.00023   0.00000   0.00003   0.00010   0.00013  -0.00010
    D6        3.14115   0.00001   0.00001   0.00033   0.00034   3.14149
    D7       -3.14159  -0.00000   0.00002  -0.00004  -0.00002   3.14157
    D8       -0.00020   0.00000  -0.00000   0.00019   0.00019  -0.00002
    D9        0.00008  -0.00000  -0.00002  -0.00003  -0.00004   0.00004
   D10        3.14158   0.00000   0.00001  -0.00000   0.00001   3.14159
   D11       -3.14150  -0.00000  -0.00001  -0.00009  -0.00009  -3.14159
   D12        0.00001  -0.00000   0.00002  -0.00006  -0.00004  -0.00004
   D13        3.14146   0.00000   0.00001   0.00000   0.00001   3.14147
   D14       -0.00015   0.00000   0.00000   0.00006   0.00006  -0.00009
   D15       -0.00002   0.00000   0.00001   0.00009   0.00010   0.00008
   D16       -3.14158  -0.00000   0.00004  -0.00016  -0.00012   3.14149
   D17       -3.14153   0.00000  -0.00001   0.00006   0.00005  -3.14147
   D18        0.00011  -0.00000   0.00002  -0.00019  -0.00017  -0.00006
   D19       -0.00014  -0.00000   0.00001  -0.00005  -0.00004  -0.00019
   D20        3.14119   0.00000   0.00003   0.00010   0.00013   3.14132
   D21        3.14141   0.00000  -0.00002   0.00019   0.00017   3.14158
   D22       -0.00044   0.00001   0.00000   0.00034   0.00034  -0.00010
   D23        0.00062  -0.00000  -0.00003  -0.00015  -0.00018   0.00044
   D24       -3.14093  -0.00001  -0.00000  -0.00038  -0.00038  -3.14132
   D25        0.00027  -0.00000  -0.00003  -0.00004  -0.00007   0.00020
   D26       -3.14112  -0.00000  -0.00001  -0.00026  -0.00028  -3.14140
   D27       -3.14106  -0.00000  -0.00005  -0.00020  -0.00025  -3.14131
   D28        0.00074  -0.00001  -0.00003  -0.00042  -0.00045   0.00028
   D29       -3.14123  -0.00000  -0.00001  -0.00015  -0.00016  -3.14139
   D30        0.00007   0.00001  -0.00004   0.00041   0.00037   0.00045
   D31        0.00008   0.00000   0.00002   0.00001   0.00003   0.00011
   D32        3.14139   0.00001  -0.00001   0.00057   0.00056  -3.14124
   D33        0.00057  -0.00001  -0.00001  -0.00030  -0.00031   0.00026
   D34       -3.14123  -0.00000  -0.00003  -0.00008  -0.00011  -3.14134
   D35       -1.02586   0.00004   0.00012   0.00085   0.00098  -1.02488
   D36        1.02439  -0.00003  -0.00016  -0.00009  -0.00025   1.02414
   D37        3.14089   0.00001  -0.00001   0.00039   0.00038   3.14127
   D38        2.11600   0.00003   0.00015   0.00034   0.00049   2.11649
   D39       -2.11694  -0.00004  -0.00013  -0.00061  -0.00074  -2.11768
   D40       -0.00044  -0.00000   0.00002  -0.00012  -0.00011  -0.00055
   D41        0.00007   0.00000   0.00000  -0.00000   0.00000   0.00007
   D42        3.14141   0.00001  -0.00002   0.00049   0.00047  -3.14131
         Item               Value     Threshold  Converged?
 Maximum Force            0.002093     0.000450     NO 
 RMS     Force            0.000478     0.000300     NO 
 Maximum Displacement     0.028465     0.001800     NO 
 RMS     Displacement     0.005888     0.001200     NO 
 Predicted change in Energy=-3.044466D-05
 GradGradGradGradGradGradGradGradGradGradGradGradGradGradGradGradGradGrad

                          Input orientation:                          
 ---------------------------------------------------------------------
 Center     Atomic      Atomic             Coordinates (Angstroms)
 Number     Number       Type             X           Y           Z
 ---------------------------------------------------------------------
      1          6           0       -1.555831   -1.273089   -0.000063
      2          6           0       -2.294926   -0.077221   -0.000053
      3          6           0       -1.641761    1.178363    0.000045
      4          6           0       -0.257914    1.213193    0.000088
      5          6           0        0.563655    0.021657   -0.000055
      6          6           0       -0.165336   -1.233274   -0.000005
      7          8           0        0.561446   -2.370323    0.000102
      8          6           0        1.992423    0.083316   -0.000339
      9          6           0        2.925496   -1.077511   -0.000747
     10          8           0        2.639672    1.229722    0.000014
     11          8           0        0.414052    2.405666    0.000058
     12          8           0       -3.630602   -0.202431   -0.000105
     13          1           0       -2.094695   -2.224508   -0.000041
     14          1           0       -2.220363    2.107793    0.000046
     15          1           0       -0.030354   -3.149267   -0.000109
     16          1           0        2.753787   -1.717668    0.879718
     17          1           0        2.752946   -1.717773   -0.880956
     18          1           0        3.956909   -0.701499   -0.001224
     19          1           0        2.007676    2.000056    0.000551
     20          1           0       -0.187343    3.176118    0.000407
     21          1           0       -4.077440    0.667438    0.000014
 ---------------------------------------------------------------------
                    Distance matrix (angstroms):
                    1          2          3          4          5
     1  C    0.000000
     2  C    1.405831   0.000000
     3  C    2.452957   1.415315   0.000000
     4  C    2.804672   2.411345   1.384286   0.000000
     5  C    2.483663   2.860290   2.490347   1.447319   0.000000
     6  C    1.391065   2.423141   2.827689   2.448218   1.451302
     7  O    2.384698   3.662946   4.176996   3.675995   2.391981
     8  C    3.798676   4.290354   3.795580   2.518062   1.430098
     9  C    4.485592   5.315391   5.093997   3.921915   2.605084
    10  O    4.885315   5.104738   4.281741   2.897633   2.401930
    11  O    4.172970   3.674683   2.394294   1.368770   2.388699
    12  O    2.334734   1.341532   2.421172   3.657733   4.200238
    13  H    1.093423   2.156603   3.432883   3.897635   3.480242
    14  H    3.445572   2.186286   1.094815   2.156737   3.478896
    15  H    2.418083   3.816510   4.617901   4.368390   3.226081
    16  H    4.420913   5.380944   5.336822   4.293487   2.931882
    17  H    4.420326   5.380373   5.336405   4.293259   2.931655
    18  H    5.542294   6.282927   5.905844   4.629339   3.469457
    19  H    4.838601   4.777810   3.740799   2.398344   2.449339
    20  H    4.654911   3.876354   2.471105   1.964194   3.242626
    21  H    3.181848   1.931806   2.488689   3.858320   4.685808
                    6          7          8          9         10
     6  C    0.000000
     7  O    1.349478   0.000000
     8  C    2.527713   2.840430   0.000000
     9  C    3.094754   2.694457   1.489343   0.000000
    10  O    3.732883   4.156844   1.316502   2.324869   0.000000
    11  O    3.684776   4.778263   2.807947   4.294167   2.517186
    12  O    3.615343   4.719430   5.630280   6.614240   6.431749
    13  H    2.169095   2.660140   4.693676   5.149555   5.860541
    14  H    3.922482   5.271811   4.673978   6.051943   4.938719
    15  H    1.920741   0.978253   3.813295   3.609601   5.128799
    16  H    3.087042   2.450723   2.144229   1.102045   3.077988
    17  H    3.086614   2.450461   2.144249   1.102034   3.078419
    18  H    4.156404   3.783405   2.115453   1.097816   2.337676
    19  H    3.895690   4.603455   1.916801   3.211512   0.996410
    20  H    4.409447   5.596758   3.783756   5.270970   3.432269
    21  H    4.349399   5.545021   6.097905   7.217060   6.740605
                   11         12         13         14         15
    11  O    0.000000
    12  O    4.812629   0.000000
    13  H    5.266149   2.539253   0.000000
    14  H    2.651202   2.706642   4.334124   0.000000
    15  H    5.572681   4.652486   2.262009   5.694982   0.000000
    16  H    4.821830   6.620457   4.953650   6.336414   3.251924
    17  H    4.821759   6.619807   4.953022   6.336002   3.251435
    18  H    4.712357   7.603906   6.240311   6.786075   4.678658
    19  H    1.644432   6.053191   5.888667   4.229411   5.537968
    20  H    0.977381   4.823963   5.727544   2.296625   6.327332
    21  H    4.816113   0.977925   3.506370   2.350183   5.562926
                   16         17         18         19         20
    16  H    0.000000
    17  H    1.760675   0.000000
    18  H    1.804484   1.804514   0.000000
    19  H    3.892439   3.892908   3.331352   0.000000
    20  H    5.776900   5.776874   5.675451   2.490227   0.000000
    21  H    7.288914   7.288314   8.150139   6.229327   4.628858
                   21
    21  H    0.000000
 Stoichiometry    C8H9O4(1+)
 Framework group  C1[X(C8H9O4)]
 Deg. of freedom    57
 Full point group                 C1      NOp   1
 Largest Abelian subgroup         C1      NOp   1
 Largest concise Abelian subgroup C1      NOp   1
                         Standard orientation:                         
 ---------------------------------------------------------------------
 Center     Atomic      Atomic             Coordinates (Angstroms)
 Number     Number       Type             X           Y           Z
 ---------------------------------------------------------------------
      1          6           0        1.561235   -1.267769   -0.000025
      2          6           0        2.296640   -0.069629   -0.000035
      3          6           0        1.639609    1.183935   -0.000132
      4          6           0        0.255660    1.214499   -0.000176
      5          6           0       -0.562232    0.020437   -0.000033
      6          6           0        0.170624   -1.232241   -0.000083
      7          8           0       -0.552649   -2.371525   -0.000190
      8          6           0       -1.991183    0.077691    0.000251
      9          6           0       -2.920673   -1.086006    0.000659
     10          8           0       -2.641963    1.222097   -0.000102
     11          8           0       -0.419979    2.404896   -0.000146
     12          8           0        3.632696   -0.190721    0.000018
     13          1           0        2.103030   -2.217524   -0.000047
     14          1           0        2.215342    2.115145   -0.000133
     15          1           0        0.041549   -3.148641    0.000021
     16          1           0       -2.746992   -1.725631   -0.879806
     17          1           0       -2.746151   -1.725733    0.880868
     18          1           0       -3.953241   -0.713175    0.001136
     19          1           0       -2.012345    1.994375   -0.000639
     20          1           0        0.179039    3.177198   -0.000494
     21          1           0        4.076851    0.680521   -0.000102
 ---------------------------------------------------------------------
 Rotational constants (GHZ):      1.5084450      0.7506814      0.5027967
 Standard basis: 6-31+G(d,p) (6D, 7F)
 There are   273 symmetry adapted cartesian basis functions of A   symmetry.
 There are   273 symmetry adapted basis functions of A   symmetry.
   273 basis functions,   447 primitive gaussians,   273 cartesian basis functions
    44 alpha electrons       44 beta electrons
       nuclear repulsion energy       709.5199657068 Hartrees.
 NAtoms=   21 NActive=   21 NUniq=   21 SFac= 1.00D+00 NAtFMM=   60 NAOKFM=F Big=F
 Integral buffers will be    131072 words long.
 Raffenetti 2 integral format.
 Two-electron integral symmetry is turned on.
 Nuclear repulsion after empirical dispersion term =      709.4973097254 Hartrees.
 One-electron integrals computed using PRISM.
 NBasis=   273 RedAO= T EigKep=  1.45D-06  NBF=   273
 NBsUse=   273 1.00D-06 EigRej= -1.00D+00 NBFU=   273
 Initial guess from the checkpoint file:  "pbeTHAPyang.chk"
 B after Tr=     0.000000    0.000000   -0.000000
         Rot=    1.000000    0.000004   -0.000012   -0.000883 Ang=   0.10 deg.
 ExpMin= 4.38D-02 ExpMax= 5.48D+03 ExpMxC= 8.25D+02 IAcc=2 IRadAn=         4 AccDes= 0.00D+00
 Harris functional with IExCor= 1009 and IRadAn=       4 diagonalized for initial guess.
 HarFok:  IExCor= 1009 AccDes= 0.00D+00 IRadAn=         4 IDoV= 1 UseB2=F ITyADJ=14
 ICtDFT=  3500011 ScaDFX=  1.000000  1.000000  1.000000  1.000000
 FoFCou: FMM=F IPFlag=           0 FMFlag=      100000 FMFlg1=           0
         NFxFlg=           0 DoJE=T BraDBF=F KetDBF=T FulRan=T
         wScrn=  0.000000 ICntrl=     500 IOpCl=  0 I1Cent=   200000004 NGrid=           0
         NMat0=    1 NMatS0=      1 NMatT0=    0 NMatD0=    1 NMtDS0=    0 NMtDT0=    0
 Petite list used in FoFCou.
 Keep J ints in memory in canonical form, NReq=709970467.
 Requested convergence on RMS density matrix=1.00D-08 within 128 cycles.
 Requested convergence on MAX density matrix=1.00D-06.
 Requested convergence on             energy=1.00D-06.
 No special actions if energy rises.
 SCF Done:  E(RPBE-PBE) =  -610.300593120     A.U. after   12 cycles
            NFock= 12  Conv=0.30D-08     -V/T= 2.0094
 Calling FoFJK, ICntrl=      2527 FMM=F ISym2X=0 I1Cent= 0 IOpClX= 0 NMat=1 NMatS=1 NMatT=0.
 ***** Axes restored to original set *****
 -------------------------------------------------------------------
 Center     Atomic                   Forces (Hartrees/Bohr)
 Number     Number              X              Y              Z
[...]
 -0.00299624,0.00000012,0.00646008,-0.00378357,-0.00000160,-0.03310715,
 -0.04606062,-0.00000366,-0.00456317,0.01190859,0.00000138,0.00205851,-
 0.00413540,-0.00000027,-0.18016666,-0.10414306,-0.00000841,0.01538102,
 0.01774418,0.00000370,0.41640099,-0.00532819,0.00370077,0.00000109,0.0
 0553430,-0.00292704,-0.00000064,-0.00035971,0.00123481,0.00000065,0.00
 255263,-0.03021044,-0.00000356,-0.04553859,-0.00881622,-0.00000035,0.0
 0834358,0.01263715,-0.00000118,-0.00023954,-0.00350961,0.00000045,-0.1
 2067508,-0.32788547,-0.00004603,-0.01158761,-0.05847205,-0.00001378,-0
 .04069217,0.64062377,-0.00000077,0.00000081,-0.00132296,0.00000084,-0.
 00000036,0.00029621,-0.00000011,0.00000023,-0.00023685,-0.00000008,-0.
 00000476,-0.00298273,-0.00000311,-0.00000087,0.01657536,0.00000252,0.0
 0000078,0.00834009,-0.00000030,-0.00000028,0.00003476,-0.00001412,-0.0
 0004997,-0.05265580,-0.00000133,-0.00001398,0.00810447,-0.00004690,0.0
 0013458,0.04805844,0.00683953,-0.00549626,-0.00000091,-0.00420988,0.01
 588760,0.00000195,-0.03216409,-0.05625692,-0.00000189,-0.15842524,-0.0
 5006828,0.00000867,0.02593033,0.01402435,-0.00000098,-0.01386334,-0.00
 147436,0.00000019,0.00327278,0.00008752,-0.00000012,-0.01646624,-0.011
 32163,-0.00000178,0.00083659,0.00161159,0.00000078,-0.01846478,0.03037
 582,0.00000599,0.42457531,0.00341793,-0.00471940,-0.00000036,0.0033603
 5,0.01030451,-0.00000047,-0.02219273,-0.01746271,-0.00000057,-0.104254
 90,-0.24920762,-0.00001381,-0.00454467,-0.04615090,-0.00000452,-0.0004
 6833,-0.00133867,-0.00000165,0.00006231,-0.00321989,-0.00000020,-0.017
 03840,-0.00381321,0.00000086,0.00052291,-0.00205201,0.00000080,0.01867
 176,0.00614895,0.00000043,-0.11862937,0.62366294,-0.00000013,0.0000001
 5,-0.00146451,0.00000027,-0.00000080,0.00927550,0.00000013,-0.00000056
 ,0.01108523,-0.00000001,-0.00002358,-0.03706792,-0.00000402,-0.0000062
 0,0.00191042,0.00000163,-0.00000046,0.00225997,-0.00000030,-0.00000072
 ,0.00052692,-0.00000157,0.00000039,-0.00118115,0.00000022,0.00000034,0
 .00065887,0.00000492,-0.00000138,0.00303124,-0.00008194,0.00012764,0.0
 2159835,-0.05481792,0.01633114,0.00000367,-0.34727337,-0.04739735,0.00
 000709,-0.04303046,-0.01272229,0.00000035,0.00918417,-0.00275275,-0.00
 000035,-0.01303209,-0.00085574,0.00000089,0.01428807,0.00317481,0.,-0.
 00333221,0.00261462,0.00000017,0.01213976,0.00219089,-0.00000029,-0.00
 055978,0.00214632,-0.00000075,-0.00364443,-0.00562749,-0.00000078,-0.0
 0184278,-0.00200304,-0.00000012,0.55048256,0.04744129,0.00710031,-0.00
 000183,0.00303118,-0.11002660,-0.00000633,-0.04321480,0.00087121,0.000
 00051,0.00679273,-0.00645613,-0.00000125,-0.00038111,0.00279612,0.0000
 0034,-0.00574535,-0.00766186,-0.00000037,0.00382269,-0.00154338,-0.000
 00017,-0.00039723,0.00022005,0.,-0.00002974,0.00010411,-0.00000005,0.0
 0006534,0.00103159,0.00000015,-0.00396095,-0.00118405,0.00000004,-0.15
 098075,0.50560733,0.00000573,-0.00000017,0.00592319,0.00001230,-0.0000
 0427,-0.04302570,-0.00000148,-0.00000054,0.01172836,0.00000073,-0.0000
 0089,0.00768571,0.00000016,0.00000033,-0.00114392,-0.00000047,-0.00000
 097,0.00410372,0.00000051,-0.00000029,-0.00043520,-0.00000032,-0.00000
 004,-0.00025370,0.00000004,-0.00000004,0.00015868,0.00000011,0.0000002
 1,-0.00004181,-0.00000031,0.00000009,-0.00148331,-0.00003677,0.0000561
 2,0.02961977,-0.11949203,-0.11923828,0.00000122,0.01212089,0.01505430,
 -0.00000013,-0.00196341,0.00268875,0.00000054,-0.00115638,0.00071292,0
 .00000003,-0.00384862,0.00196290,0.00000075,-0.01105173,-0.02556406,-0
 .00000027,0.00270787,-0.00136040,-0.00000033,0.00013474,-0.00143738,-0
 .00000021,0.00003661,0.00000683,-0.00000003,-0.00056000,-0.00017953,0.
 ,0.00045114,0.00007210,-0.00000003,0.00052352,-0.00064603,-0.00000015,
 0.12319158,-0.11788370,-0.26442988,-0.00000118,-0.01470843,-0.01897305
 ,0.00000006,0.00359361,-0.00208960,-0.00000043,0.00099639,0.00015025,0
 .00000003,0.00073947,0.00083148,-0.00000018,0.00335620,0.00165500,-0.0
 0000022,0.00107935,0.00273045,0.00000025,0.00028919,0.00013125,-0.0000
 0007,0.00003027,0.00006573,-0.00000002,0.00001243,0.00011953,0.0000000
 5,-0.00026255,0.00012064,0.,-0.00129039,0.00168594,0.00000022,0.125813
 68,0.27814609,0.00000066,0.00000017,-0.02609306,-0.00000068,-0.0000027
 7,0.00306452,0.00000088,-0.00000041,0.00393671,-0.00000034,-0.00000005
 ,-0.00117885,0.00000026,-0.00000028,0.00497038,0.00000142,0.00000117,0
 .00246219,-0.00000024,0.00000044,-0.00446462,0.00000021,-0.00000008,0.
 00112377,-0.00000004,0.00000002,-0.00011811,-0.00000006,0.00000004,-0.
 00066726,0.00000012,0.00000028,-0.00012573,-0.00000051,0.00000034,-0.0
 0265604,-0.00000175,0.00000161,0.01876472,-0.00127725,-0.00279385,-0.0
 0000002,0.00934398,-0.01322877,-0.00000121,-0.13029764,0.12181936,0.00
 001176,-0.01237338,0.02645095,0.00000250,-0.00397582,-0.00250518,0.000
 00006,-0.00092903,-0.00078486,-0.00000004,0.00030490,0.00003240,0.,-0.
 00003915,0.00181995,0.00000023,-0.00042681,-0.00033559,0.00000005,0.00
 022671,-0.00039190,-0.00000006,0.00290152,0.00109033,0.00000010,0.0026
 8691,-0.00025753,-0.00000027,0.00058982,-0.00065994,-0.00000006,0.1355
 7557,-0.00386232,-0.00249020,-0.00000027,0.01739333,-0.01798489,-0.000
 00203,0.12222482,-0.24943207,-0.00001998,-0.00351554,0.00209059,0.0000
 0002,-0.00092955,0.00089948,-0.00000021,-0.00112411,-0.00002531,0.0000
 0018,0.00031190,0.00008117,0.,-0.00042881,-0.00009253,-0.00000006,-0.0
 0003415,0.00003907,0.00000002,0.00000806,0.00040555,0.00000008,-0.0011
 6924,0.00258170,0.00000076,0.00077080,0.00256983,0.00000036,0.00092391
 ,-0.00086525,-0.00000015,-0.12989814,0.26281996,-0.00000032,-0.0000003
 7,0.00348400,0.00000121,-0.00000098,0.00170892,0.00001146,-0.00001956,
 -0.02389432,0.00000085,-0.00000119,0.00300778,0.00000071,-0.00000011,0
 .00498272,-0.00000027,-0.00000008,-0.00127257,-0.00000003,0.00000020,-
 0.00004999,-0.00000021,-0.00000022,0.00109258,0.00000005,0.00000011,-0
 .00037359,0.00000002,0.00000024,-0.00003812,-0.00000073,0.00000092,-0.
 00452504,-0.00000018,0.00000043,-0.00308541,0.00000015,-0.00000012,0.0
 0061463,-0.00001285,0.00002156,0.01679479,0.00005402,0.00549886,0.0000
 0018,-0.00058173,-0.00122499,-0.00000007,0.00042479,0.00023519,0.00000
 015,0.00037591,0.00066414,-0.00000002,-0.00112408,0.00353557,0.0000000
 6,0.01337978,0.02492485,0.00000149,-0.20952290,-0.23873730,-0.00001996
 ,-0.00087028,0.00057985,0.00000002,-0.00158073,-0.00020794,0.00000078,
 0.00022001,0.00026780,0.00000002,-0.00032935,0.00005963,0.00000008,-0.
 00020123,0.00009500,0.,-0.00142281,-0.00117966,0.00000007,-0.00008690,
 -0.00016212,-0.00000007,0.20116017,-0.00358213,0.00570347,0.00000044,0
 .00079624,-0.00291264,0.,0.00110415,0.00117041,0.00000001,-0.00289985,
 -0.00046224,0.00000040,0.00641677,-0.00149655,-0.00000087,-0.02093966,
 -0.03883441,-0.00000214,-0.18753246,-0.30164843,-0.00002186,-0.0013641
 6,-0.00014961,-0.00000002,0.00004570,-0.00003869,0.00000034,0.00054873
 ,0.00076903,0.00000010,0.00085030,0.00030827,-0.00000012,-0.00132703,0
 .00065125,0.00000010,0.00135099,0.00029743,-0.00000030,0.00007205,0.00
 008944,-0.00000003,0.20674683,0.33690998,-0.00000029,0.00000021,-0.002
 15352,-0.00000002,-0.00000013,-0.00108192,0.00000027,0.00000002,-0.000
 08206,-0.00000004,0.00000019,0.00131836,-0.00000053,-0.00000054,0.0035
 4150,-0.00000107,0.00000087,-0.00199276,-0.00001685,-0.00002481,-0.008
 40982,-0.00000003,-0.00000032,-0.00063203,0.00000085,0.00000009,0.0006
 2666,-0.00000005,-0.00000021,-0.00027491,0.,0.00000021,0.00004536,-0.0
 0000008,0.00000007,0.00002969,0.00000019,-0.00000003,0.00084689,0.,0.0
 0000002,0.00004408,0.00001763,0.00002414,0.00779779,0.00016959,-0.0001
 7063,0.00013950,0.00035687,0.00068692,0.00013844,-0.00055689,-0.000760
 73,-0.00029939,0.00106115,-0.00096178,0.00096897,-0.00341373,-0.000341
 07,0.00109207,-0.00147871,0.00400661,-0.00038087,-0.00102887,-0.002400
 13,-0.00092719,0.00613380,0.00779873,-0.01872813,-0.04933287,-0.020765
 41,0.03559126,-0.00119917,0.00186571,0.00044808,-0.00000561,0.00031795
 ,0.00011571,-0.00049239,-0.00009109,0.00000898,-0.00003774,-0.00003588
 ,-0.00005702,0.00000827,-0.00000776,-0.00007900,0.00000294,-0.00025610
 ,0.00026051,0.05067563,-0.00007918,-0.00004793,0.00022454,0.00032902,0
 .00010930,0.00005040,-0.00017402,-0.00027038,0.00019293,0.00036712,-0.
 00088506,-0.00076138,-0.00170962,0.00005544,-0.00121972,0.00008414,0.0
 0174133,0.00046530,-0.00049749,-0.00134376,-0.00090981,-0.00289705,-0.
 01781600,0.01918294,-0.02361369,-0.12292068,0.12749826,0.00309069,-0.0
 0263145,0.00019198,0.00035490,0.00034669,-0.00011675,-0.00038545,-0.00
 002370,-0.00004798,-0.00003486,-0.00000241,-0.00002337,-0.00001862,0.0
 0000015,0.00005275,-0.00030566,0.00004902,-0.00016120,0.02429600,0.140
 15309,0.00058011,-0.00044610,-0.00023398,-0.00021353,0.00038610,-0.000
 05748,-0.00008224,-0.00007018,0.00001597,-0.00002590,0.00017528,0.0001
 5436,0.00026943,0.00017339,0.00075747,-0.00062024,0.00120157,0.0000405
 3,0.00086948,-0.00047495,0.00031227,-0.00089675,-0.00180374,0.00117010
 ,0.03480057,0.12654429,-0.20503097,-0.00020274,-0.00197965,-0.00082584
 ,-0.00001300,-0.00024587,-0.00010330,0.00025176,-0.00007532,0.00000259
 ,-0.00002775,-0.00001903,0.00004415,-0.00000333,-0.00000915,-0.0000082
 3,0.00046934,0.00002424,-0.00001475,-0.03797522,-0.13484674,0.22323016
 ,0.00016957,-0.00017064,-0.00013963,0.00035684,0.00068697,-0.00013835,
 -0.00055686,-0.00076096,0.00029925,0.00106123,-0.00096129,-0.00096859,
 -0.00341273,-0.00034151,-0.00108969,-0.00147933,0.00400723,0.00038124,
 -0.00103372,-0.00240266,0.00092901,0.00614909,0.00779364,0.01872509,-0
 .04939265,-0.02085273,-0.03570000,-0.00120045,0.00187133,-0.00044835,-
 0.00000589,0.00031777,-0.00011595,-0.00049242,-0.00009109,-0.00000898,
 -0.00003774,-0.00003588,0.00005707,0.00000828,-0.00000777,0.00007894,0
 .00000227,-0.00025660,-0.00026051,-0.00010194,0.00140581,0.00341543,0.
 05073853,-0.00007926,-0.00004794,-0.00022466,0.00032917,0.00010927,-0.
 00005036,-0.00017400,-0.00027039,-0.00019298,0.00036720,-0.00088564,0.
 00076107,-0.00170998,0.00005532,0.00122011,0.00008391,0.00174234,-0.00
 046497,-0.00049934,-0.00134579,0.00091051,-0.00291158,-0.01781325,-0.0
 1917720,-0.02370093,-0.12294916,-0.12749877,0.00309257,-0.00263479,-0.
 00019555,0.00035521,0.00034687,0.00011660,-0.00038559,-0.00002370,0.00
 004798,-0.00003487,-0.00000241,0.00002339,-0.00001864,0.00000017,-0.00
 005272,-0.00030602,0.00004883,0.00016124,0.00141551,0.00906083,0.01445
 352,0.02439207,0.14018372,-0.00058032,0.00044627,-0.00023389,0.0002131
 3,-0.00038677,-0.00005742,0.00008289,0.00007080,0.00001575,0.00002469,
 -0.00017418,0.00015489,-0.00026558,-0.00017287,0.00075810,0.00062122,-
 0.00120481,0.00004060,-0.00086905,0.00047707,0.00031195,0.00088995,0.0
 0180321,0.00115756,-0.03490420,-0.12655099,-0.20498528,0.00020317,0.00
 197795,-0.00082433,0.00001307,0.00024543,-0.00010320,-0.00025128,0.000
 07540,0.00000262,0.00002778,0.00001905,0.00004412,0.00000332,0.0000091
 6,-0.00000827,-0.00046957,-0.00002430,-0.00001424,-0.00343000,-0.01445
 684,-0.02021514,0.03809484,0.13484671,0.22317730,-0.00005889,-0.000007
 22,-0.00000011,0.00010097,-0.00004420,0.00000001,-0.00001117,0.0003891
 9,-0.00000004,-0.00078903,-0.00092887,0.00000010,0.00028978,0.00315274
 ,0.00000129,0.00041132,-0.00005928,-0.00000015,-0.00019911,-0.00043323
 ,0.00000024,-0.02201046,-0.00613969,0.00000626,-0.28435518,-0.08531981
 ,0.00007693,0.00207147,-0.00274709,-0.00000150,0.00053533,0.00007848,0
 .,-0.00004910,0.00000338,0.,-0.00000147,-0.00000629,0.00000002,-0.0000
 8445,0.00000096,0.,-0.00004562,0.00019109,0.00000007,-0.00132417,0.000
 03725,-0.00056404,-0.00133655,0.00003406,0.00056550,0.30674561,-0.0003
 6621,0.00041311,0.00000004,-0.00006891,-0.00039420,0.,0.00025359,-0.00
 034055,-0.00000005,0.00110315,0.00079603,0.00000037,0.00124645,-0.0045
 5991,-0.00000057,0.00034307,-0.00166698,-0.00000022,-0.00174465,0.0001
 0358,0.00000027,0.02855567,0.00782647,-0.00000941,-0.09237946,-0.07833
 938,0.00002606,0.00053449,0.00063091,0.00000043,-0.00021564,0.00002204
 ,-0.00000002,0.00001182,0.00007721,0.,0.00005138,0.00001977,-0.0000000
 1,0.00015832,0.00001993,-0.00000004,-0.00042660,0.00009701,0.00000017,
 -0.01468883,-0.00481727,-0.00276217,-0.01468634,-0.00481638,0.00277323
 ,0.09189419,0.08501855,-0.00000001,0.00000002,-0.00024277,-0.00000021,
 -0.00000020,0.00005118,0.00000023,0.00000013,-0.00023348,-0.00000016,0
 .00000071,0.00090462,0.00000127,-0.00000112,0.00189077,0.00000003,-0.0
 0000113,-0.00033191,-0.00000083,0.00000037,0.00093621,0.00000351,0.000
 00498,-0.00228121,0.00007699,0.00002209,-0.04462268,0.00000002,-0.0000
 0012,-0.00083743,-0.00000018,-0.00000018,-0.00010479,0.00000022,0.0000
 0002,-0.00000133,0.,0.,0.00002599,0.00000002,0.00000001,-0.00007826,-0
 .00000008,-0.00000008,0.00008989,0.02233583,0.00599970,0.00131419,-0.0
 2233260,-0.00599739,0.00132979,-0.00008388,-0.00002793,0.04241773,-0.0
 0289547,0.00253382,0.00000036,0.00102971,-0.00393542,-0.00000045,0.003
 56723,0.00405706,0.,-0.00821951,-0.02545093,-0.00000240,-0.01168761,-0
 .00103056,0.00000069,0.00339647,0.00308022,0.00000056,-0.00068397,0.00
 040273,0.00000014,0.03276225,-0.00902063,-0.00000529,-0.00230584,-0.00
 461304,0.00000035,-0.19582200,0.17811461,0.00005967,0.00270336,0.00452
 489,-0.00000261,-0.00090702,0.00095057,0.00000012,-0.00015298,0.000084
 31,-0.00000008,-0.00046145,0.00024443,0.00000018,0.00007235,0.00003227
 ,-0.00000007,0.00046753,-0.00038373,-0.00001430,0.00046826,-0.00038407
 ,0.00001348,0.00000196,0.00050486,-0.00000008,0.17343793,0.00227914,-0
 .00127411,-0.00000042,-0.00200182,0.00241423,0.00000044,-0.00153899,-0
 .00332741,-0.00000041,-0.00535314,0.01639657,0.00000169,0.00838870,0.0
 0158238,-0.00000030,-0.00176093,-0.00405204,-0.00000004,0.00016413,0.0
 0098901,0.,0.01018731,-0.04465577,-0.00001089,-0.00276813,-0.00031549,
 -0.00000291,0.15008703,-0.23222941,-0.00006413,-0.00511054,-0.01456234
 ,-0.00000137,0.00164169,-0.00067410,-0.00000010,0.00022210,-0.00004659
 ,0.00000003,0.00041384,-0.00008370,-0.00000012,-0.00007988,-0.00016657
 ,0.00000001,0.00023866,-0.00067651,-0.00028739,0.00023933,-0.00067721,
 0.00028823,-0.00012000,-0.00010317,0.00000008,-0.15539806,0.28304588,0
 .00000039,-0.00000018,0.00018780,-0.00000035,0.00000024,0.00026724,-0.
 00000003,-0.00000025,0.00057655,-0.00000065,0.00000264,-0.00013128,0.0
 0000168,0.00000141,-0.00256683,-0.00000022,-0.00000078,-0.00097760,0.0
 0000012,0.00000035,-0.00014554,0.00000128,-0.00000639,-0.00122438,0.00
 000268,-0.00000110,0.01098698,0.00005230,-0.00006950,-0.02492666,-0.00
 000384,-0.00000289,-0.00198479,0.00000036,-0.00000005,-0.00011265,0.00
 000004,0.,0.00011479,0.,-0.00000002,-0.00003477,-0.00000003,-0.0000000
 7,0.00008715,0.00086610,-0.00140364,-0.00062390,-0.00086693,0.00140198
 ,-0.00062263,-0.00000075,-0.00000016,-0.00028433,-0.00005346,0.0000778
 3,0.02280913,0.00057441,-0.00024200,-0.00000018,-0.00067380,0.00125445
 ,0.00000022,0.00050689,-0.00510991,-0.00000057,0.01559120,-0.01768580,
 -0.00000646,-0.00002145,-0.00402426,-0.00000036,0.00011856,-0.00091962
 ,0.00000015,-0.00024419,-0.00008269,0.,-0.00279409,-0.00239447,-0.0000
 0039,0.00012925,0.00022482,0.00000038,-0.00349830,0.00391259,0.0000002
 4,-0.22332640,0.23579651,0.00008358,-0.00022121,0.00000685,-0.00000003
 ,-0.00008706,0.00013546,0.00000006,-0.00124772,0.00105705,0.00000008,0
 .00004749,-0.00006206,0.00000004,0.00003572,0.00008793,0.00000434,0.00
 003564,0.00008805,-0.00000439,0.00009522,-0.00005703,-0.00000007,0.005
 45623,0.00032327,0.00000134,0.20967268,-0.00101084,0.00103362,0.000000
 05,-0.00045098,-0.00263458,0.00000055,0.00277673,0.00544808,0.00000083
 ,0.02173838,-0.03369803,-0.00000852,-0.00627543,-0.00143776,-0.0000006
 0,0.00299162,-0.00047323,-0.00000012,-0.00089494,0.00029281,0.,0.00075
 982,-0.00041321,0.00000011,-0.00010163,0.00045646,-0.00000005,-0.00312
 481,0.00292852,0.00000044,0.19045458,-0.29976545,-0.00009397,0.0011383
 4,0.00060945,-0.00000012,-0.00009406,0.00005823,-0.00000007,-0.0014404
 6,0.00010752,-0.00000058,0.00007171,-0.00030151,0.00000003,-0.00006567
 ,-0.00003570,0.00003862,-0.00006568,-0.00003568,-0.00003853,0.00002057
 ,0.00001952,0.00000002,0.00599468,-0.00187513,0.00000052,-0.21205446,0
 .32963616,0.00000013,0.,-0.00007219,0.00000011,0.00000025,-0.00089683,
 -0.00000009,0.00000101,-0.00177542,0.00000149,0.00000237,-0.00293951,0
 .00000111,0.00000055,0.00317680,-0.00000008,-0.00000007,0.00131447,-0.
 00000002,0.00000017,0.00001485,-0.00000044,-0.00000050,-0.00075637,-0.
 00000013,0.,-0.00055254,-0.00000216,0.00000122,0.00113752,0.00007501,-
 0.00010606,-0.00244817,0.00000017,0.00000012,0.00018863,0.,0.00000002,
 0.00005132,-0.00000036,-0.00000032,0.00083461,-0.00000002,0.,0.0000245
 1,-0.00005104,0.00010328,0.00003876,0.00005112,-0.00010317,0.00003872,
 0.00000004,0.,0.00003748,0.00000320,-0.00000022,-0.00144817,-0.0000779
 9,0.00010135,0.00392948,-0.00471581,-0.00373576,0.00000028,-0.02756016
 ,0.04259873,0.00000526,0.00394489,0.00102623,-0.00000013,-0.00180229,0
 .00011642,-0.00000006,0.00147141,-0.00030652,-0.00000010,-0.00063038,0
 .00224418,0.,-0.00029094,-0.00064288,0.00000002,-0.00140064,-0.0004416
 4,0.00000003,0.00011375,-0.00027121,0.00000009,0.00052364,0.00052855,0
 .00000007,0.00105771,0.00083855,0.00000006,-0.11940857,0.14358667,0.00
 002010,0.00005581,-0.00006762,0.,-0.00044638,-0.00179576,0.,0.00002589
 ,0.00006493,-0.00000001,0.00006058,0.00004650,-0.00002143,0.00006057,0
 .00004652,0.00002136,0.00001353,-0.00002332,-0.00000003,-0.00022745,-0
 .00005372,-0.00000003,-0.00014908,-0.00036744,-0.00000006,0.14930391,-
 0.00241436,0.00217836,-0.00000016,-0.00581476,0.00279500,0.00000098,-0
 .00526246,0.00264598,0.00000068,0.00069568,-0.00087922,-0.00000012,-0.
 00141054,-0.00008865,0.00000012,0.00155790,0.00038682,-0.00000020,-0.0
 0020511,0.00016389,0.00000008,0.00156844,0.00032464,0.00000003,-0.0000
 0427,0.00029307,-0.00000010,-0.00042615,-0.00091411,-0.00000016,-0.000
 03612,-0.00036636,0.,0.19570745,-0.39573087,-0.00004999,-0.00027037,0.
 00039739,0.,0.00047625,-0.00073060,-0.00000009,-0.00004927,-0.00008346
 ,-0.00000002,-0.00008099,-0.00004500,0.00002330,-0.00008100,-0.0000450
 3,-0.00002324,0.00000378,-0.00000629,0.00000003,-0.00030801,0.00029148
 ,0.00000005,-0.00025469,0.00007991,-0.00000003,-0.18339138,0.38933304,
 0.00000012,0.00000008,0.00453479,-0.00000056,-0.00000083,-0.00404627,-
 0.00000066,0.00000028,-0.00213795,0.00000012,-0.00000005,-0.00108832,-
 0.00000010,0.00000004,-0.00010730,0.00000005,-0.00000009,0.00286235,0.
 00000002,-0.00000006,-0.00102265,0.00000011,0.00000005,0.00003250,-0.0
 0000006,0.00000002,-0.00016808,-0.00000004,-0.00000005,0.00005663,-0.0
 0000010,-0.00000008,0.00020005,0.00002644,-0.00004817,-0.00720391,-0.0
 0000006,0.,-0.00076049,0.00000014,0.,0.00080447,0.,-0.00000001,0.00020
 415,-0.00003759,-0.00001463,0.00003302,0.00003760,0.00001464,0.0000330
 0,0.,0.,0.00002034,0.,0.,0.00005389,0.,0.00000004,0.00010205,-0.000025
 43,0.00004884,0.00759774\\0.00000405,0.00001863,-0.00000029,-0.0000160
 6,-0.00000727,0.00000121,0.00002088,-0.00001582,-0.00000101,0.00000963
 ,0.00005227,0.00000078,0.00001081,-0.00002147,0.00000041,0.00001066,-0
 .00001433,-0.00000095,-0.00001295,0.00000550,0.00000209,-0.00004239,0.
 00000998,-0.00000361,0.00001407,-0.00003254,-0.00000176,0.00003873,-0.
 00000331,0.00000118,-0.00001662,-0.00002041,-0.00000138,0.00000536,0.0
 0000452,-0.00000083,0.00000247,0.00000161,0.00000032,-0.00000212,0.000
 00156,-0.00000013,-0.00000628,-0.00001339,-0.00000079,0.00000463,0.000
 01080,0.00000061,0.00000371,0.00001093,0.00000141,-0.00000234,-0.00000
 441,0.00000024,-0.00001248,-0.00000285,0.00000108,-0.00000174,0.000008
 66,0.00000106,-0.00001201,0.00001135,0.00000036\\\@


 E PUR SI MUOVE    -- GALILEO GALILEI
 Job cpu time:       0 days  0 hours 32 minutes 44.5 seconds.
 File lengths (MBytes):  RWF=    167 Int=      0 D2E=      0 Chk=      7 Scr=      1
 Normal termination of Gaussian 09 at Thu Jun 20 16:52:28 2024.
