 Entering Gaussian System, Link 0=g09
 Input=B2PLYPD3FAyang.gjf
 Output=B2PLYPD3FAyang.log
 Initial command:
 /home/c612/g09E/g09/l1.exe "/mnt/ja_sm883/scratch/Gau-1975030.inp" -scrdir="/mnt/ja_sm883/scratch/"
 Default is to use a total of  18 processors:
                               18 via shared-memory
                                1 via Linda
 Entering Link 1 = /home/c612/g09E/g09/l1.exe PID=   1975032.
  
 Copyright (c) 1988,1990,1992,1993,1995,1998,2003,2009,2015,
            Gaussian, Inc.  All Rights Reserved.
  
 This is part of the Gaussian(R) 09 program.  It is based on
 the Gaussian(R) 03 system (copyright 2003, Gaussian, Inc.),
 the Gaussian(R) 98 system (copyright 1998, Gaussian, Inc.),
 the Gaussian(R) 94 system (copyright 1995, Gaussian, Inc.),
 the Gaussian 92(TM) system (copyright 1992, Gaussian, Inc.),
 the Gaussian 90(TM) system (copyright 1990, Gaussian, Inc.),
 the Gaussian 88(TM) system (copyright 1988, Gaussian, Inc.),
 the Gaussian 86(TM) system (copyright 1986, Carnegie Mellon
 University), and the Gaussian 82(TM) system (copyright 1983,
 Carnegie Mellon University). Gaussian is a federally registered
 trademark of Gaussian, Inc.
  
 This software contains proprietary and confidential information,
 including trade secrets, belonging to Gaussian, Inc.
  
 This software is provided under written license and may be
 used, copied, transmitted, or stored only in accord with that
 written license.
  
 The following legend is applicable only to US Government
 contracts under FAR:
  
                    RESTRICTED RIGHTS LEGEND
  
 Use, reproduction and disclosure by the US Government is
 subject to restrictions as set forth in subparagraphs (a)
 and (c) of the Commercial Computer Software - Restricted
 Rights clause in FAR 52.227-19.
  
 Gaussian, Inc.
 340 Quinnipiac St., Bldg. 40, Wallingford CT 06492
  
  
 ---------------------------------------------------------------
 Warning -- This program may not be used in any manner that
 competes with the business of Gaussian, Inc. or will provide
 assistance to any competitor of Gaussian, Inc.  The licensee
 of this program is prohibited from giving any competitor of
 Gaussian, Inc. access to this program.  By using this program,
 the user acknowledges that Gaussian, Inc. is engaged in the
 business of creating and licensing software in the field of
 computational chemistry and represents and warrants to the
 licensee that it is not a competitor of Gaussian, Inc. and that
 it will not use this program in any manner prohibited above.
 ---------------------------------------------------------------
  

 Cite this work as:
 Gaussian 09, Revision E.01,
 M. J. Frisch, G. W. Trucks, H. B. Schlegel, G. E. Scuseria, 
 M. A. Robb, J. R. Cheeseman, G. Scalmani, V. Barone, B. Mennucci, 
 G. A. Petersson, H. Nakatsuji, M. Caricato, X. Li, H. P. Hratchian, 
 A. F. Izmaylov, J. Bloino, G. Zheng, J. L. Sonnenberg, M. Hada, 
 M. Ehara, K. Toyota, R. Fukuda, J. Hasegawa, M. Ishida, T. Nakajima, 
 Y. Honda, O. Kitao, H. Nakai, T. Vreven, J. A. Montgomery, Jr., 
 J. E. Peralta, F. Ogliaro, M. Bearpark, J. J. Heyd, E. Brothers, 
 K. N. Kudin, V. N. Staroverov, T. Keith, R. Kobayashi, J. Normand, 
 K. Raghavachari, A. Rendell, J. C. Burant, S. S. Iyengar, J. Tomasi, 
 M. Cossi, N. Rega, J. M. Millam, M. Klene, J. E. Knox, J. B. Cross, 
 V. Bakken, C. Adamo, J. Jaramillo, R. Gomperts, R. E. Stratmann, 
 O. Yazyev, A. J. Austin, R. Cammi, C. Pomelli, J. W. Ochterski, 
 R. L. Martin, K. Morokuma, V. G. Zakrzewski, G. A. Voth, 
 P. Salvador, J. J. Dannenberg, S. Dapprich, A. D. Daniels, 
 O. Farkas, J. B. Foresman, J. V. Ortiz, J. Cioslowski, 
 and D. J. Fox, Gaussian, Inc., Wallingford CT, 2013.
 
 ******************************************
 Gaussian 09:  ES64L-G09RevE.01 30-Nov-2015
                19-Dec-2024 
 ******************************************
 %chk=B2PLYPD3FAyang.chk
 -----------------------------------------------------
 # opt freq B2PLYP/6-31+g(d,p) EmpiricalDispersion=GD3
 -----------------------------------------------------
 1/18=20,19=15,38=1/1,3;
 2/9=110,12=2,17=6,18=5,40=1/2;
 3/5=1,6=6,7=111,11=9,16=1,25=1,30=1,71=1,74=-47,124=31/1,2,3;
 4//1;
 5/5=2,38=5/2;
 8/6=4,10=2/1;
 9/15=2,16=-3/6;
 10/5=1/2;
 6/7=2,8=2,9=2,10=2/1;
 7/12=2/1,2,3,16;
 1/18=20,19=15/3(2);
 2/9=110/2;
 99//99;
 2/9=110/2;
 3/5=1,6=6,7=111,11=9,16=1,25=1,30=1,71=1,74=-47,124=31/1,2,3;
 4/5=5,16=3,69=1/1;
 5/5=2,38=5/2;
 8/6=4,10=2/1;
 9/15=2,16=-3/6;
 10/5=1/2;
 7/12=2/1,2,3,16;
 1/18=20,19=15/3(-8);
 2/9=110/2;
 6/7=2,8=2,9=2,10=2/1;
 99//99;
 ----------
 [No Title]
 ----------
 Symbolic Z-matrix:
 Charge =  1 Multiplicity = 1
 C                     1.47536  -2.02797  -0.02226 
 C                     2.51505  -1.08565  -0.01126 
 C                     2.22907   0.30992   0.00469 
 C                     0.91936   0.73357   0.01093 
 C                    -0.14635  -0.21493   0.00223 
 C                     0.16664  -1.60024  -0.01701 
 O                     3.77214  -1.50434  -0.01718 
 C                    -1.47346   0.27253   0.00957 
 C                    -2.64626  -0.47068   0.01651 
 C                    -3.89482   0.13685  -0.00016 
 O                    -4.96297  -0.63038   0.1002 
 O                    -4.01246   1.44793  -0.12404 
 O                     3.34193   1.07535   0.01212 
 C                     3.20344   2.49592   0.02921 
 H                     1.73326  -3.08144  -0.0366 
 H                     0.68398   1.7926    0.02333 
 H                    -0.62549  -2.34071  -0.02827 
 H                     4.36974  -0.73639  -0.00878 
 H                    -1.58495   1.35587   0.00962 
 H                    -2.65752  -1.55342   0.03618 
 H                    -5.80289  -0.19408  -0.10601 
 H                    -4.88537   1.79808   0.10667 
 H                     4.21762   2.89256   0.03231 
 H                     2.67572   2.84195  -0.86593 
 H                     2.6786    2.82047   0.93405 
 

 GradGradGradGradGradGradGradGradGradGradGradGradGradGradGradGradGradGrad
 Berny optimization.
 Initialization pass.
                           ----------------------------
                           !    Initial Parameters    !
                           ! (Angstroms and Degrees)  !
 --------------------------                            --------------------------
 ! Name  Definition              Value          Derivative Info.                !
 --------------------------------------------------------------------------------
 ! R1    R(1,2)                  1.4032         estimate D2E/DX2                !
 ! R2    R(1,6)                  1.3769         estimate D2E/DX2                !
 ! R3    R(1,15)                 1.0847         estimate D2E/DX2                !
 ! R4    R(2,3)                  1.4247         estimate D2E/DX2                !
 ! R5    R(2,7)                  1.325          estimate D2E/DX2                !
 ! R6    R(3,4)                  1.3765         estimate D2E/DX2                !
 ! R7    R(3,13)                 1.3507         estimate D2E/DX2                !
 ! R8    R(4,5)                  1.4267         estimate D2E/DX2                !
 ! R9    R(4,16)                 1.0849         estimate D2E/DX2                !
 ! R10   R(5,6)                  1.4204         estimate D2E/DX2                !
 ! R11   R(5,8)                  1.4138         estimate D2E/DX2                !
 ! R12   R(6,17)                 1.0844         estimate D2E/DX2                !
 ! R13   R(7,18)                 0.9731         estimate D2E/DX2                !
 ! R14   R(8,9)                  1.3885         estimate D2E/DX2                !
 ! R15   R(8,19)                 1.0891         estimate D2E/DX2                !
 ! R16   R(9,10)                 1.3886         estimate D2E/DX2                !
 ! R17   R(9,20)                 1.083          estimate D2E/DX2                !
 ! R18   R(10,11)                1.319          estimate D2E/DX2                !
 ! R19   R(10,12)                1.3222         estimate D2E/DX2                !
 ! R20   R(11,21)                0.9687         estimate D2E/DX2                !
 ! R21   R(12,22)                0.9684         estimate D2E/DX2                !
 ! R22   R(13,14)                1.4274         estimate D2E/DX2                !
 ! R23   R(14,23)                1.089          estimate D2E/DX2                !
 ! R24   R(14,24)                1.0952         estimate D2E/DX2                !
 ! R25   R(14,25)                1.0952         estimate D2E/DX2                !
 ! A1    A(2,1,6)              119.7102         estimate D2E/DX2                !
 ! A2    A(2,1,15)             118.4344         estimate D2E/DX2                !
 ! A3    A(6,1,15)             121.8553         estimate D2E/DX2                !
 ! A4    A(1,2,3)              120.6096         estimate D2E/DX2                !
 ! A5    A(1,2,7)              119.388          estimate D2E/DX2                !
 ! A6    A(3,2,7)              120.0023         estimate D2E/DX2                !
 ! A7    A(2,3,4)              119.5064         estimate D2E/DX2                !
 ! A8    A(2,3,13)             112.9419         estimate D2E/DX2                !
 ! A9    A(4,3,13)             127.5517         estimate D2E/DX2                !
 ! A10   A(3,4,5)              120.4025         estimate D2E/DX2                !
 ! A11   A(3,4,16)             120.4566         estimate D2E/DX2                !
 ! A12   A(5,4,16)             119.1409         estimate D2E/DX2                !
 ! A13   A(4,5,6)              118.9405         estimate D2E/DX2                !
 ! A14   A(4,5,8)              118.1586         estimate D2E/DX2                !
 ! A15   A(6,5,8)              122.9007         estimate D2E/DX2                !
 ! A16   A(1,6,5)              120.8304         estimate D2E/DX2                !
 ! A17   A(1,6,17)             118.8267         estimate D2E/DX2                !
 ! A18   A(5,6,17)             120.3429         estimate D2E/DX2                !
 ! A19   A(2,7,18)             109.465          estimate D2E/DX2                !
 ! A20   A(5,8,9)              127.4693         estimate D2E/DX2                !
 ! A21   A(5,8,19)             116.0443         estimate D2E/DX2                !
 ! A22   A(9,8,19)             116.4864         estimate D2E/DX2                !
 ! A23   A(8,9,10)             121.6834         estimate D2E/DX2                !
 ! A24   A(8,9,20)             122.958          estimate D2E/DX2                !
 ! A25   A(10,9,20)            115.3586         estimate D2E/DX2                !
 ! A26   A(9,10,11)            118.2133         estimate D2E/DX2                !
 ! A27   A(9,10,12)            120.9953         estimate D2E/DX2                !
 ! A28   A(11,10,12)           120.7892         estimate D2E/DX2                !
 ! A29   A(10,11,21)           115.0877         estimate D2E/DX2                !
 ! A30   A(10,12,22)           114.6094         estimate D2E/DX2                !
 ! A31   A(3,13,14)            118.954          estimate D2E/DX2                !
 ! A32   A(13,14,23)           105.7926         estimate D2E/DX2                !
 ! A33   A(13,14,24)           110.5728         estimate D2E/DX2                !
 ! A34   A(13,14,25)           110.5667         estimate D2E/DX2                !
 ! A35   A(23,14,24)           109.633          estimate D2E/DX2                !
 ! A36   A(23,14,25)           109.6337         estimate D2E/DX2                !
 ! A37   A(24,14,25)           110.5309         estimate D2E/DX2                !
 ! D1    D(6,1,2,3)             -0.0287         estimate D2E/DX2                !
 ! D2    D(6,1,2,7)           -179.9607         estimate D2E/DX2                !
 ! D3    D(15,1,2,3)           179.8611         estimate D2E/DX2                !
 ! D4    D(15,1,2,7)            -0.0709         estimate D2E/DX2                !
 ! D5    D(2,1,6,5)             -0.1314         estimate D2E/DX2                !
 ! D6    D(2,1,6,17)           179.8427         estimate D2E/DX2                !
 ! D7    D(15,1,6,5)           179.9827         estimate D2E/DX2                !
 ! D8    D(15,1,6,17)           -0.0432         estimate D2E/DX2                !
 ! D9    D(1,2,3,4)              0.0785         estimate D2E/DX2                !
 ! D10   D(1,2,3,13)          -179.9282         estimate D2E/DX2                !
 ! D11   D(7,2,3,4)           -179.9899         estimate D2E/DX2                !
 ! D12   D(7,2,3,13)             0.0034         estimate D2E/DX2                !
 ! D13   D(1,2,7,18)           179.9551         estimate D2E/DX2                !
 ! D14   D(3,2,7,18)             0.0227         estimate D2E/DX2                !
 ! D15   D(2,3,4,5)              0.0317         estimate D2E/DX2                !
 ! D16   D(2,3,4,16)           179.9825         estimate D2E/DX2                !
 ! D17   D(13,3,4,5)          -179.9605         estimate D2E/DX2                !
 ! D18   D(13,3,4,16)           -0.0097         estimate D2E/DX2                !
 ! D19   D(2,3,13,14)         -179.9531         estimate D2E/DX2                !
 ! D20   D(4,3,13,14)            0.0396         estimate D2E/DX2                !
 ! D21   D(3,4,5,6)             -0.1869         estimate D2E/DX2                !
 ! D22   D(3,4,5,8)            179.9819         estimate D2E/DX2                !
 ! D23   D(16,4,5,6)           179.8617         estimate D2E/DX2                !
 ! D24   D(16,4,5,8)             0.0305         estimate D2E/DX2                !
 ! D25   D(4,5,6,1)              0.2384         estimate D2E/DX2                !
 ! D26   D(4,5,6,17)          -179.7353         estimate D2E/DX2                !
 ! D27   D(8,5,6,1)           -179.9389         estimate D2E/DX2                !
 ! D28   D(8,5,6,17)             0.0874         estimate D2E/DX2                !
 ! D29   D(4,5,8,9)           -179.3111         estimate D2E/DX2                !
 ! D30   D(4,5,8,19)             0.698          estimate D2E/DX2                !
 ! D31   D(6,5,8,9)              0.8648         estimate D2E/DX2                !
 ! D32   D(6,5,8,19)          -179.1261         estimate D2E/DX2                !
 ! D33   D(5,8,9,10)          -178.8596         estimate D2E/DX2                !
 ! D34   D(5,8,9,20)             1.2092         estimate D2E/DX2                !
 ! D35   D(19,8,9,10)            1.1313         estimate D2E/DX2                !
 ! D36   D(19,8,9,20)         -178.8            estimate D2E/DX2                !
 ! D37   D(8,9,10,11)         -175.4371         estimate D2E/DX2                !
 ! D38   D(8,9,10,12)            5.0986         estimate D2E/DX2                !
 ! D39   D(20,9,10,11)           4.4991         estimate D2E/DX2                !
 ! D40   D(20,9,10,12)        -174.9652         estimate D2E/DX2                !
 ! D41   D(9,10,11,21)        -167.3787         estimate D2E/DX2                !
 ! D42   D(12,10,11,21)         12.0867         estimate D2E/DX2                !
 ! D43   D(9,10,12,22)        -164.5976         estimate D2E/DX2                !
 ! D44   D(11,10,12,22)         15.9519         estimate D2E/DX2                !
 ! D45   D(3,13,14,23)        -179.9948         estimate D2E/DX2                !
 ! D46   D(3,13,14,24)         -61.3672         estimate D2E/DX2                !
 ! D47   D(3,13,14,25)          61.38           estimate D2E/DX2                !
 --------------------------------------------------------------------------------
 Trust Radius=3.00D-01 FncErr=1.00D-07 GrdErr=1.00D-07
 Number of steps in this run=    119 maximum allowed number of steps=    150.
 GradGradGradGradGradGradGradGradGradGradGradGradGradGradGradGradGradGrad

                          Input orientation:                          
 ---------------------------------------------------------------------
 Center     Atomic      Atomic             Coordinates (Angstroms)
 Number     Number       Type             X           Y           Z
 ---------------------------------------------------------------------
      1          6           0        1.475358   -2.027968   -0.022258
      2          6           0        2.515049   -1.085648   -0.011255
      3          6           0        2.229075    0.309918    0.004686
      4          6           0        0.919360    0.733574    0.010930
      5          6           0       -0.146346   -0.214926    0.002225
      6          6           0        0.166639   -1.600235   -0.017010
      7          8           0        3.772139   -1.504336   -0.017181
      8          6           0       -1.473460    0.272532    0.009566
      9          6           0       -2.646260   -0.470681    0.016512
     10          6           0       -3.894816    0.136847   -0.000158
     11          8           0       -4.962974   -0.630379    0.100200
     12          8           0       -4.012462    1.447929   -0.124040
     13          8           0        3.341929    1.075347    0.012116
     14          6           0        3.203441    2.495921    0.029208
     15          1           0        1.733260   -3.081436   -0.036596
     16          1           0        0.683984    1.792598    0.023333
     17          1           0       -0.625492   -2.340712   -0.028268
     18          1           0        4.369739   -0.736386   -0.008782
     19          1           0       -1.584954    1.355871    0.009620
     20          1           0       -2.657516   -1.553415    0.036175
     21          1           0       -5.802893   -0.194081   -0.106011
     22          1           0       -4.885369    1.798081    0.106668
     23          1           0        4.217623    2.892555    0.032307
     24          1           0        2.675720    2.841952   -0.865929
     25          1           0        2.678603    2.820471    0.934048
 ---------------------------------------------------------------------
                    Distance matrix (angstroms):
                    1          2          3          4          5
     1  C    0.000000
     2  C    1.403227   0.000000
     3  C    2.456527   1.424654   0.000000
     4  C    2.817153   2.419976   1.376545   0.000000
     5  C    2.432621   2.800243   2.432713   1.426695   0.000000
     6  C    1.376855   2.404134   2.811191   2.452353   1.420356
     7  O    2.355721   1.324994   2.381815   3.625932   4.125225
     8  C    3.740166   4.213465   3.702727   2.436832   1.413825
     9  C    4.406175   5.197891   4.937445   3.763497   2.513003
    10  C    5.790137   6.525411   6.126338   4.851030   3.764941
    11  O    6.589413   7.492698   7.253885   6.039055   4.835505
    12  O    6.496798   7.002866   6.345741   4.985117   4.210449
    13  O    3.621579   2.313909   1.350696   2.446559   3.719269
    14  C    4.842984   3.647349   2.393449   2.885000   4.309349
    15  H    1.084672   2.143596   3.427655   3.901153   3.428018
    16  H    3.901932   3.411495   2.141493   1.084937   2.172567
    17  H    2.124009   3.382081   3.895572   3.440834   2.179329
    18  H    3.169512   1.887290   2.382724   3.750505   4.546104
    19  H    4.562553   4.771947   3.954853   2.580474   2.130035
    20  H    4.160440   5.193889   5.229892   4.245586   2.845818
    21  H    7.506204   8.366124   8.048526   6.786966   5.657621
    22  H    7.423889   7.943298   7.269136   5.902306   5.149898
    23  H    5.633342   4.327442   3.259617   3.942105   5.357384
    24  H    5.086135   4.022726   2.714527   2.880788   4.249971
    25  H    5.086225   4.022203   2.714529   2.881358   4.249972
                    6          7          8          9         10
     6  C    0.000000
     7  O    3.606775   0.000000
     8  C    2.489556   5.538437   0.000000
     9  C    3.031405   6.501186   1.388479   0.000000
    10  C    4.417370   7.840661   2.425174   1.388618   0.000000
    11  O    5.221809   8.779509   3.605575   2.323719   1.318965
    12  O    5.173746   8.326302   2.801060   2.359518   1.322166
    13  O    4.152355   2.615474   4.881853   6.184548   7.297356
    14  C    5.099294   4.040746   5.178537   6.558955   7.480063
    15  H    2.156071   2.577722   4.640505   5.098927   6.483357
    16  H    3.432286   4.517534   2.639196   4.026537   4.869032
    17  H    1.084391   4.476473   2.747640   2.753638   4.102142
    18  H    4.290962   0.973110   5.929690   7.021074   8.310564
    19  H    3.436182   6.072886   1.089061   2.112513   2.611815
    20  H    2.825044   6.430064   2.176414   1.082971   2.095046
    21  H    6.133555   9.664673   4.356039   3.171096   1.939453
    22  H    6.089880   9.266809   3.738697   3.188890   1.937087
    23  H    6.049634   4.419678   6.265258   7.643592   8.567768
    24  H    5.171961   4.562097   4.958236   6.330538   7.158149
    25  H    5.172728   4.561207   4.958456   6.326746   7.161314
                   11         12         13         14         15
    11  O    0.000000
    12  O    2.296328   0.000000
    13  O    8.478719   7.365081   0.000000
    14  C    8.744663   7.293218   1.427411   0.000000
    15  H    7.132036   7.316838   4.457469   5.768247   0.000000
    16  H    6.145312   4.711382   2.753043   2.615791   4.986058
    17  H    4.664278   5.082769   5.235601   6.169040   2.472337
    18  H    9.333951   8.662898   2.083076   3.436496   3.528605
    19  H    3.919747   2.432927   4.934863   4.922278   5.540972
    20  H    2.484196   3.296910   6.550138   7.123762   4.649630
    21  H    0.968681   2.429437   9.233264   9.400449   8.070641
    22  H    2.429708   0.968400   8.259523   8.119226   8.224139
    23  H    9.833567   8.357373   2.017298   1.088987   6.470346
    24  H    8.446309   6.872080   2.082232   1.095216   6.054961
    25  H    8.425994   6.911857   2.082167   1.095227   6.055438
                   16         17         18         19         20
    16  H    0.000000
    17  H    4.336086   0.000000
    18  H    4.470076   5.246577   0.000000
    19  H    2.310627   3.819258   6.311596   0.000000
    20  H    4.728804   2.180163   7.074735   3.100813   0.000000
    21  H    6.785514   5.605314  10.187541   4.495190   3.429490
    22  H    5.569979   5.940906   9.596555   3.331322   4.025025
    23  H    3.700891   7.130674   3.632360   6.002650   8.187442
    24  H    2.420525   6.201587   4.050791   4.596560   6.969681
    25  H    2.421658   6.203298   4.049704   4.601906   6.957817
                   21         22         23         24         25
    21  H    0.000000
    22  H    2.203586   0.000000
    23  H   10.486048   9.168853   0.000000
    24  H    9.037801   7.694523   1.785176   0.000000
    25  H    9.061182   7.677468   1.785193   1.800107   0.000000
 Stoichiometry    C10H11O4(1+)
 Framework group  C1[X(C10H11O4)]
 Deg. of freedom    69
 Full point group                 C1      NOp   1
 Largest Abelian subgroup         C1      NOp   1
 Largest concise Abelian subgroup C1      NOp   1
                         Standard orientation:                         
 ---------------------------------------------------------------------
 Center     Atomic      Atomic             Coordinates (Angstroms)
 Number     Number       Type             X           Y           Z
 ---------------------------------------------------------------------
      1          6           0        1.475358   -2.027968   -0.022258
      2          6           0        2.515049   -1.085648   -0.011255
      3          6           0        2.229075    0.309918    0.004686
      4          6           0        0.919360    0.733574    0.010930
      5          6           0       -0.146346   -0.214926    0.002225
      6          6           0        0.166639   -1.600235   -0.017010
      7          8           0        3.772139   -1.504336   -0.017181
      8          6           0       -1.473460    0.272532    0.009566
      9          6           0       -2.646260   -0.470681    0.016512
     10          6           0       -3.894816    0.136847   -0.000158
     11          8           0       -4.962974   -0.630379    0.100200
     12          8           0       -4.012462    1.447929   -0.124040
     13          8           0        3.341929    1.075347    0.012116
     14          6           0        3.203441    2.495921    0.029208
     15          1           0        1.733260   -3.081436   -0.036596
     16          1           0        0.683984    1.792598    0.023333
     17          1           0       -0.625492   -2.340712   -0.028268
     18          1           0        4.369739   -0.736386   -0.008782
     19          1           0       -1.584954    1.355871    0.009620
     20          1           0       -2.657516   -1.553415    0.036175
     21          1           0       -5.802893   -0.194081   -0.106011
     22          1           0       -4.885369    1.798081    0.106668
     23          1           0        4.217623    2.892555    0.032307
     24          1           0        2.675720    2.841952   -0.865929
     25          1           0        2.678603    2.820471    0.934048
 ---------------------------------------------------------------------
 Rotational constants (GHZ):      1.5392713      0.2853975      0.2412416
 Standard basis: 6-31+G(d,p) (6D, 7F)
 There are   321 symmetry adapted cartesian basis functions of A   symmetry.
 There are   321 symmetry adapted basis functions of A   symmetry.
   321 basis functions,   525 primitive gaussians,   321 cartesian basis functions
    51 alpha electrons       51 beta electrons
       nuclear repulsion energy       839.6626037816 Hartrees.
 NAtoms=   25 NActive=   25 NUniq=   25 SFac= 1.00D+00 NAtFMM=   60 NAOKFM=F Big=F
 Integral buffers will be    131072 words long.
 Regular integral format.
 Two-electron integral symmetry is turned on.
 Nuclear repulsion after empirical dispersion term =      839.6513059500 Hartrees.
 One-electron integrals computed using PRISM.
 NBasis=   321 RedAO= T EigKep=  1.39D-06  NBF=   321
 NBsUse=   320 1.00D-06 EigRej=  6.54D-07 NBFU=   320
 ExpMin= 4.38D-02 ExpMax= 5.48D+03 ExpMxC= 8.25D+02 IAcc=2 IRadAn=         4 AccDes= 0.00D+00
 Harris functional with IExCor=  419 and IRadAn=       4 diagonalized for initial guess.
 HarFok:  IExCor=  419 AccDes= 0.00D+00 IRadAn=         4 IDoV= 1 UseB2=F ITyADJ=14
 ICtDFT=  3500011 ScaDFX=  1.000000  1.000000  1.000000  1.000000
 FoFCou: FMM=F IPFlag=           0 FMFlag=      100000 FMFlg1=           0
         NFxFlg=           0 DoJE=T BraDBF=F KetDBF=T FulRan=T
         wScrn=  0.000000 ICntrl=     500 IOpCl=  0 I1Cent=   200000004 NGrid=           0
         NMat0=    1 NMatS0=      1 NMatT0=    0 NMatD0=    1 NMtDS0=    0 NMtDT0=    0
 Petite list used in FoFCou.
 Requested convergence on RMS density matrix=1.00D-08 within 128 cycles.
 Requested convergence on MAX density matrix=1.00D-06.
 Requested convergence on             energy=1.00D-06.
 No special actions if energy rises.
 SCF Done:  E(RB2PLYP) =  -687.021368871     A.U. after   15 cycles
            NFock= 15  Conv=0.59D-08     -V/T= 2.0067
 DoSCS=T DFT=T ScalE2(SS,OS)=  0.270000  0.270000
 ExpMin= 4.38D-02 ExpMax= 5.48D+03 ExpMxC= 8.25D+02 IAcc=3 IRadAn=         5 AccDes= 0.00D+00
 HarFok:  IExCor=  205 AccDes= 0.00D+00 IRadAn=         5 IDoV=-2 UseB2=F ITyADJ=14
 ICtDFT= 12500011 ScaDFX=  1.000000  1.000000  1.000000  1.000000
 Range of M.O.s used for correlation:    15   320
 NBasis=   321 NAE=    51 NBE=    51 NFC=    14 NFV=     0
 NROrb=    306 NOA=    37 NOB=    37 NVA=   269 NVB=   269

 **** Warning!!: The largest alpha MO coefficient is  0.18976141D+03

 DoSCS=T DFT=T ScalE2(SS,OS)=  0.270000  0.270000
 Fully direct method using O(ONN) memory.
 JobTyp=1 Pass  1:  I=  15 to  16 NPSUse= 18 ParTrn=T ParDer=T DoDerP=T.
 JobTyp=1 Pass  2:  I=  17 to  18 NPSUse= 18 ParTrn=T ParDer=T DoDerP=T.
 JobTyp=1 Pass  3:  I=  19 to  20 NPSUse= 18 ParTrn=T ParDer=T DoDerP=T.
 JobTyp=1 Pass  4:  I=  21 to  22 NPSUse= 18 ParTrn=T ParDer=T DoDerP=T.
 JobTyp=1 Pass  5:  I=  23 to  24 NPSUse= 18 ParTrn=T ParDer=T DoDerP=T.
 JobTyp=1 Pass  6:  I=  25 to  26 NPSUse= 18 ParTrn=T ParDer=T DoDerP=T.
 JobTyp=1 Pass  7:  I=  27 to  28 NPSUse= 18 ParTrn=T ParDer=T DoDerP=T.
 JobTyp=1 Pass  8:  I=  29 to  30 NPSUse= 18 ParTrn=T ParDer=T DoDerP=T.
 JobTyp=1 Pass  9:  I=  31 to  32 NPSUse= 18 ParTrn=T ParDer=T DoDerP=T.
 JobTyp=1 Pass 10:  I=  33 to  34 NPSUse= 18 ParTrn=T ParDer=T DoDerP=T.
 JobTyp=1 Pass 11:  I=  35 to  36 NPSUse= 18 ParTrn=T ParDer=T DoDerP=T.
 JobTyp=1 Pass 12:  I=  37 to  38 NPSUse= 18 ParTrn=T ParDer=T DoDerP=T.
 JobTyp=1 Pass 13:  I=  39 to  40 NPSUse= 18 ParTrn=T ParDer=T DoDerP=T.
 JobTyp=1 Pass 14:  I=  41 to  42 NPSUse= 18 ParTrn=T ParDer=T DoDerP=T.
 JobTyp=1 Pass 15:  I=  43 to  44 NPSUse= 18 ParTrn=T ParDer=T DoDerP=T.
 JobTyp=1 Pass 16:  I=  45 to  46 NPSUse= 18 ParTrn=T ParDer=T DoDerP=T.
 JobTyp=1 Pass 17:  I=  47 to  48 NPSUse= 18 ParTrn=T ParDer=T DoDerP=T.
 JobTyp=1 Pass 18:  I=  49 to  50 NPSUse= 18 ParTrn=T ParDer=T DoDerP=T.
 JobTyp=1 Pass 19:  I=  51 to  51 NPSUse= 18 ParTrn=T ParDer=T DoDerP=T.
 Spin components of T(2) and E(2):
     alpha-alpha T2 =       0.1472118731D+00 E2=     -0.9175846419D-01
     alpha-beta  T2 =       0.7754717476D+00 E2=     -0.4984722382D+00
     beta-beta   T2 =       0.1472118731D+00 E2=     -0.9175846419D-01
 E2(B2PLYP) =    -0.6819891665D+00 E(B2PLYP) =    -0.68770335803749D+03
          IDoAtm=1111111111111111111111111
          Differentiating once with respect to electric field.
                with respect to dipole field.
          Differentiating once with respect to nuclear coordinates.
          There are     1 degrees of freedom in the 1st order CPHF.  IDoFFX=0 NUNeed=     1.
 LinEq1:  Iter=  0 NonCon=     1 RMS=1.89D-03 Max=8.95D-02 NDo=     1
 AX will form     1 AO Fock derivatives at one time.
 LinEq1:  Iter=  1 NonCon=     1 RMS=7.77D-04 Max=3.50D-02 NDo=     1
 LinEq1:  Iter=  2 NonCon=     1 RMS=3.28D-04 Max=1.60D-02 NDo=     1
 LinEq1:  Iter=  3 NonCon=     1 RMS=2.34D-04 Max=1.20D-02 NDo=     1
 LinEq1:  Iter=  4 NonCon=     1 RMS=9.69D-05 Max=3.08D-03 NDo=     1
 LinEq1:  Iter=  5 NonCon=     1 RMS=4.13D-05 Max=1.17D-03 NDo=     1
 LinEq1:  Iter=  6 NonCon=     1 RMS=1.87D-05 Max=4.86D-04 NDo=     1
 LinEq1:  Iter=  7 NonCon=     1 RMS=1.04D-05 Max=6.57D-04 NDo=     1
 LinEq1:  Iter=  8 NonCon=     1 RMS=3.91D-06 Max=1.27D-04 NDo=     1
 LinEq1:  Iter=  9 NonCon=     1 RMS=1.90D-06 Max=6.59D-05 NDo=     1
 LinEq1:  Iter= 10 NonCon=     1 RMS=5.92D-07 Max=1.21D-05 NDo=     1
 LinEq1:  Iter= 11 NonCon=     1 RMS=3.35D-07 Max=1.37D-05 NDo=     1
 LinEq1:  Iter= 12 NonCon=     1 RMS=1.15D-07 Max=2.10D-06 NDo=     1
 LinEq1:  Iter= 13 NonCon=     1 RMS=3.64D-08 Max=9.46D-07 NDo=     1
 LinEq1:  Iter= 14 NonCon=     1 RMS=1.77D-08 Max=4.60D-07 NDo=     1
 LinEq1:  Iter= 15 NonCon=     1 RMS=6.26D-09 Max=2.25D-07 NDo=     1
 LinEq1:  Iter= 16 NonCon=     1 RMS=3.60D-09 Max=1.61D-07 NDo=     1
 LinEq1:  Iter= 17 NonCon=     1 RMS=1.31D-09 Max=4.97D-08 NDo=     1
 LinEq1:  Iter= 18 NonCon=     1 RMS=5.26D-10 Max=1.47D-08 NDo=     1
 LinEq1:  Iter= 19 NonCon=     1 RMS=2.50D-10 Max=5.98D-09 NDo=     1
 LinEq1:  Iter= 20 NonCon=     1 RMS=7.89D-11 Max=2.18D-09 NDo=     1
 LinEq1:  Iter= 21 NonCon=     0 RMS=3.52D-11 Max=9.22D-10 NDo=     1
 Linear equations converged to 1.000D-10 1.000D-09 after    21 iterations.
 End of Minotr F.D. properties file   721 does not exist.
 End of Minotr F.D. properties file   722 does not exist.
 End of Minotr F.D. properties file   788 does not exist.

 **********************************************************************

            Population analysis using the SCF density.

 **********************************************************************

 Orbital symmetries:
       Occupied  (A) (A) (A) (A) (A) (A) (A) (A) (A) (A) (A) (A)
                 (A) (A) (A) (A) (A) (A) (A) (A) (A) (A) (A) (A)
                 (A) (A) (A) (A) (A) (A) (A) (A) (A) (A) (A) (A)
                 (A) (A) (A) (A) (A) (A) (A) (A) (A) (A) (A) (A)
                 (A) (A) (A)
       Virtual   (A) (A) (A) (A) (A) (A) (A) (A) (A) (A) (A) (A)
                 (A) (A) (A) (A) (A) (A) (A) (A) (A) (A) (A) (A)
                 (A) (A) (A) (A) (A) (A) (A) (A) (A) (A) (A) (A)
                 (A) (A) (A) (A) (A) (A) (A) (A) (A) (A) (A) (A)
                 (A) (A) (A) (A) (A) (A) (A) (A) (A) (A) (A) (A)
                 (A) (A) (A) (A) (A) (A) (A) (A) (A) (A) (A) (A)
                 (A) (A) (A) (A) (A) (A) (A) (A) (A) (A) (A) (A)
                 (A) (A) (A) (A) (A) (A) (A) (A) (A) (A) (A) (A)
                 (A) (A) (A) (A) (A) (A) (A) (A) (A) (A) (A) (A)
                 (A) (A) (A) (A) (A) (A) (A) (A) (A) (A) (A) (A)
                 (A) (A) (A) (A) (A) (A) (A) (A) (A) (A) (A) (A)
                 (A) (A) (A) (A) (A) (A) (A) (A) (A) (A) (A) (A)
                 (A) (A) (A) (A) (A) (A) (A) (A) (A) (A) (A) (A)
                 (A) (A) (A) (A) (A) (A) (A) (A) (A) (A) (A) (A)
                 (A) (A) (A) (A) (A) (A) (A) (A) (A) (A) (A) (A)
                 (A) (A) (A) (A) (A) (A) (A) (A) (A) (A) (A) (A)
                 (A) (A) (A) (A) (A) (A) (A) (A) (A) (A) (A) (A)
                 (A) (A) (A) (A) (A) (A) (A) (A) (A) (A) (A) (A)
                 (A) (A) (A) (A) (A) (A) (A) (A) (A) (A) (A) (A)
                 (A) (A) (A) (A) (A) (A) (A) (A) (A) (A) (A) (A)
                 (A) (A) (A) (A) (A) (A) (A) (A) (A) (A) (A) (A)
                 (A) (A) (A) (A) (A) (A) (A) (A) (A) (A) (A) (A)
                 (A) (A) (A) (A) (A)
 The electronic state is 1-A.
 Alpha  occ. eigenvalues --  -19.99097 -19.98841 -19.91986 -19.91362 -10.97188
 Alpha  occ. eigenvalues --  -10.85362 -10.83360 -10.83306 -10.79839 -10.79031
 Alpha  occ. eigenvalues --  -10.78908 -10.78734 -10.78625 -10.76819  -1.46836
 Alpha  occ. eigenvalues --   -1.38631  -1.37181  -1.33901  -1.13749  -1.09337
 Alpha  occ. eigenvalues --   -1.02766  -1.01440  -0.95680  -0.93194  -0.88809
 Alpha  occ. eigenvalues --   -0.87605  -0.84359  -0.80963  -0.78495  -0.76033
 Alpha  occ. eigenvalues --   -0.73274  -0.72552  -0.71895  -0.70190  -0.67971
 Alpha  occ. eigenvalues --   -0.66715  -0.65453  -0.63940  -0.63579  -0.62760
 Alpha  occ. eigenvalues --   -0.62478  -0.61281  -0.60061  -0.59213  -0.56715
 Alpha  occ. eigenvalues --   -0.55017  -0.54196  -0.53667  -0.48503  -0.42636
 Alpha  occ. eigenvalues --   -0.38638
 Alpha virt. eigenvalues --   -0.20108  -0.12585  -0.08469  -0.08289  -0.07496
 Alpha virt. eigenvalues --   -0.06543  -0.05928  -0.05538  -0.04325  -0.04042
 Alpha virt. eigenvalues --   -0.03062  -0.02565  -0.02069  -0.01684  -0.01386
 Alpha virt. eigenvalues --   -0.00150  -0.00045   0.00996   0.01324   0.01911
 Alpha virt. eigenvalues --    0.03096   0.03590   0.05142   0.05891   0.06108
 Alpha virt. eigenvalues --    0.06304   0.06838   0.06879   0.07147   0.07423
 Alpha virt. eigenvalues --    0.07867   0.08193   0.08980   0.09144   0.10184
 Alpha virt. eigenvalues --    0.10739   0.10999   0.11165   0.12397   0.13241
 Alpha virt. eigenvalues --    0.13460   0.13883   0.14053   0.14882   0.15221
 Alpha virt. eigenvalues --    0.15418   0.16617   0.17298   0.17556   0.17761
 Alpha virt. eigenvalues --    0.18255   0.18642   0.18758   0.19920   0.20075
 Alpha virt. eigenvalues --    0.21042   0.21341   0.21905   0.22686   0.23396
 Alpha virt. eigenvalues --    0.24080   0.24437   0.24580   0.25599   0.26138
 Alpha virt. eigenvalues --    0.26563   0.27304   0.27825   0.28635   0.29760
 Alpha virt. eigenvalues --    0.30594   0.31386   0.31804   0.32706   0.33890
 Alpha virt. eigenvalues --    0.34637   0.36141   0.36562   0.39646   0.41038
 Alpha virt. eigenvalues --    0.42790   0.45061   0.47381   0.54063   0.58720
 Alpha virt. eigenvalues --    0.60898   0.61133   0.62094   0.63146   0.64875
 Alpha virt. eigenvalues --    0.65880   0.66565   0.67045   0.68049   0.69676
 Alpha virt. eigenvalues --    0.70041   0.70174   0.71553   0.73040   0.73904
 Alpha virt. eigenvalues --    0.74006   0.76057   0.80437   0.81337   0.82683
 Alpha virt. eigenvalues --    0.85147   0.87338   0.87534   0.88374   0.89161
 Alpha virt. eigenvalues --    0.90940   0.92234   0.93304   0.95143   0.98818
 Alpha virt. eigenvalues --    0.99433   1.02500   1.02870   1.03489   1.05735
 Alpha virt. eigenvalues --    1.07115   1.09000   1.09078   1.10585   1.12547
 Alpha virt. eigenvalues --    1.13141   1.13432   1.15756   1.16426   1.16873
 Alpha virt. eigenvalues --    1.18170   1.18287   1.19413   1.21068   1.21734
 Alpha virt. eigenvalues --    1.22700   1.23767   1.24868   1.25771   1.26932
 Alpha virt. eigenvalues --    1.27214   1.28645   1.28797   1.30355   1.32209
 Alpha virt. eigenvalues --    1.34149   1.34663   1.36600   1.37516   1.38229
 Alpha virt. eigenvalues --    1.39565   1.40567   1.43078   1.45389   1.49190
 Alpha virt. eigenvalues --    1.52269   1.53576   1.53890   1.57342   1.57717
 Alpha virt. eigenvalues --    1.59334   1.62620   1.67339   1.72581   1.75190
 Alpha virt. eigenvalues --    1.76212   1.78653   1.78990   1.81798   1.83300
 Alpha virt. eigenvalues --    1.85165   1.86525   1.88234   1.88954   1.89279
 Alpha virt. eigenvalues --    1.90459   1.92016   1.93107   1.95539   1.95982
 Alpha virt. eigenvalues --    1.97165   2.01368   2.02933   2.03622   2.04653
 Alpha virt. eigenvalues --    2.05118   2.07541   2.08659   2.13558   2.14280
 Alpha virt. eigenvalues --    2.16541   2.17591   2.20886   2.22351   2.23899
 Alpha virt. eigenvalues --    2.27322   2.27439   2.28503   2.32368   2.35870
 Alpha virt. eigenvalues --    2.37228   2.38002   2.38683   2.41992   2.45716
 Alpha virt. eigenvalues --    2.46801   2.48094   2.49160   2.50018   2.51811
 Alpha virt. eigenvalues --    2.53302   2.54432   2.55706   2.56698   2.57732
 Alpha virt. eigenvalues --    2.58717   2.61182   2.62759   2.64861   2.65510
 Alpha virt. eigenvalues --    2.66393   2.69348   2.70630   2.71839   2.72867
 Alpha virt. eigenvalues --    2.75433   2.75691   2.77883   2.83264   2.84549
 Alpha virt. eigenvalues --    2.86904   2.87722   2.88472   2.91285   2.95901
 Alpha virt. eigenvalues --    2.98926   3.03267   3.09133   3.11382   3.16505
 Alpha virt. eigenvalues --    3.20038   3.22490   3.24484   3.28986   3.35062
 Alpha virt. eigenvalues --    3.37898   3.42838   3.44950   3.46520   3.49846
 Alpha virt. eigenvalues --    3.52362   3.57135   3.57577   3.63782   3.83863
 Alpha virt. eigenvalues --    4.22360   4.28835   4.31167   4.37044   4.38883
 Alpha virt. eigenvalues --    4.42561   4.48096   4.50835   4.55433   4.57252
 Alpha virt. eigenvalues --    4.62971   4.70728   4.84697   5.14390
          Condensed to atoms (all electrons):
               1          2          3          4          5          6
     1  C   11.175135   0.329407  -1.324271  -1.513018  -0.180842  -2.199237
     2  C    0.329407  14.160887  -2.617948  -3.566438  -0.745088  -0.287461
     3  C   -1.324271  -2.617948  11.701066   0.362672  -0.798180  -1.524075
     4  C   -1.513018  -3.566438   0.362672  13.838229   1.063003  -0.967721
     5  C   -0.180842  -0.745088  -0.798180   1.063003   8.103611  -0.145389
     6  C   -2.199237  -0.287461  -1.524075  -0.967721  -0.145389  10.148776
     7  O   -0.396206   0.152867   0.241471   0.104957  -0.034497  -0.056375
     8  C    0.011163  -0.606073   0.067709  -2.267015  -0.503615   0.498101
     9  C   -0.273754  -0.154406  -0.351096  -1.267688  -0.217844   0.539194
    10  C   -0.191820   0.026828   0.056860  -0.302918  -0.952597   0.019264
    11  O    0.000790   0.000604   0.000123   0.004469   0.018414  -0.001600
    12  O   -0.004563  -0.000915   0.001331  -0.018276  -0.010015   0.006705
    13  O    0.045654  -0.758211   0.526386   0.164878  -0.001868  -0.034488
    14  C    0.033557  -0.027707  -0.067544   0.010425  -0.034898   0.001322
    15  H    0.161006   0.108231  -0.000065   0.014899  -0.014450   0.076742
    16  H    0.000569   0.004543  -0.069899   0.223477   0.026391  -0.007976
    17  H   -0.040234  -0.013774  -0.006577   0.026680   0.114161   0.210593
    18  H    0.149197   0.158877  -0.270759  -0.065742   0.002427   0.011042
    19  H    0.008374   0.005843   0.027277   0.235616   0.036171  -0.058535
    20  H    0.035002  -0.004931   0.007472   0.007380   0.059482  -0.005440
    21  H    0.000192   0.000037  -0.000029   0.001231   0.000025   0.001378
    22  H   -0.000530  -0.000010   0.000395   0.005515   0.011277  -0.004892
    23  H    0.001893   0.047808   0.030975  -0.056439  -0.004570  -0.000174
    24  H   -0.002472  -0.033620  -0.055650   0.073435   0.009215   0.002197
    25  H   -0.001375  -0.038746  -0.056637   0.074920   0.016932   0.000815
               7          8          9         10         11         12
     1  C   -0.396206   0.011163  -0.273754  -0.191820   0.000790  -0.004563
     2  C    0.152867  -0.606073  -0.154406   0.026828   0.000604  -0.000915
     3  C    0.241471   0.067709  -0.351096   0.056860   0.000123   0.001331
     4  C    0.104957  -2.267015  -1.267688  -0.302918   0.004469  -0.018276
     5  C   -0.034497  -0.503615  -0.217844  -0.952597   0.018414  -0.010015
     6  C   -0.056375   0.498101   0.539194   0.019264  -0.001600   0.006705
     7  O    8.273417   0.002017   0.000074   0.000154   0.000000  -0.000000
     8  C    0.002017   8.856441  -1.203562   0.608091  -0.138054   0.115325
     9  C    0.000074  -1.203562  11.048145  -1.830312   0.360336  -0.077978
    10  C    0.000154   0.608091  -1.830312   7.578143  -0.085872   0.135068
    11  O    0.000000  -0.138054   0.360336  -0.085872   8.157779  -0.091572
    12  O   -0.000000   0.115325  -0.077978   0.135068  -0.091572   8.224084
    13  O   -0.003177  -0.013549  -0.002530   0.000066   0.000001  -0.000006
    14  C    0.001894  -0.024299  -0.003637  -0.001857  -0.000001  -0.000007
    15  H   -0.005445  -0.006183   0.001137   0.000045   0.000000  -0.000000
    16  H   -0.000375   0.126760   0.025611   0.000020  -0.000001  -0.000066
    17  H   -0.000504   0.010376  -0.001324   0.022773   0.000133   0.000019
    18  H    0.220188   0.000105   0.000102   0.000016   0.000000   0.000000
    19  H   -0.000005   0.262439  -0.151589  -0.053715   0.000718  -0.006947
    20  H   -0.000002   0.035386   0.326271  -0.126303  -0.009668   0.006393
    21  H   -0.000000   0.058876  -0.107957   0.058562   0.228601  -0.002806
    22  H   -0.000000  -0.001698   0.022624  -0.014887  -0.003124   0.220760
    23  H   -0.000175   0.000208   0.000104   0.000005   0.000000  -0.000000
    24  H   -0.000050  -0.000526  -0.000307   0.000001   0.000000   0.000001
    25  H   -0.000033  -0.002162  -0.000354  -0.000089   0.000000  -0.000000
              13         14         15         16         17         18
     1  C    0.045654   0.033557   0.161006   0.000569  -0.040234   0.149197
     2  C   -0.758211  -0.027707   0.108231   0.004543  -0.013774   0.158877
     3  C    0.526386  -0.067544  -0.000065  -0.069899  -0.006577  -0.270759
     4  C    0.164878   0.010425   0.014899   0.223477   0.026680  -0.065742
     5  C   -0.001868  -0.034898  -0.014450   0.026391   0.114161   0.002427
     6  C   -0.034488   0.001322   0.076742  -0.007976   0.210593   0.011042
     7  O   -0.003177   0.001894  -0.005445  -0.000375  -0.000504   0.220188
     8  C   -0.013549  -0.024299  -0.006183   0.126760   0.010376   0.000105
     9  C   -0.002530  -0.003637   0.001137   0.025611  -0.001324   0.000102
    10  C    0.000066  -0.001857   0.000045   0.000020   0.022773   0.000016
    11  O    0.000001  -0.000001   0.000000  -0.000001   0.000133   0.000000
    12  O   -0.000006  -0.000007  -0.000000  -0.000066   0.000019   0.000000
    13  O    8.629694   0.065179  -0.000470  -0.009690   0.000127   0.034852
    14  C    0.065179   4.877904   0.000031  -0.000524  -0.000016   0.004042
    15  H   -0.000470   0.000031   0.470747   0.000010  -0.002947  -0.000038
    16  H   -0.009690  -0.000524   0.000010   0.511918  -0.000104  -0.000016
    17  H    0.000127  -0.000016  -0.002947  -0.000104   0.516410   0.000004
    18  H    0.034852   0.004042  -0.000038  -0.000016   0.000004   0.332133
    19  H    0.000064   0.000865   0.000001   0.002410  -0.000010   0.000000
    20  H    0.000001   0.000023   0.000003   0.000000  -0.000081   0.000000
    21  H    0.000000   0.000000   0.000000   0.000000  -0.000000  -0.000000
    22  H   -0.000000   0.000005  -0.000000  -0.000000   0.000000   0.000000
    23  H   -0.064917   0.420941  -0.000000   0.000079  -0.000000  -0.000055
    24  H   -0.041451   0.413729   0.000000  -0.000879   0.000000   0.000027
    25  H   -0.041752   0.412730   0.000000  -0.000856   0.000000   0.000026
              19         20         21         22         23         24
     1  C    0.008374   0.035002   0.000192  -0.000530   0.001893  -0.002472
     2  C    0.005843  -0.004931   0.000037  -0.000010   0.047808  -0.033620
     3  C    0.027277   0.007472  -0.000029   0.000395   0.030975  -0.055650
     4  C    0.235616   0.007380   0.001231   0.005515  -0.056439   0.073435
     5  C    0.036171   0.059482   0.000025   0.011277  -0.004570   0.009215
     6  C   -0.058535  -0.005440   0.001378  -0.004892  -0.000174   0.002197
     7  O   -0.000005  -0.000002  -0.000000  -0.000000  -0.000175  -0.000050
     8  C    0.262439   0.035386   0.058876  -0.001698   0.000208  -0.000526
     9  C   -0.151589   0.326271  -0.107957   0.022624   0.000104  -0.000307
    10  C   -0.053715  -0.126303   0.058562  -0.014887   0.000005   0.000001
    11  O    0.000718  -0.009668   0.228601  -0.003124   0.000000   0.000000
    12  O   -0.006947   0.006393  -0.002806   0.220760  -0.000000   0.000001
    13  O    0.000064   0.000001   0.000000  -0.000000  -0.064917  -0.041451
    14  C    0.000865   0.000023   0.000000   0.000005   0.420941   0.413729
    15  H    0.000001   0.000003   0.000000  -0.000000  -0.000000   0.000000
    16  H    0.002410   0.000000   0.000000  -0.000000   0.000079  -0.000879
    17  H   -0.000010  -0.000081  -0.000000   0.000000  -0.000000   0.000000
    18  H    0.000000   0.000000  -0.000000   0.000000  -0.000055   0.000027
    19  H    0.502919   0.002708   0.000010  -0.000015   0.000000  -0.000001
    20  H    0.002708   0.484014   0.000024  -0.000159  -0.000000   0.000000
    21  H    0.000010   0.000024   0.361938   0.002827   0.000000  -0.000000
    22  H   -0.000015  -0.000159   0.002827   0.361161  -0.000000   0.000000
    23  H    0.000000  -0.000000   0.000000  -0.000000   0.497193  -0.024118
    24  H   -0.000001   0.000000  -0.000000   0.000000  -0.024118   0.547921
    25  H   -0.000001   0.000000   0.000000  -0.000000  -0.024101  -0.039700
              25
     1  C   -0.001375
     2  C   -0.038746
     3  C   -0.056637
     4  C    0.074920
     5  C    0.016932
     6  C    0.000815
     7  O   -0.000033
     8  C   -0.002162
     9  C   -0.000354
    10  C   -0.000089
    11  O    0.000000
    12  O   -0.000000
    13  O   -0.041752
    14  C    0.412730
    15  H    0.000000
    16  H   -0.000856
    17  H    0.000000
    18  H    0.000026
    19  H   -0.000001
    20  H    0.000000
    21  H    0.000000
    22  H   -0.000000
    23  H   -0.024101
    24  H   -0.039700
    25  H    0.548258
 Mulliken charges:
               1
     1  C    0.176381
     2  C   -0.140605
     3  C    0.118991
     4  C   -0.186532
     5  C    0.182743
     6  C   -0.222764
     7  O   -0.500196
     8  C    0.113738
     9  C   -0.679260
    10  C    1.054473
    11  O   -0.442075
    12  O   -0.496535
    13  O   -0.494794
    14  C   -0.082160
    15  H    0.196749
    16  H    0.168598
    17  H    0.164295
    18  H    0.423573
    19  H    0.185402
    20  H    0.182425
    21  H    0.397091
    22  H    0.400750
    23  H    0.175341
    24  H    0.152247
    25  H    0.152124
 Sum of Mulliken charges =   1.00000
 Mulliken charges with hydrogens summed into heavy atoms:
               1
     1  C    0.373130
     2  C   -0.140605
     3  C    0.118991
     4  C   -0.017934
     5  C    0.182743
     6  C   -0.058469
     7  O   -0.076622
     8  C    0.299140
     9  C   -0.496835
    10  C    1.054473
    11  O   -0.044984
    12  O   -0.095784
    13  O   -0.494794
    14  C    0.397551
 Electronic spatial extent (au):  <R**2>=           4157.2523
 Charge=              1.0000 electrons
 Dipole moment (field-independent basis, Debye):
    X=             -8.4197    Y=              3.6800    Z=              0.0684  Tot=              9.1891
 Quadrupole moment (field-independent basis, Debye-Ang):
   XX=              7.4294   YY=            -62.4568   ZZ=            -83.3737
   XY=             -2.5402   XZ=              0.3280   YZ=              1.1975
 Traceless Quadrupole moment (field-independent basis, Debye-Ang):
   XX=             53.5631   YY=            -16.3231   ZZ=            -37.2400
   XY=             -2.5402   XZ=              0.3280   YZ=              1.1975
 Octapole moment (field-independent basis, Debye-Ang**2):
  XXX=           -342.5672  YYY=             21.9332  ZZZ=             -0.0723  XYY=              1.8355
  XXY=            100.5243  XXZ=             -3.2211  XZZ=             -4.1576  YZZ=              5.7457
  YYZ=              1.5412  XYZ=             -4.5591
 Hexadecapole moment (field-independent basis, Debye-Ang**3):
 XXXX=          -1390.5640 YYYY=           -790.0496 ZZZZ=            -94.1808 XXXY=           -252.1912
 XXXZ=             31.9145 YYYX=             27.9535 YYYZ=              3.7454 ZZZX=              0.6536
 ZZZY=             -0.0252 XXYY=           -687.3508 XXZZ=           -713.1645 YYZZ=           -176.2525
 XXYZ=             24.1581 YYXZ=             -6.0753 ZZXY=             -3.1369
 N-N= 8.396513059500D+02 E-N=-3.269125443772D+03  KE= 6.824597764731D+02
 Calling FoFJK, ICntrl=  10002127 FMM=F ISym2X=0 I1Cent= 0 IOpClX= 0 NMat=1 NMatS=1 NMatT=0.
 ***** Axes restored to original set *****
 -------------------------------------------------------------------
 Center     Atomic                   Forces (Hartrees/Bohr)
 Number     Number              X              Y              Z
 -------------------------------------------------------------------
      1        6           0.001712128   -0.003439386    0.000123750
      2        6          -0.004208976    0.002057825   -0.000014980
      3        6          -0.002401955   -0.002776457   -0.000000413
      4        6          -0.002094948    0.004374706    0.000018958
      5        6          -0.000431458   -0.000171138    0.000046412
      6        6          -0.003765677   -0.002136509   -0.000333724
      7        8           0.005444469   -0.002711381   -0.000033964
      8        6           0.000228407    0.003271110    0.000245648
      9        6          -0.000109201   -0.003771404    0.000044396
     10        6           0.003452048   -0.001506953    0.000133700
     11        8          -0.003089749   -0.003776776    0.000818305
     12        8           0.000768013    0.005193837   -0.001107584
     13        8           0.004944331   -0.001858135   -0.000039790
     14        6          -0.000155324    0.007464423    0.000093991
     15        1          -0.000254129    0.001583425    0.000022394
     16        1           0.000310796   -0.001508098   -0.000023861
     17        1           0.001008741    0.001021557    0.000024582
     18        1           0.000950488    0.000128007    0.000002732
     19        1           0.000051797   -0.001290690    0.000019697
     20        1           0.000124078    0.001674027   -0.000072040
     21        1          -0.000965221    0.000414705   -0.000332679
     22        1          -0.000854815    0.000393518    0.000396267
     23        1          -0.001726629   -0.001040824   -0.000009199
     24        1           0.000533797   -0.000815040    0.001526270
     25        1           0.000528990   -0.000774348   -0.001548869
 -------------------------------------------------------------------
 Cartesian Forces:  Max     0.007464423 RMS     0.002101670

 GradGradGradGradGradGradGradGradGradGradGradGradGradGradGradGradGradGrad
 Berny optimization.
 FormGI is forming the generalized inverse of G from B-inverse, IUseBI=4.
 GSVD:  received Info=                   1 from GESDD.
 Internal  Forces:  Max     0.006883719 RMS     0.001432108
 Search for a local minimum.
 Step number   1 out of a maximum of  119
 All quantities printed in internal units (Hartrees-Bohrs-Radians)
 Mixed Optimization -- RFO/linear search
 Second derivative matrix not updated -- first step.
 ITU=  0
     Eigenvalues ---    0.01329   0.01797   0.01846   0.01906   0.01949
     Eigenvalues ---    0.02038   0.02074   0.02076   0.02137   0.02165
     Eigenvalues ---    0.02226   0.02239   0.02240   0.02241   0.02254
     Eigenvalues ---    0.02344   0.02494   0.02684   0.02721   0.02764
     Eigenvalues ---    0.10147   0.10701   0.16000   0.16000   0.16000
     Eigenvalues ---    0.16000   0.16000   0.16000   0.16000   0.16000
     Eigenvalues ---    0.16000   0.16000   0.16000   0.22000   0.22000
     Eigenvalues ---    0.22369   0.23477   0.24604   0.24999   0.25000
     Eigenvalues ---    0.25000   0.25000   0.25000   0.25000   0.34215
     Eigenvalues ---    0.34217   0.34921   0.34930   0.35404   0.35436
     Eigenvalues ---    0.35469   0.35638   0.39078   0.40404   0.41364
     Eigenvalues ---    0.42121   0.43404   0.44023   0.47305   0.47560
     Eigenvalues ---    0.47584   0.49711   0.52746   0.53647   0.53705
     Eigenvalues ---    0.54873   0.60704   0.61395   0.62190
 RFO step:  Lambda=-4.74303915D-04 EMin= 1.32918816D-02
 Linear search not attempted -- first point.
 Iteration  1 RMS(Cart)=  0.00868835 RMS(Int)=  0.00002931
 Iteration  2 RMS(Cart)=  0.00004660 RMS(Int)=  0.00000123
 Iteration  3 RMS(Cart)=  0.00000000 RMS(Int)=  0.00000123
 Variable       Old X    -DE/DX   Delta X   Delta X   Delta X     New X
                                 (Linear)    (Quad)   (Total)
    R1        2.65171   0.00178   0.00000   0.00393   0.00393   2.65565
    R2        2.60188   0.00279   0.00000   0.00559   0.00559   2.60747
    R3        2.04973  -0.00160   0.00000  -0.00450  -0.00450   2.04523
    R4        2.69221   0.00191   0.00000   0.00460   0.00460   2.69680
    R5        2.50388   0.00688   0.00000   0.01133   0.01133   2.51521
    R6        2.60129   0.00299   0.00000   0.00603   0.00603   2.60732
    R7        2.55245   0.00509   0.00000   0.00926   0.00926   2.56171
    R8        2.69606   0.00150   0.00000   0.00360   0.00360   2.69966
    R9        2.05023  -0.00154   0.00000  -0.00434  -0.00434   2.04589
   R10        2.68408   0.00169   0.00000   0.00396   0.00396   2.68804
   R11        2.67174   0.00058   0.00000   0.00134   0.00134   2.67308
   R12        2.04920  -0.00143   0.00000  -0.00404  -0.00404   2.04516
   R13        1.83891   0.00068   0.00000   0.00129   0.00129   1.84021
   R14        2.62384   0.00130   0.00000   0.00273   0.00273   2.62658
   R15        2.05803  -0.00129   0.00000  -0.00368  -0.00368   2.05434
   R16        2.62411   0.00094   0.00000   0.00197   0.00197   2.62608
   R17        2.04652  -0.00168   0.00000  -0.00470  -0.00470   2.04182
   R18        2.49248   0.00527   0.00000   0.00847   0.00847   2.50096
   R19        2.49853   0.00562   0.00000   0.00914   0.00914   2.50768
   R20        1.83054   0.00110   0.00000   0.00204   0.00204   1.83258
   R21        1.83001   0.00101   0.00000   0.00187   0.00187   1.83189
   R22        2.69742   0.00489   0.00000   0.01180   0.01180   2.70921
   R23        2.05789  -0.00199   0.00000  -0.00568  -0.00568   2.05221
   R24        2.06966  -0.00176   0.00000  -0.00515  -0.00515   2.06451
   R25        2.06968  -0.00176   0.00000  -0.00515  -0.00515   2.06453
    A1        2.08934   0.00024   0.00000   0.00111   0.00110   2.09044
    A2        2.06707  -0.00025   0.00000  -0.00137  -0.00137   2.06570
    A3        2.12678   0.00001   0.00000   0.00026   0.00027   2.12704
    A4        2.10504  -0.00034   0.00000  -0.00127  -0.00128   2.10376
    A5        2.08371  -0.00099   0.00000  -0.00400  -0.00400   2.07972
    A6        2.09444   0.00133   0.00000   0.00527   0.00527   2.09971
    A7        2.08578   0.00031   0.00000   0.00137   0.00137   2.08715
    A8        1.97121   0.00054   0.00000   0.00211   0.00211   1.97332
    A9        2.22620  -0.00086   0.00000  -0.00348  -0.00348   2.22272
   A10        2.10142  -0.00039   0.00000  -0.00170  -0.00170   2.09972
   A11        2.10236   0.00022   0.00000   0.00100   0.00100   2.10336
   A12        2.07940   0.00017   0.00000   0.00070   0.00070   2.08010
   A13        2.07590   0.00043   0.00000   0.00170   0.00170   2.07760
   A14        2.06226  -0.00008   0.00000  -0.00031  -0.00031   2.06195
   A15        2.14502  -0.00035   0.00000  -0.00139  -0.00139   2.14363
   A16        2.10889  -0.00025   0.00000  -0.00120  -0.00121   2.10768
   A17        2.07392   0.00019   0.00000   0.00098   0.00097   2.07489
   A18        2.10038   0.00007   0.00000   0.00023   0.00023   2.10061
   A19        1.91052   0.00124   0.00000   0.00770   0.00770   1.91823
   A20        2.22476  -0.00091   0.00000  -0.00413  -0.00413   2.22063
   A21        2.02535   0.00054   0.00000   0.00258   0.00258   2.02793
   A22        2.03307   0.00037   0.00000   0.00155   0.00155   2.03462
   A23        2.12378  -0.00060   0.00000  -0.00273  -0.00273   2.12105
   A24        2.14602   0.00019   0.00000   0.00069   0.00069   2.14671
   A25        2.01339   0.00041   0.00000   0.00204   0.00204   2.01543
   A26        2.06321  -0.00031   0.00000  -0.00126  -0.00126   2.06196
   A27        2.11177  -0.00040   0.00000  -0.00159  -0.00159   2.11017
   A28        2.10817   0.00071   0.00000   0.00284   0.00284   2.11101
   A29        2.00866   0.00010   0.00000   0.00062   0.00062   2.00928
   A30        2.00031   0.00002   0.00000   0.00014   0.00014   2.00046
   A31        2.07614  -0.00113   0.00000  -0.00450  -0.00450   2.07164
   A32        1.84643  -0.00025   0.00000  -0.00101  -0.00102   1.84541
   A33        1.92986  -0.00032   0.00000  -0.00227  -0.00227   1.92758
   A34        1.92975  -0.00031   0.00000  -0.00222  -0.00222   1.92753
   A35        1.91346   0.00046   0.00000   0.00346   0.00346   1.91691
   A36        1.91347   0.00046   0.00000   0.00346   0.00345   1.91692
   A37        1.92913  -0.00004   0.00000  -0.00126  -0.00127   1.92786
    D1       -0.00050   0.00003   0.00000   0.00106   0.00106   0.00056
    D2       -3.14091   0.00002   0.00000   0.00097   0.00097  -3.13993
    D3        3.13917  -0.00000   0.00000  -0.00031  -0.00031   3.13886
    D4       -0.00124  -0.00001   0.00000  -0.00039  -0.00039  -0.00163
    D5       -0.00229  -0.00007   0.00000  -0.00325  -0.00325  -0.00554
    D6        3.13885  -0.00000   0.00000  -0.00020  -0.00020   3.13865
    D7        3.14129  -0.00004   0.00000  -0.00183  -0.00183   3.13946
    D8       -0.00075   0.00003   0.00000   0.00122   0.00122   0.00047
    D9        0.00137   0.00001   0.00000   0.00053   0.00053   0.00190
   D10       -3.14034   0.00000   0.00000   0.00034   0.00033  -3.14000
   D11       -3.14142   0.00001   0.00000   0.00061   0.00061  -3.14081
   D12        0.00006   0.00001   0.00000   0.00042   0.00042   0.00048
   D13        3.14081   0.00000   0.00000   0.00009   0.00009   3.14090
   D14        0.00040  -0.00000   0.00000   0.00001   0.00001   0.00040
   D15        0.00055  -0.00000   0.00000   0.00008   0.00008   0.00063
   D16        3.14129  -0.00002   0.00000  -0.00064  -0.00064   3.14065
   D17       -3.14090   0.00000   0.00000   0.00030   0.00030  -3.14060
   D18       -0.00017  -0.00001   0.00000  -0.00041  -0.00041  -0.00058
   D19       -3.14077   0.00000   0.00000   0.00012   0.00013  -3.14065
   D20        0.00069  -0.00000   0.00000  -0.00009  -0.00009   0.00060
   D21       -0.00326  -0.00004   0.00000  -0.00221  -0.00221  -0.00547
   D22        3.14128  -0.00002   0.00000  -0.00127  -0.00127   3.14000
   D23        3.13918  -0.00003   0.00000  -0.00150  -0.00150   3.13768
   D24        0.00053  -0.00001   0.00000  -0.00057  -0.00057  -0.00004
   D25        0.00416   0.00008   0.00000   0.00383   0.00383   0.00799
   D26       -3.13697   0.00001   0.00000   0.00073   0.00073  -3.13624
   D27       -3.14053   0.00006   0.00000   0.00285   0.00285  -3.13768
   D28        0.00153  -0.00001   0.00000  -0.00025  -0.00025   0.00128
   D29       -3.12957   0.00003   0.00000   0.00142   0.00142  -3.12814
   D30        0.01218   0.00006   0.00000   0.00316   0.00316   0.01535
   D31        0.01509   0.00005   0.00000   0.00239   0.00239   0.01749
   D32       -3.12634   0.00008   0.00000   0.00413   0.00413  -3.12221
   D33       -3.12169   0.00013   0.00000   0.00589   0.00589  -3.11580
   D34        0.02110   0.00012   0.00000   0.00538   0.00538   0.02648
   D35        0.01974   0.00010   0.00000   0.00415   0.00415   0.02389
   D36       -3.12065   0.00008   0.00000   0.00363   0.00363  -3.11702
   D37       -3.06195   0.00012   0.00000   0.00542   0.00542  -3.05653
   D38        0.08899   0.00015   0.00000   0.00672   0.00672   0.09571
   D39        0.07852   0.00013   0.00000   0.00590   0.00590   0.08442
   D40       -3.05372   0.00016   0.00000   0.00720   0.00720  -3.04652
   D41       -2.92131   0.00011   0.00000   0.00401   0.00401  -2.91730
   D42        0.21095   0.00008   0.00000   0.00268   0.00268   0.21363
   D43       -2.87277   0.00012   0.00000   0.00438   0.00438  -2.86839
   D44        0.27841   0.00016   0.00000   0.00574   0.00574   0.28415
   D45       -3.14150   0.00000   0.00000  -0.00002  -0.00002  -3.14152
   D46       -1.07106   0.00024   0.00000   0.00231   0.00231  -1.06875
   D47        1.07128  -0.00024   0.00000  -0.00238  -0.00237   1.06891
         Item               Value     Threshold  Converged?
 Maximum Force            0.006884     0.000450     NO 
 RMS     Force            0.001432     0.000300     NO 
 Maximum Displacement     0.040005     0.001800     NO 
 RMS     Displacement     0.008708     0.001200     NO 
 Predicted change in Energy=-2.375085D-04
 GradGradGradGradGradGradGradGradGradGradGradGradGradGradGradGradGradGrad

                          Input orientation:                          
 ---------------------------------------------------------------------
 Center     Atomic      Atomic             Coordinates (Angstroms)
 Number     Number       Type             X           Y           Z
 ---------------------------------------------------------------------
      1          6           0        1.474170   -2.030538   -0.024736
      2          6           0        2.517520   -1.089170   -0.012837
      3          6           0        2.232413    0.309041    0.004428
      4          6           0        0.920659    0.736732    0.011716
      5          6           0       -0.147070   -0.212360    0.002846
      6          6           0        0.163129   -1.600380   -0.020367
      7          8           0        3.777648   -1.517623   -0.019146
      8          6           0       -1.474385    0.276562    0.012845
      9          6           0       -2.645999   -0.471190    0.021695
     10          6           0       -3.895781    0.136065    0.000552
     11          8           0       -4.966149   -0.634595    0.109711
     12          8           0       -4.012518    1.450682   -0.137641
     13          8           0        3.348428    1.078516    0.012231
     14          6           0        3.201290    2.504478    0.030834
     15          1           0        1.730588   -3.081897   -0.040309
     16          1           0        0.687195    1.793806    0.025677
     17          1           0       -0.629000   -2.337713   -0.032459
     18          1           0        4.386329   -0.757556   -0.010055
     19          1           0       -1.587484    1.357774    0.011825
     20          1           0       -2.654497   -1.551372    0.045775
     21          1           0       -5.807920   -0.202666   -0.103113
     22          1           0       -4.884377    1.805271    0.094411
     23          1           0        4.210833    2.904690    0.034016
     24          1           0        2.670434    2.844970   -0.861241
     25          1           0        2.673922    2.821865    0.933448
 ---------------------------------------------------------------------
                    Distance matrix (angstroms):
                    1          2          3          4          5
     1  C    0.000000
     2  C    1.405309   0.000000
     3  C    2.459555   1.427087   0.000000
     4  C    2.822319   2.425796   1.379736   0.000000
     5  C    2.436176   2.805188   2.435940   1.428601   0.000000
     6  C    1.379813   2.409263   2.815748   2.457025   1.422449
     7  O    2.359899   1.330990   2.392699   3.639431   4.136135
     8  C    3.744075   4.219145   3.706950   2.438851   1.414535
     9  C    4.405623   5.200482   4.940441   3.765664   2.512368
    10  C    5.790611   6.529304   6.130636   4.853763   3.764869
    11  O    6.591239   7.498463   7.260910   6.045216   4.838720
    12  O    6.498875   7.007696   6.350014   4.986809   4.210360
    13  O    3.630485   2.321615   1.355596   2.451710   3.726252
    14  C    4.853081   3.658381   2.399867   2.885580   4.312019
    15  H    1.082289   2.142656   3.428161   3.903924   3.429534
    16  H    3.904801   3.415131   2.143052   1.082638   2.172837
    17  H    2.125497   3.385237   3.897993   3.443197   2.179594
    18  H    3.178265   1.898005   2.403579   3.774154   4.566083
    19  H    4.566805   4.779037   3.961250   2.583887   2.130772
    20  H    4.156978   5.192959   5.229219   4.244799   2.842883
    21  H    7.508401   8.372991   8.057317   6.794809   5.661849
    22  H    7.426894   7.948419   7.272929   5.903140   5.149883
    23  H    5.643514   4.338251   3.263803   3.940277   5.358012
    24  H    5.089338   4.027484   2.715176   2.875488   4.246439
    25  H    5.089531   4.026923   2.715196   2.875986   4.246238
                    6          7          8          9         10
     6  C    0.000000
     7  O    3.615466   0.000000
     8  C    2.491077   5.550133   0.000000
     9  C    3.027877   6.508451   1.389925   0.000000
    10  C    4.414797   7.849623   2.425500   1.389662   0.000000
    11  O    5.221029   8.789216   3.609987   2.327561   1.323450
    12  O    5.172887   8.337359   2.800593   2.363546   1.327005
    13  O    4.162171   2.631568   4.889034   6.191513   7.305266
    14  C    5.107142   4.063493   5.179370   6.560905   7.481893
    15  H    2.156900   2.576403   4.642620   5.096484   6.481742
    16  H    3.434714   4.529731   2.640951   4.029939   4.873645
    17  H    1.082255   4.482329   2.747938   2.748659   4.097869
    18  H    4.306492   0.973795   5.951293   7.038228   8.330187
    19  H    3.437492   6.087159   1.087111   2.113211   2.611692
    20  H    2.818829   6.432561   2.176026   1.080484   2.095298
    21  H    6.133015   9.675705   4.361494   3.175756   1.944675
    22  H    6.090070   9.278211   3.737867   3.193415   1.942262
    23  H    6.056609   4.443796   6.263322   7.642831   8.566423
    24  H    5.172502   4.579002   4.953814   6.327792   7.155141
    25  H    5.173982   4.577859   4.953234   6.322741   7.158548
                   11         12         13         14         15
    11  O    0.000000
    12  O    2.306290   0.000000
    13  O    8.489784   7.371872   0.000000
    14  C    8.750261   7.292318   1.433654   0.000000
    15  H    7.131485   7.316899   4.464213   5.777163   0.000000
    16  H    6.153413   4.715052   2.755718   2.612615   4.986532
    17  H    4.661725   5.080472   5.243333   6.174297   2.474172
    18  H    9.354052   8.685230   2.109240   3.470857   3.529367
    19  H    3.923582   2.431412   4.943805   4.924190   5.542832
    20  H    2.487629   3.300028   6.553819   7.123229   4.645309
    21  H    0.969761   2.440947   9.246266   9.408105   8.069883
    22  H    2.441284   0.969392   8.265229   8.116092   8.225590
    23  H    9.836120   8.352671   2.019685   1.085982   6.480459
    24  H    8.447930   6.865092   2.083984   1.092493   6.056813
    25  H    8.425932   6.909113   2.083954   1.092504   6.057432
                   16         17         18         19         20
    16  H    0.000000
    17  H    4.336496   0.000000
    18  H    4.493808   5.258414   0.000000
    19  H    2.316135   3.818020   6.337313   0.000000
    20  H    4.728375   2.174188   7.085654   3.098838   0.000000
    21  H    6.796250   5.602199  10.209763   4.501141   3.432965
    22  H    5.572009   5.940425   9.618991   3.328150   4.030110
    23  H    3.694612   7.135208   3.666713   6.001160   8.184704
    24  H    2.413463   6.199463   4.080074   4.593894   6.964581
    25  H    2.414132   6.201895   4.078577   4.599188   6.950195
                   21         22         23         24         25
    21  H    0.000000
    22  H    2.218955   0.000000
    23  H   10.490466   9.161617   0.000000
    24  H    9.041313   7.685664   1.782661   0.000000
    25  H    9.064430   7.672374   1.782676   1.794841   0.000000
 Stoichiometry    C10H11O4(1+)
 Framework group  C1[X(C10H11O4)]
 Deg. of freedom    69
 Full point group                 C1      NOp   1
 Largest Abelian subgroup         C1      NOp   1
 Largest concise Abelian subgroup C1      NOp   1
                         Standard orientation:                         
 ---------------------------------------------------------------------
 Center     Atomic      Atomic             Coordinates (Angstroms)
 Number     Number       Type             X           Y           Z
 ---------------------------------------------------------------------
      1          6           0        1.474239   -2.029813   -0.025258
      2          6           0        2.517327   -1.088162   -0.012812
      3          6           0        2.231832    0.309962    0.005032
      4          6           0        0.919959    0.737288    0.012342
      5          6           0       -0.147507   -0.212096    0.002917
      6          6           0        0.163079   -1.600019   -0.020867
      7          8           0        3.777575   -1.516264   -0.019149
      8          6           0       -1.474958    0.276455    0.012963
      9          6           0       -2.646366   -0.471625    0.021334
     10          6           0       -3.896314    0.135294    0.000300
     11          8           0       -4.966482   -0.635710    0.108983
     12          8           0       -4.013396    1.449939   -0.137330
     13          8           0        3.347633    1.079741    0.013316
     14          6           0        3.200099    2.505655    0.032529
     15          1           0        1.730950   -3.081094   -0.041262
     16          1           0        0.686201    1.794290    0.026739
     17          1           0       -0.628844   -2.337566   -0.033385
     18          1           0        4.386044   -0.756033   -0.009646
     19          1           0       -1.588355    1.357636    0.012405
     20          1           0       -2.654569   -1.551819    0.044936
     21          1           0       -5.808345   -0.203920   -0.103759
     22          1           0       -4.885383    1.804186    0.094768
     23          1           0        4.209531    2.906144    0.036017
     24          1           0        2.669263    2.846393   -0.859463
     25          1           0        2.672528    2.822498    0.935216
 ---------------------------------------------------------------------
 Rotational constants (GHZ):      1.5299909      0.2850294      0.2407697
 Standard basis: 6-31+G(d,p) (6D, 7F)
 There are   321 symmetry adapted cartesian basis functions of A   symmetry.
 There are   321 symmetry adapted basis functions of A   symmetry.
   321 basis functions,   525 primitive gaussians,   321 cartesian basis functions
    51 alpha electrons       51 beta electrons
       nuclear repulsion energy       838.2785443332 Hartrees.
 NAtoms=   25 NActive=   25 NUniq=   25 SFac= 1.00D+00 NAtFMM=   60 NAOKFM=F Big=F
 Integral buffers will be    131072 words long.
 Regular integral format.
 Two-electron integral symmetry is turned on.
 Nuclear repulsion after empirical dispersion term =      838.2672232903 Hartrees.
 One-electron integrals computed using PRISM.
 NBasis=   321 RedAO= T EigKep=  1.43D-06  NBF=   321
 NBsUse=   320 1.00D-06 EigRej=  6.65D-07 NBFU=   320
 Initial guess from the checkpoint file:  "B2PLYPD3FAyang.chk"
 B after Tr=     0.000000   -0.000000    0.000000
         Rot=    1.000000   -0.000007    0.000002   -0.000072 Ang=  -0.01 deg.
 ExpMin= 4.38D-02 ExpMax= 5.48D+03 ExpMxC= 8.25D+02 IAcc=2 IRadAn=         4 AccDes= 0.00D+00
 Harris functional with IExCor=  419 and IRadAn=       4 diagonalized for initial guess.
 HarFok:  IExCor=  419 AccDes= 0.00D+00 IRadAn=         4 IDoV= 1 UseB2=F ITyADJ=14
 ICtDFT=  3500011 ScaDFX=  1.000000  1.000000  1.000000  1.000000
 FoFCou: FMM=F IPFlag=           0 FMFlag=      100000 FMFlg1=           0
         NFxFlg=           0 DoJE=T BraDBF=F KetDBF=T FulRan=T
         wScrn=  0.000000 ICntrl=     500 IOpCl=  0 I1Cent=   200000004 NGrid=           0
         NMat0=    1 NMatS0=      1 NMatT0=    0 NMatD0=    1 NMtDS0=    0 NMtDT0=    0
 Petite list used in FoFCou.
 Requested convergence on RMS density matrix=1.00D-08 within 128 cycles.
 Requested convergence on MAX density matrix=1.00D-06.
 Requested convergence on             energy=1.00D-06.
 No special actions if energy rises.
 SCF Done:  E(RB2PLYP) =  -687.020849248     A.U. after   12 cycles
            NFock= 12  Conv=0.58D-08     -V/T= 2.0068
 DoSCS=T DFT=T ScalE2(SS,OS)=  0.270000  0.270000
 ExpMin= 4.38D-02 ExpMax= 5.48D+03 ExpMxC= 8.25D+02 IAcc=3 IRadAn=         5 AccDes= 0.00D+00
 HarFok:  IExCor=  205 AccDes= 0.00D+00 IRadAn=         5 IDoV=-2 UseB2=F ITyADJ=14
 ICtDFT= 12500011 ScaDFX=  1.000000  1.000000  1.000000  1.000000
 Range of M.O.s used for correlation:    15   320
 NBasis=   321 NAE=    51 NBE=    51 NFC=    14 NFV=     0
 NROrb=    306 NOA=    37 NOB=    37 NVA=   269 NVB=   269

 **** Warning!!: The largest alpha MO coefficient is  0.19502861D+03

 DoSCS=T DFT=T ScalE2(SS,OS)=  0.270000  0.270000
 Fully direct method using O(ONN) memory.
 JobTyp=1 Pass  1:  I=  15 to  16 NPSUse= 18 ParTrn=T ParDer=T DoDerP=T.
 JobTyp=1 Pass  2:  I=  17 to  18 NPSUse= 18 ParTrn=T ParDer=T DoDerP=T.
 JobTyp=1 Pass  3:  I=  19 to  20 NPSUse= 18 ParTrn=T ParDer=T DoDerP=T.
 JobTyp=1 Pass  4:  I=  21 to  22 NPSUse= 18 ParTrn=T ParDer=T DoDerP=T.
 JobTyp=1 Pass  5:  I=  23 to  24 NPSUse= 18 ParTrn=T ParDer=T DoDerP=T.
 JobTyp=1 Pass  6:  I=  25 to  26 NPSUse= 18 ParTrn=T ParDer=T DoDerP=T.
 JobTyp=1 Pass  7:  I=  27 to  28 NPSUse= 18 ParTrn=T ParDer=T DoDerP=T.
 JobTyp=1 Pass  8:  I=  29 to  30 NPSUse= 18 ParTrn=T ParDer=T DoDerP=T.
 JobTyp=1 Pass  9:  I=  31 to  32 NPSUse= 18 ParTrn=T ParDer=T DoDerP=T.
 JobTyp=1 Pass 10:  I=  33 to  34 NPSUse= 18 ParTrn=T ParDer=T DoDerP=T.
 JobTyp=1 Pass 11:  I=  35 to  36 NPSUse= 18 ParTrn=T ParDer=T DoDerP=T.
 JobTyp=1 Pass 12:  I=  37 to  38 NPSUse= 18 ParTrn=T ParDer=T DoDerP=T.
 JobTyp=1 Pass 13:  I=  39 to  40 NPSUse= 18 ParTrn=T ParDer=T DoDerP=T.
 JobTyp=1 Pass 14:  I=  41 to  42 NPSUse= 18 ParTrn=T ParDer=T DoDerP=T.
 JobTyp=1 Pass 15:  I=  43 to  44 NPSUse= 18 ParTrn=T ParDer=T DoDerP=T.
 JobTyp=1 Pass 16:  I=  45 to  46 NPSUse= 18 ParTrn=T ParDer=T DoDerP=T.
 JobTyp=1 Pass 17:  I=  47 to  48 NPSUse= 18 ParTrn=T ParDer=T DoDerP=T.
 JobTyp=1 Pass 18:  I=  49 to  50 NPSUse= 18 ParTrn=T ParDer=T DoDerP=T.
 JobTyp=1 Pass 19:  I=  51 to  51 NPSUse= 18 ParTrn=T ParDer=T DoDerP=T.
 Spin components of T(2) and E(2):
     alpha-alpha T2 =       0.1477138488D+00 E2=     -0.9183665294D-01
     alpha-beta  T2 =       0.7783603126D+00 E2=     -0.4990909030D+00
     beta-beta   T2 =       0.1477138488D+00 E2=     -0.9183665294D-01
 E2(B2PLYP) =    -0.6827642089D+00 E(B2PLYP) =    -0.68770361345641D+03
          IDoAtm=1111111111111111111111111
          Differentiating once with respect to electric field.
                with respect to dipole field.
          Differentiating once with respect to nuclear coordinates.
          There are     1 degrees of freedom in the 1st order CPHF.  IDoFFX=0 NUNeed=     1.
 LinEq1:  Iter=  0 NonCon=     1 RMS=1.90D-03 Max=9.03D-02 NDo=     1
 AX will form     1 AO Fock derivatives at one time.
 LinEq1:  Iter=  1 NonCon=     1 RMS=7.85D-04 Max=3.52D-02 NDo=     1
 LinEq1:  Iter=  2 NonCon=     1 RMS=3.31D-04 Max=1.60D-02 NDo=     1
 LinEq1:  Iter=  3 NonCon=     1 RMS=2.36D-04 Max=1.21D-02 NDo=     1
 LinEq1:  Iter=  4 NonCon=     1 RMS=9.87D-05 Max=3.12D-03 NDo=     1
 LinEq1:  Iter=  5 NonCon=     1 RMS=4.19D-05 Max=1.17D-03 NDo=     1
 LinEq1:  Iter=  6 NonCon=     1 RMS=1.91D-05 Max=5.01D-04 NDo=     1
 LinEq1:  Iter=  7 NonCon=     1 RMS=1.07D-05 Max=6.69D-04 NDo=     1
 LinEq1:  Iter=  8 NonCon=     1 RMS=4.02D-06 Max=1.29D-04 NDo=     1
 LinEq1:  Iter=  9 NonCon=     1 RMS=1.96D-06 Max=6.78D-05 NDo=     1
 LinEq1:  Iter= 10 NonCon=     1 RMS=6.10D-07 Max=1.29D-05 NDo=     1
 LinEq1:  Iter= 11 NonCon=     1 RMS=3.48D-07 Max=1.41D-05 NDo=     1
 LinEq1:  Iter= 12 NonCon=     1 RMS=1.19D-07 Max=2.18D-06 NDo=     1
 LinEq1:  Iter= 13 NonCon=     1 RMS=3.81D-08 Max=9.99D-07 NDo=     1
 LinEq1:  Iter= 14 NonCon=     1 RMS=1.85D-08 Max=4.56D-07 NDo=     1
 LinEq1:  Iter= 15 NonCon=     1 RMS=6.54D-09 Max=2.36D-07 NDo=     1
 LinEq1:  Iter= 16 NonCon=     1 RMS=3.79D-09 Max=1.70D-07 NDo=     1
 LinEq1:  Iter= 17 NonCon=     1 RMS=1.37D-09 Max=5.20D-08 NDo=     1
 LinEq1:  Iter= 18 NonCon=     1 RMS=5.50D-10 Max=1.53D-08 NDo=     1
 LinEq1:  Iter= 19 NonCon=     1 RMS=2.61D-10 Max=6.13D-09 NDo=     1
 LinEq1:  Iter= 20 NonCon=     1 RMS=8.40D-11 Max=2.29D-09 NDo=     1
 LinEq1:  Iter= 21 NonCon=     1 RMS=3.82D-11 Max=1.01D-09 NDo=     1
 LinEq1:  Iter= 22 NonCon=     0 RMS=2.03D-11 Max=5.25D-10 NDo=     1
 Linear equations converged to 1.000D-10 1.000D-09 after    22 iterations.
 End of Minotr F.D. properties file   721 does not exist.
 End of Minotr F.D. properties file   722 does not exist.
 End of Minotr F.D. properties file   788 does not exist.
 Calling FoFJK, ICntrl=  10002127 FMM=F ISym2X=0 I1Cent= 0 IOpClX= 0 NMat=1 NMatS=1 NMatT=0.
 ***** Axes restored to original set *****
 -------------------------------------------------------------------
 Center     Atomic                   Forces (Hartrees/Bohr)
 Number     Number              X              Y              Z
 -------------------------------------------------------------------
      1        6           0.000343342    0.000109137    0.000094155
      2        6          -0.001378251    0.001838046   -0.000038109
      3        6          -0.000525101   -0.001184499    0.000058163
      4        6          -0.000187741    0.000136350   -0.000013913
      5        6           0.000389537   -0.000282443    0.000016852
      6        6          -0.000044695   -0.000040662   -0.000089332
      7        8           0.000904818   -0.000627015   -0.000001252
      8        6           0.000265138    0.000660615   -0.000070725
      9        6          -0.000733382   -0.000260535    0.000096444
     10        6           0.001060587   -0.000550870    0.000032128
     11        8          -0.000464627   -0.000488822    0.000279519
     12        8           0.000092686    0.000864741   -0.000452476
     13        8           0.001442372   -0.001454420   -0.000036166
     14        6          -0.000728879    0.002435737    0.000033910
     15        1           0.000026161   -0.000062115   -0.000019552
     16        1           0.000008426   -0.000071512    0.000003678
     17        1           0.000076278   -0.000018575   -0.000022720
     18        1          -0.000515395    0.000038547    0.000004089
     19        1          -0.000043374   -0.000071255    0.000046889
[...]
 3045,-0.00003158,0.15444481,0.20310563,0.00010541,0.00006366,0.0034736
 0,0.00000423,-0.00016158,0.00976748,-0.00000306,0.00003602,-0.00177565
 ,0.00015976,-0.00012452,0.00514983,-0.00071817,-0.00013785,-0.00034959
 ,-0.00368748,-0.00400681,-0.03332919,0.00002028,0.00000303,-0.00015930
 ,0.00018653,0.00013860,-0.00237397,0.00006070,-0.00023230,-0.00007356,
 -0.00007020,0.00004652,-0.00031038,0.00004713,0.00000773,-0.00011735,-
 0.00002146,-0.00002689,0.00020077,0.00001185,0.00002118,-0.00037395,0.
 00000089,-0.00001042,-0.00012848,0.00002124,0.00009595,-0.00458269,-0.
 00001728,-0.00004269,0.00136150,0.00375287,0.00429363,0.02284976,-0.00
 253216,0.00530920,0.00006771,-0.03966519,-0.03437293,-0.00057891,-0.00
 088192,-0.00194114,-0.00001340,-0.00170664,-0.00125861,-0.00000690,0.0
 0208519,-0.00091298,-0.00001583,-0.00158299,-0.00083302,-0.00002591,-0
 .20297993,-0.18524246,-0.00303898,-0.00213816,0.00009783,0.00002960,0.
 00195025,-0.00010831,0.00002834,-0.00218697,0.00109322,-0.00002460,0.0
 0127802,0.00040393,-0.00017664,0.00041280,-0.00102026,0.00018871,-0.00
 027725,-0.00181057,-0.00002348,0.00119643,0.00131681,0.00001862,0.0001
 3436,0.00007915,0.00000587,0.00036475,-0.00009105,-0.00000145,-0.00033
 505,0.00021420,0.00000142,0.24711111,0.00722331,0.00033348,-0.00004699
 ,0.00555114,0.01427801,0.00024587,0.01195418,0.00099481,0.00003837,-0.
 00390280,-0.00056526,0.00000660,0.00312049,-0.00123442,-0.00001907,-0.
 00237010,0.00197962,0.00000051,-0.23538353,-0.32675954,-0.00500549,-0.
 00279246,-0.00017510,0.00001767,0.00201755,-0.00002812,0.00003273,-0.0
 0205669,0.00118705,-0.00003110,0.00111719,0.00033939,-0.00016574,0.000
 35618,-0.00104142,0.00017655,-0.00257378,0.00101291,0.00002301,-0.0020
 7595,-0.00309205,-0.00002331,0.00009063,0.00012237,0.00001748,0.000276
 86,-0.00004535,-0.00000363,0.00020178,-0.00007519,0.00000769,0.2198772
 8,0.31106911,0.00004996,-0.00005058,0.00415972,0.00004396,0.00018636,-
 0.00292910,0.00014665,0.00001184,-0.00007674,-0.00004540,0.00000142,-0
 .00063821,0.00002679,-0.00000518,-0.00011234,-0.00001234,-0.00002906,0
 .00198060,-0.00377380,-0.00490676,-0.01154796,-0.00003156,0.00001053,-
 0.00003490,0.00003787,-0.00002364,-0.00012467,-0.00004584,0.00002091,-
 0.00001772,0.00002694,0.00000716,-0.00001382,0.00000386,-0.00002503,0.
 00001179,-0.00001775,0.00002587,-0.00122371,-0.00002731,-0.00002625,-0
 .00124645,0.00000329,0.00001885,-0.00054026,0.00000613,-0.00001092,0.0
 0041575,0.00000303,0.00000977,-0.00057058,0.00361910,0.00474980,0.0121
 3865,0.00038413,0.00162114,0.00006158,0.00009658,0.00027516,-0.0000335
 1,0.00008399,-0.00060868,0.00001004,0.00023723,0.00234409,0.00000199,-
 0.00080907,0.02989672,-0.00006620,-0.00559976,0.00000054,-0.00004747,0
 .00012599,-0.00019465,0.00001327,-0.06313004,0.02899832,-0.00024884,0.
 00531546,-0.02918263,0.00059704,0.00016644,-0.00372025,0.00014660,0.00
 047194,0.00066272,-0.00009319,-0.00281407,0.00161423,-0.00069597,0.000
 06887,-0.00005121,-0.00000173,-0.00003359,0.00007411,0.00000156,-0.000
 40655,0.00004557,0.00000375,-0.00104743,-0.00093748,-0.00001776,0.0000
 9576,-0.00001681,-0.00000138,-0.00005636,0.00002217,-0.00000202,0.0709
 9089,-0.00034392,-0.00057194,-0.00006582,0.00004589,-0.00014516,0.0000
 0183,-0.00013242,0.00052046,-0.00002373,-0.00177747,0.00139358,-0.0001
 2034,-0.00047253,-0.00848357,0.00018437,0.00144739,0.00099416,0.000242
 28,-0.00014517,0.00007673,0.00000876,0.02829912,-0.33914535,0.00219343
 ,0.00219840,-0.01495587,0.00040574,0.00037027,-0.00169051,0.00024986,-
 0.00008122,0.00023654,-0.00005354,0.00175815,0.00085524,-0.00007940,-0
 .00005603,-0.00008183,0.00001203,0.00001130,0.00003032,0.00000055,0.00
 014940,0.00001147,-0.00001695,0.00030330,0.00065341,0.00003151,-0.0000
 8215,0.00008195,0.00000224,0.00003365,0.00001729,0.00000084,-0.0297464
 9,0.35921118,0.00019335,0.00006526,-0.00086076,-0.00016162,-0.00001751
 ,0.00057257,0.00001984,-0.00012757,0.00003844,-0.00013497,-0.00000230,
 -0.00326659,0.00062318,-0.00054145,0.00649329,-0.00004997,0.00001999,0
 .00650540,0.00015508,-0.00001784,-0.00015926,-0.00105265,0.00225809,-0
 .04544490,0.00118467,0.00052734,0.00641949,-0.00036874,0.00056093,-0.0
 0449964,0.00053315,-0.00011853,0.00005326,-0.00108099,-0.00046595,0.00
 049787,0.00001736,0.00005260,0.00022130,0.00000225,-0.00002848,0.00005
 877,0.00000514,0.00001126,-0.00074889,-0.00001660,0.00000580,0.0002417
 7,-0.00000665,0.00001315,-0.00007316,-0.00001772,-0.00002354,0.0000817
 5,-0.00002937,-0.00288460,0.02683812,-0.00000355,0.00037608,0.00004380
 ,0.00018328,-0.00031457,0.00001144,-0.00034044,0.00049810,0.00000620,0
 .00050944,0.00017878,-0.00002824,-0.00001828,0.00133722,0.00000275,-0.
 00110689,-0.00128200,-0.00006550,-0.00015133,0.00012977,-0.00000481,0.
 00753276,-0.02847633,0.00096619,-0.05894896,-0.00389189,0.00004388,0.0
 0335182,0.03047739,-0.00158054,-0.00042081,0.00001135,0.00006600,-0.00
 615761,0.00261927,0.00086821,0.00015453,0.00011679,0.00000435,0.000018
 64,-0.00009112,-0.00000173,-0.00004020,0.00000770,-0.00000234,0.000152
 40,0.00014228,0.00000146,-0.00213864,0.00139956,0.00017039,0.00002464,
 0.00002454,-0.00000172,-0.00423850,-0.00200252,0.00001543,0.06134122,0
 .00013786,0.00032296,-0.00002372,-0.00000931,-0.00012000,-0.00001778,-
 0.00004609,-0.00001019,-0.00000970,-0.00010514,-0.00012230,0.00000520,
 0.00109752,-0.00043798,-0.00018961,0.00054156,-0.00003960,-0.00003547,
 0.00015026,0.00000618,0.00000903,-0.00043591,-0.01062138,0.00038610,0.
 00354051,-0.35710087,0.01280884,-0.00263224,-0.01193569,0.00072836,-0.
 00140607,0.00060083,-0.00023697,0.00162688,0.00103895,-0.00055643,-0.0
 0001227,0.00002983,0.00000334,0.00000293,-0.00002255,-0.00000009,0.000
 00293,-0.00000206,-0.00000018,0.00000164,0.00006734,0.00000690,0.00153
 831,0.00064301,-0.00001804,-0.00000255,-0.00001870,0.00000476,-0.00153
 352,0.00054867,0.00028809,-0.00227209,0.37701486,0.00001263,-0.0000126
 1,-0.00021119,-0.00010660,0.00010952,-0.00035854,0.00008623,-0.0001567
 4,0.00004274,-0.00020912,-0.00007511,-0.00019021,0.00037004,-0.0002361
 8,-0.00317677,0.00002989,0.00023500,-0.00066534,0.00009295,-0.00002946
 ,0.00014425,-0.00096646,0.00018523,0.00158011,0.00095590,0.01271418,-0
 .03097641,-0.00079474,0.00120279,-0.00127157,0.00071201,-0.00006607,-0
 .00205890,-0.00046753,-0.00075922,0.00493524,0.00001454,0.00004425,0.0
 0004157,-0.00000038,-0.00001685,0.00002069,0.00000323,-0.00000111,0.00
 012683,-0.00000378,-0.00000350,0.00012247,0.00016258,-0.00015816,0.001
 32491,-0.00001504,-0.00001551,0.00005042,0.00016176,-0.00012060,0.0069
 9921,0.00023824,-0.01367797,0.02282448,0.00094645,0.00046445,0.0000514
 8,-0.00150199,0.00052250,-0.00000858,-0.00001098,-0.00146329,0.0000023
 6,-0.00101199,-0.00035168,-0.00011349,0.00214430,-0.00148341,-0.000053
 66,-0.00060422,0.00118899,-0.00000714,0.00151973,-0.00025775,-0.000001
 92,-0.00459469,0.00023983,0.00074661,0.00402070,-0.00476848,-0.0001488
 4,-0.03948379,0.02075108,-0.00815679,-0.37000551,0.15526666,-0.1019276
 8,0.00607394,0.00310825,0.00049034,0.00051561,0.00075299,0.00002481,0.
 00001101,-0.00040163,-0.00000880,0.00002054,0.00000620,-0.00000044,-0.
 00003959,0.00002046,-0.00000406,-0.00004910,0.00002681,-0.00001600,-0.
 00022147,-0.00018453,-0.00000478,-0.00014999,-0.00006317,-0.00007895,0
 .00039320,-0.00009616,-0.00024024,0.40112113,-0.00028642,-0.00013986,-
 0.00003032,0.00040986,-0.00014817,-0.00000148,-0.00002170,0.00042024,0
 .00003165,0.00029620,0.00017052,-0.00008315,-0.00081800,0.00019820,-0.
 00032832,0.00022537,-0.00043537,0.00008149,-0.00041022,0.00006121,-0.0
 0000075,0.00074301,0.00111509,0.00070018,-0.00363304,-0.00237455,0.001
 33837,-0.02980568,0.01075515,-0.00900280,0.20505700,-0.13626795,0.0708
 7092,0.00065836,-0.00043941,0.00081932,-0.00013886,-0.00024082,0.00001
 253,-0.00001672,0.00014379,0.00000130,-0.00000265,0.00000011,0.0000079
 0,-0.00001010,-0.00001830,-0.00000666,0.00000667,0.00002140,0.00000444
 ,0.00005279,0.00006241,0.00000185,-0.00000891,0.00000935,0.00013739,-0
 .00017768,0.00031147,-0.00005177,-0.17038482,0.12997888,-0.00034366,-0
 .00017649,-0.00010318,0.00051300,-0.00017321,0.00005016,-0.00005416,0.
 00051910,0.00001505,0.00041932,0.00014427,-0.00038021,-0.00085967,0.00
 053735,-0.00057895,0.00028548,-0.00050525,0.00031513,-0.00049399,0.000
 07978,-0.00001806,0.00235325,0.00026505,0.00255828,-0.00068677,0.00124
 900,0.00285462,0.01113724,-0.00257475,-0.00318648,-0.12188922,0.064271
 44,-0.04045605,0.00022842,0.00087599,-0.00346240,-0.00014491,-0.000257
 78,0.00004425,-0.00000840,0.00013588,0.00002339,-0.00000267,-0.0000024
 4,0.00001434,-0.00000190,-0.00001547,-0.00001426,0.00000919,0.00001725
 ,-0.00002262,0.00006711,0.00006781,0.00000899,-0.00004503,0.00001105,0
 .00012614,-0.00003344,0.00005879,-0.00091425,0.11006920,-0.06314023,0.
 04094858,0.00072193,0.00038400,0.00004465,-0.00115847,0.00044580,0.000
 02398,0.00000382,-0.00115471,-0.00002704,-0.00074742,-0.00033371,0.000
 03898,0.00185327,-0.00071381,-0.00027732,-0.00056577,0.00097478,-0.000
 10600,0.00119113,-0.00020646,-0.00000282,-0.00332842,-0.00116514,0.000
 31144,0.00674998,-0.00056042,0.00160084,-0.00595310,0.00106491,-0.0019
 6277,0.00034763,-0.00432148,0.00036337,-0.40868970,0.16791942,0.126446
 77,0.00041069,0.00059141,-0.00000225,0.00000965,-0.00032154,0.00000545
 ,0.00001031,0.00000332,0.00000736,-0.00002529,0.00002493,0.00001064,-0
 .00003932,0.00000160,-0.00000596,-0.00017305,-0.00014581,-0.00000088,0
 .00024513,0.00028515,0.00025177,-0.00008093,-0.00008761,-0.00003569,0.
 00094917,-0.00174480,-0.00052888,0.40830275,-0.00052856,-0.00020728,-0
 .00003628,0.00087656,-0.00026514,-0.00002920,0.00007828,0.00080676,0.0
 0001401,0.00044601,0.00028135,0.00005272,-0.00097284,0.00079076,-0.000
 36082,0.00023858,-0.00065574,0.00010545,-0.00086769,0.00012832,0.00001
 317,0.00088997,0.00040066,-0.00027372,-0.00524505,-0.00498520,0.000873
 51,0.04917913,-0.02373296,-0.01229540,-0.00197012,0.00507909,0.0008665
 3,0.12042754,-0.09371991,-0.03352489,-0.00036328,-0.00054923,-0.000009
 14,-0.00002779,0.00032331,0.00000588,-0.00001816,-0.00000185,0.0000039
 5,0.00003165,0.00000566,0.00000930,0.00003935,0.00000628,0.00003622,0.
 00012679,0.00011971,0.00000991,0.00048215,0.00043791,0.00027928,0.0011
 7895,-0.00015614,0.00088267,-0.00300263,-0.00314841,-0.00134901,-0.161
 02789,0.11910883,0.00031124,0.00018304,-0.00009645,-0.00051239,0.00023
 842,0.00001718,0.00003777,-0.00057184,-0.00004032,-0.00040654,-0.00015
 190,-0.00005832,0.00094959,-0.00037077,0.00005793,-0.00028225,0.000533
 71,0.00005142,0.00052824,-0.00009875,-0.00000140,-0.00181584,-0.000750
 00,-0.00048734,0.00293500,0.00274061,0.00235389,-0.01066004,0.00836774
 ,-0.00286894,0.00038402,0.00064171,-0.00329227,0.13566507,-0.05469161,
 -0.04512251,0.00016616,0.00026088,-0.00001779,0.00000702,-0.00013996,0
 .00003709,0.00000416,0.00000147,0.00000404,-0.00000390,0.00001291,0.00
 003656,-0.00001654,-0.00003441,0.00010983,-0.00007488,-0.00006602,0.00
 002254,0.00028449,0.00001986,-0.00004223,-0.00071982,0.00046693,0.0016
 1985,-0.00061550,-0.00136117,0.00218217,-0.12615275,0.04472971,0.04554
 609,-0.00017743,0.00004948,0.00000711,0.00033268,0.00028678,-0.0000001
 9,0.00141421,0.00217104,0.00003089,-0.00028241,0.00044879,0.00000768,0
 .00014091,-0.00011504,0.00000190,-0.00000783,-0.00013400,-0.00000839,0
 .00003665,-0.00011695,-0.00000083,0.00014323,0.00004537,-0.00000260,-0
 .00012956,-0.00000721,0.00000181,0.00017388,-0.00007031,0.00000104,-0.
 00009635,-0.00002515,0.00001201,-0.00004137,0.00006990,-0.00001487,0.0
 0817411,0.00383817,0.00004649,-0.31257523,-0.09920663,-0.00132858,0.00
 001994,0.00002202,0.00000003,0.00019742,-0.00037067,-0.00000607,0.0000
 0870,-0.00002263,-0.00000058,-0.00003635,0.00006558,0.00000023,0.00002
 371,-0.00000238,0.00000115,-0.00000078,0.00000084,0.00000025,0.0000193
 5,-0.00000345,-0.00000421,0.00001509,-0.00001325,0.00000558,0.32491594
 ,0.00047444,-0.00047072,-0.00001669,-0.00221062,-0.00075789,-0.0000097
 7,0.00284321,-0.00521133,-0.00005853,0.00108853,-0.00058769,-0.0000145
 9,-0.00057585,0.00034029,0.00000186,0.00005648,0.00006499,0.00001045,0
 .00031118,0.00015816,0.00000364,0.00024294,-0.00012222,-0.00000815,-0.
 00028294,0.00003910,-0.00000416,0.00027874,-0.00017948,0.00000713,-0.0
 0015890,-0.00004592,0.00002295,-0.00005327,0.00016317,-0.00002579,-0.0
 3664376,-0.02878246,-0.00038605,-0.08368489,-0.07710490,-0.00031796,-0
 .00013953,-0.00009268,-0.00000115,-0.00021630,0.00053819,0.00001511,-0
 .00002409,0.00003543,0.00000152,-0.00020335,-0.00025206,-0.00000503,-0
 .00002625,-0.00000076,0.00000227,0.00000727,0.00000268,0.00000156,0.00
 002382,-0.00000969,-0.00000948,0.00001939,-0.00001719,0.00000902,0.101
 84278,0.10122727,0.00000450,-0.00000547,-0.00006295,-0.00002838,-0.000
 01466,0.00038183,0.00003354,-0.00007646,0.00059043,0.00001343,-0.00000
 949,0.00011975,-0.00000676,0.00000209,0.00015351,0.00000156,0.00000129
 ,-0.00002174,0.00000516,0.00000446,-0.00013224,0.00000149,-0.00000118,
 0.00005366,-0.00000140,0.00000364,0.00000960,0.00000143,-0.00000415,-0
 .00001121,-0.00000203,-0.00000169,-0.00000173,0.00000120,0.00000256,0.
 00000189,-0.00044122,-0.00035197,0.00008673,-0.00113777,-0.00032475,-0
 .05334081,-0.00000163,-0.00000055,-0.00003116,-0.00000282,0.00001194,-
 0.00046040,-0.00000046,0.00000101,-0.00001831,-0.00000282,-0.00000570,
 0.00020162,0.00000015,0.00000046,-0.00000901,0.00000011,-0.00000008,-0
 .00000113,0.00000047,0.00000032,0.00000186,-0.00000075,-0.00000092,-0.
 00000007,0.00136419,0.00069165,0.04839982,0.00022118,-0.00001735,0.000
 02123,0.00034343,-0.00014978,-0.00032817,0.00064855,-0.00100026,0.0012
 9549,0.00003056,0.00076676,0.00019440,-0.00009620,-0.00028758,-0.00036
 301,0.00003493,0.00035688,-0.00006764,-0.00023495,0.00009047,0.0001088
 8,-0.00016573,-0.00001962,-0.00005289,0.00022657,-0.00000857,0.0000307
 8,-0.00029115,0.00013291,0.00000366,0.00017045,0.00004653,-0.00002153,
 0.00006875,-0.00013233,0.00002637,0.00040059,0.00503357,-0.00039432,-0
 .11858739,0.03476777,-0.10872341,0.00001722,0.00001264,0.00000962,-0.0
 0077863,-0.00087547,0.00103947,0.00000213,0.00000279,0.00004473,0.0001
 0818,-0.00020465,-0.00014107,-0.00001152,0.00000086,0.00000325,-0.0000
 0764,-0.00000117,-0.00000206,-0.00003117,0.00000654,0.00000551,-0.0000
 2403,0.00002172,-0.00001018,-0.01112002,0.00882976,-0.02579550,0.12015
 419,0.00046914,0.00005590,0.00002390,0.00044926,-0.00166669,-0.0008636
 4,0.00609333,0.00433880,0.00181212,-0.00074166,0.00055896,-0.00028402,
 -0.00057920,-0.00004983,-0.00018094,-0.00030078,0.00022353,-0.00014020
 ,-0.00083400,-0.00029971,-0.00009632,0.00039073,-0.00012382,-0.0000699
 6,-0.00042360,0.00004233,0.00002412,0.00044546,-0.00024565,0.00000654,
 -0.00026699,-0.00008655,0.00003511,-0.00008449,0.00023143,-0.00004240,
 0.01699192,-0.03254314,0.02850489,0.03103345,-0.06785329,0.05559234,-0
 .00002269,-0.00001156,0.00007237,-0.00085339,-0.00041306,0.00087457,-0
 .00001996,0.00001371,0.00004316,-0.00040377,0.00088169,0.00032461,-0.0
 0000735,-0.00000227,0.00002121,0.00000178,0.00000028,0.00000252,0.0000
 4218,-0.00001270,-0.00001320,0.00003472,-0.00002405,0.00001407,-0.0043
 9548,0.00566680,-0.00992306,-0.04207320,0.08577566,-0.00008834,-0.0000
 6925,-0.00000733,0.00016934,0.00049613,-0.00025342,-0.00068209,-0.0007
 0391,0.00061525,-0.00076280,0.00101161,-0.00020549,0.00036429,-0.00037
 509,-0.00013172,-0.00002587,-0.00004383,-0.00005175,0.00017366,-0.0001
 8964,0.00001233,-0.00001594,0.00009958,0.00006143,0.00003458,-0.000029
 43,-0.00000595,0.00000488,0.00007250,-0.00000975,-0.00001206,-0.000009
 80,0.00000095,-0.00000248,-0.00005613,0.00001059,0.00317032,0.00213495
 ,0.00791398,-0.10896758,0.06136768,-0.24242254,0.00000965,0.00000485,0
 .00001436,0.00063444,-0.00019187,-0.00004109,0.00001695,-0.00005553,0.
 00000930,-0.00001728,-0.00008423,0.00000470,0.00004851,0.00000548,-0.0
 0002112,-0.00000906,-0.00000336,-0.00000486,0.00000628,0.00000490,-0.0
 0000070,0.00000263,0.00000483,-0.00000598,0.00179963,-0.00097580,0.001
 90595,0.11867905,-0.06937092,0.25178580,0.00022345,-0.00001832,-0.0000
 5515,0.00033637,-0.00016224,0.00035107,0.00063940,-0.00096302,-0.00133
 514,0.00003486,0.00076537,-0.00014084,-0.00009200,-0.00030492,0.000319
 35,0.00003323,0.00035853,0.00012696,-0.00023214,0.00009491,-0.00010746
 ,-0.00017079,-0.00001491,0.00006065,0.00022974,-0.00000970,-0.00004505
 ,-0.00029376,0.00013239,-0.00000939,0.00017068,0.00004610,-0.00001856,
 0.00007000,-0.00013148,0.00002805,0.00040850,0.00503286,0.00048970,-0.
 11872852,0.03219550,0.10962441,0.00001746,0.00001317,-0.00000904,-0.00
 077604,-0.00083720,-0.00105578,0.00000262,0.00000500,-0.00004584,0.000
 10776,-0.00020858,0.00013665,-0.00000924,0.00000260,-0.00000738,-0.000
 00738,-0.00000110,0.00000139,-0.00003063,0.00000724,0.00000919,-0.0000
 2506,0.00002060,-0.00000770,-0.01114849,0.00820118,0.02599430,0.008921
 70,-0.00494540,-0.01453069,0.12031826,0.00046603,0.00004638,-0.0000182
 9,0.00044656,-0.00168414,0.00082110,0.00607289,0.00436120,-0.00168051,
 -0.00075590,0.00056568,0.00030448,-0.00056865,-0.00006356,0.00016183,-
 0.00029932,0.00022090,0.00015307,-0.00083381,-0.00030681,0.00008573,0.
 00038977,-0.00012175,0.00005981,-0.00042474,0.00004185,-0.00002823,0.0
 0044712,-0.00024627,0.00000162,-0.00026864,-0.00008636,0.00003954,-0.0
 0008222,0.00023401,-0.00003853,0.01708098,-0.03179678,-0.02946629,0.02
 846573,-0.06510605,-0.05129231,-0.00002145,-0.00000844,-0.00007260,-0.
 00083192,-0.00038762,-0.00087733,-0.00001916,0.00001434,-0.00004048,-0
 .00040386,0.00088936,-0.00030204,-0.00000269,-0.00000101,-0.00001488,0
 .00000136,0.00000041,0.00000317,0.00004336,-0.00001261,-0.00001543,0.0
 0003396,-0.00002555,0.00001638,-0.00435760,0.00539892,0.01000072,-0.00
 529921,0.00554323,0.00695626,-0.03927859,0.08253070,0.00009677,0.00006
 902,-0.00002315,-0.00015304,-0.00052691,-0.00022185,0.00083661,0.00079
 780,0.00055800,0.00075023,-0.00098880,-0.00021810,-0.00038274,0.000382
 32,-0.00012144,0.00002128,0.00004886,-0.00003427,-0.00019630,0.0001813
 0,0.00001751,0.00002714,-0.00010520,0.00006346,-0.00004699,0.00002998,
 -0.00001037,0.00000561,-0.00007378,-0.00000156,0.00000310,0.00000684,0
 .00000418,0.00000431,0.00006081,0.00000322,-0.00277275,-0.00310926,0.0
 0715527,0.10978368,-0.05703518,-0.24490343,-0.00001037,-0.00000563,0.0
 0001327,-0.00065717,0.00017990,-0.00005261,-0.00001769,0.00005518,0.00
 001180,0.00000733,0.00010626,-0.00000006,-0.00004827,-0.00000531,-0.00
 002181,0.00000874,0.00000308,-0.00000360,-0.00000470,-0.00000589,-0.00
 000581,-0.00000476,-0.00000775,-0.00000498,-0.00191366,0.00106600,0.00
 218409,0.01443735,-0.00636687,-0.01917295,-0.11977370,0.06524323,0.254
 78518\\0.00001032,-0.00000748,0.00000042,0.00001235,0.00000002,-0.0000
 0083,-0.00001467,-0.00001272,-0.00000313,-0.00000755,0.00001047,0.0000
 0453,0.00000162,-0.00000578,0.00000042,-0.00001393,-0.00000293,-0.0000
 0149,0.00000454,-0.00000457,0.00000051,-0.00000576,0.00001473,-0.00000
 154,0.00000389,-0.00001574,-0.00000043,0.00000841,0.00000690,0.0000197
 8,-0.00000860,-0.00001445,-0.00000406,0.00000509,0.00001299,-0.0000126
 4,0.00000061,0.00005591,0.00000400,0.00001846,-0.00006614,-0.00000353,
 -0.00000529,0.00000360,0.00000002,0.00000628,-0.00000252,-0.00000121,0
 .00000478,0.00000329,-0.00000051,-0.00000175,-0.00000247,-0.00000051,0
 .00000116,-0.00000416,-0.00000119,-0.00000181,0.00000800,-0.00000094,-
 0.00000469,0.00000516,0.00000060,-0.00000279,0.00000287,0.00000261,-0.
 00000513,0.00000281,-0.00000050,-0.00000323,0.00000576,0.00000355,-0.0
 0000229,0.00000643,-0.00000395\\\@


 LAWS OF PROGRAMMING DEFINITION:  A WORKING PROGRAM
                                  IS ONE THAT HAS
                                  ONLY UNOBSERVED
                                  BUGS.
 Job cpu time:       0 days 17 hours 55 minutes 24.3 seconds.
 File lengths (MBytes):  RWF=  53161 Int=      0 D2E=      0 Chk=     12 Scr=      1
 Normal termination of Gaussian 09 at Thu Dec 19 15:39:03 2024.
