 Entering Gaussian System, Link 0=g09
 Input=b3lypD3FA.gjf
 Output=b3lypD3FA.log
 Initial command:
 /home/c612/g09E/g09/l1.exe "/mnt/ja_sm883/scratch/Gau-1475109.inp" -scrdir="/mnt/ja_sm883/scratch/"
 Default is to use a total of  18 processors:
                               18 via shared-memory
                                1 via Linda
 Entering Link 1 = /home/c612/g09E/g09/l1.exe PID=   1475111.
  
 Copyright (c) 1988,1990,1992,1993,1995,1998,2003,2009,2015,
            Gaussian, Inc.  All Rights Reserved.
  
 This is part of the Gaussian(R) 09 program.  It is based on
 the Gaussian(R) 03 system (copyright 2003, Gaussian, Inc.),
 the Gaussian(R) 98 system (copyright 1998, Gaussian, Inc.),
 the Gaussian(R) 94 system (copyright 1995, Gaussian, Inc.),
 the Gaussian 92(TM) system (copyright 1992, Gaussian, Inc.),
 the Gaussian 90(TM) system (copyright 1990, Gaussian, Inc.),
 the Gaussian 88(TM) system (copyright 1988, Gaussian, Inc.),
 the Gaussian 86(TM) system (copyright 1986, Carnegie Mellon
 University), and the Gaussian 82(TM) system (copyright 1983,
 Carnegie Mellon University). Gaussian is a federally registered
 trademark of Gaussian, Inc.
  
 This software contains proprietary and confidential information,
 including trade secrets, belonging to Gaussian, Inc.
  
 This software is provided under written license and may be
 used, copied, transmitted, or stored only in accord with that
 written license.
  
 The following legend is applicable only to US Government
 contracts under FAR:
  
                    RESTRICTED RIGHTS LEGEND
  
 Use, reproduction and disclosure by the US Government is
 subject to restrictions as set forth in subparagraphs (a)
 and (c) of the Commercial Computer Software - Restricted
 Rights clause in FAR 52.227-19.
  
 Gaussian, Inc.
 340 Quinnipiac St., Bldg. 40, Wallingford CT 06492
  
  
 ---------------------------------------------------------------
 Warning -- This program may not be used in any manner that
 competes with the business of Gaussian, Inc. or will provide
 assistance to any competitor of Gaussian, Inc.  The licensee
 of this program is prohibited from giving any competitor of
 Gaussian, Inc. access to this program.  By using this program,
 the user acknowledges that Gaussian, Inc. is engaged in the
 business of creating and licensing software in the field of
 computational chemistry and represents and warrants to the
 licensee that it is not a competitor of Gaussian, Inc. and that
 it will not use this program in any manner prohibited above.
 ---------------------------------------------------------------
  

 Cite this work as:
 Gaussian 09, Revision E.01,
 M. J. Frisch, G. W. Trucks, H. B. Schlegel, G. E. Scuseria, 
 M. A. Robb, J. R. Cheeseman, G. Scalmani, V. Barone, B. Mennucci, 
 G. A. Petersson, H. Nakatsuji, M. Caricato, X. Li, H. P. Hratchian, 
 A. F. Izmaylov, J. Bloino, G. Zheng, J. L. Sonnenberg, M. Hada, 
 M. Ehara, K. Toyota, R. Fukuda, J. Hasegawa, M. Ishida, T. Nakajima, 
 Y. Honda, O. Kitao, H. Nakai, T. Vreven, J. A. Montgomery, Jr., 
 J. E. Peralta, F. Ogliaro, M. Bearpark, J. J. Heyd, E. Brothers, 
 K. N. Kudin, V. N. Staroverov, T. Keith, R. Kobayashi, J. Normand, 
 K. Raghavachari, A. Rendell, J. C. Burant, S. S. Iyengar, J. Tomasi, 
 M. Cossi, N. Rega, J. M. Millam, M. Klene, J. E. Knox, J. B. Cross, 
 V. Bakken, C. Adamo, J. Jaramillo, R. Gomperts, R. E. Stratmann, 
 O. Yazyev, A. J. Austin, R. Cammi, C. Pomelli, J. W. Ochterski, 
 R. L. Martin, K. Morokuma, V. G. Zakrzewski, G. A. Voth, 
 P. Salvador, J. J. Dannenberg, S. Dapprich, A. D. Daniels, 
 O. Farkas, J. B. Foresman, J. V. Ortiz, J. Cioslowski, 
 and D. J. Fox, Gaussian, Inc., Wallingford CT, 2013.
 
 ******************************************
 Gaussian 09:  ES64L-G09RevE.01 30-Nov-2015
                17-Dec-2024 
 ******************************************
 %chk=b3lypD3FA.chk
 ----------------------------------------------------
 # opt freq b3lyp/6-31+g(d,p) EmpiricalDispersion=GD3
 ----------------------------------------------------
 1/14=-1,18=20,19=15,26=3,38=1/1,3;
 2/9=110,12=2,17=6,18=5,40=1/2;
 3/5=1,6=6,7=111,11=2,16=1,25=1,30=1,71=1,74=-5,124=31/1,2,3;
 4//1;
 5/5=2,38=5/2;
 6/7=2,8=2,9=2,10=2,28=1/1;
 7//1,2,3,16;
 1/14=-1,18=20,19=15,26=3/3(2);
 2/9=110/2;
 99//99;
 2/9=110/2;
 3/5=1,6=6,7=111,11=2,16=1,25=1,30=1,71=1,74=-5,124=31/1,2,3;
 4/5=5,16=3,69=1/1;
 5/5=2,38=5/2;
 7//1,2,3,16;
 1/14=-1,18=20,19=15,26=3/3(-5);
 2/9=110/2;
 6/7=2,8=2,9=2,10=2,19=2,28=1/1;
 99/9=1/99;
 ----------
 [No Title]
 ----------
 Symbolic Z-matrix:
 Charge =  0 Multiplicity = 1
 C                     1.46084  -2.01376  -0.00042 
 C                     2.49406  -1.08065  -0.00028 
 C                     2.189     0.29467  -0.00008 
 C                     0.86662   0.7127   -0.00002 
 C                    -0.18631  -0.22683  -0.00015 
 C                     0.13646  -1.59271  -0.00036 
 O                     3.78085  -1.49428  -0.00034 
 C                    -1.55728   0.2719   -0.00007 
 C                    -2.69671  -0.44863   0.00012 
 O                     3.29155   1.10182   0.00004 
 C                     3.09949   2.50661   0.00039 
 C                    -4.07724   0.07802   0.00032 
 O                    -5.04131  -0.65548   0.0021 
 O                    -4.2698    1.42358  -0.00112 
 H                     1.71474  -3.06889  -0.00058 
 H                     0.63076   1.7723    0.00015 
 H                    -0.64961  -2.34028  -0.00048 
 H                     4.349    -0.70917  -0.00021 
 H                    -1.61709   1.36317  -0.00003 
 H                    -2.67665  -1.53362   0.00044 
 H                     4.09677   2.94732   0.00051 
 H                     2.55815   2.8303   -0.89674 
 H                     2.55814   2.82983   0.89769 
 H                    -3.42813   1.89597  -0.00297 
 

 GradGradGradGradGradGradGradGradGradGradGradGradGradGradGradGradGradGrad
 Berny optimization.
 Initialization pass.
                           ----------------------------
                           !    Initial Parameters    !
                           ! (Angstroms and Degrees)  !
 --------------------------                            --------------------------
 ! Name  Definition              Value          Derivative Info.                !
 --------------------------------------------------------------------------------
 ! R1    R(1,2)                  1.3922         estimate D2E/DX2                !
 ! R2    R(1,6)                  1.3897         estimate D2E/DX2                !
 ! R3    R(1,15)                 1.0852         estimate D2E/DX2                !
 ! R4    R(2,3)                  1.4087         estimate D2E/DX2                !
 ! R5    R(2,7)                  1.3516         estimate D2E/DX2                !
 ! R6    R(3,4)                  1.3869         estimate D2E/DX2                !
 ! R7    R(3,10)                 1.3664         estimate D2E/DX2                !
 ! R8    R(4,5)                  1.4112         estimate D2E/DX2                !
 ! R9    R(4,16)                 1.0855         estimate D2E/DX2                !
 ! R10   R(5,6)                  1.4035         estimate D2E/DX2                !
 ! R11   R(5,8)                  1.4589         estimate D2E/DX2                !
 ! R12   R(6,17)                 1.0848         estimate D2E/DX2                !
 ! R13   R(7,18)                 0.9691         estimate D2E/DX2                !
 ! R14   R(8,9)                  1.3481         estimate D2E/DX2                !
 ! R15   R(8,19)                 1.0929         estimate D2E/DX2                !
 ! R16   R(9,12)                 1.4776         estimate D2E/DX2                !
 ! R17   R(9,20)                 1.0852         estimate D2E/DX2                !
 ! R18   R(10,11)                1.4179         estimate D2E/DX2                !
 ! R19   R(11,21)                1.0903         estimate D2E/DX2                !
 ! R20   R(11,22)                1.0967         estimate D2E/DX2                !
 ! R21   R(11,23)                1.0967         estimate D2E/DX2                !
 ! R22   R(12,13)                1.2114         estimate D2E/DX2                !
 ! R23   R(12,14)                1.3593         estimate D2E/DX2                !
 ! R24   R(14,24)                0.9652         estimate D2E/DX2                !
 ! A1    A(2,1,6)              120.2778         estimate D2E/DX2                !
 ! A2    A(2,1,15)             118.555          estimate D2E/DX2                !
 ! A3    A(6,1,15)             121.1672         estimate D2E/DX2                !
 ! A4    A(1,2,3)              119.579          estimate D2E/DX2                !
 ! A5    A(1,2,7)              120.095          estimate D2E/DX2                !
 ! A6    A(3,2,7)              120.326          estimate D2E/DX2                !
 ! A7    A(2,3,4)              120.049          estimate D2E/DX2                !
 ! A8    A(2,3,10)             113.7007         estimate D2E/DX2                !
 ! A9    A(4,3,10)             126.2502         estimate D2E/DX2                !
 ! A10   A(3,4,5)              120.715          estimate D2E/DX2                !
 ! A11   A(3,4,16)             120.0919         estimate D2E/DX2                !
 ! A12   A(5,4,16)             119.1931         estimate D2E/DX2                !
 ! A13   A(4,5,6)              118.4464         estimate D2E/DX2                !
 ! A14   A(4,5,8)              118.2672         estimate D2E/DX2                !
 ! A15   A(6,5,8)              123.2864         estimate D2E/DX2                !
 ! A16   A(1,6,5)              120.9328         estimate D2E/DX2                !
 ! A17   A(1,6,17)             118.8012         estimate D2E/DX2                !
 ! A18   A(5,6,17)             120.266          estimate D2E/DX2                !
 ! A19   A(2,7,18)             108.072          estimate D2E/DX2                !
 ! A20   A(5,8,9)              127.7021         estimate D2E/DX2                !
 ! A21   A(5,8,19)             113.128          estimate D2E/DX2                !
 ! A22   A(9,8,19)             119.1699         estimate D2E/DX2                !
 ! A23   A(8,9,12)             126.8114         estimate D2E/DX2                !
 ! A24   A(8,9,20)             121.2478         estimate D2E/DX2                !
 ! A25   A(12,9,20)            111.9408         estimate D2E/DX2                !
 ! A26   A(3,10,11)            118.4218         estimate D2E/DX2                !
 ! A27   A(10,11,21)           106.0562         estimate D2E/DX2                !
 ! A28   A(10,11,22)           111.0448         estimate D2E/DX2                !
 ! A29   A(10,11,23)           111.0447         estimate D2E/DX2                !
 ! A30   A(21,11,22)           109.4074         estimate D2E/DX2                !
 ! A31   A(21,11,23)           109.4077         estimate D2E/DX2                !
 ! A32   A(22,11,23)           109.7962         estimate D2E/DX2                !
 ! A33   A(9,12,13)            121.8533         estimate D2E/DX2                !
 ! A34   A(9,12,14)            119.0254         estimate D2E/DX2                !
 ! A35   A(13,12,14)           119.1213         estimate D2E/DX2                !
 ! A36   A(12,14,24)           111.1593         estimate D2E/DX2                !
 ! D1    D(6,1,2,3)             -0.0003         estimate D2E/DX2                !
 ! D2    D(6,1,2,7)           -179.9999         estimate D2E/DX2                !
 ! D3    D(15,1,2,3)           179.9995         estimate D2E/DX2                !
 ! D4    D(15,1,2,7)            -0.0001         estimate D2E/DX2                !
 ! D5    D(2,1,6,5)             -0.0002         estimate D2E/DX2                !
 ! D6    D(2,1,6,17)           179.9994         estimate D2E/DX2                !
 ! D7    D(15,1,6,5)          -180.0            estimate D2E/DX2                !
 ! D8    D(15,1,6,17)           -0.0005         estimate D2E/DX2                !
 ! D9    D(1,2,3,4)              0.0004         estimate D2E/DX2                !
 ! D10   D(1,2,3,10)          -179.9996         estimate D2E/DX2                !
 ! D11   D(7,2,3,4)           -180.0            estimate D2E/DX2                !
 ! D12   D(7,2,3,10)             0.0            estimate D2E/DX2                !
 ! D13   D(1,2,7,18)          -179.9992         estimate D2E/DX2                !
 ! D14   D(3,2,7,18)             0.0012         estimate D2E/DX2                !
 ! D15   D(2,3,4,5)              0.0            estimate D2E/DX2                !
 ! D16   D(2,3,4,16)           179.9993         estimate D2E/DX2                !
 ! D17   D(10,3,4,5)          -180.0            estimate D2E/DX2                !
 ! D18   D(10,3,4,16)           -0.0007         estimate D2E/DX2                !
 ! D19   D(2,3,10,11)         -179.9928         estimate D2E/DX2                !
 ! D20   D(4,3,10,11)            0.0072         estimate D2E/DX2                !
 ! D21   D(3,4,5,6)             -0.0005         estimate D2E/DX2                !
 ! D22   D(3,4,5,8)            179.9996         estimate D2E/DX2                !
 ! D23   D(16,4,5,6)          -179.9998         estimate D2E/DX2                !
 ! D24   D(16,4,5,8)             0.0003         estimate D2E/DX2                !
 ! D25   D(4,5,6,1)              0.0006         estimate D2E/DX2                !
 ! D26   D(4,5,6,17)          -179.999          estimate D2E/DX2                !
 ! D27   D(8,5,6,1)           -179.9995         estimate D2E/DX2                !
 ! D28   D(8,5,6,17)             0.001          estimate D2E/DX2                !
 ! D29   D(4,5,8,9)           -179.9842         estimate D2E/DX2                !
 ! D30   D(4,5,8,19)             0.0071         estimate D2E/DX2                !
 ! D31   D(6,5,8,9)              0.0159         estimate D2E/DX2                !
 ! D32   D(6,5,8,19)          -179.9929         estimate D2E/DX2                !
 ! D33   D(5,8,9,12)           179.9945         estimate D2E/DX2                !
 ! D34   D(5,8,9,20)             0.0121         estimate D2E/DX2                !
 ! D35   D(19,8,9,12)            0.0038         estimate D2E/DX2                !
 ! D36   D(19,8,9,20)         -179.9787         estimate D2E/DX2                !
 ! D37   D(8,9,12,13)         -179.91           estimate D2E/DX2                !
 ! D38   D(8,9,12,14)            0.0686         estimate D2E/DX2                !
 ! D39   D(20,9,12,13)           0.0738         estimate D2E/DX2                !
 ! D40   D(20,9,12,14)        -179.9476         estimate D2E/DX2                !
 ! D41   D(3,10,11,21)         179.9953         estimate D2E/DX2                !
 ! D42   D(3,10,11,22)         -61.2397         estimate D2E/DX2                !
 ! D43   D(3,10,11,23)          61.23           estimate D2E/DX2                !
 ! D44   D(9,12,14,24)           0.0526         estimate D2E/DX2                !
 ! D45   D(13,12,14,24)       -179.9682         estimate D2E/DX2                !
 --------------------------------------------------------------------------------
 Trust Radius=3.00D-01 FncErr=1.00D-07 GrdErr=1.00D-06
 Number of steps in this run=    115 maximum allowed number of steps=    144.
 GradGradGradGradGradGradGradGradGradGradGradGradGradGradGradGradGradGrad

                          Input orientation:                          
 ---------------------------------------------------------------------
 Center     Atomic      Atomic             Coordinates (Angstroms)
 Number     Number       Type             X           Y           Z
 ---------------------------------------------------------------------
      1          6           0        1.460837   -2.013762   -0.000419
      2          6           0        2.494064   -1.080651   -0.000277
      3          6           0        2.189003    0.294670   -0.000079
      4          6           0        0.866621    0.712699   -0.000018
      5          6           0       -0.186313   -0.226828   -0.000152
      6          6           0        0.136464   -1.592707   -0.000359
      7          8           0        3.780849   -1.494280   -0.000337
      8          6           0       -1.557275    0.271903   -0.000070
      9          6           0       -2.696714   -0.448627    0.000124
     10          8           0        3.291549    1.101821    0.000036
     11          6           0        3.099486    2.506606    0.000394
     12          6           0       -4.077238    0.078024    0.000317
     13          8           0       -5.041308   -0.655484    0.002101
     14          8           0       -4.269800    1.423580   -0.001118
     15          1           0        1.714740   -3.068887   -0.000579
     16          1           0        0.630757    1.772301    0.000146
     17          1           0       -0.649609   -2.340279   -0.000483
     18          1           0        4.349001   -0.709169   -0.000205
     19          1           0       -1.617093    1.363173   -0.000031
     20          1           0       -2.676646   -1.533616    0.000438
     21          1           0        4.096772    2.947324    0.000513
     22          1           0        2.558151    2.830295   -0.896741
     23          1           0        2.558135    2.829834    0.897685
     24          1           0       -3.428134    1.895968   -0.002974
 ---------------------------------------------------------------------
                    Distance matrix (angstroms):
                    1          2          3          4          5
     1  C    0.000000
     2  C    1.392212   0.000000
     3  C    2.420555   1.408748   0.000000
     4  C    2.790463   2.421709   1.386882   0.000000
     5  C    2.430275   2.813083   2.431889   1.411163   0.000000
     6  C    1.389695   2.412567   2.788388   2.418269   1.403499
     7  O    2.377460   1.351630   2.394643   3.655610   4.164710
     8  C    3.785930   4.271153   3.746347   2.463650   1.458859
     9  C    4.442396   5.229114   4.941935   3.747804   2.520180
    10  O    3.613636   2.323611   1.366419   2.455950   3.723014
    11  C    4.808212   3.637987   2.391995   2.864226   4.274124
    12  C    5.919953   6.672671   6.269985   4.984431   3.902849
    13  O    6.642501   7.547357   7.292475   6.064285   4.873882
    14  O    6.682479   7.212561   6.556720   5.185381   4.404397
    15  H    1.085244   2.135516   3.396828   3.875526   3.419255
    16  H    3.875991   3.407528   2.147446   1.085536   2.159657
    17  H    2.135555   3.386642   3.873070   3.408758   2.163635
    18  H    3.169141   1.891769   2.381866   3.761473   4.560891
    19  H    4.569173   4.782665   3.953235   2.567480   2.138980
    20  H    4.165250   5.190512   5.197804   4.195316   2.812375
    21  H    5.617876   4.335119   3.267439   3.927776   5.331047
    22  H    5.047017   4.012886   2.714713   2.854750   4.204992
    23  H    5.046888   4.012771   2.714645   2.854707   4.204912
    24  H    6.260035   6.628174   5.840924   4.454779   3.875006
                    6          7          8          9         10
     6  C    0.000000
     7  O    3.645714   0.000000
     8  C    2.519032   5.622719   0.000000
     9  C    3.055457   6.561419   1.348141   0.000000
    10  O    4.149101   2.641809   4.919335   6.185724   0.000000
    11  C    5.058050   4.058490   5.165203   6.506100   1.417854
    12  C    4.532839   8.013842   2.527410   1.477568   7.439569
    13  O    5.261912   8.861943   3.605348   2.353702   8.516139
    14  O    5.339771   8.563110   2.946889   2.445355   7.568192
    15  H    2.161033   2.597729   4.676212   5.130954   4.458826
    16  H    3.401118   4.538021   2.653051   4.000573   2.743967
    17  H    1.084792   4.510507   2.765385   2.787290   5.232665
    18  H    4.304196   0.969121   5.987203   7.050531   2.097115
    19  H    3.436887   6.107603   1.092908   2.109076   4.915595
    20  H    2.813731   6.457615   2.124357   1.085175   6.524177
    21  H    6.024610   4.452825   6.255088   7.594994   2.013521
    22  H    5.121622   4.582628   4.928095   6.258538   2.080794
    23  H    5.121508   4.582514   4.928040   6.258383   2.080793
    24  H    4.987707   7.966381   2.477440   2.456036   6.766448
                   11         12         13         14         15
    11  C    0.000000
    12  C    7.576502   0.000000
    13  O    8.733347   1.211391   0.000000
    14  O    7.448444   1.359266   2.217598   0.000000
    15  H    5.744880   6.591666   7.174169   7.483113   0.000000
    16  H    2.575622   5.003578   6.169803   4.912949   4.961060
    17  H    6.127643   4.194858   4.703782   5.222300   2.474069
    18  H    3.450000   8.462930   9.390463   8.878758   3.536609
    19  H    4.853201   2.775594   3.974950   2.653395   5.544751
    20  H    7.048907   2.135191   2.522448   3.359040   4.652024
    21  H    1.090326   8.662986   9.822664   8.504195   6.470616
    22  H    1.096663   7.239344   8.408945   7.028649   6.026176
    23  H    1.096662   7.239192   8.408391   7.028947   6.026035
    24  H    6.556120   1.930354   3.018653   0.965171   7.148353
                   16         17         18         19         20
    16  H    0.000000
    17  H    4.307279   0.000000
    18  H    4.470238   5.258006   0.000000
    19  H    2.284779   3.827739   6.315764   0.000000
    20  H    4.676324   2.181647   7.073855   3.084484   0.000000
    21  H    3.659773   7.105412   3.665182   5.929400   8.121454
    22  H    2.374575   6.150434   4.066783   4.515440   6.873991
    23  H    2.374603   6.150317   4.066688   4.515475   6.873695
    24  H    4.060776   5.066162   8.201864   1.887789   3.510953
                   21         22         23         24
    21  H    0.000000
    22  H    1.784969   0.000000
    23  H    1.784972   1.794426   0.000000
    24  H    7.597998   6.124328   6.125252   0.000000
 Stoichiometry    C10H10O4
 Framework group  C1[X(C10H10O4)]
 Deg. of freedom    66
 Full point group                 C1      NOp   1
 Largest Abelian subgroup         C1      NOp   1
 Largest concise Abelian subgroup C1      NOp   1
                         Standard orientation:                         
 ---------------------------------------------------------------------
 Center     Atomic      Atomic             Coordinates (Angstroms)
 Number     Number       Type             X           Y           Z
 ---------------------------------------------------------------------
      1          6           0        1.460837   -2.013762   -0.000419
      2          6           0        2.494064   -1.080651   -0.000277
      3          6           0        2.189003    0.294670   -0.000079
      4          6           0        0.866621    0.712699   -0.000018
      5          6           0       -0.186313   -0.226828   -0.000152
      6          6           0        0.136464   -1.592707   -0.000359
      7          8           0        3.780849   -1.494280   -0.000337
      8          6           0       -1.557275    0.271903   -0.000070
      9          6           0       -2.696714   -0.448627    0.000124
     10          8           0        3.291549    1.101821    0.000036
     11          6           0        3.099486    2.506606    0.000394
     12          6           0       -4.077238    0.078024    0.000317
     13          8           0       -5.041308   -0.655484    0.002101
     14          8           0       -4.269800    1.423580   -0.001118
     15          1           0        1.714740   -3.068887   -0.000579
     16          1           0        0.630757    1.772301    0.000146
     17          1           0       -0.649609   -2.340279   -0.000483
     18          1           0        4.349001   -0.709169   -0.000205
     19          1           0       -1.617093    1.363173   -0.000031
     20          1           0       -2.676646   -1.533616    0.000438
     21          1           0        4.096772    2.947324    0.000513
     22          1           0        2.558151    2.830295   -0.896741
     23          1           0        2.558135    2.829834    0.897685
     24          1           0       -3.428134    1.895968   -0.002974
 ---------------------------------------------------------------------
 Rotational constants (GHZ):      1.5465928      0.2847573      0.2408522
 Standard basis: 6-31+G(d,p) (6D, 7F)
 There are   316 symmetry adapted cartesian basis functions of A   symmetry.
 There are   316 symmetry adapted basis functions of A   symmetry.
   316 basis functions,   518 primitive gaussians,   316 cartesian basis functions
    51 alpha electrons       51 beta electrons
       nuclear repulsion energy       823.0999281954 Hartrees.
 NAtoms=   24 NActive=   24 NUniq=   24 SFac= 1.00D+00 NAtFMM=   60 NAOKFM=F Big=F
 Integral buffers will be    131072 words long.
 Raffenetti 2 integral format.
 Two-electron integral symmetry is turned on.
 Nuclear repulsion after empirical dispersion term =      823.0812900281 Hartrees.
 One-electron integrals computed using PRISM.
 NBasis=   316 RedAO= T EigKep=  1.47D-06  NBF=   316
 NBsUse=   315 1.00D-06 EigRej=  6.80D-07 NBFU=   315
 ExpMin= 4.38D-02 ExpMax= 5.48D+03 ExpMxC= 8.25D+02 IAcc=2 IRadAn=         4 AccDes= 0.00D+00
 Harris functional with IExCor=  402 and IRadAn=       4 diagonalized for initial guess.
 HarFok:  IExCor=  402 AccDes= 0.00D+00 IRadAn=         4 IDoV= 1 UseB2=F ITyADJ=14
 ICtDFT=  3500011 ScaDFX=  1.000000  1.000000  1.000000  1.000000
 FoFCou: FMM=F IPFlag=           0 FMFlag=      100000 FMFlg1=           0
         NFxFlg=           0 DoJE=T BraDBF=F KetDBF=T FulRan=T
         wScrn=  0.000000 ICntrl=     500 IOpCl=  0 I1Cent=   200000004 NGrid=           0
         NMat0=    1 NMatS0=      1 NMatT0=    0 NMatD0=    1 NMtDS0=    0 NMtDT0=    0
 Petite list used in FoFCou.
 Requested convergence on RMS density matrix=1.00D-08 within 128 cycles.
 Requested convergence on MAX density matrix=1.00D-06.
 Requested convergence on             energy=1.00D-06.
 No special actions if energy rises.
 SCF Done:  E(RB3LYP) =  -688.027292090     A.U. after   15 cycles
            NFock= 15  Conv=0.94D-08     -V/T= 2.0092

 **********************************************************************

            Population analysis using the SCF density.

 **********************************************************************

 Orbital symmetries:
       Occupied  (A) (A) (A) (A) (A) (A) (A) (A) (A) (A) (A) (A)
                 (A) (A) (A) (A) (A) (A) (A) (A) (A) (A) (A) (A)
                 (A) (A) (A) (A) (A) (A) (A) (A) (A) (A) (A) (A)
                 (A) (A) (A) (A) (A) (A) (A) (A) (A) (A) (A) (A)
                 (A) (A) (A)
       Virtual   (A) (A) (A) (A) (A) (A) (A) (A) (A) (A) (A) (A)
                 (A) (A) (A) (A) (A) (A) (A) (A) (A) (A) (A) (A)
                 (A) (A) (A) (A) (A) (A) (A) (A) (A) (A) (A) (A)
                 (A) (A) (A) (A) (A) (A) (A) (A) (A) (A) (A) (A)
                 (A) (A) (A) (A) (A) (A) (A) (A) (A) (A) (A) (A)
                 (A) (A) (A) (A) (A) (A) (A) (A) (A) (A) (A) (A)
                 (A) (A) (A) (A) (A) (A) (A) (A) (A) (A) (A) (A)
                 (A) (A) (A) (A) (A) (A) (A) (A) (A) (A) (A) (A)
                 (A) (A) (A) (A) (A) (A) (A) (A) (A) (A) (A) (A)
                 (A) (A) (A) (A) (A) (A) (A) (A) (A) (A) (A) (A)
                 (A) (A) (A) (A) (A) (A) (A) (A) (A) (A) (A) (A)
                 (A) (A) (A) (A) (A) (A) (A) (A) (A) (A) (A) (A)
                 (A) (A) (A) (A) (A) (A) (A) (A) (A) (A) (A) (A)
                 (A) (A) (A) (A) (A) (A) (A) (A) (A) (A) (A) (A)
                 (A) (A) (A) (A) (A) (A) (A) (A) (A) (A) (A) (A)
                 (A) (A) (A) (A) (A) (A) (A) (A) (A) (A) (A) (A)
                 (A) (A) (A) (A) (A) (A) (A) (A) (A) (A) (A) (A)
                 (A) (A) (A) (A) (A) (A) (A) (A) (A) (A) (A) (A)
                 (A) (A) (A) (A) (A) (A) (A) (A) (A) (A) (A) (A)
                 (A) (A) (A) (A) (A) (A) (A) (A) (A) (A) (A) (A)
                 (A) (A) (A) (A) (A) (A) (A) (A) (A) (A) (A) (A)
                 (A) (A) (A) (A) (A) (A) (A) (A) (A) (A) (A) (A)
 The electronic state is 1-A.
 Alpha  occ. eigenvalues --  -19.22309 -19.20900 -19.20506 -19.14020 -10.32548
 Alpha  occ. eigenvalues --  -10.27827 -10.27774 -10.27280 -10.23973 -10.22736
 Alpha  occ. eigenvalues --  -10.22435 -10.21771 -10.21659 -10.21403  -1.11463
 Alpha  occ. eigenvalues --   -1.10659  -1.08379  -1.02229  -0.88765  -0.82673
 Alpha  occ. eigenvalues --   -0.78603  -0.76986  -0.72971  -0.67749  -0.63943
 Alpha  occ. eigenvalues --   -0.62751  -0.60414  -0.58585  -0.55669  -0.53289
 Alpha  occ. eigenvalues --   -0.51799  -0.50491  -0.48677  -0.47362  -0.45655
 Alpha  occ. eigenvalues --   -0.44976  -0.44974  -0.44079  -0.43259  -0.41244
 Alpha  occ. eigenvalues --   -0.40510  -0.38555  -0.38318  -0.37683  -0.36916
 Alpha  occ. eigenvalues --   -0.36587  -0.32554  -0.30485  -0.28025  -0.26823
 Alpha  occ. eigenvalues --   -0.23005
 Alpha virt. eigenvalues --   -0.08188  -0.02824  -0.02268  -0.01199  -0.00138
 Alpha virt. eigenvalues --    0.00372   0.00945   0.02707   0.03083   0.03338
 Alpha virt. eigenvalues --    0.04704   0.04859   0.05308   0.06128   0.06598
 Alpha virt. eigenvalues --    0.06977   0.07280   0.08814   0.08829   0.09192
 Alpha virt. eigenvalues --    0.10022   0.10121   0.10941   0.12406   0.12602
 Alpha virt. eigenvalues --    0.12733   0.13081   0.13102   0.13740   0.14352
 Alpha virt. eigenvalues --    0.15037   0.15327   0.15992   0.16914   0.17425
 Alpha virt. eigenvalues --    0.17704   0.18109   0.18813   0.19073   0.19436
 Alpha virt. eigenvalues --    0.19977   0.20937   0.21011   0.21223   0.21668
 Alpha virt. eigenvalues --    0.22260   0.23031   0.23548   0.24286   0.24896
 Alpha virt. eigenvalues --    0.24933   0.26055   0.26890   0.27221   0.27346
 Alpha virt. eigenvalues --    0.27851   0.28799   0.29498   0.30143   0.30404
 Alpha virt. eigenvalues --    0.30466   0.31331   0.31919   0.32688   0.32754
 Alpha virt. eigenvalues --    0.33100   0.33556   0.34286   0.35565   0.36019
 Alpha virt. eigenvalues --    0.37504   0.37693   0.37862   0.38758   0.40695
 Alpha virt. eigenvalues --    0.41909   0.42491   0.45124   0.46758   0.47597
 Alpha virt. eigenvalues --    0.48487   0.52050   0.57171   0.61184   0.64020
 Alpha virt. eigenvalues --    0.64114   0.66085   0.66279   0.66822   0.67717
 Alpha virt. eigenvalues --    0.69793   0.70861   0.71162   0.71369   0.72103
 Alpha virt. eigenvalues --    0.73642   0.74650   0.76920   0.76946   0.78076
 Alpha virt. eigenvalues --    0.82116   0.82444   0.83262   0.84876   0.85491
 Alpha virt. eigenvalues --    0.87844   0.89670   0.91691   0.93718   0.96440
 Alpha virt. eigenvalues --    0.99025   1.00004   1.01569   1.03726   1.03867
 Alpha virt. eigenvalues --    1.04941   1.07590   1.08350   1.09675   1.11236
 Alpha virt. eigenvalues --    1.12722   1.14606   1.14870   1.15680   1.15717
 Alpha virt. eigenvalues --    1.17729   1.19718   1.20023   1.21041   1.21088
 Alpha virt. eigenvalues --    1.21993   1.24261   1.24822   1.25314   1.25567
 Alpha virt. eigenvalues --    1.27804   1.28003   1.29721   1.31133   1.32939
 Alpha virt. eigenvalues --    1.33998   1.34988   1.36486   1.36615   1.37390
 Alpha virt. eigenvalues --    1.38729   1.40177   1.41614   1.42255   1.43298
 Alpha virt. eigenvalues --    1.43829   1.44395   1.50976   1.53859   1.55481
 Alpha virt. eigenvalues --    1.57095   1.58155   1.60422   1.66074   1.70276
 Alpha virt. eigenvalues --    1.72966   1.76353   1.77204   1.77731   1.80166
 Alpha virt. eigenvalues --    1.81470   1.82053   1.84345   1.84469   1.85505
 Alpha virt. eigenvalues --    1.87396   1.88536   1.89323   1.91070   1.94105
 Alpha virt. eigenvalues --    1.94433   1.94660   1.95649   1.99201   1.99215
 Alpha virt. eigenvalues --    2.01160   2.02943   2.03192   2.03655   2.04654
 Alpha virt. eigenvalues --    2.07720   2.08521   2.11843   2.14017   2.16671
 Alpha virt. eigenvalues --    2.19488   2.21440   2.22463   2.26093   2.27324
 Alpha virt. eigenvalues --    2.30348   2.34883   2.35930   2.38201   2.41192
 Alpha virt. eigenvalues --    2.43454   2.44869   2.45831   2.46219   2.48049
 Alpha virt. eigenvalues --    2.50380   2.50695   2.51117   2.53130   2.53598
 Alpha virt. eigenvalues --    2.54221   2.57307   2.60086   2.61274   2.62167
 Alpha virt. eigenvalues --    2.64190   2.65445   2.67338   2.68982   2.70945
 Alpha virt. eigenvalues --    2.71059   2.72498   2.73175   2.75813   2.79413
 Alpha virt. eigenvalues --    2.82369   2.83234   2.84034   2.87698   2.93277
 Alpha virt. eigenvalues --    2.93828   3.01422   3.06902   3.08498   3.12006
 Alpha virt. eigenvalues --    3.15161   3.16892   3.20250   3.22670   3.23662
 Alpha virt. eigenvalues --    3.32339   3.34527   3.38597   3.44137   3.47408
 Alpha virt. eigenvalues --    3.49366   3.52470   3.56083   3.58812   3.80029
 Alpha virt. eigenvalues --    4.19297   4.23368   4.26334   4.30684   4.34360
 Alpha virt. eigenvalues --    4.39329   4.42182   4.46512   4.50978   4.53570
 Alpha virt. eigenvalues --    4.58562   4.66025   4.77424   5.06862
          Condensed to atoms (all electrons):
               1          2          3          4          5          6
     1  C   11.089326  -0.646502  -2.089697  -1.351704   0.212399  -1.890651
     2  C   -0.646502  15.529354  -3.289712  -4.019875  -0.812697   0.886851
     3  C   -2.089697  -3.289712  14.965753  -1.108470  -1.349707  -0.973383
     4  C   -1.351704  -4.019875  -1.108470  15.109603   1.966210  -1.300410
     5  C    0.212399  -0.812697  -1.349707   1.966210   7.961056  -0.506526
     6  C   -1.890651   0.886851  -0.973383  -1.300410  -0.506526   9.105467
     7  O   -0.532691   0.065145   0.354634   0.072804  -0.037363  -0.004199
     8  C    0.433635  -0.881534   0.068802  -2.562031  -0.773142   0.230518
     9  C    0.203789  -0.089546  -0.649352  -1.554452  -1.171607   0.869296
    10  O    0.059696  -0.812231   0.435887   0.281064   0.011176  -0.048988
    11  C    0.014406  -0.006868  -0.162638   0.029913  -0.000078   0.008008
    12  C   -0.116991   0.039113   0.049550   0.193269  -0.191519  -0.104651
    13  O   -0.002171  -0.000006   0.001152   0.014197   0.049214  -0.009284
    14  O   -0.000870  -0.001397   0.004139  -0.002112   0.026695  -0.006036
    15  H    0.247980   0.062313   0.056978   0.011084  -0.008875  -0.041177
    16  H   -0.021401   0.017947  -0.189757   0.334794   0.025911   0.005598
    17  H   -0.021821  -0.038899   0.008530   0.063159   0.130140   0.208654
    18  H    0.196641   0.148797  -0.315564  -0.038943   0.007189  -0.007363
    19  H    0.013026   0.002444   0.041514   0.203861   0.056234  -0.070038
    20  H    0.023160  -0.003455   0.002756   0.021288   0.115053  -0.047217
    21  H    0.005318   0.082022   0.099737  -0.153860  -0.014364   0.000036
    22  H   -0.003776  -0.040934  -0.118876   0.124584   0.019367   0.003082
    23  H   -0.003769  -0.041014  -0.118983   0.124718   0.019410   0.003068
    24  H   -0.001149   0.001169  -0.002335   0.056503   0.067911  -0.009297
               7          8          9         10         11         12
     1  C   -0.532691   0.433635   0.203789   0.059696   0.014406  -0.116991
     2  C    0.065145  -0.881534  -0.089546  -0.812231  -0.006868   0.039113
     3  C    0.354634   0.068802  -0.649352   0.435887  -0.162638   0.049550
     4  C    0.072804  -2.562031  -1.554452   0.281064   0.029913   0.193269
     5  C   -0.037363  -0.773142  -1.171607   0.011176  -0.000078  -0.191519
     6  C   -0.004199   0.230518   0.869296  -0.048988   0.008008  -0.104651
     7  O    8.427200   0.007954   0.000333  -0.014502   0.000777   0.000258
     8  C    0.007954  10.241857  -1.876167  -0.027904  -0.034040   0.697156
     9  C    0.000333  -1.876167  13.167460  -0.003035   0.001831  -2.442932
    10  O   -0.014502  -0.027904  -0.003035   8.646372   0.061100   0.000052
    11  C    0.000777  -0.034040   0.001831   0.061100   4.966130  -0.000762
    12  C    0.000258   0.697156  -2.442932   0.000052  -0.000762   6.953605
    13  O    0.000000   0.089733  -0.372645   0.000000   0.000005   0.527936
    14  O   -0.000000   0.092517  -0.050211  -0.000005  -0.000006  -0.054392
    15  H   -0.006833  -0.006342  -0.001927  -0.000676   0.000184  -0.000191
    16  H   -0.000536   0.104161   0.026197  -0.014975  -0.001256   0.000412
    17  H   -0.000606  -0.030314  -0.031249   0.000135   0.000162   0.010961
    18  H    0.191546   0.000874   0.000145   0.037874   0.003388   0.000005
    19  H   -0.000007   0.240480  -0.192459   0.000115   0.000884  -0.040555
    20  H   -0.000003  -0.104404   0.382034   0.000003   0.000041  -0.077180
    21  H   -0.000190  -0.002370  -0.000046  -0.066997   0.414690   0.000005
    22  H   -0.000168   0.002814   0.000375  -0.045382   0.414104  -0.000039
    23  H   -0.000167   0.002840   0.000377  -0.045385   0.414097  -0.000039
    24  H   -0.000000   0.087494  -0.313609   0.000002   0.000111   0.146987
              13         14         15         16         17         18
     1  C   -0.002171  -0.000870   0.247980  -0.021401  -0.021821   0.196641
     2  C   -0.000006  -0.001397   0.062313   0.017947  -0.038899   0.148797
     3  C    0.001152   0.004139   0.056978  -0.189757   0.008530  -0.315564
     4  C    0.014197  -0.002112   0.011084   0.334794   0.063159  -0.038943
     5  C    0.049214   0.026695  -0.008875   0.025911   0.130140   0.007189
     6  C   -0.009284  -0.006036  -0.041177   0.005598   0.208654  -0.007363
     7  O    0.000000  -0.000000  -0.006833  -0.000536  -0.000606   0.191546
     8  C    0.089733   0.092517  -0.006342   0.104161  -0.030314   0.000874
     9  C   -0.372645  -0.050211  -0.001927   0.026197  -0.031249   0.000145
    10  O    0.000000  -0.000005  -0.000676  -0.014975   0.000135   0.037874
    11  C    0.000005  -0.000006   0.000184  -0.001256   0.000162   0.003388
    12  C    0.527936  -0.054392  -0.000191   0.000412   0.010961   0.000005
    13  O    8.286727  -0.130070   0.000000   0.000000   0.000132   0.000000
    14  O   -0.130070   8.384209  -0.000000   0.000010  -0.000006  -0.000000
    15  H    0.000000  -0.000000   0.547726   0.000015  -0.005184  -0.000084
    16  H    0.000000   0.000010   0.000015   0.593641  -0.000152  -0.000027
    17  H    0.000132  -0.000006  -0.005184  -0.000152   0.579613   0.000005
    18  H    0.000000  -0.000000  -0.000084  -0.000027   0.000005   0.383339
    19  H   -0.000109  -0.009844   0.000002   0.004499   0.000018   0.000000
    20  H   -0.015181   0.007530   0.000005   0.000000   0.001276  -0.000000
    21  H    0.000000  -0.000000  -0.000000   0.000104  -0.000000  -0.000052
    22  H   -0.000000   0.000000   0.000000  -0.000797   0.000000   0.000027
    23  H   -0.000000   0.000000   0.000000  -0.000796   0.000000   0.000027
    24  H    0.015632   0.164260   0.000000   0.000010   0.000004  -0.000000
              19         20         21         22         23         24
     1  C    0.013026   0.023160   0.005318  -0.003776  -0.003769  -0.001149
     2  C    0.002444  -0.003455   0.082022  -0.040934  -0.041014   0.001169
     3  C    0.041514   0.002756   0.099737  -0.118876  -0.118983  -0.002335
     4  C    0.203861   0.021288  -0.153860   0.124584   0.124718   0.056503
     5  C    0.056234   0.115053  -0.014364   0.019367   0.019410   0.067911
     6  C   -0.070038  -0.047217   0.000036   0.003082   0.003068  -0.009297
     7  O   -0.000007  -0.000003  -0.000190  -0.000168  -0.000167  -0.000000
     8  C    0.240480  -0.104404  -0.002370   0.002814   0.002840   0.087494
     9  C   -0.192459   0.382034  -0.000046   0.000375   0.000377  -0.313609
    10  O    0.000115   0.000003  -0.066997  -0.045382  -0.045385   0.000002
    11  C    0.000884   0.000041   0.414690   0.414104   0.414097   0.000111
    12  C   -0.040555  -0.077180   0.000005  -0.000039  -0.000039   0.146987
    13  O   -0.000109  -0.015181   0.000000  -0.000000  -0.000000   0.015632
    14  O   -0.009844   0.007530  -0.000000   0.000000   0.000000   0.164260
    15  H    0.000002   0.000005  -0.000000   0.000000   0.000000   0.000000
    16  H    0.004499   0.000000   0.000104  -0.000797  -0.000796   0.000010
    17  H    0.000018   0.001276  -0.000000   0.000000   0.000000   0.000004
    18  H    0.000000  -0.000000  -0.000052   0.000027   0.000027  -0.000000
    19  H    0.653804   0.004656   0.000000  -0.000003  -0.000003   0.013231
    20  H    0.004656   0.551125  -0.000000  -0.000000  -0.000000   0.000199
    21  H    0.000000  -0.000000   0.536071  -0.027704  -0.027702   0.000000
    22  H   -0.000003  -0.000000  -0.027704   0.565309  -0.043047   0.000000
    23  H   -0.000003  -0.000000  -0.027702  -0.043047   0.565294   0.000000
    24  H    0.013231   0.000199   0.000000   0.000000   0.000000   0.443749
 Mulliken charges:
               1
     1  C    0.183817
     2  C   -0.150483
     3  C    0.279041
     4  C   -0.515193
     5  C    0.197913
     6  C   -0.301359
     7  O   -0.523385
     8  C   -0.002585
     9  C    0.097402
    10  O   -0.453394
    11  C   -0.124184
    12  C    0.409942
    13  O   -0.455263
    14  O   -0.424410
    15  H    0.145001
    16  H    0.116394
    17  H    0.125441
    18  H    0.392174
    19  H    0.078251
    20  H    0.138314
    21  H    0.155302
    22  H    0.151065
    23  H    0.151073
    24  H    0.329127
 Sum of Mulliken charges =  -0.00000
 Mulliken charges with hydrogens summed into heavy atoms:
               1
     1  C    0.328818
     2  C   -0.150483
     3  C    0.279041
     4  C   -0.398799
     5  C    0.197913
     6  C   -0.175918
     7  O   -0.131211
     8  C    0.075666
     9  C    0.235716
    10  O   -0.453394
    11  C    0.333256
    12  C    0.409942
    13  O   -0.455263
    14  O   -0.095284
 Electronic spatial extent (au):  <R**2>=           4178.3045
 Charge=              0.0000 electrons
 Dipole moment (field-independent basis, Debye):
    X=              6.9105    Y=              3.7716    Z=             -0.0051  Tot=              7.8727
 Quadrupole moment (field-independent basis, Debye-Ang):
   XX=           -116.2804   YY=            -71.4825   ZZ=            -85.0060
   XY=              5.6665   XZ=              0.0275   YZ=             -0.0014
 Traceless Quadrupole moment (field-independent basis, Debye-Ang):
   XX=            -25.3575   YY=             19.4405   ZZ=              5.9170
   XY=              5.6665   XZ=              0.0275   YZ=             -0.0014
 Octapole moment (field-independent basis, Debye-Ang**2):
  XXX=            268.7197  YYY=             23.3298  ZZZ=              0.0055  XYY=             12.1060
  XXY=             50.1387  XXZ=             -0.1050  XZZ=             -1.8415  YZZ=              5.0841
  YYZ=             -0.0170  XYZ=              0.0034
 Hexadecapole moment (field-independent basis, Debye-Ang**3):
 XXXX=          -5391.4157 YYYY=           -860.5166 ZZZZ=            -99.9865 XXXY=             63.7139
 XXXZ=              0.6830 YYYX=             48.4684 YYYZ=             -0.0232 ZZZX=              0.1219
 ZZZY=             -0.0049 XXYY=           -886.3036 XXZZ=           -732.2064 YYZZ=           -184.0229
 XXYZ=              0.0515 YYXZ=              0.1168 ZZXY=              1.3261
 N-N= 8.230812900281D+02 E-N=-3.250061760186D+03  KE= 6.817831425910D+02
 Calling FoFJK, ICntrl=      2127 FMM=F ISym2X=0 I1Cent= 0 IOpClX= 0 NMat=1 NMatS=1 NMatT=0.
 ***** Axes restored to original set *****
 -------------------------------------------------------------------
 Center     Atomic                   Forces (Hartrees/Bohr)
 Number     Number              X              Y              Z
 -------------------------------------------------------------------
      1        6           0.000681687   -0.002473370   -0.000000275
      2        6          -0.003280525    0.000465124    0.000000297
      3        6          -0.001954702   -0.002133404   -0.000001186
      4        6          -0.000702514    0.002784591    0.000001374
      5        6          -0.000364338    0.000221902    0.000001805
      6        6          -0.001946022   -0.001906386   -0.000000823
      7        8           0.003821370   -0.002426566   -0.000000495
      8        6          -0.000477908    0.001571662    0.000000229
      9        6           0.000932500   -0.002179360   -0.000014322
     10        8           0.003241258   -0.000612148    0.000000188
     11        6           0.000925618    0.004425693    0.000000673
     12        6           0.001784462   -0.002115856    0.000049421
     13        8          -0.003438196   -0.002437081   -0.000013018
     14        8          -0.001429550    0.003914047   -0.000011145
     15        1           0.000108254    0.000320693    0.000000039
     16        1           0.000120131   -0.000726333   -0.000000025
     17        1           0.000304034    0.000244807   -0.000000280
     18        1           0.001886651    0.000339299    0.000000074
     19        1          -0.000469918   -0.000434389   -0.000000602
     20        1          -0.000046466    0.000448617   -0.000001067
     21        1           0.000027975    0.000212593   -0.000000023
     22        1          -0.000286648    0.000272984   -0.000167582
     23        1          -0.000286474    0.000272986    0.000167893
     24        1           0.000849321    0.001949896   -0.000011148
 -------------------------------------------------------------------
 Cartesian Forces:  Max     0.004425693 RMS     0.001466003

 GradGradGradGradGradGradGradGradGradGradGradGradGradGradGradGradGradGrad
 Berny optimization.
 FormGI is forming the generalized inverse of G from B-inverse, IUseBI=4.
 GSVD:  received Info=                   1 from GESDD.
 Internal  Forces:  Max     0.006072900 RMS     0.001494061
 Search for a local minimum.
 Step number   1 out of a maximum of  115
 All quantities printed in internal units (Hartrees-Bohrs-Radians)
 Mixed Optimization -- RFO/linear search
 Second derivative matrix not updated -- first step.
 ITU=  0
     Eigenvalues ---    0.01063   0.01310   0.01438   0.01456   0.01789
     Eigenvalues ---    0.01988   0.02004   0.02065   0.02080   0.02112
     Eigenvalues ---    0.02126   0.02134   0.02136   0.02162   0.02195
     Eigenvalues ---    0.02209   0.02231   0.02332   0.02775   0.10122
     Eigenvalues ---    0.10680   0.16000   0.16000   0.16000   0.16000
     Eigenvalues ---    0.16000   0.16000   0.16000   0.16000   0.16000
     Eigenvalues ---    0.16000   0.22000   0.22000   0.22372   0.23481
     Eigenvalues ---    0.24605   0.25000   0.25000   0.25000   0.25000
     Eigenvalues ---    0.25000   0.25000   0.34054   0.34054   0.34479
     Eigenvalues ---    0.34775   0.34849   0.35334   0.35368   0.35376
     Eigenvalues ---    0.35421   0.37108   0.41128   0.41904   0.42785
     Eigenvalues ---    0.44631   0.45297   0.46743   0.47651   0.51671
     Eigenvalues ---    0.53096   0.53557   0.54376   0.54676   0.55419
     Eigenvalues ---    0.99302
 RFO step:  Lambda=-5.47363459D-04 EMin= 1.06267696D-02
 Linear search not attempted -- first point.
 Iteration  1 RMS(Cart)=  0.01408538 RMS(Int)=  0.00005351
 Iteration  2 RMS(Cart)=  0.00007513 RMS(Int)=  0.00000033
 Iteration  3 RMS(Cart)=  0.00000000 RMS(Int)=  0.00000033
 Variable       Old X    -DE/DX   Delta X   Delta X   Delta X     New X
                                 (Linear)    (Quad)   (Total)
    R1        2.63090   0.00210   0.00000   0.00447   0.00447   2.63537
    R2        2.62614   0.00232   0.00000   0.00482   0.00482   2.63097
    R3        2.05081  -0.00029   0.00000  -0.00081  -0.00081   2.05001
    R4        2.66215   0.00330   0.00000   0.00751   0.00751   2.66966
    R5        2.55421   0.00607   0.00000   0.01110   0.01110   2.56531
    R6        2.62083   0.00275   0.00000   0.00579   0.00579   2.62661
    R7        2.58216   0.00562   0.00000   0.01087   0.01087   2.59303
    R8        2.66671   0.00243   0.00000   0.00554   0.00554   2.67225
    R9        2.05137  -0.00074   0.00000  -0.00208  -0.00208   2.04929
   R10        2.65223   0.00235   0.00000   0.00516   0.00515   2.65738
   R11        2.75684   0.00240   0.00000   0.00647   0.00647   2.76331
   R12        2.04996  -0.00039   0.00000  -0.00110  -0.00110   2.04886
   R13        1.83137   0.00138   0.00000   0.00257   0.00257   1.83395
   R14        2.54762   0.00136   0.00000   0.00245   0.00245   2.55007
   R15        2.06530  -0.00041   0.00000  -0.00118  -0.00118   2.06412
   R16        2.79220   0.00256   0.00000   0.00732   0.00732   2.79952
   R17        2.05068  -0.00045   0.00000  -0.00127  -0.00127   2.04941
   R18        2.67936   0.00508   0.00000   0.01187   0.01187   2.69122
   R19        2.06042   0.00011   0.00000   0.00032   0.00032   2.06074
   R20        2.07239   0.00036   0.00000   0.00105   0.00105   2.07344
   R21        2.07239   0.00036   0.00000   0.00105   0.00105   2.07344
   R22        2.28920   0.00421   0.00000   0.00424   0.00424   2.29344
   R23        2.56864   0.00589   0.00000   0.01108   0.01108   2.57972
   R24        1.82391   0.00170   0.00000   0.00311   0.00311   1.82702
    A1        2.09924   0.00037   0.00000   0.00148   0.00148   2.10073
    A2        2.06918  -0.00037   0.00000  -0.00189  -0.00189   2.06729
    A3        2.11477   0.00000   0.00000   0.00041   0.00041   2.11517
    A4        2.08705  -0.00023   0.00000  -0.00084  -0.00084   2.08621
    A5        2.09605  -0.00141   0.00000  -0.00567  -0.00567   2.09038
    A6        2.10009   0.00164   0.00000   0.00651   0.00651   2.10659
    A7        2.09525  -0.00033   0.00000  -0.00116  -0.00116   2.09410
    A8        1.98445   0.00080   0.00000   0.00311   0.00311   1.98756
    A9        2.20348  -0.00047   0.00000  -0.00195  -0.00195   2.20153
   A10        2.10687   0.00031   0.00000   0.00146   0.00146   2.10834
   A11        2.09600  -0.00011   0.00000  -0.00047  -0.00047   2.09553
   A12        2.08031  -0.00020   0.00000  -0.00099  -0.00099   2.07932
   A13        2.06728  -0.00019   0.00000  -0.00094  -0.00094   2.06634
   A14        2.06415   0.00032   0.00000   0.00136   0.00136   2.06551
   A15        2.15175  -0.00013   0.00000  -0.00042  -0.00042   2.15134
   A16        2.11068   0.00007   0.00000  -0.00001  -0.00001   2.11067
   A17        2.07347  -0.00007   0.00000  -0.00020  -0.00020   2.07327
   A18        2.09904  -0.00000   0.00000   0.00021   0.00021   2.09925
   A19        1.88621   0.00244   0.00000   0.01517   0.01517   1.90138
   A20        2.22882   0.00024   0.00000   0.00108   0.00108   2.22990
   A21        1.97446   0.00039   0.00000   0.00263   0.00263   1.97709
   A22        2.07991  -0.00063   0.00000  -0.00371  -0.00371   2.07620
   A23        2.21328   0.00008   0.00000   0.00034   0.00034   2.21362
   A24        2.11617   0.00000   0.00000   0.00007   0.00007   2.11625
   A25        1.95374  -0.00008   0.00000  -0.00042  -0.00042   1.95332
   A26        2.06685   0.00273   0.00000   0.01088   0.01088   2.07774
   A27        1.85103   0.00026   0.00000   0.00184   0.00184   1.85287
   A28        1.93810   0.00016   0.00000   0.00089   0.00089   1.93899
   A29        1.93810   0.00016   0.00000   0.00089   0.00089   1.93899
   A30        1.90952  -0.00012   0.00000  -0.00050  -0.00050   1.90902
   A31        1.90952  -0.00012   0.00000  -0.00050  -0.00050   1.90902
   A32        1.91630  -0.00033   0.00000  -0.00251  -0.00251   1.91380
   A33        2.12674  -0.00034   0.00000  -0.00137  -0.00137   2.12537
   A34        2.07739   0.00101   0.00000   0.00404   0.00404   2.08143
   A35        2.07906  -0.00067   0.00000  -0.00268  -0.00268   2.07638
   A36        1.94010   0.00234   0.00000   0.01460   0.01460   1.95469
    D1       -0.00001   0.00000   0.00000   0.00000   0.00000  -0.00001
    D2       -3.14159   0.00000   0.00000   0.00001   0.00001  -3.14159
    D3        3.14158  -0.00000   0.00000  -0.00000  -0.00000   3.14158
    D4       -0.00000   0.00000   0.00000   0.00000   0.00000  -0.00000
    D5       -0.00000  -0.00000   0.00000  -0.00000  -0.00000  -0.00001
    D6        3.14158  -0.00000   0.00000  -0.00001  -0.00001   3.14157
    D7       -3.14159   0.00000   0.00000   0.00000   0.00000  -3.14159
    D8       -0.00001  -0.00000   0.00000  -0.00000  -0.00000  -0.00001
    D9        0.00001   0.00000   0.00000   0.00001   0.00001   0.00001
   D10       -3.14159   0.00000   0.00000   0.00000   0.00000  -3.14158
   D11       -3.14159  -0.00000   0.00000  -0.00000  -0.00000   3.14159
   D12        0.00000  -0.00000   0.00000  -0.00000  -0.00000  -0.00000
   D13       -3.14158  -0.00000   0.00000  -0.00000  -0.00000  -3.14158
   D14        0.00002   0.00000   0.00000   0.00000   0.00000   0.00002
   D15        0.00000  -0.00000   0.00000  -0.00001  -0.00001  -0.00001
   D16        3.14158  -0.00000   0.00000  -0.00000  -0.00000   3.14158
   D17       -3.14159  -0.00000   0.00000  -0.00001  -0.00001   3.14159
   D18       -0.00001  -0.00000   0.00000  -0.00000  -0.00000  -0.00001
   D19       -3.14147  -0.00000   0.00000  -0.00001  -0.00001  -3.14148
   D20        0.00013  -0.00000   0.00000  -0.00001  -0.00001   0.00011
   D21       -0.00001   0.00000   0.00000   0.00000   0.00000  -0.00001
   D22        3.14159   0.00000   0.00000   0.00001   0.00001   3.14159
   D23       -3.14159  -0.00000   0.00000  -0.00000  -0.00000  -3.14159
   D24        0.00001   0.00000   0.00000   0.00000   0.00000   0.00001
   D25        0.00001   0.00000   0.00000   0.00000   0.00000   0.00001
   D26       -3.14157   0.00000   0.00000   0.00001   0.00001  -3.14157
   D27       -3.14158   0.00000   0.00000   0.00000   0.00000  -3.14158
   D28        0.00002   0.00000   0.00000   0.00001   0.00001   0.00002
   D29       -3.14132   0.00000   0.00000   0.00008   0.00008  -3.14123
   D30        0.00012   0.00000   0.00000   0.00004   0.00004   0.00016
   D31        0.00028   0.00000   0.00000   0.00008   0.00008   0.00036
   D32       -3.14147   0.00000   0.00000   0.00004   0.00004  -3.14143
   D33        3.14150  -0.00000   0.00000  -0.00009  -0.00009   3.14141
   D34        0.00021  -0.00000   0.00000  -0.00001  -0.00001   0.00020
   D35        0.00007  -0.00000   0.00000  -0.00004  -0.00004   0.00002
   D36       -3.14122   0.00000   0.00000   0.00004   0.00004  -3.14118
   D37       -3.14002  -0.00001   0.00000  -0.00060  -0.00060  -3.14062
   D38        0.00120   0.00001   0.00000   0.00099   0.00099   0.00218
   D39        0.00129  -0.00001   0.00000  -0.00067  -0.00067   0.00062
   D40       -3.14068   0.00001   0.00000   0.00091   0.00091  -3.13977
   D41        3.14151   0.00000   0.00000   0.00001   0.00001   3.14152
   D42       -1.06883   0.00010   0.00000   0.00099   0.00099  -1.06784
   D43        1.06866  -0.00010   0.00000  -0.00097  -0.00097   1.06770
   D44        0.00092  -0.00001   0.00000  -0.00049  -0.00049   0.00042
   D45       -3.14104   0.00002   0.00000   0.00104   0.00104  -3.13999
         Item               Value     Threshold  Converged?
 Maximum Force            0.006073     0.000450     NO 
 RMS     Force            0.001494     0.000300     NO 
 Maximum Displacement     0.050594     0.001800     NO 
 RMS     Displacement     0.014131     0.001200     NO 
 Predicted change in Energy=-2.741127D-04
 GradGradGradGradGradGradGradGradGradGradGradGradGradGradGradGradGradGrad

                          Input orientation:                          
 ---------------------------------------------------------------------
 Center     Atomic      Atomic             Coordinates (Angstroms)
 Number     Number       Type             X           Y           Z
 ---------------------------------------------------------------------
      1          6           0        1.462586   -2.018245   -0.000518
      2          6           0        2.498052   -1.084081   -0.000374
      3          6           0        2.191687    0.295023   -0.000076
      4          6           0        0.865767    0.712018    0.000087
      5          6           0       -0.189343   -0.229476   -0.000051
      6          6           0        0.135372   -1.597700   -0.000363
      7          8           0        3.787831   -1.507497   -0.000535
      8          6           0       -1.564208    0.268534    0.000134
      9          6           0       -2.704531   -0.453029    0.000429
     10          8           0        3.296089    1.109364    0.000027
     11          6           0        3.113700    2.521769    0.000467
     12          6           0       -4.089011    0.074120    0.000829
     13          8           0       -5.053389   -0.662684    0.002080
     14          8           0       -4.288730    1.424557   -0.001676
     15          1           0        1.717837   -3.072604   -0.000759
     16          1           0        0.629081    1.770310    0.000330
     17          1           0       -0.649409   -2.345787   -0.000499
     18          1           0        4.373442   -0.733612   -0.000390
     19          1           0       -1.628360    1.358932    0.000205
     20          1           0       -2.684234   -1.537342    0.000750
     21          1           0        4.113600    2.956949    0.000541
     22          1           0        2.573639    2.850509   -0.896280
     23          1           0        2.573739    2.849962    0.897474
     24          1           0       -3.454907    1.913918   -0.003920
 ---------------------------------------------------------------------
                    Distance matrix (angstroms):
                    1          2          3          4          5
     1  C    0.000000
     2  C    1.394579   0.000000
     3  C    2.425448   1.412724   0.000000
     4  C    2.794732   2.426999   1.389945   0.000000
     5  C    2.434863   2.820007   2.438114   1.414096   0.000000
     6  C    1.392248   2.417862   2.794786   2.422452   1.406227
     7  O    2.380678   1.357502   2.407646   3.669428   4.177469
     8  C    3.793526   4.281533   3.755988   2.470113   1.462282
     9  C    4.451377   5.240715   4.953032   3.755578   2.525103
    10  O    3.625420   2.334110   1.372172   2.462589   3.733728
    11  C    4.830933   3.658030   2.410084   2.885897   4.298773
    12  C    5.932808   6.688111   6.284581   4.995672   3.911468
    13  O    6.655485   7.563190   7.308101   6.076695   4.883301
    14  O    6.703023   7.235584   6.578119   5.203514   4.420498
    15  H    1.084817   2.136108   3.400801   3.879354   3.423552
    16  H    3.879160   3.411833   2.149002   1.084437   2.160778
    17  H    2.137243   3.390931   3.878879   3.412614   2.165740
    18  H    3.181724   1.907857   2.412084   3.793894   4.590551
    19  H    4.578130   4.795372   3.965433   2.576659   2.143318
    20  H    4.174612   5.202070   5.208855   4.202634   2.816913
    21  H    5.637414   4.352003   3.283230   3.948181   5.354309
    22  H    5.073617   4.036008   2.734881   2.879834   4.233628
    23  H    5.073508   4.035908   2.734825   2.879804   4.233569
    24  H    6.296320   6.665263   5.874083   4.484730   3.906158
                    6          7          8          9         10
     6  C    0.000000
     7  O    3.653573   0.000000
     8  C    2.524163   5.639026   0.000000
     9  C    3.061915   6.577436   1.349440   0.000000
    10  O    4.161529   2.662663   4.932492   6.200686   0.000000
    11  C    5.083352   4.085271   5.192292   6.534618   1.424133
    12  C    4.543170   8.034062   2.532277   1.481442   7.457307
    13  O    5.272334   8.881492   3.611310   2.358197   8.535452
    14  O    5.357865   8.592309   2.959630   2.456628   7.591365
    15  H    2.163224   2.595079   4.683484   5.139991   4.469870
    16  H    3.404003   4.552112   2.658166   4.007019   2.747686
    17  H    1.084212   4.515732   2.769753   2.793932   5.244523
    18  H    4.325261   0.970484   6.021626   7.083532   2.134772
    19  H    3.442735   6.127932   1.092283   2.107450   4.930769
    20  H    2.820253   6.472134   2.125005   1.084503   6.539825
    21  H    6.047406   4.476316   6.282124   7.623310   2.020370
    22  H    5.151153   4.611815   4.959025   6.290988   2.087315
    23  H    5.151061   4.611712   4.958991   6.290832   2.087314
    24  H    5.022109   8.010203   2.506401   2.483047   6.798769
                   11         12         13         14         15
    11  C    0.000000
    12  C    7.607236   0.000000
    13  O    8.765963   1.213634   0.000000
    14  O    7.483305   1.365128   2.222902   0.000000
    15  H    5.765887   6.604646   7.187296   7.503553   0.000000
    16  H    2.595771   5.013726   6.181418   4.929951   4.963790
    17  H    6.152568   4.205569   4.714645   5.240243   2.476312
    18  H    3.490624   8.500914   9.427099   8.926977   3.538803
    19  H    4.882554   2.775886   3.977155   2.661180   5.552977
    20  H    7.077600   2.137804   2.525455   3.368569   4.662109
    21  H    1.090496   8.694454   9.855732   8.540924   6.488081
    22  H    1.097220   7.273517   8.445185   7.065817   6.051250
    23  H    1.097219   7.273342   8.444732   7.066380   6.051130
    24  H    6.596674   1.946013   3.032171   0.966820   7.184894
                   16         17         18         19         20
    16  H    0.000000
    17  H    4.310080   0.000000
    18  H    4.504428   5.275239   0.000000
    19  H    2.294618   3.831878   6.356129   0.000000
    20  H    4.681732   2.189543   7.103293   3.082737   0.000000
    21  H    3.681031   7.127782   3.699697   5.960182   8.149184
    22  H    2.398343   6.179964   4.109481   4.548108   6.906745
    23  H    2.398376   6.179874   4.109391   4.548175   6.906433
    24  H    4.086514   5.100580   8.263926   1.909005   3.536262
                   21         22         23         24
    21  H    0.000000
    22  H    1.785245   0.000000
    23  H    1.785248   1.793754   0.000000
    24  H    7.640042   6.165783   6.167111   0.000000
 Stoichiometry    C10H10O4
 Framework group  C1[X(C10H10O4)]
 Deg. of freedom    66
 Full point group                 C1      NOp   1
 Largest Abelian subgroup         C1      NOp   1
 Largest concise Abelian subgroup C1      NOp   1
                         Standard orientation:                         
 ---------------------------------------------------------------------
 Center     Atomic      Atomic             Coordinates (Angstroms)
 Number     Number       Type             X           Y           Z
 ---------------------------------------------------------------------
      1          6           0        1.463052   -2.017768   -0.000518
      2          6           0        2.499123   -1.084275   -0.000374
      3          6           0        2.193650    0.295028   -0.000076
      4          6           0        0.868001    0.712881    0.000087
      5          6           0       -0.187718   -0.227931   -0.000051
      6          6           0        0.136111   -1.596364   -0.000363
      7          8           0        3.788628   -1.508525   -0.000536
      8          6           0       -1.562261    0.270969    0.000134
      9          6           0       -2.703050   -0.449856    0.000429
     10          8           0        3.298579    1.108654    0.000027
     11          6           0        3.117104    2.521177    0.000467
     12          6           0       -4.087189    0.078188    0.000829
     13          8           0       -5.052044   -0.657991    0.002080
     14          8           0       -4.286034    1.428754   -0.001676
     15          1           0        1.717621   -3.072292   -0.000759
     16          1           0        0.631999    1.771326    0.000330
     17          1           0       -0.649154   -2.343943   -0.000499
     18          1           0        4.374739   -0.735019   -0.000390
     19          1           0       -1.625708    1.361408    0.000205
     20          1           0       -2.683456   -1.534181    0.000750
     21          1           0        4.117286    2.955709    0.000541
     22          1           0        2.577256    2.850266   -0.896280
     23          1           0        2.577355    2.849718    0.897474
     24          1           0       -3.451895    1.917576   -0.003921
 ---------------------------------------------------------------------
 Rotational constants (GHZ):      1.5326729      0.2831597      0.2393711
 Standard basis: 6-31+G(d,p) (6D, 7F)
 There are   316 symmetry adapted cartesian basis functions of A   symmetry.
 There are   316 symmetry adapted basis functions of A   symmetry.
   316 basis functions,   518 primitive gaussians,   316 cartesian basis functions
    51 alpha electrons       51 beta electrons
       nuclear repulsion energy       820.5743956087 Hartrees.
 NAtoms=   24 NActive=   24 NUniq=   24 SFac= 1.00D+00 NAtFMM=   60 NAOKFM=F Big=F
 Integral buffers will be    131072 words long.
 Raffenetti 2 integral format.
 Two-electron integral symmetry is turned on.
 Nuclear repulsion after empirical dispersion term =      820.5557092426 Hartrees.
 One-electron integrals computed using PRISM.
 NBasis=   316 RedAO= T EigKep=  1.50D-06  NBF=   316
 NBsUse=   315 1.00D-06 EigRej=  6.98D-07 NBFU=   315
 Initial guess from the checkpoint file:  "b3lypD3FA.chk"
 B after Tr=    -0.000000    0.000000    0.000000
         Rot=    1.000000    0.000002   -0.000002    0.000149 Ang=   0.02 deg.
 ExpMin= 4.38D-02 ExpMax= 5.48D+03 ExpMxC= 8.25D+02 IAcc=2 IRadAn=         4 AccDes= 0.00D+00
 Harris functional with IExCor=  402 and IRadAn=       4 diagonalized for initial guess.
 HarFok:  IExCor=  402 AccDes= 0.00D+00 IRadAn=         4 IDoV= 1 UseB2=F ITyADJ=14
 ICtDFT=  3500011 ScaDFX=  1.000000  1.000000  1.000000  1.000000
 FoFCou: FMM=F IPFlag=           0 FMFlag=      100000 FMFlg1=           0
         NFxFlg=           0 DoJE=T BraDBF=F KetDBF=T FulRan=T
         wScrn=  0.000000 ICntrl=     500 IOpCl=  0 I1Cent=   200000004 NGrid=           0
         NMat0=    1 NMatS0=      1 NMatT0=    0 NMatD0=    1 NMtDS0=    0 NMtDT0=    0
 Petite list used in FoFCou.
 Requested convergence on RMS density matrix=1.00D-08 within 128 cycles.
 Requested convergence on MAX density matrix=1.00D-06.
 Requested convergence on             energy=1.00D-06.
 No special actions if energy rises.
 SCF Done:  E(RB3LYP) =  -688.027525295     A.U. after   12 cycles
            NFock= 12  Conv=0.58D-08     -V/T= 2.0094
 Calling FoFJK, ICntrl=      2127 FMM=F ISym2X=0 I1Cent= 0 IOpClX= 0 NMat=1 NMatS=1 NMatT=0.
 ***** Axes restored to original set *****
 -------------------------------------------------------------------
 Center     Atomic                   Forces (Hartrees/Bohr)
 Number     Number              X              Y              Z
 -------------------------------------------------------------------
      1        6           0.000259485    0.000103288   -0.000000069
      2        6          -0.000813397    0.001911244    0.000000359
      3        6          -0.000304530   -0.000768613   -0.000000027
      4        6           0.000007907   -0.000164032   -0.000001081
      5        6           0.000290542   -0.000075008   -0.000005725
      6        6          -0.000036562    0.000067763    0.000000112
      7        8           0.000687181   -0.000629112   -0.000000083
      8        6          -0.000013014    0.000446356    0.000007209
      9        6           0.000144383    0.000020119    0.000044985
     10        8           0.000982144   -0.000757101    0.000000495
     11        6          -0.000930696    0.001078926    0.000000122
     12        6           0.000710359   -0.001447080   -0.000163589
     13        8           0.000276181    0.000685007    0.000064529
     14        8          -0.000508812    0.000769533    0.000043884
     15        1           0.000066835    0.000040839    0.000000010
     16        1           0.000184888    0.000181535    0.000000025
     17        1           0.000014864   -0.000005658   -0.000000243
     18        1          -0.000748312   -0.000001752    0.000000076
     19        1          -0.000159186   -0.000128439    0.000004448
     20        1          -0.000177110   -0.000015567    0.000001675
     21        1           0.000078105   -0.000523534   -0.000000197
     22        1          -0.000082530   -0.000265024    0.000029873
     23        1          -0.000082363   -0.000264995   -0.000029924
     24        1           0.000153636   -0.000258696    0.000003137
 -------------------------------------------------------------------
 Cartesian Forces:  Max     0.001911244 RMS     0.000458248

 GradGradGradGradGradGradGradGradGradGradGradGradGradGradGradGradGradGrad
 Berny optimization.
 Using GEDIIS/GDIIS optimizer.
 FormGI is forming the generalized inverse of G from B-inverse, IUseBI=4.
 GSVD:  received Info=                   1 from GESDD.
 Internal  Forces:  Max     0.002294546 RMS     0.000372891
 Search for a local minimum.
 Step number   2 out of a maximum of  115
 All quantities printed in internal units (Hartrees-Bohrs-Radians)
 Mixed Optimization -- En-DIIS/RFO-DIIS
 Update second derivatives using D2CorX and points    1    2
 DE= -2.33D-04 DEPred=-2.74D-04 R= 8.51D-01
 TightC=F SS=  1.41D+00  RLast= 3.96D-02 DXNew= 5.0454D-01 1.1894D-01
 Trust test= 8.51D-01 RLast= 3.96D-02 DXMaxT set to 3.00D-01
 ITU=  1  0
 Use linear search instead of GDIIS.
     Eigenvalues ---    0.01063   0.01310   0.01438   0.01456   0.01789
     Eigenvalues ---    0.01989   0.02004   0.02065   0.02078   0.02112
     Eigenvalues ---    0.02126   0.02134   0.02136   0.02162   0.02195
     Eigenvalues ---    0.02209   0.02231   0.02332   0.02775   0.10109
     Eigenvalues ---    0.10664   0.15644   0.16000   0.16000   0.16000
     Eigenvalues ---    0.16000   0.16000   0.16000   0.16000   0.16000
     Eigenvalues ---    0.17014   0.21953   0.22014   0.22386   0.23509
     Eigenvalues ---    0.24096   0.24605   0.25000   0.25000   0.25000
     Eigenvalues ---    0.25000   0.26992   0.34054   0.34061   0.34455
     Eigenvalues ---    0.34771   0.35196   0.35359   0.35371   0.35410
     Eigenvalues ---    0.35453   0.37348   0.40731   0.41651   0.42739
     Eigenvalues ---    0.45163   0.45985   0.46851   0.48694   0.51173
     Eigenvalues ---    0.52566   0.53897   0.54402   0.54581   0.56010
     Eigenvalues ---    0.99970
 RFO step:  Lambda=-3.48408859D-05 EMin= 1.06266779D-02
 Quartic linear search produced a step of -0.12563.
 Iteration  1 RMS(Cart)=  0.00605664 RMS(Int)=  0.00001202
 Iteration  2 RMS(Cart)=  0.00001893 RMS(Int)=  0.00000083
 Iteration  3 RMS(Cart)=  0.00000000 RMS(Int)=  0.00000083
 Variable       Old X    -DE/DX   Delta X   Delta X   Delta X     New X
                                 (Linear)    (Quad)   (Total)
    R1        2.63537  -0.00045  -0.00056  -0.00002  -0.00058   2.63479
    R2        2.63097  -0.00021  -0.00061   0.00057  -0.00003   2.63093
    R3        2.05001  -0.00002   0.00010  -0.00021  -0.00011   2.04990
    R4        2.66966  -0.00141  -0.00094  -0.00146  -0.00240   2.66726
    R5        2.56531   0.00014  -0.00139   0.00231   0.00091   2.56622
    R6        2.62661  -0.00061  -0.00073  -0.00009  -0.00081   2.62580
    R7        2.59303  -0.00046  -0.00137   0.00126  -0.00010   2.59292
    R8        2.67225  -0.00045  -0.00070   0.00017  -0.00052   2.67173
    R9        2.04929   0.00014   0.00026  -0.00005   0.00021   2.04950
   R10        2.65738  -0.00017  -0.00065   0.00072   0.00007   2.65746
   R11        2.76331  -0.00038  -0.00081   0.00033  -0.00049   2.76283
   R12        2.04886  -0.00001   0.00014  -0.00022  -0.00008   2.04878
   R13        1.83395  -0.00045  -0.00032  -0.00026  -0.00058   1.83337
   R14        2.55007  -0.00037  -0.00031  -0.00013  -0.00044   2.54963
   R15        2.06412  -0.00012   0.00015  -0.00052  -0.00037   2.06374
   R16        2.79952  -0.00068  -0.00092  -0.00033  -0.00125   2.79827
   R17        2.04941   0.00001   0.00016  -0.00021  -0.00005   2.04936
   R18        2.69122   0.00015  -0.00149   0.00254   0.00105   2.69227
   R19        2.06074  -0.00014  -0.00004  -0.00028  -0.00033   2.06041
   R20        2.07344  -0.00006  -0.00013   0.00003  -0.00010   2.07335
   R21        2.07344  -0.00006  -0.00013   0.00003  -0.00010   2.07335
   R22        2.29344  -0.00064  -0.00053   0.00024  -0.00029   2.29314
   R23        2.57972   0.00056  -0.00139   0.00300   0.00161   2.58133
   R24        1.82702   0.00000  -0.00039   0.00059   0.00020   1.82722
    A1        2.10073  -0.00016  -0.00019  -0.00027  -0.00045   2.10027
    A2        2.06729   0.00001   0.00024  -0.00049  -0.00026   2.06703
    A3        2.11517   0.00016  -0.00005   0.00076   0.00071   2.11588
    A4        2.08621   0.00023   0.00011   0.00050   0.00060   2.08681
    A5        2.09038  -0.00036   0.00071  -0.00225  -0.00154   2.08884
    A6        2.10659   0.00013  -0.00082   0.00175   0.00094   2.10753
    A7        2.09410   0.00027   0.00015   0.00049   0.00063   2.09473
    A8        1.98756   0.00028  -0.00039   0.00166   0.00127   1.98883
    A9        2.20153  -0.00054   0.00025  -0.00215  -0.00190   2.19963
   A10        2.10834  -0.00020  -0.00018  -0.00056  -0.00075   2.10759
   A11        2.09553  -0.00012   0.00006  -0.00090  -0.00084   2.09468
   A12        2.07932   0.00033   0.00012   0.00147   0.00159   2.08091
   A13        2.06634   0.00009   0.00012   0.00038   0.00049   2.06683
   A14        2.06551  -0.00002  -0.00017   0.00008  -0.00009   2.06542
   A15        2.15134  -0.00007   0.00005  -0.00045  -0.00040   2.15093
   A16        2.11067  -0.00022   0.00000  -0.00053  -0.00053   2.11013
   A17        2.07327   0.00010   0.00002   0.00015   0.00018   2.07345
   A18        2.09925   0.00012  -0.00003   0.00038   0.00036   2.09960
   A19        1.90138  -0.00109  -0.00191  -0.00316  -0.00507   1.89631
   A20        2.22990  -0.00032  -0.00014  -0.00106  -0.00120   2.22871
   A21        1.97709   0.00033  -0.00033   0.00205   0.00172   1.97881
   A22        2.07620  -0.00001   0.00047  -0.00099  -0.00053   2.07567
   A23        2.21362  -0.00057  -0.00004  -0.00221  -0.00225   2.21137
   A24        2.11625   0.00047  -0.00001   0.00214   0.00213   2.11838
   A25        1.95332   0.00010   0.00005   0.00007   0.00012   1.95344
   A26        2.07774  -0.00229  -0.00137  -0.00599  -0.00736   2.07037
   A27        1.85287  -0.00063  -0.00023  -0.00305  -0.00328   1.84959
   A28        1.93899  -0.00021  -0.00011  -0.00101  -0.00112   1.93787
   A29        1.93899  -0.00021  -0.00011  -0.00101  -0.00112   1.93787
   A30        1.90902   0.00043   0.00006   0.00228   0.00234   1.91136
   A31        1.90902   0.00043   0.00006   0.00228   0.00234   1.91136
   A32        1.91380   0.00020   0.00031   0.00053   0.00084   1.91464
   A33        2.12537   0.00052   0.00017   0.00157   0.00174   2.12711
   A34        2.08143  -0.00018  -0.00051   0.00013  -0.00038   2.08105
   A35        2.07638  -0.00034   0.00034  -0.00170  -0.00136   2.07502
   A36        1.95469  -0.00055  -0.00183  -0.00030  -0.00214   1.95256
    D1       -0.00001  -0.00000  -0.00000  -0.00001  -0.00001  -0.00001
    D2       -3.14159  -0.00000  -0.00000  -0.00001  -0.00001   3.14159
    D3        3.14158  -0.00000   0.00000  -0.00000  -0.00000   3.14158
    D4       -0.00000  -0.00000  -0.00000  -0.00000  -0.00000  -0.00000
    D5       -0.00001   0.00000   0.00000   0.00000   0.00000  -0.00000
    D6        3.14157   0.00000   0.00000   0.00001   0.00001   3.14158
    D7       -3.14159  -0.00000  -0.00000  -0.00000  -0.00000   3.14159
    D8       -0.00001  -0.00000   0.00000  -0.00000  -0.00000  -0.00001
    D9        0.00001  -0.00000  -0.00000  -0.00000  -0.00000   0.00001
   D10       -3.14158  -0.00000  -0.00000  -0.00000  -0.00000  -3.14159
   D11        3.14159   0.00000   0.00000   0.00000   0.00000  -3.14159
   D12       -0.00000  -0.00000   0.00000  -0.00000  -0.00000  -0.00000
   D13       -3.14158   0.00000   0.00000   0.00000   0.00000  -3.14158
   D14        0.00002   0.00000  -0.00000   0.00000   0.00000   0.00002
   D15       -0.00001   0.00000   0.00000   0.00001   0.00002   0.00001
   D16        3.14158  -0.00000   0.00000  -0.00001  -0.00000   3.14157
   D17        3.14159   0.00000   0.00000   0.00002   0.00002  -3.14158
   D18       -0.00001  -0.00000   0.00000  -0.00000  -0.00000  -0.00002
   D19       -3.14148  -0.00000   0.00000  -0.00001  -0.00001  -3.14148
   D20        0.00011  -0.00000   0.00000  -0.00001  -0.00001   0.00010
   D21       -0.00001  -0.00000  -0.00000  -0.00002  -0.00002  -0.00002
   D22        3.14159  -0.00000  -0.00000  -0.00003  -0.00003   3.14156
   D23       -3.14159   0.00000   0.00000   0.00000   0.00000  -3.14159
   D24        0.00001  -0.00000  -0.00000  -0.00001  -0.00001  -0.00000
   D25        0.00001   0.00000  -0.00000   0.00001   0.00001   0.00002
   D26       -3.14157   0.00000  -0.00000   0.00001   0.00001  -3.14156
   D27       -3.14158   0.00000  -0.00000   0.00002   0.00002  -3.14157
   D28        0.00002   0.00000  -0.00000   0.00002   0.00002   0.00004
   D29       -3.14123  -0.00000  -0.00001   0.00000  -0.00001  -3.14124
   D30        0.00016   0.00000  -0.00000   0.00004   0.00003   0.00020
   D31        0.00036  -0.00000  -0.00001  -0.00001  -0.00002   0.00035
   D32       -3.14143   0.00000  -0.00001   0.00003   0.00003  -3.14140
   D33        3.14141   0.00001   0.00001   0.00017   0.00018   3.14159
   D34        0.00020   0.00001   0.00000   0.00018   0.00019   0.00039
   D35        0.00002   0.00000   0.00001   0.00013   0.00014   0.00016
   D36       -3.14118   0.00000  -0.00000   0.00015   0.00014  -3.14104
   D37       -3.14062   0.00004   0.00007   0.00266   0.00274  -3.13788
   D38        0.00218  -0.00004  -0.00012  -0.00195  -0.00207   0.00011
   D39        0.00062   0.00004   0.00008   0.00265   0.00274   0.00335
   D40       -3.13977  -0.00004  -0.00011  -0.00196  -0.00208   3.14134
   D41        3.14152   0.00000  -0.00000   0.00001   0.00001   3.14153
   D42       -1.06784   0.00002  -0.00012   0.00038   0.00025  -1.06759
   D43        1.06770  -0.00002   0.00012  -0.00036  -0.00024   1.06746
   D44        0.00042   0.00004   0.00006   0.00219   0.00225   0.00267
   D45       -3.13999  -0.00004  -0.00013  -0.00229  -0.00242   3.14077
         Item               Value     Threshold  Converged?
 Maximum Force            0.002295     0.000450     NO 
 RMS     Force            0.000373     0.000300     NO 
 Maximum Displacement     0.025526     0.001800     NO 
 RMS     Displacement     0.006060     0.001200     NO 
 Predicted change in Energy=-2.220105D-05
 GradGradGradGradGradGradGradGradGradGradGradGradGradGradGradGradGradGrad

                          Input orientation:                          
 ---------------------------------------------------------------------
 Center     Atomic      Atomic             Coordinates (Angstroms)
 Number     Number       Type             X           Y           Z
 ---------------------------------------------------------------------
      1          6           0        1.463532   -2.018448   -0.000458
      2          6           0        2.498707   -1.084420   -0.000206
      3          6           0        2.193356    0.293609   -0.000052
      4          6           0        0.868336    0.712025   -0.000139
      5          6           0       -0.186967   -0.228836   -0.000371
      6          6           0        0.136499   -1.597395   -0.000542
      7          8           0        3.788322   -1.509886   -0.000123
      8          6           0       -1.561331    0.269800   -0.000414
      9          6           0       -2.700970   -0.452410   -0.000246
     10          8           0        3.297116    1.108725    0.000184
     11          6           0        3.103227    2.520160    0.000491
     12          6           0       -4.083999    0.076682   -0.000292
     13          8           0       -5.050689   -0.656821    0.003699
[...]
 ,-0.00000019,-0.00521140,-0.00054005,0.00000002,-0.00001275,0.03118016
 ,0.00000878,-0.07240507,0.06082158,0.00001624,0.00868276,-0.02130203,-
 0.00000620,-0.00342193,-0.00307111,-0.00000100,-0.00086476,0.00180481,
 0.00000020,0.00063135,-0.00272762,0.00000033,0.00016679,0.00034605,0.,
 0.00204786,-0.00186048,-0.00000064,-0.00192755,0.00048034,0.00000014,-
 0.00029939,-0.00008430,0.00000045,0.00022037,0.00010522,-0.00000056,0.
 00009783,0.00001085,0.00000034,0.00007285,0.00003798,0.00000004,0.0749
 2481,-0.00028566,0.00062245,0.00000047,0.00101899,0.00161734,-0.000001
 38,0.00068005,-0.00634411,-0.00000319,0.06185921,-0.32564092,-0.000080
 45,0.00632181,-0.01693420,-0.00000509,-0.00406203,-0.00081354,-0.00000
 163,0.00025285,-0.00046915,0.00000017,0.00261963,0.00028471,0.00000105
 ,-0.00066425,0.00046593,0.00000038,-0.00026159,-0.00047179,0.00000073,
 -0.00182476,-0.00097467,-0.00000019,0.00015953,-0.00026169,-0.00000046
 ,-0.00006103,0.00002067,0.00000027,-0.00001795,0.00016537,0.00000032,0
 .00006751,-0.00006862,0.00000004,-0.06266529,0.34901977,-0.00000025,0.
 00000004,-0.00094603,-0.00000051,-0.00000124,0.00611049,-0.00000004,-0
 .00000141,0.00430176,0.00001662,-0.00008252,-0.03126324,0.00000051,-0.
 00000522,0.00206395,-0.00000087,-0.00000151,0.00471591,-0.00000010,0.0
 0000022,-0.00054998,0.00000131,-0.00000053,-0.00397772,0.00000104,0.00
 000097,0.00017578,0.00000023,0.00000065,-0.00328575,-0.00000067,-0.000
 00018,-0.00012610,0.00000080,-0.00000009,0.00030067,-0.00000058,0.0000
 0005,-0.00011202,-0.00000055,0.00000005,-0.00008595,0.00000006,0.00000
 009,-0.00033697,-0.00001604,0.00009028,0.02216521,-0.01766132,-0.02202
 627,-0.00000627,-0.00307124,0.00341780,0.00000086,-0.00030292,0.000895
 81,-0.00000007,0.00046288,0.00194355,0.00000036,0.00976547,0.00438620,
 0.00000179,-0.20706365,-0.14139311,-0.00005057,-0.00125470,-0.00135161
 ,-0.00000056,-0.00093713,-0.00031284,0.00000041,-0.00077081,0.00163467
 ,0.00000122,0.00007295,-0.00026474,-0.00000004,-0.00001448,0.00011130,
 0.00000002,-0.00027160,0.00000149,0.00000046,0.00019987,0.00004463,-0.
 00000072,0.00010802,-0.00013490,0.,0.00077296,0.00025867,0.00000018,0.
 00029716,0.00044340,0.00000018,0.22166401,0.00915917,0.01013707,0.0000
 0218,0.00248134,-0.00003937,-0.00000205,0.00087265,-0.00032905,-0.0000
 0017,0.00305320,-0.00454758,-0.00000273,-0.02357911,-0.01518523,-0.000
 00594,-0.14249936,-0.19487528,-0.00005263,0.00039716,0.00052502,0.0000
 0007,-0.00158345,0.00037154,0.00000105,0.00052812,-0.00094354,0.000001
 00,-0.00011937,0.00020082,0.00000016,-0.00000081,-0.00008187,-0.000000
 02,0.00035814,0.00035780,-0.00000004,-0.00007521,0.00005492,0.00000013
 ,-0.00031979,0.00034785,-0.00000070,-0.00015958,0.00075908,0.00000157,
 -0.00116549,-0.00089090,-0.00000049,0.15117455,0.20334992,0.00000231,0
 .00000116,0.00333933,0.00000012,-0.00000209,0.00736880,0.00000028,0.00
 000028,-0.00093006,0.00000115,-0.00000236,0.00572478,-0.00000809,-0.00
 000286,0.00241231,-0.00005077,-0.00005451,-0.03496227,0.00000019,0.000
 00003,0.00018022,0.00000275,0.00000163,-0.00351329,0.00000123,-0.00000
 457,0.00000305,-0.00000005,0.00000010,-0.00043955,0.,0.00000006,-0.000
 19766,-0.00000160,0.00000022,-0.00018773,0.00000011,0.00000054,-0.0001
 2753,-0.00000032,0.00000088,0.00014470,0.00000012,0.00000142,-0.004325
 75,-0.00000015,-0.00000060,0.00083785,0.00005080,0.00006042,0.02368267
 ,-0.00456786,0.00498878,0.00000083,-0.03569975,-0.03545236,-0.00001136
 ,-0.00127783,-0.00147725,-0.00000007,-0.00113625,-0.00113474,-0.000001
 00,0.00090729,0.00006847,-0.00000023,-0.00041149,-0.00181090,0.0000003
 7,-0.19655507,-0.18715003,-0.00005991,-0.00072823,0.00023727,0.0000009
 3,0.00072299,-0.00007602,-0.00000052,0.00010851,-0.00151048,-0.0000004
 9,0.00111217,0.00139436,0.00000076,-0.00083810,0.00034733,0.00000081,0
 .00045878,0.00008694,-0.00000079,0.00016344,-0.00027547,-0.00000001,0.
 00016862,0.00009873,0.00000006,0.00033136,-0.00014538,0.00000002,-0.00
 036064,0.00022086,0.00000007,0.23750067,0.00532952,0.00003155,-0.00000
 094,0.00607714,0.01210573,0.00000393,0.01004615,0.00226432,0.00000082,
 -0.00209643,-0.00054274,-0.00000087,0.00135653,-0.00077727,-0.00000041
 ,-0.00113735,0.00089378,0.00000102,-0.23810825,-0.34445250,-0.00010361
 ,-0.00106512,0.00012325,0.00000096,0.00075766,-0.00000555,-0.00000086,
 -0.00195132,0.00045249,0.00000101,-0.00187037,-0.00259960,-0.00000085,
 -0.00068631,0.00042514,0.00000076,0.00031419,0.00002240,-0.00000054,0.
 00011598,-0.00031537,-0.00000025,0.00012180,0.00012760,0.00000026,0.00
 028449,-0.00007736,-0.00000005,0.00020662,-0.00004010,0.00000006,0.222
 58777,0.33089095,0.00000107,-0.00000034,0.00207369,0.00000154,0.000002
 97,-0.00295288,0.00000233,-0.00000014,0.00157096,-0.00000044,0.0000002
 6,-0.00070960,0.00000019,-0.00000033,0.00003082,-0.00000041,-0.0000005
 6,0.00168657,-0.00007473,-0.00010207,-0.00691411,-0.00000015,0.0000002
 5,-0.00007925,0.00000024,-0.00000026,-0.00004454,-0.00000060,0.0000005
 4,-0.00137952,-0.00000027,-0.00000027,-0.00108235,-0.00000060,-0.00000
 019,-0.00001332,0.00000018,0.00000010,-0.00001385,0.00000013,0.0000000
 6,-0.00000626,0.00000004,0.00000024,-0.00060490,0.00000016,-0.00000018
 ,0.00018796,0.00000012,0.00000016,-0.00017900,0.00007132,0.00009927,0.
 00822050,0.00054201,0.00155840,0.00000140,0.00021870,-0.00019497,-0.00
 000070,-0.00007982,-0.00007775,0.00000053,0.00039468,0.00257611,-0.000
 00030,-0.00165015,0.02996158,-0.00000274,-0.00577893,-0.00010971,-0.00
 000109,-0.00012529,-0.00010488,0.00000017,-0.05870960,0.01377353,-0.00
 000592,0.00618481,-0.02804220,0.00001105,-0.00006492,-0.00025733,-0.00
 000004,-0.00005536,0.00018037,0.00000002,0.00003083,-0.00109542,-0.000
 00209,0.00064995,0.00066570,-0.00000322,-0.00224530,0.00033342,0.00000
 798,-0.00041661,0.00009713,0.00000017,-0.00095921,-0.00107094,-0.00000
 039,0.00016363,0.00000747,-0.00000021,-0.00002211,0.00003862,-0.000000
 02,0.06849399,-0.00031510,-0.00069013,0.00000011,-0.00053518,0.0003986
 6,0.00000051,0.00006753,-0.00021995,-0.00000171,-0.00237405,0.00094973
 ,0.00000117,-0.00067257,-0.01299754,0.00000167,0.00230721,0.00131496,-
 0.00000121,0.00051391,-0.00002980,-0.00000016,0.01752732,-0.31522920,0
 .00000436,0.00102352,-0.01814272,0.00000648,0.00034202,0.00050670,0.,0
 .00008431,-0.00033016,-0.00000034,0.00208288,-0.00541760,0.00000752,-0
 .00024289,0.00180264,-0.00000303,0.00229290,0.00388115,0.00000115,0.00
 025217,-0.00004181,0.00000004,0.00039469,0.00086290,0.00000091,-0.0001
 7648,0.00010519,0.00000012,-0.00003822,-0.00006127,0.00000001,-0.01812
 308,0.34157289,0.00000199,0.00000116,-0.00013266,-0.00000090,-0.000000
 88,0.00024298,0.00000041,-0.00000003,-0.00010507,-0.00000063,-0.000000
 06,-0.00125837,0.00000762,0.00000215,0.00448405,-0.00000310,0.00000065
 ,0.00281227,0.00000040,-0.00000005,-0.00004577,-0.00002574,-0.00002613
 ,-0.04122111,0.00002556,0.00000630,0.00571062,-0.00000036,-0.00000026,
 0.00000276,0.00000002,0.00000011,0.00006327,-0.00001291,0.00000276,-0.
 00744869,0.00001132,0.00000578,0.00117079,-0.00000999,-0.00000459,-0.0
 0038560,-0.00000021,0.00000013,-0.00034297,-0.00000024,-0.00000003,0.0
 0033890,0.00000009,0.00000030,-0.00005565,0.00000003,0.,0.00002903,0.0
 0001445,-0.00000567,0.02383773,0.00005131,0.00036148,0.00000018,0.0000
 1444,-0.00004017,-0.00000003,-0.00015387,0.00014348,0.00000045,0.00024
 990,0.00011406,-0.00000046,0.00006445,0.00062878,-0.00000169,-0.001583
 65,-0.00106198,-0.00000008,0.00000824,0.00007284,0.,0.00623494,-0.0278
 8346,0.00001264,-0.05460828,0.00401508,0.00001076,0.00020840,0.0002316
 0,0.00000006,0.00003080,-0.00013617,-0.00000004,0.00090100,0.03177303,
 -0.00002364,0.00047610,-0.00158573,-0.00000347,-0.00593976,0.00329575,
 0.00000052,-0.00002923,-0.00000499,0.00000001,0.00014149,0.00017002,0.
 00000003,-0.00175792,0.00127847,0.00000197,0.00000609,0.00000560,0.,-0
 .00387490,-0.00262510,0.00000182,0.06015574,0.00009598,0.00045558,-0.0
 0000071,-0.00004335,0.00000975,-0.00000022,-0.00003119,-0.00019623,-0.
 00000072,-0.00022619,-0.00009952,0.00000043,0.00126704,-0.00066367,-0.
 00000486,0.00056421,-0.00001476,-0.00000109,0.00018584,0.00001554,0.00
 000015,-0.00008476,-0.01273371,0.00000848,0.00804841,-0.34305022,0.000
 17308,0.00008508,0.00018562,0.00000009,0.00002200,-0.00010194,-0.00000
 013,-0.00337846,-0.01245774,0.00001732,-0.00038404,0.00249660,-0.00000
 396,0.00232739,-0.00028192,0.00000115,-0.00002139,-0.00000910,0.000000
 10,0.00002607,0.00011257,0.,0.00116027,0.00075944,0.00000050,-0.000006
 84,-0.00002275,0.00000022,-0.00165884,0.00025700,0.00000939,-0.0078825
 8,0.36467363,0.00000030,-0.00000021,-0.00030841,-0.00000186,0.00000194
 ,-0.00044526,0.00000157,-0.00000346,0.00009314,-0.00000375,-0.00000109
 ,-0.00017438,0.00000570,-0.00000427,-0.00554842,0.00000126,0.00000405,
 -0.00023378,0.00000224,-0.00000076,0.00019320,-0.00001514,0.00000730,0
 .00438254,0.00001733,0.00019626,-0.03649244,0.00000022,0.00000084,0.00
 003870,0.,-0.00000033,0.00002442,-0.00001315,0.00000195,0.00192435,0.0
 0000397,-0.00000228,-0.00143279,0.00000259,0.00000659,0.00271144,0.000
 00012,-0.00000008,0.00010695,-0.00000023,-0.00000019,0.00013701,0.0000
 0184,-0.00000276,0.00121947,-0.00000027,-0.00000023,0.00004830,0.00000
 395,-0.00000359,0.01030565,-0.00000215,-0.00019590,0.02356738,-0.00013
 198,0.00001842,0.00000019,0.00021864,0.00025159,0.00000016,0.00139774,
 0.00227586,0.00000034,-0.00040801,0.00051246,0.00000042,0.00024930,-0.
 00009226,0.00000044,-0.00004815,-0.00014421,-0.00000072,0.00011906,-0.
 00017386,-0.00000014,0.00010779,0.00000668,-0.00000040,-0.00012148,0.0
 0000400,0.00000046,0.00884008,0.00294751,0.00000129,-0.29147993,-0.101
 12608,-0.00003905,0.00019898,-0.00007295,-0.00000041,-0.00011540,-0.00
 001841,0.00000017,-0.00004710,0.00006648,0.00000006,0.00001675,0.00001
 022,0.00000005,0.00025814,-0.00047319,-0.00000018,0.00000506,-0.000036
 03,-0.00000002,-0.00010025,0.00011099,0.00000009,0.00002664,0.00000427
 ,-0.00000003,-0.00000073,0.00000230,0.00000010,0.30452663,0.00059588,-
 0.00039009,0.00000007,-0.00236177,-0.00067820,-0.00000031,0.00362961,-
 0.00423206,-0.00000210,0.00113394,-0.00056347,0.00000016,-0.00049518,0
 .00013529,0.00000020,-0.00008914,0.00014317,-0.00000039,0.00043367,0.0
 0010468,0.,0.00014148,-0.00012893,-0.00000040,-0.00017670,0.00003620,0
 .00000041,-0.03540886,-0.03070848,-0.00001079,-0.08722216,-0.08081444,
 -0.00001205,0.00016438,-0.00010464,-0.00000032,-0.00008304,-0.00000277
 ,0.00000013,-0.00003736,0.00008342,0.00000011,-0.00013770,-0.00011287,
 0.,-0.00015411,0.00062987,0.00000028,-0.00002452,0.00003324,0.,-0.0001
 9664,-0.00017036,-0.00000007,-0.00002993,0.00003033,-0.00000003,0.0000
 1266,0.00000997,0.00000007,0.10528680,0.10595709,0.00000033,-0.0000000
 6,-0.00000848,-0.00000080,-0.00000038,0.00027669,0.00000114,-0.0000015
 0,0.00062273,0.00000040,-0.00000020,0.00025984,-0.00000007,0.00000003,
 0.00014262,0.,0.00000006,-0.00003470,0.00000018,0.00000015,-0.00011397
 ,0.00000004,-0.00000003,0.00003802,-0.00000012,-0.00000013,0.00001464,
 -0.00001163,-0.00001042,0.00033323,-0.00003437,-0.00001223,-0.05156466
 ,-0.00000019,-0.00000020,-0.00001127,0.00000011,0.00000008,0.00000177,
 0.00000008,0.00000015,0.00000766,-0.00000004,-0.00000004,-0.00003743,0
 .,0.00000037,-0.00047798,-0.00000006,-0.00000003,-0.00002308,-0.000000
 11,-0.00000018,0.00015875,-0.00000002,0.00000009,-0.00001221,0.,-0.000
 00002,-0.00000284,0.00004098,0.00002214,0.04675238,0.00025620,-0.00002
 611,-0.00003414,0.00033912,-0.00027830,-0.00014667,0.00036518,-0.00094
 856,0.00113568,-0.00006661,0.00050689,0.00041945,-0.00010929,-0.000304
 63,-0.00038964,0.00004348,0.00038430,-0.00007008,-0.00029252,0.0001449
 2,0.00008883,-0.00009486,0.00004344,0.00000519,0.00015161,-0.00001312,
 0.00000086,-0.00024168,0.00706832,-0.00159237,-0.11486622,0.03121223,-
 0.10495220,-0.00021733,0.00009940,0.00000030,0.00012308,0.00001234,0.0
 0000187,0.00005518,-0.00008770,-0.00000093,0.00001721,0.00002626,0.000
 00457,-0.00080888,-0.00099567,0.00103532,0.00000443,0.00001178,0.00007
 110,0.00013377,-0.00021877,-0.00012565,-0.00000233,-0.00001546,0.00000
 751,-0.00000916,-0.00000616,0.00000012,-0.01176731,0.00751604,-0.02473
 034,0.11831611,0.00075574,0.00022496,-0.00010905,0.00011869,-0.0017378
 5,-0.00058018,0.00568297,0.00431104,0.00157005,-0.00066270,0.00050543,
 -0.00021070,-0.00051102,-0.00051708,-0.00026018,-0.00059295,0.00044239
 ,-0.00007053,-0.00060010,-0.00026073,-0.00009720,0.00021179,-0.0001078
 7,0.00001802,-0.00022173,0.00002308,-0.00001806,0.01839215,-0.03139186
 ,0.02861474,0.02757408,-0.06396931,0.04915901,0.00019841,-0.00010678,0
 .00000924,-0.00010151,-0.00001169,-0.00000318,-0.00004077,0.00008755,-
 0.00001067,-0.00001698,-0.00001776,0.00007219,-0.00092876,-0.00043095,
 0.00094472,-0.00001933,0.00001807,0.00005720,-0.00041896,0.00082672,0.
 00033230,-0.00001756,0.00003267,0.00001395,0.00001114,0.00000875,0.000
 00020,-0.00466846,0.00538794,-0.01041770,-0.03923191,0.08176281,-0.000
 11387,-0.00013713,-0.00002470,0.00030127,0.00035701,-0.00024035,-0.001
 14344,-0.00082329,0.00047412,-0.00079136,0.00097515,-0.00004837,0.0004
 0392,-0.00028848,-0.00006333,0.00007452,-0.00003161,-0.00006160,0.0000
 9224,-0.00012584,0.00004990,-0.00006654,0.00011045,0.00003013,0.000062
 61,-0.00002709,0.00000609,0.00238147,0.00513123,0.00743960,-0.10464481
 ,0.05394377,-0.23017919,-0.00000782,0.00008621,-0.00001039,-0.00001646
 ,-0.00003031,0.00000524,0.00000692,-0.00006454,0.00001705,0.00001433,0
 .00001072,0.00001673,0.00068515,-0.00029364,-0.00014381,0.00001702,-0.
 00005922,0.00002262,0.00003941,-0.00012465,-0.00002153,0.00005106,-0.0
 0002902,-0.00001781,-0.00001534,-0.00001138,-0.00000524,0.00143893,-0.
 00125867,0.00183884,0.11524493,-0.06318483,0.24086303,0.00025539,-0.00
 002707,0.00003396,0.00033883,-0.00027792,0.00014674,0.00036602,-0.0009
 4660,-0.00113693,-0.00006698,0.00050618,-0.00041817,-0.00010979,-0.000
 30423,0.00038935,0.00004391,0.00038516,0.00007041,-0.00029278,0.000144
 73,-0.00008878,-0.00009452,0.00004298,-0.00000552,0.00015213,-0.000012
 21,-0.00000059,-0.00024221,0.00706594,0.00159727,-0.11487469,0.0311446
 2,0.10497945,-0.00021502,0.00010113,-0.00000038,0.00012213,0.00001172,
 -0.00000211,0.00005420,-0.00008865,0.00000133,0.00001723,0.00002632,-0
 .00000455,-0.00080856,-0.00099469,-0.00103581,0.00000429,0.00001161,-0
 .00007108,0.00013396,-0.00021855,0.00012553,-0.00000230,-0.00001626,-0
 .00000753,-0.00000913,-0.00000653,-0.00000019,-0.01176828,0.00749897,0
 .02473450,0.00869425,-0.00491904,-0.01402813,0.11832490,0.00075520,0.0
 0022448,0.00010907,0.00011895,-0.00173780,0.00057928,0.00568238,0.0043
 1270,-0.00156685,-0.00066328,0.00050552,0.00021042,-0.00051113,-0.0005
 1750,0.00025952,-0.00059295,0.00044265,0.00007134,-0.00060015,-0.00026
 099,0.00009712,0.00021182,-0.00010794,-0.00001793,-0.00022135,0.000023
 64,0.00001756,0.01839433,-0.03137003,-0.02864009,0.02750618,-0.0638990
 0,-0.04904460,0.00019962,-0.00010573,-0.00000898,-0.00010214,-0.000012
 13,0.00000340,-0.00004119,0.00008693,0.00001035,-0.00001696,-0.0000176
 5,-0.00007224,-0.00092833,-0.00043043,-0.00094484,-0.00001920,0.000018
 13,-0.00005720,-0.00041865,0.00082696,-0.00033194,-0.00001745,0.000032
 20,-0.00001390,0.00001114,0.00000871,-0.00000012,-0.00466794,0.0053798
 8,0.01042002,-0.00492902,0.00494195,0.00585271,-0.03915690,0.08167707,
 0.00011470,0.00013770,-0.00002496,-0.00030103,-0.00035836,-0.00024029,
 0.00114684,0.00082517,0.00047383,0.00079109,-0.00097421,-0.00004919,-0
 .00040411,0.00028772,-0.00006376,-0.00007518,0.00003158,-0.00006037,-0
 .00009257,0.00012570,0.00005017,0.00006649,-0.00011024,0.00003060,-0.0
 0006294,0.00002674,0.00000537,-0.00236876,-0.00515573,0.00741655,0.104
 66974,-0.05383010,-0.23024160,0.00000703,-0.00008674,-0.00000954,0.000
 01669,0.00003044,0.00000495,-0.00000643,0.00006486,0.00001687,-0.00001
 435,-0.00001076,0.00001664,-0.00068583,0.00029333,-0.00014443,-0.00001
 693,0.00005936,0.00002262,-0.00003971,0.00012514,-0.00002168,-0.000051
 04,0.00002930,-0.00001779,0.00001533,0.00001157,-0.00000530,-0.0014427
 9,0.00126160,0.00184818,0.01402545,-0.00583596,-0.01992652,-0.11527756
 ,0.06307425,0.24094026,-0.00005117,-0.00023570,-0.00000035,-0.00020298
 ,0.00011180,-0.00000057,-0.00024753,-0.00017335,0.00000098,0.00008086,
 0.00007915,-0.00000118,-0.00113285,-0.00135391,0.00000206,0.00049278,0
 .00005761,0.00000100,0.00025323,-0.00007071,0.00000017,0.00045960,0.00
 793454,-0.00000259,-0.00215283,0.00105715,-0.00000720,0.00025768,0.000
 21524,0.00000013,0.00000401,-0.00011703,0.00000009,0.00508351,-0.00085
 290,-0.00002534,0.00396353,0.00409689,-0.00000336,-0.40109143,-0.21835
 181,0.00165658,0.00006801,-0.00001750,-0.00000001,-0.00012394,-0.00007
 058,-0.00000012,-0.00005433,-0.00001632,0.00000008,-0.00005007,-0.0000
 0060,-0.00000006,-0.00271840,-0.00175835,-0.00000957,-0.00057628,-0.00
 005426,-0.00000456,0.00002380,0.00000371,0.,-0.00002343,0.00000681,0.0
 0001398,-0.00002297,0.00000700,-0.00001415,0.39776120,-0.00020104,-0.0
 0007402,0.00000066,0.00056371,-0.00024121,0.00000042,0.00018717,0.0005
 6009,-0.00000043,0.00005610,0.00033370,0.00000190,0.00023020,0.0005457
 8,-0.00000723,-0.00035368,-0.00008208,-0.00000042,-0.00070978,0.000123
 21,-0.00000014,0.00040864,-0.00026407,0.00000680,0.00078367,-0.0004417
 9,-0.00000311,-0.00039803,-0.00057661,-0.00000021,-0.00006375,0.000362
 70,-0.00000010,-0.04399974,-0.01637442,0.00013980,0.00227214,-0.010026
 69,0.00003013,-0.16915389,-0.15102748,0.00083252,-0.00004675,0.0000279
 1,0.00000002,0.00005905,0.00000674,-0.00000018,0.00004404,-0.00010517,
 -0.00000043,0.00008142,0.00007395,-0.00000002,0.00160774,0.00141318,0.
 00000897,-0.00090494,0.00063839,-0.00000393,-0.00002417,-0.00002476,0.
 00000003,0.00002947,-0.00002148,0.00002247,0.00002928,-0.00002163,-0.0
 0002237,0.20950314,0.17519576,0.00000014,-0.00000165,0.00004486,-0.000
 00179,0.00000084,0.00005586,-0.00000067,-0.00000076,-0.00006483,-0.000
 00046,-0.00000047,0.00003539,-0.00000396,-0.00000929,-0.00071619,0.000
 00371,0.00000061,0.00000633,0.00000187,-0.00000073,-0.00002638,0.00001
 293,0.00002324,-0.00005307,-0.00000991,-0.00000632,-0.00019368,0.00000
 141,0.00000101,-0.00003579,0.00000015,-0.00000063,0.00008834,0.0000734
 5,-0.00001828,-0.00742271,-0.00000344,0.00002713,0.00666740,0.00155333
 ,0.00100238,-0.00483660,0.00000044,-0.00000013,0.00000558,-0.00000075,
 -0.00000039,0.00011449,-0.00000013,0.00000037,-0.00001684,-0.00000012,
 0.00000022,0.00001622,-0.00002300,-0.00000873,0.00204565,0.00000314,-0
 .00000349,-0.00010372,0.00000005,-0.00000004,-0.00000872,0.00000084,0.
 00000661,-0.00002051,-0.00000120,-0.00000634,-0.00002061,-0.00160602,-
 0.00100513,0.00443956\\0.00010290,0.00004342,-0.00000035,-0.00019892,0
 .00029801,-0.00000031,-0.00013827,-0.00022370,0.00000084,-0.00004121,0
 .00000318,-0.00000234,0.00001449,-0.00007632,-0.00000683,-0.00009022,0
 .00005415,0.00000129,0.00015980,-0.00006543,0.00000025,-0.00000354,0.0
 0011467,0.00000378,0.00006957,-0.00009140,0.00005173,0.00021842,-0.000
 03906,0.00000007,-0.00002254,0.00012292,0.00000003,0.00018536,-0.00008
 716,-0.00017832,-0.00004396,0.00005889,0.00006935,-0.00011833,0.000066
 05,0.00003845,-0.00000058,0.00000986,0.00000012,0.00002285,-0.00004307
 ,-0.00000032,0.00001001,-0.00000318,0.00000045,-0.00007285,-0.00001545
 ,-0.00000003,-0.00002698,-0.00003483,0.00000281,-0.00003375,0.00000882
 ,0.00000338,0.00000856,-0.00006428,0.,-0.00001908,-0.00000762,-0.00000
 386,-0.00001911,-0.00000759,0.00000385,0.00003739,-0.00002089,0.000015
 94\\\@


 THE MOST BEAUTIFUL EXPERIENCE WE CAN HAVE IS THE MYSTERIOUS.
 IT IS THE FUNDAMENTAL EMOTION WHICH STANDS AT AT THE CRADLE 
 OF TRUE ART AND TRUE SCIENCE.

                                    -- ALBERT EINSTEIN
 Job cpu time:       0 days  0 hours 33 minutes 20.2 seconds.
 File lengths (MBytes):  RWF=    250 Int=      0 D2E=      0 Chk=      9 Scr=      1
 Normal termination of Gaussian 09 at Tue Dec 17 15:05:11 2024.
