 Entering Gaussian System, Link 0=g09
 Input=B3PW91D3FA.gjf
 Output=B3PW91D3FA.log
 Initial command:
 /home/phzd/g09E/g09/l1.exe "/home/phzd/g09E/scratch/Gau-1471283.inp" -scrdir="/home/phzd/g09E/scratch/"
 Default is to use a total of  18 processors:
                               18 via shared-memory
                                1 via Linda
 Entering Link 1 = /home/phzd/g09E/g09/l1.exe PID=   1471285.
  
 Copyright (c) 1988,1990,1992,1993,1995,1998,2003,2009,2015,
            Gaussian, Inc.  All Rights Reserved.
  
 This is part of the Gaussian(R) 09 program.  It is based on
 the Gaussian(R) 03 system (copyright 2003, Gaussian, Inc.),
 the Gaussian(R) 98 system (copyright 1998, Gaussian, Inc.),
 the Gaussian(R) 94 system (copyright 1995, Gaussian, Inc.),
 the Gaussian 92(TM) system (copyright 1992, Gaussian, Inc.),
 the Gaussian 90(TM) system (copyright 1990, Gaussian, Inc.),
 the Gaussian 88(TM) system (copyright 1988, Gaussian, Inc.),
 the Gaussian 86(TM) system (copyright 1986, Carnegie Mellon
 University), and the Gaussian 82(TM) system (copyright 1983,
 Carnegie Mellon University). Gaussian is a federally registered
 trademark of Gaussian, Inc.
  
 This software contains proprietary and confidential information,
 including trade secrets, belonging to Gaussian, Inc.
  
 This software is provided under written license and may be
 used, copied, transmitted, or stored only in accord with that
 written license.
  
 The following legend is applicable only to US Government
 contracts under FAR:
  
                    RESTRICTED RIGHTS LEGEND
  
 Use, reproduction and disclosure by the US Government is
 subject to restrictions as set forth in subparagraphs (a)
 and (c) of the Commercial Computer Software - Restricted
 Rights clause in FAR 52.227-19.
  
 Gaussian, Inc.
 340 Quinnipiac St., Bldg. 40, Wallingford CT 06492
  
  
 ---------------------------------------------------------------
 Warning -- This program may not be used in any manner that
 competes with the business of Gaussian, Inc. or will provide
 assistance to any competitor of Gaussian, Inc.  The licensee
 of this program is prohibited from giving any competitor of
 Gaussian, Inc. access to this program.  By using this program,
 the user acknowledges that Gaussian, Inc. is engaged in the
 business of creating and licensing software in the field of
 computational chemistry and represents and warrants to the
 licensee that it is not a competitor of Gaussian, Inc. and that
 it will not use this program in any manner prohibited above.
 ---------------------------------------------------------------
  

 Cite this work as:
 Gaussian 09, Revision E.01,
 M. J. Frisch, G. W. Trucks, H. B. Schlegel, G. E. Scuseria, 
 M. A. Robb, J. R. Cheeseman, G. Scalmani, V. Barone, B. Mennucci, 
 G. A. Petersson, H. Nakatsuji, M. Caricato, X. Li, H. P. Hratchian, 
 A. F. Izmaylov, J. Bloino, G. Zheng, J. L. Sonnenberg, M. Hada, 
 M. Ehara, K. Toyota, R. Fukuda, J. Hasegawa, M. Ishida, T. Nakajima, 
 Y. Honda, O. Kitao, H. Nakai, T. Vreven, J. A. Montgomery, Jr., 
 J. E. Peralta, F. Ogliaro, M. Bearpark, J. J. Heyd, E. Brothers, 
 K. N. Kudin, V. N. Staroverov, T. Keith, R. Kobayashi, J. Normand, 
 K. Raghavachari, A. Rendell, J. C. Burant, S. S. Iyengar, J. Tomasi, 
 M. Cossi, N. Rega, J. M. Millam, M. Klene, J. E. Knox, J. B. Cross, 
 V. Bakken, C. Adamo, J. Jaramillo, R. Gomperts, R. E. Stratmann, 
 O. Yazyev, A. J. Austin, R. Cammi, C. Pomelli, J. W. Ochterski, 
 R. L. Martin, K. Morokuma, V. G. Zakrzewski, G. A. Voth, 
 P. Salvador, J. J. Dannenberg, S. Dapprich, A. D. Daniels, 
 O. Farkas, J. B. Foresman, J. V. Ortiz, J. Cioslowski, 
 and D. J. Fox, Gaussian, Inc., Wallingford CT, 2013.
 
 ******************************************
 Gaussian 09:  ES64L-G09RevE.01 30-Nov-2015
                18-Dec-2024 
 ******************************************
 %chk=B3PW91D3FA.chk
 -----------------------------------------------------
 # opt freq b3pw91/6-31+g(d,p) EmpiricalDispersion=GD3
 -----------------------------------------------------
 1/14=-1,18=20,19=15,26=3,38=1/1,3;
 2/9=110,12=2,17=6,18=5,40=1/2;
 3/5=1,6=6,7=111,11=2,16=1,25=1,30=1,71=1,74=-6,124=31/1,2,3;
 4//1;
 5/5=2,38=5/2;
 6/7=2,8=2,9=2,10=2,28=1/1;
 7//1,2,3,16;
 1/14=-1,18=20,19=15,26=3/3(2);
 2/9=110/2;
 99//99;
 2/9=110/2;
 3/5=1,6=6,7=111,11=2,16=1,25=1,30=1,71=1,74=-6,124=31/1,2,3;
 4/5=5,16=3,69=1/1;
 5/5=2,38=5/2;
 7//1,2,3,16;
 1/14=-1,18=20,19=15,26=3/3(-5);
 2/9=110/2;
 6/7=2,8=2,9=2,10=2,19=2,28=1/1;
 99/9=1/99;
 ----------
 [No Title]
 ----------
 Symbolic Z-matrix:
 Charge =  0 Multiplicity = 1
 C                     1.46084  -2.01376  -0.00042 
 C                     2.49406  -1.08065  -0.00028 
 C                     2.189     0.29467  -0.00008 
 C                     0.86662   0.7127   -0.00002 
 C                    -0.18631  -0.22683  -0.00015 
 C                     0.13646  -1.59271  -0.00036 
 O                     3.78085  -1.49428  -0.00034 
 C                    -1.55728   0.2719   -0.00007 
 C                    -2.69671  -0.44863   0.00012 
 O                     3.29155   1.10182   0.00004 
 C                     3.09949   2.50661   0.00039 
 C                    -4.07724   0.07802   0.00032 
 O                    -5.04131  -0.65548   0.0021 
 O                    -4.2698    1.42358  -0.00112 
 H                     1.71474  -3.06889  -0.00058 
 H                     0.63076   1.7723    0.00015 
 H                    -0.64961  -2.34028  -0.00048 
 H                     4.349    -0.70917  -0.00021 
 H                    -1.61709   1.36317  -0.00003 
 H                    -2.67665  -1.53362   0.00044 
 H                     4.09677   2.94732   0.00051 
 H                     2.55815   2.8303   -0.89674 
 H                     2.55814   2.82983   0.89769 
 H                    -3.42813   1.89597  -0.00297 
 

 GradGradGradGradGradGradGradGradGradGradGradGradGradGradGradGradGradGrad
 Berny optimization.
 Initialization pass.
                           ----------------------------
                           !    Initial Parameters    !
                           ! (Angstroms and Degrees)  !
 --------------------------                            --------------------------
 ! Name  Definition              Value          Derivative Info.                !
 --------------------------------------------------------------------------------
 ! R1    R(1,2)                  1.3922         estimate D2E/DX2                !
 ! R2    R(1,6)                  1.3897         estimate D2E/DX2                !
 ! R3    R(1,15)                 1.0852         estimate D2E/DX2                !
 ! R4    R(2,3)                  1.4087         estimate D2E/DX2                !
 ! R5    R(2,7)                  1.3516         estimate D2E/DX2                !
 ! R6    R(3,4)                  1.3869         estimate D2E/DX2                !
 ! R7    R(3,10)                 1.3664         estimate D2E/DX2                !
 ! R8    R(4,5)                  1.4112         estimate D2E/DX2                !
 ! R9    R(4,16)                 1.0855         estimate D2E/DX2                !
 ! R10   R(5,6)                  1.4035         estimate D2E/DX2                !
 ! R11   R(5,8)                  1.4589         estimate D2E/DX2                !
 ! R12   R(6,17)                 1.0848         estimate D2E/DX2                !
 ! R13   R(7,18)                 0.9691         estimate D2E/DX2                !
 ! R14   R(8,9)                  1.3481         estimate D2E/DX2                !
 ! R15   R(8,19)                 1.0929         estimate D2E/DX2                !
 ! R16   R(9,12)                 1.4776         estimate D2E/DX2                !
 ! R17   R(9,20)                 1.0852         estimate D2E/DX2                !
 ! R18   R(10,11)                1.4179         estimate D2E/DX2                !
 ! R19   R(11,21)                1.0903         estimate D2E/DX2                !
 ! R20   R(11,22)                1.0967         estimate D2E/DX2                !
 ! R21   R(11,23)                1.0967         estimate D2E/DX2                !
 ! R22   R(12,13)                1.2114         estimate D2E/DX2                !
 ! R23   R(12,14)                1.3593         estimate D2E/DX2                !
 ! R24   R(14,24)                0.9652         estimate D2E/DX2                !
 ! A1    A(2,1,6)              120.2778         estimate D2E/DX2                !
 ! A2    A(2,1,15)             118.555          estimate D2E/DX2                !
 ! A3    A(6,1,15)             121.1672         estimate D2E/DX2                !
 ! A4    A(1,2,3)              119.579          estimate D2E/DX2                !
 ! A5    A(1,2,7)              120.095          estimate D2E/DX2                !
 ! A6    A(3,2,7)              120.326          estimate D2E/DX2                !
 ! A7    A(2,3,4)              120.049          estimate D2E/DX2                !
 ! A8    A(2,3,10)             113.7007         estimate D2E/DX2                !
 ! A9    A(4,3,10)             126.2502         estimate D2E/DX2                !
 ! A10   A(3,4,5)              120.715          estimate D2E/DX2                !
 ! A11   A(3,4,16)             120.0919         estimate D2E/DX2                !
 ! A12   A(5,4,16)             119.1931         estimate D2E/DX2                !
 ! A13   A(4,5,6)              118.4464         estimate D2E/DX2                !
 ! A14   A(4,5,8)              118.2672         estimate D2E/DX2                !
 ! A15   A(6,5,8)              123.2864         estimate D2E/DX2                !
 ! A16   A(1,6,5)              120.9328         estimate D2E/DX2                !
 ! A17   A(1,6,17)             118.8012         estimate D2E/DX2                !
 ! A18   A(5,6,17)             120.266          estimate D2E/DX2                !
 ! A19   A(2,7,18)             108.072          estimate D2E/DX2                !
 ! A20   A(5,8,9)              127.7021         estimate D2E/DX2                !
 ! A21   A(5,8,19)             113.128          estimate D2E/DX2                !
 ! A22   A(9,8,19)             119.1699         estimate D2E/DX2                !
 ! A23   A(8,9,12)             126.8114         estimate D2E/DX2                !
 ! A24   A(8,9,20)             121.2478         estimate D2E/DX2                !
 ! A25   A(12,9,20)            111.9408         estimate D2E/DX2                !
 ! A26   A(3,10,11)            118.4218         estimate D2E/DX2                !
 ! A27   A(10,11,21)           106.0562         estimate D2E/DX2                !
 ! A28   A(10,11,22)           111.0448         estimate D2E/DX2                !
 ! A29   A(10,11,23)           111.0447         estimate D2E/DX2                !
 ! A30   A(21,11,22)           109.4074         estimate D2E/DX2                !
 ! A31   A(21,11,23)           109.4077         estimate D2E/DX2                !
 ! A32   A(22,11,23)           109.7962         estimate D2E/DX2                !
 ! A33   A(9,12,13)            121.8533         estimate D2E/DX2                !
 ! A34   A(9,12,14)            119.0254         estimate D2E/DX2                !
 ! A35   A(13,12,14)           119.1213         estimate D2E/DX2                !
 ! A36   A(12,14,24)           111.1593         estimate D2E/DX2                !
 ! D1    D(6,1,2,3)             -0.0003         estimate D2E/DX2                !
 ! D2    D(6,1,2,7)           -179.9999         estimate D2E/DX2                !
 ! D3    D(15,1,2,3)           179.9995         estimate D2E/DX2                !
 ! D4    D(15,1,2,7)            -0.0001         estimate D2E/DX2                !
 ! D5    D(2,1,6,5)             -0.0002         estimate D2E/DX2                !
 ! D6    D(2,1,6,17)           179.9994         estimate D2E/DX2                !
 ! D7    D(15,1,6,5)          -180.0            estimate D2E/DX2                !
 ! D8    D(15,1,6,17)           -0.0005         estimate D2E/DX2                !
 ! D9    D(1,2,3,4)              0.0004         estimate D2E/DX2                !
 ! D10   D(1,2,3,10)          -179.9996         estimate D2E/DX2                !
 ! D11   D(7,2,3,4)           -180.0            estimate D2E/DX2                !
 ! D12   D(7,2,3,10)             0.0            estimate D2E/DX2                !
 ! D13   D(1,2,7,18)          -179.9992         estimate D2E/DX2                !
 ! D14   D(3,2,7,18)             0.0012         estimate D2E/DX2                !
 ! D15   D(2,3,4,5)              0.0            estimate D2E/DX2                !
 ! D16   D(2,3,4,16)           179.9993         estimate D2E/DX2                !
 ! D17   D(10,3,4,5)          -180.0            estimate D2E/DX2                !
 ! D18   D(10,3,4,16)           -0.0007         estimate D2E/DX2                !
 ! D19   D(2,3,10,11)         -179.9928         estimate D2E/DX2                !
 ! D20   D(4,3,10,11)            0.0072         estimate D2E/DX2                !
 ! D21   D(3,4,5,6)             -0.0005         estimate D2E/DX2                !
 ! D22   D(3,4,5,8)            179.9996         estimate D2E/DX2                !
 ! D23   D(16,4,5,6)          -179.9998         estimate D2E/DX2                !
 ! D24   D(16,4,5,8)             0.0003         estimate D2E/DX2                !
 ! D25   D(4,5,6,1)              0.0006         estimate D2E/DX2                !
 ! D26   D(4,5,6,17)          -179.999          estimate D2E/DX2                !
 ! D27   D(8,5,6,1)           -179.9995         estimate D2E/DX2                !
 ! D28   D(8,5,6,17)             0.001          estimate D2E/DX2                !
 ! D29   D(4,5,8,9)           -179.9842         estimate D2E/DX2                !
 ! D30   D(4,5,8,19)             0.0071         estimate D2E/DX2                !
 ! D31   D(6,5,8,9)              0.0159         estimate D2E/DX2                !
 ! D32   D(6,5,8,19)          -179.9929         estimate D2E/DX2                !
 ! D33   D(5,8,9,12)           179.9945         estimate D2E/DX2                !
 ! D34   D(5,8,9,20)             0.0121         estimate D2E/DX2                !
 ! D35   D(19,8,9,12)            0.0038         estimate D2E/DX2                !
 ! D36   D(19,8,9,20)         -179.9787         estimate D2E/DX2                !
 ! D37   D(8,9,12,13)         -179.91           estimate D2E/DX2                !
 ! D38   D(8,9,12,14)            0.0686         estimate D2E/DX2                !
 ! D39   D(20,9,12,13)           0.0738         estimate D2E/DX2                !
 ! D40   D(20,9,12,14)        -179.9476         estimate D2E/DX2                !
 ! D41   D(3,10,11,21)         179.9953         estimate D2E/DX2                !
 ! D42   D(3,10,11,22)         -61.2397         estimate D2E/DX2                !
 ! D43   D(3,10,11,23)          61.23           estimate D2E/DX2                !
 ! D44   D(9,12,14,24)           0.0526         estimate D2E/DX2                !
 ! D45   D(13,12,14,24)       -179.9682         estimate D2E/DX2                !
 --------------------------------------------------------------------------------
 Trust Radius=3.00D-01 FncErr=1.00D-07 GrdErr=1.00D-06
 Number of steps in this run=    115 maximum allowed number of steps=    144.
 GradGradGradGradGradGradGradGradGradGradGradGradGradGradGradGradGradGrad

                          Input orientation:                          
 ---------------------------------------------------------------------
 Center     Atomic      Atomic             Coordinates (Angstroms)
 Number     Number       Type             X           Y           Z
 ---------------------------------------------------------------------
      1          6           0        1.460837   -2.013762   -0.000419
      2          6           0        2.494064   -1.080651   -0.000277
      3          6           0        2.189003    0.294670   -0.000079
      4          6           0        0.866621    0.712699   -0.000018
      5          6           0       -0.186313   -0.226828   -0.000152
      6          6           0        0.136464   -1.592707   -0.000359
      7          8           0        3.780849   -1.494280   -0.000337
      8          6           0       -1.557275    0.271903   -0.000070
      9          6           0       -2.696714   -0.448627    0.000124
     10          8           0        3.291549    1.101821    0.000036
     11          6           0        3.099486    2.506606    0.000394
     12          6           0       -4.077238    0.078024    0.000317
     13          8           0       -5.041308   -0.655484    0.002101
     14          8           0       -4.269800    1.423580   -0.001118
     15          1           0        1.714740   -3.068887   -0.000579
     16          1           0        0.630757    1.772301    0.000146
     17          1           0       -0.649609   -2.340279   -0.000483
     18          1           0        4.349001   -0.709169   -0.000205
     19          1           0       -1.617093    1.363173   -0.000031
     20          1           0       -2.676646   -1.533616    0.000438
     21          1           0        4.096772    2.947324    0.000513
     22          1           0        2.558151    2.830295   -0.896741
     23          1           0        2.558135    2.829834    0.897685
     24          1           0       -3.428134    1.895968   -0.002974
 ---------------------------------------------------------------------
                    Distance matrix (angstroms):
                    1          2          3          4          5
     1  C    0.000000
     2  C    1.392212   0.000000
     3  C    2.420555   1.408748   0.000000
     4  C    2.790463   2.421709   1.386882   0.000000
     5  C    2.430275   2.813083   2.431889   1.411163   0.000000
     6  C    1.389695   2.412567   2.788388   2.418269   1.403499
     7  O    2.377460   1.351630   2.394643   3.655610   4.164710
     8  C    3.785930   4.271153   3.746347   2.463650   1.458859
     9  C    4.442396   5.229114   4.941935   3.747804   2.520180
    10  O    3.613636   2.323611   1.366419   2.455950   3.723014
    11  C    4.808212   3.637987   2.391995   2.864226   4.274124
    12  C    5.919953   6.672671   6.269985   4.984431   3.902849
    13  O    6.642501   7.547357   7.292475   6.064285   4.873882
    14  O    6.682479   7.212561   6.556720   5.185381   4.404397
    15  H    1.085244   2.135516   3.396828   3.875526   3.419255
    16  H    3.875991   3.407528   2.147446   1.085536   2.159657
    17  H    2.135555   3.386642   3.873070   3.408758   2.163635
    18  H    3.169141   1.891769   2.381866   3.761473   4.560891
    19  H    4.569173   4.782665   3.953235   2.567480   2.138980
    20  H    4.165250   5.190512   5.197804   4.195316   2.812375
    21  H    5.617876   4.335119   3.267439   3.927776   5.331047
    22  H    5.047017   4.012886   2.714713   2.854750   4.204992
    23  H    5.046888   4.012771   2.714645   2.854707   4.204912
    24  H    6.260035   6.628174   5.840924   4.454779   3.875006
                    6          7          8          9         10
     6  C    0.000000
     7  O    3.645714   0.000000
     8  C    2.519032   5.622719   0.000000
     9  C    3.055457   6.561419   1.348141   0.000000
    10  O    4.149101   2.641809   4.919335   6.185724   0.000000
    11  C    5.058050   4.058490   5.165203   6.506100   1.417854
    12  C    4.532839   8.013842   2.527410   1.477568   7.439569
    13  O    5.261912   8.861943   3.605348   2.353702   8.516139
    14  O    5.339771   8.563110   2.946889   2.445355   7.568192
    15  H    2.161033   2.597729   4.676212   5.130954   4.458826
    16  H    3.401118   4.538021   2.653051   4.000573   2.743967
    17  H    1.084792   4.510507   2.765385   2.787290   5.232665
    18  H    4.304196   0.969121   5.987203   7.050531   2.097115
    19  H    3.436887   6.107603   1.092908   2.109076   4.915595
    20  H    2.813731   6.457615   2.124357   1.085175   6.524177
    21  H    6.024610   4.452825   6.255088   7.594994   2.013521
    22  H    5.121622   4.582628   4.928095   6.258538   2.080794
    23  H    5.121508   4.582514   4.928040   6.258383   2.080793
    24  H    4.987707   7.966381   2.477440   2.456036   6.766448
                   11         12         13         14         15
    11  C    0.000000
    12  C    7.576502   0.000000
    13  O    8.733347   1.211391   0.000000
    14  O    7.448444   1.359266   2.217598   0.000000
    15  H    5.744880   6.591666   7.174169   7.483113   0.000000
    16  H    2.575622   5.003578   6.169803   4.912949   4.961060
    17  H    6.127643   4.194858   4.703782   5.222300   2.474069
    18  H    3.450000   8.462930   9.390463   8.878758   3.536609
    19  H    4.853201   2.775594   3.974950   2.653395   5.544751
    20  H    7.048907   2.135191   2.522448   3.359040   4.652024
    21  H    1.090326   8.662986   9.822664   8.504195   6.470616
    22  H    1.096663   7.239344   8.408945   7.028649   6.026176
    23  H    1.096662   7.239192   8.408391   7.028947   6.026035
    24  H    6.556120   1.930354   3.018653   0.965171   7.148353
                   16         17         18         19         20
    16  H    0.000000
    17  H    4.307279   0.000000
    18  H    4.470238   5.258006   0.000000
    19  H    2.284779   3.827739   6.315764   0.000000
    20  H    4.676324   2.181647   7.073855   3.084484   0.000000
    21  H    3.659773   7.105412   3.665182   5.929400   8.121454
    22  H    2.374575   6.150434   4.066783   4.515440   6.873991
    23  H    2.374603   6.150317   4.066688   4.515475   6.873695
    24  H    4.060776   5.066162   8.201864   1.887789   3.510953
                   21         22         23         24
    21  H    0.000000
    22  H    1.784969   0.000000
    23  H    1.784972   1.794426   0.000000
    24  H    7.597998   6.124328   6.125252   0.000000
 Stoichiometry    C10H10O4
 Framework group  C1[X(C10H10O4)]
 Deg. of freedom    66
 Full point group                 C1      NOp   1
 Largest Abelian subgroup         C1      NOp   1
 Largest concise Abelian subgroup C1      NOp   1
                         Standard orientation:                         
 ---------------------------------------------------------------------
 Center     Atomic      Atomic             Coordinates (Angstroms)
 Number     Number       Type             X           Y           Z
 ---------------------------------------------------------------------
      1          6           0        1.460837   -2.013762   -0.000419
      2          6           0        2.494064   -1.080651   -0.000277
      3          6           0        2.189003    0.294670   -0.000079
      4          6           0        0.866621    0.712699   -0.000018
      5          6           0       -0.186313   -0.226828   -0.000152
      6          6           0        0.136464   -1.592707   -0.000359
      7          8           0        3.780849   -1.494280   -0.000337
      8          6           0       -1.557275    0.271903   -0.000070
      9          6           0       -2.696714   -0.448627    0.000124
     10          8           0        3.291549    1.101821    0.000036
     11          6           0        3.099486    2.506606    0.000394
     12          6           0       -4.077238    0.078024    0.000317
     13          8           0       -5.041308   -0.655484    0.002101
     14          8           0       -4.269800    1.423580   -0.001118
     15          1           0        1.714740   -3.068887   -0.000579
     16          1           0        0.630757    1.772301    0.000146
     17          1           0       -0.649609   -2.340279   -0.000483
     18          1           0        4.349001   -0.709169   -0.000205
     19          1           0       -1.617093    1.363173   -0.000031
     20          1           0       -2.676646   -1.533616    0.000438
     21          1           0        4.096772    2.947324    0.000513
     22          1           0        2.558151    2.830295   -0.896741
     23          1           0        2.558135    2.829834    0.897685
     24          1           0       -3.428134    1.895968   -0.002974
 ---------------------------------------------------------------------
 Rotational constants (GHZ):      1.5465928      0.2847573      0.2408522
 Standard basis: 6-31+G(d,p) (6D, 7F)
 There are   316 symmetry adapted cartesian basis functions of A   symmetry.
 There are   316 symmetry adapted basis functions of A   symmetry.
   316 basis functions,   518 primitive gaussians,   316 cartesian basis functions
    51 alpha electrons       51 beta electrons
       nuclear repulsion energy       823.0999281954 Hartrees.
 NAtoms=   24 NActive=   24 NUniq=   24 SFac= 1.00D+00 NAtFMM=   60 NAOKFM=F Big=F
 Integral buffers will be    131072 words long.
 Raffenetti 2 integral format.
 Two-electron integral symmetry is turned on.
 Nuclear repulsion after empirical dispersion term =      823.0790227095 Hartrees.
 One-electron integrals computed using PRISM.
 NBasis=   316 RedAO= T EigKep=  1.47D-06  NBF=   316
 NBsUse=   315 1.00D-06 EigRej=  6.80D-07 NBFU=   315
 ExpMin= 4.38D-02 ExpMax= 5.48D+03 ExpMxC= 8.25D+02 IAcc=2 IRadAn=         4 AccDes= 0.00D+00
 Harris functional with IExCor=  408 and IRadAn=       4 diagonalized for initial guess.
 HarFok:  IExCor=  408 AccDes= 0.00D+00 IRadAn=         4 IDoV= 1 UseB2=F ITyADJ=14
 ICtDFT=  3500011 ScaDFX=  1.000000  1.000000  1.000000  1.000000
 FoFCou: FMM=F IPFlag=           0 FMFlag=      100000 FMFlg1=           0
         NFxFlg=           0 DoJE=T BraDBF=F KetDBF=T FulRan=T
         wScrn=  0.000000 ICntrl=     500 IOpCl=  0 I1Cent=   200000004 NGrid=           0
         NMat0=    1 NMatS0=      1 NMatT0=    0 NMatD0=    1 NMtDS0=    0 NMtDT0=    0
 Petite list used in FoFCou.
 Requested convergence on RMS density matrix=1.00D-08 within 128 cycles.
 Requested convergence on MAX density matrix=1.00D-06.
 Requested convergence on             energy=1.00D-06.
 No special actions if energy rises.
 SCF Done:  E(RB3PW91) =  -687.759301496     A.U. after   16 cycles
            NFock= 16  Conv=0.32D-08     -V/T= 2.0091

 **********************************************************************

            Population analysis using the SCF density.

 **********************************************************************

 Orbital symmetries:
       Occupied  (A) (A) (A) (A) (A) (A) (A) (A) (A) (A) (A) (A)
                 (A) (A) (A) (A) (A) (A) (A) (A) (A) (A) (A) (A)
                 (A) (A) (A) (A) (A) (A) (A) (A) (A) (A) (A) (A)
                 (A) (A) (A) (A) (A) (A) (A) (A) (A) (A) (A) (A)
                 (A) (A) (A)
       Virtual   (A) (A) (A) (A) (A) (A) (A) (A) (A) (A) (A) (A)
                 (A) (A) (A) (A) (A) (A) (A) (A) (A) (A) (A) (A)
                 (A) (A) (A) (A) (A) (A) (A) (A) (A) (A) (A) (A)
                 (A) (A) (A) (A) (A) (A) (A) (A) (A) (A) (A) (A)
                 (A) (A) (A) (A) (A) (A) (A) (A) (A) (A) (A) (A)
                 (A) (A) (A) (A) (A) (A) (A) (A) (A) (A) (A) (A)
                 (A) (A) (A) (A) (A) (A) (A) (A) (A) (A) (A) (A)
                 (A) (A) (A) (A) (A) (A) (A) (A) (A) (A) (A) (A)
                 (A) (A) (A) (A) (A) (A) (A) (A) (A) (A) (A) (A)
                 (A) (A) (A) (A) (A) (A) (A) (A) (A) (A) (A) (A)
                 (A) (A) (A) (A) (A) (A) (A) (A) (A) (A) (A) (A)
                 (A) (A) (A) (A) (A) (A) (A) (A) (A) (A) (A) (A)
                 (A) (A) (A) (A) (A) (A) (A) (A) (A) (A) (A) (A)
                 (A) (A) (A) (A) (A) (A) (A) (A) (A) (A) (A) (A)
                 (A) (A) (A) (A) (A) (A) (A) (A) (A) (A) (A) (A)
                 (A) (A) (A) (A) (A) (A) (A) (A) (A) (A) (A) (A)
                 (A) (A) (A) (A) (A) (A) (A) (A) (A) (A) (A) (A)
                 (A) (A) (A) (A) (A) (A) (A) (A) (A) (A) (A) (A)
                 (A) (A) (A) (A) (A) (A) (A) (A) (A) (A) (A) (A)
                 (A) (A) (A) (A) (A) (A) (A) (A) (A) (A) (A) (A)
                 (A) (A) (A) (A) (A) (A) (A) (A) (A) (A) (A) (A)
                 (A) (A) (A) (A) (A) (A) (A) (A) (A) (A) (A) (A)
 The electronic state is 1-A.
 Alpha  occ. eigenvalues --  -19.21490 -19.19891 -19.19397 -19.12864 -10.31029
 Alpha  occ. eigenvalues --  -10.26570 -10.26510 -10.25801 -10.22739 -10.21596
 Alpha  occ. eigenvalues --  -10.21212 -10.20494 -10.20432 -10.20146  -1.11875
 Alpha  occ. eigenvalues --   -1.10973  -1.08757  -1.02477  -0.89152  -0.82993
 Alpha  occ. eigenvalues --   -0.78916  -0.77267  -0.73221  -0.67974  -0.64136
 Alpha  occ. eigenvalues --   -0.62925  -0.60586  -0.58786  -0.55820  -0.53403
 Alpha  occ. eigenvalues --   -0.51921  -0.50578  -0.48759  -0.47374  -0.45701
 Alpha  occ. eigenvalues --   -0.45113  -0.45042  -0.44226  -0.43289  -0.41211
 Alpha  occ. eigenvalues --   -0.40515  -0.38526  -0.38484  -0.37692  -0.36816
 Alpha  occ. eigenvalues --   -0.36672  -0.32611  -0.30645  -0.27986  -0.26974
 Alpha  occ. eigenvalues --   -0.23140
 Alpha virt. eigenvalues --   -0.08269  -0.02799  -0.01154  -0.00068   0.00519
 Alpha virt. eigenvalues --    0.00914   0.02036   0.03817   0.04126   0.04422
 Alpha virt. eigenvalues --    0.05703   0.05922   0.06437   0.06756   0.07709
 Alpha virt. eigenvalues --    0.07985   0.08357   0.09825   0.09865   0.10216
 Alpha virt. eigenvalues --    0.10966   0.11242   0.11352   0.13300   0.13526
 Alpha virt. eigenvalues --    0.13600   0.13991   0.14096   0.14589   0.15482
 Alpha virt. eigenvalues --    0.15611   0.16057   0.16738   0.17476   0.18456
 Alpha virt. eigenvalues --    0.18491   0.18771   0.19581   0.20073   0.20292
 Alpha virt. eigenvalues --    0.20911   0.21464   0.21575   0.21931   0.22196
 Alpha virt. eigenvalues --    0.22956   0.23310   0.24358   0.25552   0.25595
 Alpha virt. eigenvalues --    0.25722   0.26814   0.27824   0.28030   0.28218
 Alpha virt. eigenvalues --    0.28535   0.29493   0.30259   0.30886   0.31460
 Alpha virt. eigenvalues --    0.31669   0.32008   0.33226   0.33336   0.33679
 Alpha virt. eigenvalues --    0.34101   0.34387   0.35069   0.36125   0.36838
 Alpha virt. eigenvalues --    0.38373   0.38421   0.38825   0.39601   0.41245
 Alpha virt. eigenvalues --    0.42796   0.43202   0.45890   0.47406   0.48037
 Alpha virt. eigenvalues --    0.49107   0.52284   0.57596   0.61587   0.64500
 Alpha virt. eigenvalues --    0.64792   0.66822   0.67001   0.67551   0.68052
 Alpha virt. eigenvalues --    0.70562   0.71349   0.71933   0.72063   0.72817
 Alpha virt. eigenvalues --    0.74362   0.75138   0.77360   0.77640   0.78735
 Alpha virt. eigenvalues --    0.82664   0.83165   0.83798   0.85589   0.86250
 Alpha virt. eigenvalues --    0.88737   0.90448   0.92534   0.94545   0.97034
 Alpha virt. eigenvalues --    0.99638   1.00592   1.02376   1.04263   1.04302
 Alpha virt. eigenvalues --    1.05407   1.08169   1.08753   1.10232   1.11578
 Alpha virt. eigenvalues --    1.13263   1.14864   1.15107   1.16055   1.16128
 Alpha virt. eigenvalues --    1.18001   1.19413   1.20041   1.21210   1.21447
 Alpha virt. eigenvalues --    1.22224   1.24132   1.24836   1.25236   1.25972
 Alpha virt. eigenvalues --    1.27427   1.28270   1.30056   1.30965   1.33356
 Alpha virt. eigenvalues --    1.34385   1.34574   1.35975   1.36888   1.37707
 Alpha virt. eigenvalues --    1.38127   1.40609   1.41001   1.42707   1.43340
 Alpha virt. eigenvalues --    1.43657   1.43931   1.51156   1.54040   1.55607
 Alpha virt. eigenvalues --    1.56499   1.57595   1.60599   1.65875   1.70000
 Alpha virt. eigenvalues --    1.72929   1.76133   1.76683   1.77543   1.79982
 Alpha virt. eigenvalues --    1.80944   1.81947   1.83859   1.84297   1.85284
 Alpha virt. eigenvalues --    1.87072   1.88010   1.89066   1.90819   1.93794
 Alpha virt. eigenvalues --    1.93923   1.94179   1.95442   1.98620   1.99017
 Alpha virt. eigenvalues --    2.01046   2.02700   2.03124   2.03470   2.04511
 Alpha virt. eigenvalues --    2.07502   2.08020   2.11571   2.13840   2.16422
 Alpha virt. eigenvalues --    2.19273   2.20892   2.21892   2.25845   2.26752
 Alpha virt. eigenvalues --    2.29729   2.34673   2.35318   2.37628   2.40975
 Alpha virt. eigenvalues --    2.43232   2.44682   2.45573   2.45626   2.47904
 Alpha virt. eigenvalues --    2.49785   2.50129   2.50893   2.52927   2.53012
 Alpha virt. eigenvalues --    2.54096   2.56752   2.59916   2.60739   2.61881
 Alpha virt. eigenvalues --    2.63601   2.65222   2.67075   2.68397   2.70498
 Alpha virt. eigenvalues --    2.70852   2.72231   2.72586   2.75678   2.79075
 Alpha virt. eigenvalues --    2.81801   2.83096   2.83851   2.87525   2.93136
 Alpha virt. eigenvalues --    2.93786   3.01268   3.06750   3.08311   3.11786
 Alpha virt. eigenvalues --    3.14900   3.16668   3.20270   3.22732   3.23652
 Alpha virt. eigenvalues --    3.32513   3.34460   3.38871   3.44348   3.47639
 Alpha virt. eigenvalues --    3.49441   3.52742   3.56357   3.58967   3.80060
 Alpha virt. eigenvalues --    4.19719   4.23863   4.27269   4.31523   4.35274
 Alpha virt. eigenvalues --    4.40144   4.42949   4.47224   4.51683   4.54149
 Alpha virt. eigenvalues --    4.59282   4.66653   4.77902   5.07528
          Condensed to atoms (all electrons):
               1          2          3          4          5          6
     1  C   11.719319  -1.214373  -1.627468  -1.827137  -0.067843  -1.679433
     2  C   -1.214373  17.243499  -4.369466  -4.299986  -0.716200   1.131249
     3  C   -1.627468  -4.369466  14.745780  -0.125264  -1.112181  -1.696965
     4  C   -1.827137  -4.299986  -0.125264  15.567733   2.049050  -1.103354
     5  C   -0.067843  -0.716200  -1.112181   2.049050   8.279044  -0.478369
     6  C   -1.679433   1.131249  -1.696965  -1.103354  -0.478369   9.150202
     7  O   -0.526763   0.077570   0.353221   0.115859  -0.053480  -0.023618
     8  C    0.558556  -0.884472   0.315924  -3.365766  -0.864515   0.157831
     9  C    0.038593  -0.005095  -0.582977  -1.654068  -1.521845   0.961085
    10  O    0.083662  -0.863775   0.531038   0.242822  -0.016626  -0.052398
    11  C    0.045625  -0.051155  -0.044208  -0.018986  -0.014257  -0.009968
    12  C   -0.102953   0.057326  -0.009828   0.115263  -0.284000  -0.070867
    13  O   -0.002753   0.000133   0.000553   0.015078   0.058655  -0.011520
    14  O    0.000309  -0.001674   0.005553  -0.007635   0.017051  -0.001352
    15  H    0.126036   0.139266   0.020359   0.006849  -0.019222   0.056045
    16  H   -0.006916  -0.008128  -0.160366   0.276752   0.035846  -0.012286
    17  H   -0.025281  -0.025704   0.001043   0.033134   0.149283   0.163744
    18  H    0.206911   0.179466  -0.337376  -0.063155   0.005348  -0.000693
    19  H    0.009476   0.002111   0.067470   0.295311   0.078092  -0.120092
    20  H    0.043804  -0.006130   0.008168   0.008744   0.088507  -0.036169
    21  H    0.002089   0.065608   0.040170  -0.076306  -0.002807  -0.000310
    22  H   -0.001480  -0.039936  -0.052969   0.072711   0.009410   0.001802
    23  H   -0.001474  -0.039992  -0.053019   0.072780   0.009439   0.001794
    24  H   -0.001097   0.001229  -0.002867   0.059101   0.072148  -0.010109
               7          8          9         10         11         12
     1  C   -0.526763   0.558556   0.038593   0.083662   0.045625  -0.102953
     2  C    0.077570  -0.884472  -0.005095  -0.863775  -0.051155   0.057326
     3  C    0.353221   0.315924  -0.582977   0.531038  -0.044208  -0.009828
     4  C    0.115859  -3.365766  -1.654068   0.242822  -0.018986   0.115263
     5  C   -0.053480  -0.864515  -1.521845  -0.016626  -0.014257  -0.284000
     6  C   -0.023618   0.157831   0.961085  -0.052398  -0.009968  -0.070867
     7  O    8.372962   0.004051   0.000049  -0.008023   0.002695   0.000135
     8  C    0.004051  10.256450  -0.891066  -0.032256  -0.047811   0.282434
     9  C    0.000049  -0.891066  11.797362  -0.003423  -0.006579  -1.727644
    10  O   -0.008023  -0.032256  -0.003423   8.600774   0.060144   0.000183
    11  C    0.002695  -0.047811  -0.006579   0.060144   5.015374  -0.000933
    12  C    0.000135   0.282434  -1.727644   0.000183  -0.000933   6.924533
    13  O    0.000000   0.070081  -0.356184   0.000000   0.000008   0.534966
    14  O    0.000000   0.131135  -0.054321  -0.000006  -0.000034  -0.069633
    15  H   -0.007474  -0.003571   0.001072  -0.000697   0.000052   0.000034
    16  H   -0.000397   0.154498   0.031148  -0.014779   0.000241   0.000194
    17  H   -0.000590   0.010756  -0.018708   0.000158  -0.000007   0.018240
    18  H    0.192568   0.000641   0.000094   0.040154   0.004478   0.000007
    19  H   -0.000008   0.220808  -0.254290   0.000093   0.001197  -0.033344
    20  H   -0.000002  -0.002569   0.318190   0.000002   0.000024  -0.103801
    21  H   -0.000228   0.000552   0.000145  -0.072382   0.408824   0.000006
    22  H   -0.000099  -0.002302  -0.000501  -0.044011   0.413666  -0.000045
    23  H   -0.000098  -0.002289  -0.000501  -0.044010   0.413664  -0.000046
    24  H   -0.000000   0.080145  -0.310170   0.000002   0.000118   0.147863
              13         14         15         16         17         18
     1  C   -0.002753   0.000309   0.126036  -0.006916  -0.025281   0.206911
     2  C    0.000133  -0.001674   0.139266  -0.008128  -0.025704   0.179466
     3  C    0.000553   0.005553   0.020359  -0.160366   0.001043  -0.337376
     4  C    0.015078  -0.007635   0.006849   0.276752   0.033134  -0.063155
     5  C    0.058655   0.017051  -0.019222   0.035846   0.149283   0.005348
     6  C   -0.011520  -0.001352   0.056045  -0.012286   0.163744  -0.000693
     7  O    0.000000   0.000000  -0.007474  -0.000397  -0.000590   0.192568
     8  C    0.070081   0.131135  -0.003571   0.154498   0.010756   0.000641
     9  C   -0.356184  -0.054321   0.001072   0.031148  -0.018708   0.000094
    10  O    0.000000  -0.000006  -0.000697  -0.014779   0.000158   0.040154
    11  C    0.000008  -0.000034   0.000052   0.000241  -0.000007   0.004478
    12  C    0.534966  -0.069633   0.000034   0.000194   0.018240   0.000007
    13  O    8.250243  -0.123305   0.000000  -0.000001   0.000143   0.000000
    14  O   -0.123305   8.353659  -0.000000   0.000013  -0.000013  -0.000000
    15  H    0.000000  -0.000000   0.514933   0.000014  -0.004376  -0.000077
    16  H   -0.000001   0.000013   0.000014   0.560405  -0.000141  -0.000025
    17  H    0.000143  -0.000013  -0.004376  -0.000141   0.545684   0.000005
    18  H    0.000000  -0.000000  -0.000077  -0.000025   0.000005   0.377074
    19  H   -0.000082  -0.011116   0.000002   0.004143   0.000034   0.000000
    20  H   -0.014020   0.006491   0.000004   0.000001   0.001494  -0.000000
    21  H    0.000000  -0.000000  -0.000000   0.000124  -0.000000  -0.000065
    22  H   -0.000000  -0.000000   0.000000  -0.000940   0.000000   0.000027
    23  H   -0.000000  -0.000000   0.000000  -0.000939   0.000000   0.000027
    24  H    0.014519   0.165390   0.000000   0.000012   0.000004  -0.000000
              19         20         21         22         23         24
     1  C    0.009476   0.043804   0.002089  -0.001480  -0.001474  -0.001097
     2  C    0.002111  -0.006130   0.065608  -0.039936  -0.039992   0.001229
     3  C    0.067470   0.008168   0.040170  -0.052969  -0.053019  -0.002867
     4  C    0.295311   0.008744  -0.076306   0.072711   0.072780   0.059101
     5  C    0.078092   0.088507  -0.002807   0.009410   0.009439   0.072148
     6  C   -0.120092  -0.036169  -0.000310   0.001802   0.001794  -0.010109
     7  O   -0.000008  -0.000002  -0.000228  -0.000099  -0.000098  -0.000000
     8  C    0.220808  -0.002569   0.000552  -0.002302  -0.002289   0.080145
     9  C   -0.254290   0.318190   0.000145  -0.000501  -0.000501  -0.310170
    10  O    0.000093   0.000002  -0.072382  -0.044011  -0.044010   0.000002
    11  C    0.001197   0.000024   0.408824   0.413666   0.413664   0.000118
    12  C   -0.033344  -0.103801   0.000006  -0.000045  -0.000046   0.147863
    13  O   -0.000082  -0.014020   0.000000  -0.000000  -0.000000   0.014519
    14  O   -0.011116   0.006491  -0.000000  -0.000000  -0.000000   0.165390
    15  H    0.000002   0.000004  -0.000000   0.000000   0.000000   0.000000
    16  H    0.004143   0.000001   0.000124  -0.000940  -0.000939   0.000012
    17  H    0.000034   0.001494  -0.000000   0.000000   0.000000   0.000004
    18  H    0.000000  -0.000000  -0.000065   0.000027   0.000027  -0.000000
    19  H    0.623715   0.004191   0.000000  -0.000001  -0.000001   0.013721
    20  H    0.004191   0.520802  -0.000000   0.000000   0.000000   0.000195
    21  H    0.000000  -0.000000   0.515877  -0.026373  -0.026371  -0.000000
    22  H   -0.000001   0.000000  -0.026373   0.548097  -0.041284   0.000000
    23  H   -0.000001   0.000000  -0.026371  -0.041284   0.548082   0.000000
    24  H    0.013721   0.000195  -0.000000   0.000000   0.000000   0.437038
 Mulliken charges:
               1
     1  C    0.250591
     2  C   -0.371370
     3  C    0.085675
     4  C   -0.389529
     5  C    0.299473
     6  C   -0.316247
     7  O   -0.498328
     8  C   -0.147244
     9  C    0.239633
    10  O   -0.406648
    11  C   -0.172171
    12  C    0.321910
    13  O   -0.436516
    14  O   -0.410511
    15  H    0.170751
    16  H    0.141525
    17  H    0.151100
    18  H    0.394590
    19  H    0.098571
    20  H    0.162077
    21  H    0.171446
    22  H    0.164229
    23  H    0.164238
    24  H    0.332756
 Sum of Mulliken charges =  -0.00000
 Mulliken charges with hydrogens summed into heavy atoms:
               1
     1  C    0.421342
     2  C   -0.371370
     3  C    0.085675
     4  C   -0.248004
     5  C    0.299473
     6  C   -0.165147
     7  O   -0.103737
     8  C   -0.048673
     9  C    0.401709
    10  O   -0.406648
    11  C    0.327743
    12  C    0.321910
    13  O   -0.436516
    14  O   -0.077755
 Electronic spatial extent (au):  <R**2>=           4175.6313
 Charge=             -0.0000 electrons
 Dipole moment (field-independent basis, Debye):
    X=              6.8930    Y=              3.7775    Z=             -0.0051  Tot=              7.8602
 Quadrupole moment (field-independent basis, Debye-Ang):
   XX=           -114.5134   YY=            -70.1575   ZZ=            -84.5023
   XY=              5.6208   XZ=              0.0273   YZ=             -0.0015
 Traceless Quadrupole moment (field-independent basis, Debye-Ang):
   XX=            -24.7890   YY=             19.5669   ZZ=              5.2221
   XY=              5.6208   XZ=              0.0273   YZ=             -0.0015
 Octapole moment (field-independent basis, Debye-Ang**2):
  XXX=            267.5778  YYY=             23.0270  ZZZ=              0.0055  XYY=             12.1788
  XXY=             49.7842  XXZ=             -0.1038  XZZ=             -1.8917  YZZ=              5.2513
  YYZ=             -0.0172  XYZ=              0.0045
 Hexadecapole moment (field-independent basis, Debye-Ang**3):
 XXXX=          -5318.2143 YYYY=           -842.7954 ZZZZ=            -96.1115 XXXY=             64.1624
 XXXZ=              0.6735 YYYX=             48.0755 YYYZ=             -0.0233 ZZZX=              0.1212
 ZZZY=             -0.0050 XXYY=           -871.6481 XXZZ=           -726.1189 YYZZ=           -180.9784
 XXYZ=              0.0480 YYXZ=              0.1165 ZZXY=              1.6025
 N-N= 8.230790227095D+02 E-N=-3.249989280143D+03  KE= 6.815344824020D+02
 Calling FoFJK, ICntrl=      2127 FMM=F ISym2X=0 I1Cent= 0 IOpClX= 0 NMat=1 NMatS=1 NMatT=0.
 ***** Axes restored to original set *****
 -------------------------------------------------------------------
 Center     Atomic                   Forces (Hartrees/Bohr)
 Number     Number              X              Y              Z
 -------------------------------------------------------------------
      1        6          -0.000064255   -0.000098167   -0.000000012
      2        6           0.000166716    0.000010125    0.000000269
      3        6          -0.000275027    0.000309685   -0.000000762
      4        6          -0.000208947    0.000085241    0.000000974
      5        6           0.000008759    0.000105047    0.000001844
      6        6          -0.000106060   -0.000048941   -0.000000465
      7        8          -0.000035741   -0.000227045   -0.000000157
      8        6           0.000092498   -0.000073098    0.000000143
      9        6           0.000667290   -0.000561279   -0.000014708
     10        8          -0.000147601   -0.000244945    0.000000561
     11        6           0.000268565   -0.000118975   -0.000000440
     12        6          -0.000245375   -0.000160643    0.000049393
     13        8           0.000206938    0.000066820   -0.000018883
     14        8           0.000344887    0.000324648   -0.000009303
     15        1           0.000172880    0.000201372    0.000000017
     16        1           0.000112166   -0.000121427    0.000000129
     17        1           0.000140993    0.000007136   -0.000000372
     18        1           0.000098791   -0.000343288   -0.000000045
     19        1          -0.000380063   -0.000002897   -0.000000178
     20        1          -0.000103030    0.000115367   -0.000001030
     21        1           0.000046532    0.000038731   -0.000000058
     22        1          -0.000202362    0.000230063   -0.000269326
     23        1          -0.000202233    0.000230010    0.000269637
     24        1          -0.000356322    0.000276459   -0.000007226
 -------------------------------------------------------------------
 Cartesian Forces:  Max     0.000667290 RMS     0.000189973

 GradGradGradGradGradGradGradGradGradGradGradGradGradGradGradGradGradGrad
 Berny optimization.
 FormGI is forming the generalized inverse of G from B-inverse, IUseBI=4.
 GSVD:  received Info=                   1 from GESDD.
 Internal  Forces:  Max     0.001023942 RMS     0.000235390
 Search for a local minimum.
 Step number   1 out of a maximum of  115
 All quantities printed in internal units (Hartrees-Bohrs-Radians)
 Mixed Optimization -- En-DIIS/RFO-DIIS
 Second derivative matrix not updated -- first step.
 ITU=  0
     Eigenvalues ---    0.01063   0.01310   0.01438   0.01456   0.01789
     Eigenvalues ---    0.01988   0.02004   0.02065   0.02080   0.02112
     Eigenvalues ---    0.02126   0.02134   0.02136   0.02162   0.02195
     Eigenvalues ---    0.02209   0.02231   0.02332   0.02775   0.10122
     Eigenvalues ---    0.10680   0.16000   0.16000   0.16000   0.16000
     Eigenvalues ---    0.16000   0.16000   0.16000   0.16000   0.16000
     Eigenvalues ---    0.16000   0.22000   0.22000   0.22372   0.23481
     Eigenvalues ---    0.24605   0.25000   0.25000   0.25000   0.25000
     Eigenvalues ---    0.25000   0.25000   0.34054   0.34054   0.34479
     Eigenvalues ---    0.34775   0.34849   0.35334   0.35368   0.35376
     Eigenvalues ---    0.35421   0.37108   0.41128   0.41904   0.42785
     Eigenvalues ---    0.44631   0.45297   0.46743   0.47651   0.51671
     Eigenvalues ---    0.53096   0.53557   0.54376   0.54676   0.55419
     Eigenvalues ---    0.99302
 RFO step:  Lambda=-2.34053322D-05 EMin= 1.06267696D-02
 Linear search not attempted -- first point.
 Iteration  1 RMS(Cart)=  0.00289956 RMS(Int)=  0.00000563
 Iteration  2 RMS(Cart)=  0.00000622 RMS(Int)=  0.00000011
 Iteration  3 RMS(Cart)=  0.00000000 RMS(Int)=  0.00000011
 Variable       Old X    -DE/DX   Delta X   Delta X   Delta X     New X
                                 (Linear)    (Quad)   (Total)
    R1        2.63090  -0.00024   0.00000  -0.00051  -0.00051   2.63039
    R2        2.62614  -0.00013   0.00000  -0.00030  -0.00030   2.62584
    R3        2.05081  -0.00015   0.00000  -0.00044  -0.00044   2.05038
    R4        2.66215   0.00057   0.00000   0.00131   0.00131   2.66346
    R5        2.55421   0.00023   0.00000   0.00043   0.00043   2.55464
    R6        2.62083  -0.00002   0.00000  -0.00002  -0.00002   2.62081
    R7        2.58216  -0.00011   0.00000  -0.00021  -0.00021   2.58194
    R8        2.66671  -0.00016   0.00000  -0.00035  -0.00035   2.66636
    R9        2.05137  -0.00014   0.00000  -0.00041  -0.00041   2.05096
   R10        2.65223   0.00001   0.00000  -0.00001  -0.00001   2.65222
   R11        2.75684  -0.00021   0.00000  -0.00057  -0.00057   2.75628
   R12        2.04996  -0.00011   0.00000  -0.00030  -0.00030   2.04966
   R13        1.83137  -0.00022   0.00000  -0.00042  -0.00042   1.83096
   R14        2.54762  -0.00048   0.00000  -0.00087  -0.00087   2.54675
   R15        2.06530   0.00002   0.00000   0.00006   0.00006   2.06535
   R16        2.79220   0.00023   0.00000   0.00067   0.00067   2.79286
   R17        2.05068  -0.00012   0.00000  -0.00034  -0.00034   2.05034
   R18        2.67936   0.00038   0.00000   0.00088   0.00088   2.68024
   R19        2.06042   0.00006   0.00000   0.00017   0.00017   2.06059
   R20        2.07239   0.00039   0.00000   0.00113   0.00113   2.07353
   R21        2.07239   0.00039   0.00000   0.00113   0.00113   2.07353
   R22        2.28920  -0.00021   0.00000  -0.00021  -0.00021   2.28899
   R23        2.56864   0.00060   0.00000   0.00114   0.00114   2.56978
   R24        1.82391  -0.00017   0.00000  -0.00032  -0.00032   1.82359
    A1        2.09924   0.00015   0.00000   0.00061   0.00061   2.09985
    A2        2.06918  -0.00029   0.00000  -0.00166  -0.00166   2.06751
    A3        2.11477   0.00014   0.00000   0.00105   0.00105   2.11582
    A4        2.08705  -0.00017   0.00000  -0.00064  -0.00064   2.08641
    A5        2.09605  -0.00085   0.00000  -0.00343  -0.00343   2.09262
    A6        2.10009   0.00102   0.00000   0.00407   0.00407   2.10415
    A7        2.09525  -0.00002   0.00000   0.00004   0.00004   2.09529
    A8        1.98445   0.00025   0.00000   0.00094   0.00094   1.98539
    A9        2.20348  -0.00023   0.00000  -0.00098  -0.00098   2.20251
   A10        2.10687  -0.00002   0.00000  -0.00001  -0.00001   2.10686
   A11        2.09600  -0.00008   0.00000  -0.00053  -0.00053   2.09547
   A12        2.08031   0.00009   0.00000   0.00055   0.00055   2.08086
   A13        2.06728   0.00005   0.00000   0.00014   0.00014   2.06742
   A14        2.06415   0.00009   0.00000   0.00041   0.00041   2.06456
   A15        2.15175  -0.00015   0.00000  -0.00055  -0.00055   2.15120
   A16        2.11068   0.00000   0.00000  -0.00013  -0.00013   2.11054
   A17        2.07347  -0.00009   0.00000  -0.00051  -0.00051   2.07296
   A18        2.09904   0.00009   0.00000   0.00064   0.00064   2.09968
   A19        1.88621   0.00052   0.00000   0.00324   0.00324   1.88945
   A20        2.22882  -0.00006   0.00000  -0.00029  -0.00029   2.22853
   A21        1.97446   0.00042   0.00000   0.00259   0.00259   1.97704
   A22        2.07991  -0.00036   0.00000  -0.00230  -0.00230   2.07761
   A23        2.21328  -0.00047   0.00000  -0.00215  -0.00215   2.21113
   A24        2.11617   0.00034   0.00000   0.00173   0.00173   2.11790
   A25        1.95374   0.00013   0.00000   0.00042   0.00042   1.95415
   A26        2.06685   0.00012   0.00000   0.00048   0.00048   2.06733
   A27        1.85103  -0.00004   0.00000  -0.00029  -0.00029   1.85074
   A28        1.93810   0.00015   0.00000   0.00097   0.00096   1.93906
   A29        1.93810   0.00015   0.00000   0.00097   0.00097   1.93906
   A30        1.90952  -0.00006   0.00000  -0.00045  -0.00045   1.90907
   A31        1.90952  -0.00006   0.00000  -0.00045  -0.00045   1.90908
   A32        1.91630  -0.00013   0.00000  -0.00076  -0.00076   1.91554
   A33        2.12674  -0.00029   0.00000  -0.00116  -0.00116   2.12558
   A34        2.07739   0.00043   0.00000   0.00171   0.00171   2.07909
   A35        2.07906  -0.00014   0.00000  -0.00054  -0.00054   2.07851
   A36        1.94010   0.00076   0.00000   0.00476   0.00476   1.94486
    D1       -0.00001  -0.00000   0.00000  -0.00000  -0.00000  -0.00001
    D2       -3.14159   0.00000   0.00000   0.00000   0.00000  -3.14159
    D3        3.14158  -0.00000   0.00000  -0.00000  -0.00000   3.14158
    D4       -0.00000   0.00000   0.00000   0.00000   0.00000  -0.00000
    D5       -0.00000  -0.00000   0.00000  -0.00000  -0.00000  -0.00000
    D6        3.14158  -0.00000   0.00000  -0.00001  -0.00001   3.14157
    D7       -3.14159   0.00000   0.00000   0.00000   0.00000  -3.14159
    D8       -0.00001  -0.00000   0.00000  -0.00001  -0.00001  -0.00001
    D9        0.00001   0.00000   0.00000   0.00001   0.00001   0.00001
   D10       -3.14159   0.00000   0.00000   0.00000   0.00000  -3.14158
   D11       -3.14159  -0.00000   0.00000  -0.00000  -0.00000  -3.14159
   D12        0.00000  -0.00000   0.00000  -0.00000  -0.00000  -0.00000
   D13       -3.14158  -0.00000   0.00000  -0.00000  -0.00000  -3.14158
   D14        0.00002   0.00000   0.00000   0.00000   0.00000   0.00002
   D15        0.00000  -0.00000   0.00000  -0.00001  -0.00001  -0.00001
   D16        3.14158  -0.00000   0.00000  -0.00000  -0.00000   3.14158
   D17       -3.14159  -0.00000   0.00000  -0.00000  -0.00000   3.14159
   D18       -0.00001  -0.00000   0.00000  -0.00000  -0.00000  -0.00001
   D19       -3.14147  -0.00000   0.00000  -0.00001  -0.00001  -3.14148
   D20        0.00013  -0.00000   0.00000  -0.00001  -0.00001   0.00011
   D21       -0.00001   0.00000   0.00000   0.00000   0.00000  -0.00001
   D22        3.14159   0.00000   0.00000   0.00001   0.00001   3.14159
   D23       -3.14159   0.00000   0.00000   0.00000   0.00000  -3.14159
   D24        0.00001   0.00000   0.00000   0.00000   0.00000   0.00001
   D25        0.00001   0.00000   0.00000   0.00000   0.00000   0.00001
   D26       -3.14157   0.00000   0.00000   0.00001   0.00001  -3.14157
   D27       -3.14158  -0.00000   0.00000  -0.00000  -0.00000  -3.14159
   D28        0.00002   0.00000   0.00000   0.00001   0.00001   0.00002
   D29       -3.14132   0.00000   0.00000   0.00010   0.00010  -3.14121
   D30        0.00012   0.00000   0.00000   0.00005   0.00005   0.00017
   D31        0.00028   0.00000   0.00000   0.00011   0.00011   0.00038
   D32       -3.14147   0.00000   0.00000   0.00005   0.00005  -3.14142
   D33        3.14150  -0.00000   0.00000  -0.00009  -0.00009   3.14141
   D34        0.00021  -0.00000   0.00000   0.00000   0.00000   0.00021
   D35        0.00007  -0.00000   0.00000  -0.00003  -0.00003   0.00004
   D36       -3.14122   0.00000   0.00000   0.00006   0.00006  -3.14116
   D37       -3.14002  -0.00001   0.00000  -0.00056  -0.00056  -3.14059
   D38        0.00120   0.00001   0.00000   0.00107   0.00107   0.00227
   D39        0.00129  -0.00001   0.00000  -0.00065  -0.00064   0.00064
   D40       -3.14068   0.00001   0.00000   0.00099   0.00099  -3.13969
   D41        3.14151   0.00000   0.00000   0.00001   0.00001   3.14152
   D42       -1.06883  -0.00002   0.00000  -0.00018  -0.00018  -1.06901
   D43        1.06866   0.00002   0.00000   0.00020   0.00020   1.06887
   D44        0.00092  -0.00001   0.00000  -0.00051  -0.00051   0.00040
   D45       -3.14104   0.00002   0.00000   0.00108   0.00108  -3.13996
         Item               Value     Threshold  Converged?
 Maximum Force            0.001024     0.000450     NO 
 RMS     Force            0.000235     0.000300     YES
 Maximum Displacement     0.018116     0.001800     NO 
 RMS     Displacement     0.002900     0.001200     NO 
 Predicted change in Energy=-1.170269D-05
 GradGradGradGradGradGradGradGradGradGradGradGradGradGradGradGradGradGrad

                          Input orientation:                          
 ---------------------------------------------------------------------
 Center     Atomic      Atomic             Coordinates (Angstroms)
 Number     Number       Type             X           Y           Z
 ---------------------------------------------------------------------
      1          6           0        1.461071   -2.013389   -0.000537
      2          6           0        2.494522   -1.080926   -0.000389
      3          6           0        2.189059    0.295017   -0.000078
      4          6           0        0.866623    0.712849    0.000091
      5          6           0       -0.186019   -0.226723   -0.000050
      6          6           0        0.136787   -1.592587   -0.000373
      7          8           0        3.779906   -1.499622   -0.000556
      8          6           0       -1.556985    0.271122    0.000143
      9          6           0       -2.695418   -0.450143    0.000460
     10          8           0        3.290607    1.103337    0.000028
     11          6           0        3.097576    2.508459    0.000483
     12          6           0       -4.075591    0.078411    0.000867
     13          8           0       -5.039665   -0.654910    0.002170
     14          8           0       -4.268802    1.424480   -0.001754
     15          1           0        1.716194   -3.067981   -0.000789
     16          1           0        0.631217    1.772332    0.000346
     17          1           0       -0.648676   -2.340571   -0.000514
     18          1           0        4.353505   -0.718756   -0.000403
     19          1           0       -1.620251    1.362227    0.000213
     20          1           0       -2.676297   -1.534970    0.000803
     21          1           0        4.094788    2.949567    0.000563
     22          1           0        2.555894    2.833057   -0.896848
     23          1           0        2.555995    2.832489    0.898080
     24          1           0       -3.429740    1.901138   -0.004044
 ---------------------------------------------------------------------
                    Distance matrix (angstroms):
                    1          2          3          4          5
     1  C    0.000000
     2  C    1.391943   0.000000
     3  C    2.420475   1.409442   0.000000
     4  C    2.790294   2.422331   1.386874   0.000000
     5  C    2.430038   2.813355   2.431709   1.410975   0.000000
     6  C    1.389533   2.412615   2.788345   2.418201   1.403492
     7  O    2.375069   1.351857   2.398234   3.658175   4.165194
     8  C    3.785189   4.271153   3.746120   2.463535   1.458560
     9  C    4.440736   5.228132   4.940989   3.747090   2.519324
    10  O    3.614025   2.324813   1.366305   2.455235   3.722363
    11  C    4.808872   3.639693   2.392641   2.863803   4.273549
    12  C    5.918636   6.671615   6.268393   4.982770   3.901522
    13  O    6.641163   7.546223   7.290872   6.062591   4.872497
    14  O    6.682095   7.212463   6.555887   5.184498   4.404042
    15  H    1.085013   2.134053   3.396079   3.875106   3.419235
    16  H    3.875609   3.407784   2.146936   1.085321   2.159652
    17  H    2.134966   3.386207   3.872862   3.408739   2.163887
    18  H    3.168950   1.893933   2.390097   3.769328   4.566112
    19  H    4.570485   4.785432   3.955981   2.570260   2.140510
    20  H    4.164938   5.190716   5.198128   4.195828   2.813004
    21  H    5.618487   4.336557   3.267789   3.927334   5.330490
    22  H    5.048767   4.015803   2.716691   2.855419   4.205304
    23  H    5.048653   4.015700   2.716633   2.855387   4.205242
    24  H    6.264469   6.632466   5.843846   4.457666   3.879372
                    6          7          8          9         10
     6  C    0.000000
     7  O    3.644305   0.000000
     8  C    2.518387   5.622984   0.000000
     9  C    3.053942   6.559819   1.347683   0.000000
    10  O    4.149046   2.648549   4.918509   6.184318   0.000000
    11  C    5.058147   4.065746   5.164361   6.504775   1.418319
    12  C    4.531706   8.012429   2.525967   1.477920   7.437160
    13  O    5.260694   8.859931   3.603692   2.353174   8.513804
    14  O    5.339655   8.563415   2.946895   2.447398   7.566227
    15  H    2.161322   2.592037   4.675822   5.129853   4.458550
    16  H    3.401051   4.540918   2.653651   4.000737   2.742246
    17  H    1.084634   4.507719   2.765134   2.786193   5.232442
    18  H    4.306308   0.968900   5.992808   7.054038   2.109449
    19  H    3.437748   6.111619   1.092938   2.107290   4.917678
    20  H    2.813674   6.456300   2.124812   1.084995   6.524155
    21  H    6.024694   4.460318   6.254327   7.593742   2.013771
    22  H    5.122701   4.590605   4.927868   6.257862   2.082336
    23  H    5.122605   4.590500   4.927829   6.257694   2.082335
    24  H    4.992619   7.971460   2.482777   2.463285   6.767538
                   11         12         13         14         15
    11  C    0.000000
    12  C    7.573603   0.000000
    13  O    8.730498   1.211280   0.000000
    14  O    7.445706   1.359868   2.217681   0.000000
    15  H    5.744989   6.591249   7.173880   7.483474   0.000000
    16  H    2.573870   5.002340   6.168501   4.912351   4.960425
    17  H    6.127601   4.194666   4.703429   5.223115   2.474214
    18  H    3.462986   8.466707   9.393387   8.884685   3.531893
    19  H    4.855074   2.770718   3.970042   2.649283   5.546045
    20  H    7.048895   2.135654   2.521907   3.360717   4.652323
    21  H    1.090416   8.660175   9.819903   8.501501   6.470595
    22  H    1.097263   7.236750   8.406346   7.025792   6.027460
    23  H    1.097263   7.236565   8.405871   7.026382   6.027336
    24  H    6.555510   1.933774   3.020807   0.965004   7.153516
                   16         17         18         19         20
    16  H    0.000000
    17  H    4.307447   0.000000
    18  H    4.478945   5.258526   0.000000
    19  H    2.288514   3.828142   6.325840   0.000000
    20  H    4.677381   2.181798   7.077028   3.083664   0.000000
    21  H    3.658170   7.105351   3.677435   5.931384   8.121494
    22  H    2.373705   6.151350   4.080489   4.517549   6.874682
    23  H    2.373738   6.151255   4.080399   4.517618   6.874350
    24  H    4.063002   5.072122   8.212354   1.888039   3.517746
                   21         22         23         24
    21  H    0.000000
    22  H    1.785250   0.000000
    23  H    1.785252   1.794928   0.000000
    24  H    7.597220   6.123184   6.124563   0.000000
 Stoichiometry    C10H10O4
 Framework group  C1[X(C10H10O4)]
 Deg. of freedom    66
 Full point group                 C1      NOp   1
 Largest Abelian subgroup         C1      NOp   1
 Largest concise Abelian subgroup C1      NOp   1
                         Standard orientation:                         
 ---------------------------------------------------------------------
 Center     Atomic      Atomic             Coordinates (Angstroms)
 Number     Number       Type             X           Y           Z
 ---------------------------------------------------------------------
      1          6           0        1.461472   -2.012840   -0.000539
      2          6           0        2.494652   -1.080078   -0.000391
      3          6           0        2.188789    0.295776   -0.000081
      4          6           0        0.866232    0.713225    0.000089
      5          6           0       -0.186137   -0.226653   -0.000052
      6          6           0        0.137066   -1.592423   -0.000375
      7          8           0        3.780158   -1.498400   -0.000558
      8          6           0       -1.557248    0.270793    0.000140
      9          6           0       -2.695470   -0.450802    0.000457
     10          8           0        3.290102    1.104417    0.000026
     11          6           0        3.096663    2.509483    0.000481
     12          6           0       -4.075797    0.077351    0.000865
     13          8           0       -5.039658   -0.656250    0.002168
     14          8           0       -4.269399    1.423364   -0.001756
     15          1           0        1.716901   -3.067359   -0.000791
     16          1           0        0.630518    1.772640    0.000344
     17          1           0       -0.648180   -2.340635   -0.000516
     18          1           0        4.353529   -0.717367   -0.000406
     19          1           0       -1.620831    1.361881    0.000211
     20          1           0       -2.676035   -1.535623    0.000801
     21          1           0        4.093747    2.950881    0.000561
     22          1           0        2.554887    2.833923   -0.896850
     23          1           0        2.554988    2.833355    0.898078
     24          1           0       -3.430476    1.900265   -0.004047
 ---------------------------------------------------------------------
 Rotational constants (GHZ):      1.5441502      0.2849078      0.2409007
 Standard basis: 6-31+G(d,p) (6D, 7F)
 There are   316 symmetry adapted cartesian basis functions of A   symmetry.
 There are   316 symmetry adapted basis functions of A   symmetry.
   316 basis functions,   518 primitive gaussians,   316 cartesian basis functions
    51 alpha electrons       51 beta electrons
       nuclear repulsion energy       823.0277683615 Hartrees.
 NAtoms=   24 NActive=   24 NUniq=   24 SFac= 1.00D+00 NAtFMM=   60 NAOKFM=F Big=F
 Integral buffers will be    131072 words long.
 Raffenetti 2 integral format.
 Two-electron integral symmetry is turned on.
 Nuclear repulsion after empirical dispersion term =      823.0068399035 Hartrees.
 One-electron integrals computed using PRISM.
 NBasis=   316 RedAO= T EigKep=  1.47D-06  NBF=   316
 NBsUse=   315 1.00D-06 EigRej=  6.79D-07 NBFU=   315
 Initial guess from the checkpoint file:  "B3PW91D3FA.chk"
 B after Tr=    -0.000000    0.000000   -0.000000
         Rot=    1.000000    0.000004   -0.000004   -0.000112 Ang=   0.01 deg.
 Requested convergence on RMS density matrix=1.00D-08 within 128 cycles.
 Requested convergence on MAX density matrix=1.00D-06.
 Requested convergence on             energy=1.00D-06.
 No special actions if energy rises.
 SCF Done:  E(RB3PW91) =  -687.759313798     A.U. after   11 cycles
            NFock= 11  Conv=0.21D-08     -V/T= 2.0091
 Calling FoFJK, ICntrl=      2127 FMM=F ISym2X=0 I1Cent= 0 IOpClX= 0 NMat=1 NMatS=1 NMatT=0.
 ***** Axes restored to original set *****
 -------------------------------------------------------------------
 Center     Atomic                   Forces (Hartrees/Bohr)
 Number     Number              X              Y              Z
 -------------------------------------------------------------------
      1        6          -0.000159941   -0.000007575   -0.000000053
      2        6           0.000052647    0.000343559    0.000000038
      3        6           0.000246936   -0.000081068    0.000000095
      4        6          -0.000116391   -0.000136321   -0.000001016
      5        6           0.000022750    0.000093681   -0.000006154
      6        6          -0.000074909   -0.000052889    0.000000004
      7        8          -0.000003792    0.000110778    0.000000083
      8        6           0.000184280    0.000111409    0.000007512
      9        6           0.000029410   -0.000152940    0.000047012
     10        8          -0.000041939    0.000026659    0.000000764
     11        6           0.000044474   -0.000071384   -0.000000264
     12        6           0.000074696   -0.000031481   -0.000173661
     13        8          -0.000013560    0.000109309    0.000069055
     14        8          -0.000025599   -0.000032711    0.000047521
     15        1           0.000078680   -0.000000114   -0.000000005
     16        1           0.000036038   -0.000009124   -0.000000002
     17        1           0.000011978   -0.000012002   -0.000000354
     18        1          -0.000061384   -0.000116090    0.000000030
     19        1          -0.000078630   -0.000057565    0.000005480
     20        1          -0.000099059    0.000025839    0.000001779
     21        1           0.000002825   -0.000009735   -0.000000058
     22        1          -0.000024186   -0.000006484    0.000000147
     23        1          -0.000024043   -0.000006477   -0.000000091
     24        1          -0.000061279   -0.000037275    0.000002139
 -------------------------------------------------------------------
 Cartesian Forces:  Max     0.000343559 RMS     0.000080607

 GradGradGradGradGradGradGradGradGradGradGradGradGradGradGradGradGradGrad
 Berny optimization.
 Using GEDIIS/GDIIS optimizer.
 FormGI is forming the generalized inverse of G from B-inverse, IUseBI=4.
 GSVD:  received Info=                   1 from GESDD.
 Internal  Forces:  Max     0.000278518 RMS     0.000057317
 Search for a local minimum.
 Step number   2 out of a maximum of  115
 All quantities printed in internal units (Hartrees-Bohrs-Radians)
 Mixed Optimization -- En-DIIS/RFO-DIIS
 Swapping is turned off.
 Update second derivatives using D2CorX and points    1    2
 DE= -1.23D-05 DEPred=-1.17D-05 R= 1.05D+00
 TightC=F SS=  1.41D+00  RLast= 1.05D-02 DXNew= 5.0454D-01 3.1632D-02
 Trust test= 1.05D+00 RLast= 1.05D-02 DXMaxT set to 3.00D-01
 ITU=  1  0
     Eigenvalues ---    0.01062   0.01310   0.01456   0.01460   0.01789
     Eigenvalues ---    0.01989   0.02004   0.02065   0.02079   0.02112
     Eigenvalues ---    0.02126   0.02134   0.02136   0.02162   0.02195
     Eigenvalues ---    0.02209   0.02231   0.02332   0.02775   0.10119
     Eigenvalues ---    0.10678   0.13938   0.16000   0.16000   0.16000
     Eigenvalues ---    0.16000   0.16000   0.16000   0.16000   0.16000
     Eigenvalues ---    0.16475   0.21113   0.22038   0.22324   0.23434
     Eigenvalues ---    0.23926   0.24714   0.25000   0.25000   0.25000
     Eigenvalues ---    0.25000   0.26302   0.34019   0.34054   0.34517
     Eigenvalues ---    0.34775   0.34812   0.35315   0.35362   0.35394
     Eigenvalues ---    0.35429   0.37079   0.41344   0.42138   0.43139
     Eigenvalues ---    0.45183   0.45542   0.47306   0.48028   0.51614
     Eigenvalues ---    0.53148   0.53671   0.54326   0.54786   0.56860
     Eigenvalues ---    0.99223
 En-DIIS/RFO-DIIS IScMMF=        0 using points:     2    1
 RFO step:  Lambda=-7.21081632D-07.
 DidBck=F Rises=F RFO-DIIS coefs:    1.04311   -0.04311
 Iteration  1 RMS(Cart)=  0.00084631 RMS(Int)=  0.00000158
 Iteration  2 RMS(Cart)=  0.00000188 RMS(Int)=  0.00000085
 Iteration  3 RMS(Cart)=  0.00000000 RMS(Int)=  0.00000085
 Variable       Old X    -DE/DX   Delta X   Delta X   Delta X     New X
                                 (Linear)    (Quad)   (Total)
    R1        2.63039   0.00011  -0.00002   0.00021   0.00019   2.63058
    R2        2.62584  -0.00002  -0.00001  -0.00005  -0.00006   2.62578
    R3        2.05038   0.00002  -0.00002   0.00004   0.00002   2.05040
    R4        2.66346  -0.00028   0.00006  -0.00062  -0.00056   2.66290
    R5        2.55464  -0.00006   0.00002  -0.00010  -0.00008   2.55456
    R6        2.62081   0.00008  -0.00000   0.00017   0.00016   2.62098
    R7        2.58194  -0.00007  -0.00001  -0.00016  -0.00017   2.58178
    R8        2.66636  -0.00000  -0.00002  -0.00002  -0.00003   2.66632
    R9        2.05096  -0.00002  -0.00002  -0.00007  -0.00009   2.05087
   R10        2.65222  -0.00001  -0.00000  -0.00001  -0.00001   2.65221
   R11        2.75628  -0.00002  -0.00002  -0.00009  -0.00012   2.75616
   R12        2.04966   0.00000  -0.00001  -0.00001  -0.00002   2.04964
   R13        1.83096  -0.00013  -0.00002  -0.00028  -0.00030   1.83066
   R14        2.54675   0.00013  -0.00004   0.00021   0.00018   2.54693
   R15        2.06535  -0.00005   0.00000  -0.00015  -0.00015   2.06520
   R16        2.79286   0.00003   0.00003   0.00012   0.00015   2.79302
   R17        2.05034  -0.00003  -0.00001  -0.00010  -0.00012   2.05022
   R18        2.68024  -0.00010   0.00004  -0.00022  -0.00018   2.68006
   R19        2.06059  -0.00000   0.00001   0.00001   0.00001   2.06060
   R20        2.07353   0.00001   0.00005   0.00007   0.00012   2.07365
   R21        2.07353   0.00001   0.00005   0.00007   0.00012   2.07365
   R22        2.28899  -0.00006  -0.00001  -0.00007  -0.00008   2.28891
   R23        2.56978  -0.00005   0.00005  -0.00005   0.00000   2.56978
   R24        1.82359  -0.00007  -0.00001  -0.00015  -0.00016   1.82343
    A1        2.09985   0.00006   0.00003   0.00030   0.00032   2.10017
    A2        2.06751  -0.00010  -0.00007  -0.00069  -0.00077   2.06675
    A3        2.11582   0.00005   0.00005   0.00040   0.00044   2.11626
    A4        2.08641   0.00005  -0.00003   0.00016   0.00013   2.08654
    A5        2.09262  -0.00009  -0.00015  -0.00049  -0.00064   2.09198
    A6        2.10415   0.00003   0.00018   0.00034   0.00051   2.10467
    A7        2.09529  -0.00009   0.00000  -0.00041  -0.00041   2.09488
    A8        1.98539  -0.00000   0.00004   0.00006   0.00010   1.98549
    A9        2.20251   0.00009  -0.00004   0.00035   0.00031   2.20282
   A10        2.10686   0.00009  -0.00000   0.00039   0.00039   2.10725
   A11        2.09547  -0.00008  -0.00002  -0.00045  -0.00047   2.09499
   A12        2.08086  -0.00001   0.00002   0.00006   0.00008   2.08094
   A13        2.06742  -0.00001   0.00001  -0.00001  -0.00001   2.06741
   A14        2.06456   0.00005   0.00002   0.00023   0.00025   2.06481
   A15        2.15120  -0.00004  -0.00002  -0.00021  -0.00024   2.15097
   A16        2.11054  -0.00010  -0.00001  -0.00041  -0.00042   2.11013
   A17        2.07296   0.00003  -0.00002   0.00008   0.00006   2.07302
   A18        2.09968   0.00006   0.00003   0.00033   0.00036   2.10003
   A19        1.88945   0.00004   0.00014   0.00039   0.00053   1.88998
   A20        2.22853   0.00005  -0.00001   0.00023   0.00022   2.22876
   A21        1.97704   0.00006   0.00011   0.00053   0.00064   1.97768
   A22        2.07761  -0.00011  -0.00010  -0.00076  -0.00086   2.07675
   A23        2.21113  -0.00009  -0.00009  -0.00052  -0.00061   2.21052
   A24        2.11790   0.00015   0.00007   0.00096   0.00103   2.11894
   A25        1.95415  -0.00006   0.00002  -0.00044  -0.00042   1.95373
   A26        2.06733  -0.00003   0.00002  -0.00010  -0.00008   2.06725
   A27        1.85074  -0.00001  -0.00001  -0.00003  -0.00004   1.85070
   A28        1.93906  -0.00001   0.00004  -0.00006  -0.00002   1.93904
   A29        1.93906  -0.00001   0.00004  -0.00006  -0.00002   1.93904
   A30        1.90907   0.00002  -0.00002   0.00016   0.00014   1.90921
   A31        1.90908   0.00002  -0.00002   0.00016   0.00014   1.90921
   A32        1.91554  -0.00001  -0.00003  -0.00015  -0.00018   1.91536
   A33        2.12558   0.00007  -0.00005   0.00026   0.00020   2.12578
   A34        2.07909   0.00008   0.00007   0.00042   0.00049   2.07958
   A35        2.07851  -0.00016  -0.00002  -0.00067  -0.00070   2.07782
   A36        1.94486   0.00000   0.00021   0.00021   0.00041   1.94527
    D1       -0.00001  -0.00000  -0.00000  -0.00001  -0.00001  -0.00002
    D2       -3.14159  -0.00000   0.00000  -0.00001  -0.00001   3.14159
    D3        3.14158  -0.00000  -0.00000  -0.00000  -0.00000   3.14158
    D4       -0.00000  -0.00000   0.00000  -0.00000  -0.00000  -0.00001
    D5       -0.00000   0.00000  -0.00000   0.00001   0.00001   0.00000
    D6        3.14157   0.00000  -0.00000   0.00001   0.00001   3.14158
    D7       -3.14159  -0.00000   0.00000  -0.00000  -0.00000   3.14159
    D8       -0.00001  -0.00000  -0.00000  -0.00000  -0.00000  -0.00002
    D9        0.00001  -0.00000   0.00000  -0.00000  -0.00000   0.00001
   D10       -3.14158  -0.00000   0.00000  -0.00000  -0.00000  -3.14159
   D11       -3.14159   0.00000  -0.00000  -0.00000  -0.00000   3.14159
   D12       -0.00000  -0.00000  -0.00000  -0.00000  -0.00000  -0.00001
   D13       -3.14158   0.00000  -0.00000   0.00000   0.00000  -3.14158
   D14        0.00002   0.00000   0.00000   0.00000   0.00000   0.00003
   D15       -0.00001   0.00000  -0.00000   0.00002   0.00002   0.00001
   D16        3.14158  -0.00000  -0.00000  -0.00001  -0.00001   3.14157
   D17        3.14159   0.00000  -0.00000   0.00002   0.00002  -3.14157
   D18       -0.00001  -0.00000  -0.00000  -0.00000  -0.00000  -0.00002
   D19       -3.14148  -0.00000  -0.00000  -0.00001  -0.00001  -3.14148
   D20        0.00011  -0.00000  -0.00000  -0.00001  -0.00001   0.00010
   D21       -0.00001  -0.00000   0.00000  -0.00002  -0.00002  -0.00003
   D22        3.14159  -0.00000   0.00000  -0.00004  -0.00004   3.14155
   D23       -3.14159   0.00000   0.00000   0.00000   0.00000  -3.14159
   D24        0.00001  -0.00000   0.00000  -0.00001  -0.00001  -0.00000
   D25        0.00001   0.00000   0.00000   0.00001   0.00001   0.00002
   D26       -3.14157   0.00000   0.00000   0.00001   0.00001  -3.14155
   D27       -3.14159   0.00000  -0.00000   0.00003   0.00003  -3.14156
   D28        0.00002   0.00000   0.00000   0.00002   0.00003   0.00005
   D29       -3.14121   0.00000   0.00000   0.00002   0.00003  -3.14119
   D30        0.00017   0.00000   0.00000   0.00005   0.00006   0.00023
   D31        0.00038  -0.00000   0.00000   0.00001   0.00001   0.00040
   D32       -3.14142   0.00000   0.00000   0.00004   0.00004  -3.14137
   D33        3.14141   0.00001  -0.00000   0.00023   0.00022  -3.14155
   D34        0.00021   0.00001   0.00000   0.00025   0.00025   0.00046
   D35        0.00004   0.00001  -0.00000   0.00019   0.00019   0.00023
   D36       -3.14116   0.00001   0.00000   0.00022   0.00022  -3.14094
   D37       -3.14059   0.00005  -0.00002   0.00352   0.00349  -3.13709
   D38        0.00227  -0.00004   0.00005  -0.00245  -0.00241  -0.00014
   D39        0.00064   0.00005  -0.00003   0.00349   0.00347   0.00411
   D40       -3.13969  -0.00004   0.00004  -0.00248  -0.00244   3.14106
   D41        3.14152   0.00000   0.00000   0.00001   0.00001   3.14153
   D42       -1.06901   0.00001  -0.00001   0.00015   0.00014  -1.06887
   D43        1.06887  -0.00001   0.00001  -0.00013  -0.00012   1.06875
   D44        0.00040   0.00004  -0.00002   0.00284   0.00282   0.00322
   D45       -3.13996  -0.00004   0.00005  -0.00297  -0.00292   3.14030
         Item               Value     Threshold  Converged?
 Maximum Force            0.000279     0.000450     YES
 RMS     Force            0.000057     0.000300     YES
 Maximum Displacement     0.004165     0.001800     NO 
 RMS     Displacement     0.000846     0.001200     YES
 Predicted change in Energy=-1.029091D-06
 GradGradGradGradGradGradGradGradGradGradGradGradGradGradGradGradGradGrad

                          Input orientation:                          
 ---------------------------------------------------------------------
 Center     Atomic      Atomic             Coordinates (Angstroms)
 Number     Number       Type             X           Y           Z
 ---------------------------------------------------------------------
      1          6           0        1.461221   -2.013023   -0.000499
      2          6           0        2.494666   -1.080407   -0.000203
      3          6           0        2.189326    0.295261   -0.000047
      4          6           0        0.866654    0.712633   -0.000173
      5          6           0       -0.185994   -0.226905   -0.000443
      6          6           0        0.136797   -1.592770   -0.000617
      7          8           0        3.779777   -1.499805   -0.000083
      8          6           0       -1.557016    0.270606   -0.000515
      9          6           0       -2.695521   -0.450716   -0.000324
     10          8           0        3.290757    1.103592    0.000234
     11          6           0        3.097546    2.508593    0.000549
     12          6           0       -4.075449    0.078703   -0.000451
     13          8           0       -5.040079   -0.653803    0.004374
     14          8           0       -4.268497    1.424799   -0.000629
     15          1           0        1.717244   -3.067408   -0.000632
     16          1           0        0.631368    1.772097   -0.000030
     17          1           0       -0.648399   -2.341017   -0.000862
     18          1           0        4.354129   -0.719688    0.000136
     19          1           0       -1.621227    1.361578   -0.000574
     20          1           0       -2.677515   -1.535498    0.000345
     21          1           0        4.094722    2.949800    0.000797
     22          1           0        2.555849    2.833032   -0.896909
[...]
 0000024,-0.00002368,0.00010509,0.02427227,-0.00105790,-0.00012519,0.00
 000051,-0.00525754,-0.00053865,-0.00000021,0.00032213,0.03088310,0.000
 01116,-0.07170127,0.06161435,0.00002116,0.00857024,-0.02109608,-0.0000
 0658,-0.00342798,-0.00315233,-0.00000133,-0.00090291,0.00184267,0.0000
 0026,0.00076452,-0.00291412,-0.00000035,0.00014774,0.00040545,0.000000
 28,0.00193623,-0.00194347,-0.00000101,-0.00183541,0.00065114,0.0000003
 8,-0.00031700,-0.00009177,0.00000020,0.00023338,0.00010999,-0.00000025
 ,0.00010625,0.00001431,0.00000051,0.00006922,0.00003598,0.00000008,0.0
 7393188,-0.00029858,0.00066275,-0.00000377,0.00104885,0.00160053,0.000
 00452,0.00022974,-0.00630380,-0.00001184,0.06251603,-0.32741075,-0.000
 09153,0.00661194,-0.01653308,-0.00001068,-0.00409972,-0.00090940,0.000
 00337,0.00026889,-0.00049005,0.00000097,0.00256759,0.00041834,0.000002
 64,-0.00062523,0.00044736,-0.00000083,-0.00029246,-0.00061482,-0.00000
 003,-0.00165598,-0.00062102,-0.00000011,0.00015165,-0.00025076,0.00000
 103,-0.00005906,0.00002021,-0.00000090,-0.00001765,0.00016471,-0.00000
 073,0.00006928,-0.00007174,-0.00000056,-0.06334301,0.35027545,-0.00000
 074,0.00000081,-0.00106034,0.00000133,-0.00000226,0.00625852,0.0000000
 2,-0.00000449,0.00424813,0.00002118,-0.00009652,-0.03088136,0.00000125
 ,-0.00000692,0.00197544,-0.00000020,-0.00000210,0.00478611,-0.00000019
 ,0.00000025,-0.00061723,0.00000049,-0.00000017,-0.00402373,-0.00000087
 ,0.00000125,0.00018281,-0.00000016,0.00000088,-0.00329504,-0.00000106,
 -0.00000029,-0.00013655,0.00000110,-0.00000220,0.00031364,0.00000003,0
 .00000075,-0.00011604,-0.00000057,0.00000071,-0.00008929,-0.00000017,0
 .00000018,-0.00033598,-0.00002240,0.00010736,0.02193233,-0.01725343,-0
 .02197410,-0.00001147,-0.00312833,0.00341448,0.00000991,-0.00028566,0.
 00092681,-0.00001107,0.00046133,0.00193765,0.00000725,0.00959031,0.004
 58940,-0.00000473,-0.20792868,-0.14293220,-0.00003750,-0.00128648,-0.0
 0137944,0.00000072,-0.00092004,-0.00037411,0.00000250,-0.00057765,0.00
 184947,-0.00000094,0.00006334,-0.00027112,-0.00000123,-0.00001301,0.00
 010900,-0.00000002,-0.00031695,-0.00005877,0.00000146,0.00020619,0.000
 05207,-0.00000169,0.00014136,-0.00016008,-0.00000069,0.00070766,0.0002
 3613,-0.00000108,0.00030283,0.00044974,0.00000123,0.22218981,0.0093021
 3,0.00987742,-0.00000369,0.00250498,-0.00002310,0.00000531,0.00092406,
 -0.00034614,-0.00001069,0.00297193,-0.00466128,0.00000283,-0.02348584,
 -0.01470521,-0.00001123,-0.14444853,-0.19588696,-0.00004238,0.00040723
 ,0.00053448,0.00000125,-0.00160841,0.00033751,0.00000363,0.00056820,-0
 .00088815,-0.00000074,-0.00011808,0.00020841,-0.00000081,-0.00000045,-
 0.00008659,0.00000012,0.00038261,0.00035466,0.00000188,-0.00009170,0.0
 0005047,-0.00000126,-0.00032907,0.00036053,-0.00000213,-0.00009570,0.0
 0074436,0.00000085,-0.00117510,-0.00090266,0.00000051,0.15268535,0.204
 29233,0.00000422,0.00000329,0.00335646,0.00000106,-0.00000293,0.007431
 54,-0.00000007,0.00000004,-0.00098633,0.00000159,-0.00000236,0.0057902
 1,-0.00000920,-0.00000526,0.00236526,-0.00004419,-0.00005066,-0.034801
 98,0.00000039,0.00000016,0.00016714,0.00000174,0.00000187,-0.00355119,
 0.00000060,-0.00000404,0.00000086,0.00000002,0.00000012,-0.00044251,-0
 .00000016,0.00000007,-0.00021826,-0.00000091,-0.00000017,-0.00017676,0
 .00000032,0.00000051,-0.00013628,-0.00000072,0.00000138,0.00014715,-0.
 00000026,0.00000155,-0.00434154,-0.00000019,-0.00000056,0.00083771,0.0
 0004307,0.00005676,0.02351219,-0.00466408,0.00498781,0.00000006,-0.036
 44787,-0.03587254,-0.00000755,-0.00133637,-0.00158079,-0.00000341,-0.0
 0114440,-0.00118395,0.00000146,0.00092613,0.00007074,-0.00000181,-0.00
 044061,-0.00181734,0.00000143,-0.19517900,-0.18939501,-0.00005295,-0.0
 0074118,0.00025035,0.00000105,0.00073930,-0.00007970,-0.00000027,0.000
 02508,-0.00137411,-0.00000098,0.00109659,0.00140946,0.00000052,-0.0008
 5548,0.00035862,0.00000041,0.00046626,0.00008645,-0.00000078,0.0001683
 6,-0.00028200,0.00000014,0.00016624,0.00012769,-0.00000025,0.00034442,
 -0.00015269,0.00000027,-0.00036325,0.00022028,0.00000012,0.23713033,0.
 00540482,0.00011268,-0.00000159,0.00547952,0.01175689,0.00000509,0.010
 37731,0.00239438,-0.00000092,-0.00227353,-0.00058286,0.00000044,0.0014
 1726,-0.00080073,-0.00000065,-0.00122306,0.00090156,0.00000035,-0.2398
 7785,-0.35146292,-0.00010014,-0.00111448,0.00012836,0.00000057,0.00078
 544,-0.00000576,0.00000004,-0.00224764,0.00106199,0.00000117,-0.002046
 73,-0.00274955,-0.00000117,-0.00070862,0.00044544,-0.00000027,0.000321
 26,0.00002061,-0.00000020,0.00011886,-0.00032964,0.00000030,0.00012684
 ,0.00012172,0.00000021,0.00030755,-0.00008002,0.00000005,0.00020880,-0
 .00004020,0.00000007,0.22524567,0.33752640,0.00000159,-0.00000026,0.00
 215086,0.00000418,0.00000553,-0.00290258,0.00000210,-0.00000001,0.0015
 2187,-0.00000044,0.00000115,-0.00073238,-0.00000002,-0.00000140,0.0000
 3031,0.00000047,-0.00000036,0.00168440,-0.00006946,-0.00010220,-0.0072
 1885,-0.00000028,-0.00000015,-0.00008913,-0.00000050,0.00000054,-0.000
 04235,-0.00000052,0.00000071,-0.00132325,-0.00000087,-0.00000044,-0.00
 116639,0.00000029,-0.00000089,-0.00001379,0.00000024,0.00000021,-0.000
 01436,-0.00000022,0.00000034,-0.00000549,-0.00000012,0.00000018,-0.000
 59334,0.00000009,0.00000011,0.00020140,0.00000027,0.00000020,-0.000182
 12,0.00006288,0.00009615,0.00847740,0.00054279,0.00157660,0.00000131,0
 .00023479,-0.00017807,-0.00000061,-0.00008793,-0.00013130,0.00000056,0
 .00049465,0.00272386,-0.00000033,-0.00157726,0.02974304,0.00000053,-0.
 00581205,-0.00004851,-0.00000061,-0.00011829,-0.00011862,0.00000011,-0
 .05787089,0.01346613,-0.00000602,0.00612576,-0.02769476,0.00000791,-0.
 00006339,-0.00025485,-0.00000007,-0.00005411,0.00018285,0.,0.00008370,
 -0.00116792,-0.00000165,0.00067331,0.00070855,-0.00000294,-0.00250245,
 0.00023599,0.00000829,-0.00042754,0.00009954,0.00000017,-0.00088154,-0
 .00121102,-0.00000042,0.00015594,0.00000213,-0.00000017,-0.00002625,0.
 00004139,-0.00000002,0.06751870,-0.00030214,-0.00070891,-0.00000319,-0
 .00054161,0.00039659,0.00000394,0.00001137,-0.00025370,-0.00000626,-0.
 00229762,0.00112394,0.00000344,-0.00102120,-0.01297280,-0.00000396,0.0
 0236052,0.00127211,0.00000386,0.00052844,-0.00003088,0.00000076,0.0174
 7122,-0.31687481,-0.00000554,0.00141289,-0.01774743,0.00000248,0.00035
 099,0.00052468,-0.00000029,0.00008651,-0.00033906,0.00000007,0.0020658
 5,-0.00550311,0.00001380,-0.00023951,0.00178509,-0.00000412,0.00263497
 ,0.00422154,-0.00000596,0.00026024,-0.00004374,-0.00000049,0.00056743,
 0.00072309,0.00000134,-0.00018228,0.00011170,0.00000022,-0.00004153,-0
 .00006537,0.00000004,-0.01795392,0.34269178,0.00000152,0.00000112,-0.0
 0014899,-0.00000016,-0.00000132,0.00024273,0.00000046,-0.00000016,-0.0
 0011050,-0.00000132,0.00000114,-0.00126494,0.00000709,-0.00000268,0.00
 442554,-0.00000202,0.00000002,0.00281129,0.00000013,0.00000018,-0.0000
 4500,-0.00001860,-0.00003690,-0.04069925,0.00001423,0.00000698,0.00559
 583,-0.00000056,-0.00000029,0.00000937,-0.00000023,0.00000008,0.000060
 58,-0.00000727,0.00000179,-0.00755000,0.00000904,0.00000448,0.00120074
 ,-0.00001088,-0.00000432,-0.00037369,-0.00000028,0.00000021,-0.0003439
 9,-0.00000015,0.00000051,0.00037947,0.00000064,0.00000085,-0.00005767,
 0.00000018,-0.00000002,0.00002866,0.00001493,0.00000997,0.02340436,0.0
 0007332,0.00039772,-0.00000004,0.00002211,-0.00004794,0.00000028,-0.00
 017269,0.00015138,-0.00000003,0.00026887,0.00013869,-0.00000028,0.0000
 3685,0.00064770,-0.00000333,-0.00161853,-0.00123455,-0.00000014,0.0000
 1108,0.00007902,0.00000004,0.00623192,-0.02763890,0.00001157,-0.053965
 88,0.00390486,0.00001973,0.00022024,0.00024283,0.,0.00003236,-0.000143
 30,-0.00000015,0.00147794,0.03163069,-0.00002204,0.00037896,-0.0017568
 3,-0.00000410,-0.00602010,0.00333571,-0.00000342,-0.00003092,-0.000006
 02,0.00000003,0.00015893,0.00016892,0.00000012,-0.00169491,0.00141341,
 0.00000246,0.00000648,0.00000617,0.00000005,-0.00390172,-0.00263197,0.
 00000468,0.05912342,0.00006909,0.00041338,-0.00000226,-0.00004619,0.00
 004475,0.00000178,-0.00000955,-0.00021721,-0.00000309,-0.00025292,-0.0
 0011568,0.00000152,0.00128128,-0.00069011,-0.00000571,0.00058378,0.000
 24312,0.00000134,0.00019270,0.00000858,0.00000055,0.00040715,-0.012311
 48,0.00000833,0.00802548,-0.34583989,0.00015332,0.00007994,0.00018323,
 -0.00000014,0.00002168,-0.00010031,0.00000004,-0.00374834,-0.01231350,
 0.00001763,-0.00035666,0.00237786,-0.00000276,0.00234603,-0.00029136,0
 .00000070,-0.00001855,-0.00000838,-0.00000024,0.00003057,0.00011044,0.
 00000034,0.00088471,0.00070305,0.00000039,-0.00000819,-0.00002389,0.00
 000012,-0.00165176,0.00020764,0.00000802,-0.00775686,0.36692048,0.0000
 0018,-0.00000045,-0.00029682,-0.00000169,0.00000173,-0.00045630,0.0000
 0190,-0.00000322,0.00009097,-0.00000412,-0.00000106,-0.00018287,0.0000
 0524,-0.00000464,-0.00559344,0.00000134,0.00000414,-0.00026525,0.00000
 231,-0.00000067,0.00019824,-0.00001720,0.00000750,0.00438113,0.0000260
 1,0.00017870,-0.03616932,0.00000006,0.00000091,0.00004323,-0.00000004,
 -0.00000050,0.00002592,-0.00001741,-0.00000971,0.00183931,0.00000727,0
 .00000213,-0.00139392,0.00000206,0.00000891,0.00269987,0.00000013,0.00
 000003,0.00011109,-0.00000036,0.00000021,0.00013302,0.00000286,-0.0000
 0230,0.00127546,-0.00000014,-0.00000026,0.00004876,0.00000565,-0.00000
 226,0.01032278,-0.00000967,-0.00017580,0.02330952,-0.00013501,0.000014
 43,-0.00000201,0.00021854,0.00026510,0.00000300,0.00134425,0.00231998,
 -0.00000308,-0.00042623,0.00048316,0.00000216,0.00024838,-0.00009077,-
 0.00000222,-0.00005465,-0.00014887,0.00000215,0.00012549,-0.00018541,0
 .00000026,0.00011068,-0.00000061,0.00000071,-0.00012680,0.00000339,-0.
 00000055,0.00887773,0.00331182,0.00000054,-0.29321553,-0.10305239,-0.0
 0002695,0.00020529,-0.00007457,0.00000043,-0.00011921,-0.00001790,-0.0
 0000030,-0.00004969,0.00006826,-0.00000049,0.00001769,0.00001065,-0.00
 000026,0.00028884,-0.00047805,0.00000022,0.00000459,-0.00003842,0.0000
 0006,-0.00009646,0.00011903,0.00000020,0.00002846,0.00000551,0.0000002
 0,-0.00000003,0.00000198,0.00000021,0.30578291,0.00058964,-0.00040630,
 -0.00000126,-0.00235282,-0.00066227,0.00000142,0.00349990,-0.00442155,
 -0.00000481,0.00116804,-0.00051935,0.00000107,-0.00049212,0.00014166,-
 0.00000132,-0.00007976,0.00014488,0.00000142,0.00043829,0.00011056,0.0
 0000029,0.00013605,-0.00012938,0.00000032,-0.00017312,0.00003466,-0.00
 000032,-0.03554936,-0.03043496,-0.00000952,-0.08900238,-0.08184560,-0.
 00000765,0.00015824,-0.00010085,0.00000038,-0.00007981,-0.00000203,-0.
 00000024,-0.00003610,0.00008011,-0.00000030,-0.00013976,-0.00011419,-0
 .00000020,-0.00016893,0.00059973,0.00000059,-0.00002467,0.00003458,0.0
 0000004,-0.00020813,-0.00017011,-0.00000007,-0.00003127,0.00003013,0.0
 0000012,0.00001281,0.00000953,0.00000015,0.10710258,0.10726013,0.00000
 015,0.00000014,-0.00001441,-0.00000080,-0.00000068,0.00030290,0.000000
 98,-0.00000194,0.00059073,0.00000053,0.00000023,0.00026754,-0.00000032
 ,-0.00000060,0.00013592,0.00000023,0.00000005,-0.00003052,0.00000018,0
 .00000010,-0.00012401,0.,-0.00000015,0.00003858,-0.00000040,0.00000035
 ,0.00001435,-0.00001370,-0.00001192,0.00019607,-0.00002163,-0.00000691
 ,-0.05075793,0.00000032,-0.00000041,-0.00001107,0.00000002,0.00000005,
 0.00000186,-0.00000009,0.00000016,0.00000718,-0.00000011,-0.00000005,-
 0.00003845,-0.00000007,0.00000052,-0.00049347,0.00000010,0.00000011,-0
 .00002254,-0.00000002,-0.00000008,0.00016833,0.,0.00000003,-0.00001254
 ,0.00000002,0.00000002,-0.00000288,0.00002778,0.00001770,0.04637247,0.
 00027241,-0.00002792,-0.00003016,0.00034686,-0.00029201,-0.00017319,0.
 00039462,-0.00096252,0.00122630,0.00001528,0.00046214,0.00031772,-0.00
 014090,-0.00030766,-0.00042127,0.00004643,0.00040308,-0.00006762,-0.00
 030923,0.00015550,0.00009661,-0.00009239,0.00004631,0.00002206,0.00015
 867,-0.00001491,-0.00000303,-0.00042549,0.00703543,-0.00164222,-0.1146
 6957,0.03168979,-0.10597144,-0.00022636,0.00010495,0.00000052,0.000128
 14,0.00001205,0.00000115,0.00005830,-0.00009091,-0.00000191,0.00001667
 ,0.00002644,0.00000418,-0.00082961,-0.00088999,0.00111585,0.00000297,0
 .00001314,0.00007582,0.00013980,-0.00023391,-0.00013221,-0.00000344,-0
 .00001836,0.00000859,-0.00001033,-0.00000624,0.00000002,-0.01152875,0.
 00762385,-0.02458010,0.11831189,0.00076834,0.00023138,-0.00011638,0.00
 015379,-0.00175285,-0.00060806,0.00582327,0.00437647,0.00159494,-0.000
 69849,0.00051891,-0.00021421,-0.00051151,-0.00052931,-0.00028287,-0.00
 060179,0.00045756,-0.00006997,-0.00063426,-0.00027493,-0.00009484,0.00
 020896,-0.00010650,0.00002150,-0.00021783,0.00002134,-0.00001864,0.018
 35783,-0.03144062,0.02882677,0.02828942,-0.06400903,0.05009717,0.00019
 206,-0.00010100,0.00000891,-0.00009828,-0.00001217,-0.00000364,-0.0000
 3918,0.00008255,-0.00001076,-0.00001571,-0.00001723,0.00007539,-0.0009
 8932,-0.00041971,0.00099457,-0.00001902,0.00002007,0.00006024,-0.00042
 255,0.00088154,0.00034149,-0.00001709,0.00003243,0.00001409,0.00001126
 ,0.00000862,0.00000050,-0.00479788,0.00519694,-0.01048341,-0.03982998,
 0.08215972,-0.00011786,-0.00014036,-0.00002525,0.00031444,0.00037329,-
 0.00022617,-0.00121615,-0.00085981,0.00051019,-0.00072418,0.00097715,-
 0.00009389,0.00038928,-0.00029233,-0.00010062,0.00008241,-0.00003460,-
 0.00005620,0.00009075,-0.00013538,0.00004805,-0.00006615,0.00011339,0.
 00003042,0.00006340,-0.00002714,0.00000686,0.00256743,0.00499179,0.007
 38591,-0.10597872,0.05480774,-0.23169742,-0.00000650,0.00008705,-0.000
 00937,-0.00001685,-0.00003078,0.00000539,0.00000601,-0.00006575,0.0000
 1614,0.00001419,0.00001010,0.00001543,0.00078972,-0.00013696,-0.000159
 68,0.00001589,-0.00006100,0.00002566,0.00003925,-0.00012164,-0.0000221
 7,0.00005441,-0.00002956,-0.00001825,-0.00001600,-0.00001218,-0.000005
 63,0.00192389,-0.00113992,0.00170665,0.11596762,-0.06422758,0.24210809
 ,0.00027256,-0.00002823,0.00002930,0.00034693,-0.00029209,0.00017391,0
 .00039545,-0.00096121,-0.00122813,0.00001546,0.00046158,-0.00031686,-0
 .00014088,-0.00030759,0.00042048,0.00004610,0.00040315,0.00006854,-0.0
 0030940,0.00015558,-0.00009660,-0.00009237,0.00004635,-0.00002184,0.00
 015887,-0.00001527,0.00000305,-0.00042626,0.00703258,0.00164861,-0.114
 64833,0.03160445,0.10598480,-0.00022661,0.00010514,-0.00000075,0.00012
 814,0.00001206,-0.00000129,0.00005838,-0.00009096,0.00000233,0.0000167
 2,0.00002649,-0.00000410,-0.00082968,-0.00088890,-0.00111608,0.0000029
 6,0.00001323,-0.00007571,0.00013977,-0.00023396,0.00013226,-0.00000344
 ,-0.00001832,-0.00000854,-0.00001034,-0.00000623,-0.00000012,-0.011526
 12,0.00760519,0.02458690,0.00836974,-0.00491875,-0.01419146,0.11828803
 ,0.00076853,0.00023132,0.00011572,0.00015358,-0.00175235,0.00060825,0.
 00582171,0.00437773,-0.00159386,-0.00069831,0.00051835,0.00021518,-0.0
 0051120,-0.00052813,0.00028181,-0.00060179,0.00045764,0.00007115,-0.00
 063386,-0.00027510,0.00009484,0.00020915,-0.00010592,-0.00002143,-0.00
 021681,0.00002114,0.00001849,0.01835653,-0.03141565,-0.02885821,0.0282
 0431,-0.06392848,-0.04997157,0.00019163,-0.00009986,-0.00000871,-0.000
 09845,-0.00001263,0.00000364,-0.00003906,0.00008234,0.00001036,-0.0000
 1559,-0.00001728,-0.00007549,-0.00098897,-0.00041935,-0.00099441,-0.00
 001978,0.00001933,-0.00006022,-0.00042272,0.00088142,-0.00034089,-0.00
 001701,0.00003204,-0.00001399,0.00001121,0.00000841,-0.00000033,-0.004
 79553,0.00518782,0.01048675,-0.00492911,0.00469591,0.00593106,-0.03973
 520,0.08206139,0.00011787,0.00014192,-0.00002628,-0.00031410,-0.000375
 75,-0.00022414,0.00121881,0.00086214,0.00050696,0.00072373,-0.00097423
 ,-0.00009261,-0.00039024,0.00028889,-0.00010164,-0.00008155,0.00003465
 ,-0.00005472,-0.00009093,0.00013514,0.00004853,0.00006601,-0.00011406,
 0.00003071,-0.00006539,0.00002878,0.00000664,-0.00255149,-0.00502110,0
 .00735977,0.10598943,-0.05468316,-0.23180030,0.00000811,-0.00008889,-0
 .00000864,0.00001691,0.00003103,0.00000489,-0.00000641,0.00006634,0.00
 001592,-0.00001449,-0.00001023,0.00001513,-0.00079058,0.00013749,-0.00
 016009,-0.00001523,0.00006153,0.00002564,-0.00003933,0.00012251,-0.000
 02236,-0.00005437,0.00002975,-0.00001817,0.00001610,0.00001230,-0.0000
 0551,-0.00192612,0.00114209,0.00171374,0.01418477,-0.00591176,-0.01942
 455,-0.11598649,0.06410821,0.24223099,-0.00005692,-0.00026337,-0.00000
 038,-0.00021581,0.00011997,0.00000009,-0.00026562,-0.00018345,0.000000
 06,0.00008501,0.00007908,-0.00000020,-0.00120103,-0.00155538,0.0000027
 6,0.00055818,0.00005594,0.00000010,0.00027047,-0.00007532,0.,0.0010418
 1,0.00850715,-0.00000100,-0.00231381,0.00103369,-0.00000536,0.00027917
 ,0.00023261,-0.00000002,0.00000805,-0.00012520,-0.00000020,0.00483125,
 -0.00130926,-0.00002619,0.00395395,0.00410389,0.00000065,-0.41043953,-
 0.22000729,0.00159654,0.00007653,-0.00001909,0.00000004,-0.00013576,-0
 .00007028,-0.00000025,-0.00006089,-0.00001739,0.00000010,-0.00005382,-
 0.00000013,0.00000005,-0.00252782,-0.00250747,-0.00001168,-0.00061702,
 -0.00006292,-0.00000447,0.00002565,0.00000362,0.00000005,-0.00002572,0
 .00000673,0.00001516,-0.00002569,0.00000673,-0.00001502,0.40680939,-0.
 00021313,-0.00008235,0.00000055,0.00058174,-0.00024380,0.00000023,0.00
 019180,0.00057293,-0.00000051,0.00005104,0.00035095,0.00000180,0.00019
 070,0.00052163,-0.00000849,-0.00035141,-0.00008664,0.00000050,-0.00073
 173,0.00012332,0.00000012,0.00047272,-0.00004306,0.00000821,0.00062988
 ,-0.00044531,-0.00000914,-0.00040839,-0.00058953,-0.00000005,-0.000066
 68,0.00036743,0.00000023,-0.04469144,-0.01705990,0.00012457,0.00237887
 ,-0.01012582,0.00003753,-0.17103050,-0.14962734,0.00084724,-0.00004738
 ,0.00002778,-0.00000006,0.00006440,0.00000456,-0.00000024,0.00005194,-
 0.00010861,-0.00000053,0.00008419,0.00007807,-0.00000011,0.00169602,0.
 00138705,0.00001010,-0.00093601,0.00067272,-0.00000370,-0.00002550,-0.
 00002414,-0.00000005,0.00003085,-0.00002010,0.00002341,0.00003090,-0.0
 0002012,-0.00002358,0.21204715,0.17437027,0.00000053,-0.00000118,0.000
 04846,-0.00000172,0.00000057,0.00006128,-0.00000130,-0.00000133,-0.000
 07331,0.00000003,0.00000001,0.00003722,-0.00000386,-0.00001031,-0.0007
 5713,0.00000412,0.00000020,0.00000084,0.00000211,-0.00000052,-0.000027
 04,0.00001339,0.00002484,-0.00008761,-0.00001332,-0.00000953,-0.000286
 17,0.00000179,0.00000124,-0.00003593,-0.00000006,-0.00000068,0.0000864
 0,0.00012356,-0.00000149,-0.00740949,-0.00001264,0.00002950,0.00679806
 ,0.00146181,0.00098886,-0.00506280,0.00000046,-0.00000020,0.00000558,-
 0.00000087,-0.00000024,0.00012022,-0.00000026,0.00000040,-0.00001810,-
 0.00000029,-0.00000003,0.00001658,-0.00002666,-0.00000808,0.00216164,0
 .00000412,-0.00000420,-0.00010738,0.00000016,0.00000004,-0.00000849,0.
 00000194,0.00000654,-0.00001956,-0.00000223,-0.00000634,-0.00001988,-0
 .00155081,-0.00100805,0.00457660\\0.00004438,0.00001535,-0.00000007,0.
 00002670,0.00002242,-0.00000018,-0.00006413,0.00002683,0.,0.00003749,0
 .00001526,0.00000021,-0.00000900,-0.00007906,0.00000352,-0.00006855,0.
 00005607,0.00000056,-0.00000258,0.00002778,0.00000007,0.00001372,0.000
 02608,-0.00000637,0.00003543,-0.00007153,-0.00002719,0.00001901,-0.000
 02742,-0.00000034,0.00002954,-0.00002061,-0.00000002,-0.00000834,-0.00
 004815,0.00010640,0.00002880,0.00008678,-0.00004352,0.00001684,0.00001
 736,-0.00003248,0.00000388,0.00001666,0.00000005,0.00002523,-0.0000269
 7,-0.00000012,0.00001214,-0.00000631,0.00000049,-0.00000898,-0.0000632
 0,-0.00000009,-0.00003996,-0.00000867,-0.00000433,-0.00001255,0.000026
 14,-0.00000043,0.00001505,-0.00000854,0.00000003,-0.00002168,0.0000095
 8,-0.00002987,-0.00002178,0.00000955,0.00002991,-0.00005068,0.00000460
 ,0.00000376\\\@


 THE WISE MAN HAS THE POWER TO REASON AWAY
 WHAT A FOOL BELIEVES.
                     - DOOBIE BROTHERS
 Job cpu time:       0 days  1 hours 20 minutes 29.2 seconds.
 File lengths (MBytes):  RWF=    250 Int=      0 D2E=      0 Chk=      9 Scr=      1
 Normal termination of Gaussian 09 at Wed Dec 18 18:53:30 2024.
