 Entering Gaussian System, Link 0=g09
 Input=camb3lypD3FAyang.gjf
 Output=camb3lypD3FAyang.log
 Initial command:
 /home/c612/g09E/g09/l1.exe "/mnt/ja_sm883/scratch/Gau-1693392.inp" -scrdir="/mnt/ja_sm883/scratch/"
 Default is to use a total of  18 processors:
                               18 via shared-memory
                                1 via Linda
 Entering Link 1 = /home/c612/g09E/g09/l1.exe PID=   1693394.
  
 Copyright (c) 1988,1990,1992,1993,1995,1998,2003,2009,2015,
            Gaussian, Inc.  All Rights Reserved.
  
 This is part of the Gaussian(R) 09 program.  It is based on
 the Gaussian(R) 03 system (copyright 2003, Gaussian, Inc.),
 the Gaussian(R) 98 system (copyright 1998, Gaussian, Inc.),
 the Gaussian(R) 94 system (copyright 1995, Gaussian, Inc.),
 the Gaussian 92(TM) system (copyright 1992, Gaussian, Inc.),
 the Gaussian 90(TM) system (copyright 1990, Gaussian, Inc.),
 the Gaussian 88(TM) system (copyright 1988, Gaussian, Inc.),
 the Gaussian 86(TM) system (copyright 1986, Carnegie Mellon
 University), and the Gaussian 82(TM) system (copyright 1983,
 Carnegie Mellon University). Gaussian is a federally registered
 trademark of Gaussian, Inc.
  
 This software contains proprietary and confidential information,
 including trade secrets, belonging to Gaussian, Inc.
  
 This software is provided under written license and may be
 used, copied, transmitted, or stored only in accord with that
 written license.
  
 The following legend is applicable only to US Government
 contracts under FAR:
  
                    RESTRICTED RIGHTS LEGEND
  
 Use, reproduction and disclosure by the US Government is
 subject to restrictions as set forth in subparagraphs (a)
 and (c) of the Commercial Computer Software - Restricted
 Rights clause in FAR 52.227-19.
  
 Gaussian, Inc.
 340 Quinnipiac St., Bldg. 40, Wallingford CT 06492
  
  
 ---------------------------------------------------------------
 Warning -- This program may not be used in any manner that
 competes with the business of Gaussian, Inc. or will provide
 assistance to any competitor of Gaussian, Inc.  The licensee
 of this program is prohibited from giving any competitor of
 Gaussian, Inc. access to this program.  By using this program,
 the user acknowledges that Gaussian, Inc. is engaged in the
 business of creating and licensing software in the field of
 computational chemistry and represents and warrants to the
 licensee that it is not a competitor of Gaussian, Inc. and that
 it will not use this program in any manner prohibited above.
 ---------------------------------------------------------------
  

 Cite this work as:
 Gaussian 09, Revision E.01,
 M. J. Frisch, G. W. Trucks, H. B. Schlegel, G. E. Scuseria, 
 M. A. Robb, J. R. Cheeseman, G. Scalmani, V. Barone, B. Mennucci, 
 G. A. Petersson, H. Nakatsuji, M. Caricato, X. Li, H. P. Hratchian, 
 A. F. Izmaylov, J. Bloino, G. Zheng, J. L. Sonnenberg, M. Hada, 
 M. Ehara, K. Toyota, R. Fukuda, J. Hasegawa, M. Ishida, T. Nakajima, 
 Y. Honda, O. Kitao, H. Nakai, T. Vreven, J. A. Montgomery, Jr., 
 J. E. Peralta, F. Ogliaro, M. Bearpark, J. J. Heyd, E. Brothers, 
 K. N. Kudin, V. N. Staroverov, T. Keith, R. Kobayashi, J. Normand, 
 K. Raghavachari, A. Rendell, J. C. Burant, S. S. Iyengar, J. Tomasi, 
 M. Cossi, N. Rega, J. M. Millam, M. Klene, J. E. Knox, J. B. Cross, 
 V. Bakken, C. Adamo, J. Jaramillo, R. Gomperts, R. E. Stratmann, 
 O. Yazyev, A. J. Austin, R. Cammi, C. Pomelli, J. W. Ochterski, 
 R. L. Martin, K. Morokuma, V. G. Zakrzewski, G. A. Voth, 
 P. Salvador, J. J. Dannenberg, S. Dapprich, A. D. Daniels, 
 O. Farkas, J. B. Foresman, J. V. Ortiz, J. Cioslowski, 
 and D. J. Fox, Gaussian, Inc., Wallingford CT, 2013.
 
 ******************************************
 Gaussian 09:  ES64L-G09RevE.01 30-Nov-2015
                17-Dec-2024 
 ******************************************
 %chk=camb3lypD3FAyang.chk
 --------------------------------------------------------
 # opt freq cam-b3lyp/6-31+g(d,p) empiricaldispersion=gd3
 --------------------------------------------------------
 1/14=-1,18=20,19=15,26=3,38=1/1,3;
 2/9=110,12=2,17=6,18=5,40=1/2;
 3/5=1,6=6,7=111,11=2,16=1,25=1,30=1,71=1,74=-40,124=31/1,2,3;
 4//1;
 5/5=2,38=5/2;
 6/7=2,8=2,9=2,10=2,28=1/1;
 7//1,2,3,16;
 1/14=-1,18=20,19=15,26=3/3(2);
 2/9=110/2;
 99//99;
 2/9=110/2;
 3/5=1,6=6,7=111,11=2,16=1,25=1,30=1,71=1,74=-40,124=31/1,2,3;
 4/5=5,16=3,69=1/1;
 5/5=2,38=5/2;
 7//1,2,3,16;
 1/14=-1,18=20,19=15,26=3/3(-5);
 2/9=110/2;
 6/7=2,8=2,9=2,10=2,19=2,28=1/1;
 99/9=1/99;
 ----------
 [No Title]
 ----------
 Symbolic Z-matrix:
 Charge =  1 Multiplicity = 1
 C                     1.47536  -2.02797  -0.02226 
 C                     2.51505  -1.08565  -0.01126 
 C                     2.22907   0.30992   0.00469 
 C                     0.91936   0.73357   0.01093 
 C                    -0.14635  -0.21493   0.00223 
 C                     0.16664  -1.60024  -0.01701 
 O                     3.77214  -1.50434  -0.01718 
 C                    -1.47346   0.27253   0.00957 
 C                    -2.64626  -0.47068   0.01651 
 C                    -3.89482   0.13685  -0.00016 
 O                    -4.96297  -0.63038   0.1002 
 O                    -4.01246   1.44793  -0.12404 
 O                     3.34193   1.07535   0.01212 
 C                     3.20344   2.49592   0.02921 
 H                     1.73326  -3.08144  -0.0366 
 H                     0.68398   1.7926    0.02333 
 H                    -0.62549  -2.34071  -0.02827 
 H                     4.36974  -0.73639  -0.00878 
 H                    -1.58495   1.35587   0.00962 
 H                    -2.65752  -1.55342   0.03618 
 H                    -5.80289  -0.19408  -0.10601 
 H                    -4.88537   1.79808   0.10667 
 H                     4.21762   2.89256   0.03231 
 H                     2.67572   2.84195  -0.86593 
 H                     2.6786    2.82047   0.93405 
 

 GradGradGradGradGradGradGradGradGradGradGradGradGradGradGradGradGradGrad
 Berny optimization.
 Initialization pass.
                           ----------------------------
                           !    Initial Parameters    !
                           ! (Angstroms and Degrees)  !
 --------------------------                            --------------------------
 ! Name  Definition              Value          Derivative Info.                !
 --------------------------------------------------------------------------------
 ! R1    R(1,2)                  1.4032         estimate D2E/DX2                !
 ! R2    R(1,6)                  1.3769         estimate D2E/DX2                !
 ! R3    R(1,15)                 1.0847         estimate D2E/DX2                !
 ! R4    R(2,3)                  1.4247         estimate D2E/DX2                !
 ! R5    R(2,7)                  1.325          estimate D2E/DX2                !
 ! R6    R(3,4)                  1.3765         estimate D2E/DX2                !
 ! R7    R(3,13)                 1.3507         estimate D2E/DX2                !
 ! R8    R(4,5)                  1.4267         estimate D2E/DX2                !
 ! R9    R(4,16)                 1.0849         estimate D2E/DX2                !
 ! R10   R(5,6)                  1.4204         estimate D2E/DX2                !
 ! R11   R(5,8)                  1.4138         estimate D2E/DX2                !
 ! R12   R(6,17)                 1.0844         estimate D2E/DX2                !
 ! R13   R(7,18)                 0.9731         estimate D2E/DX2                !
 ! R14   R(8,9)                  1.3885         estimate D2E/DX2                !
 ! R15   R(8,19)                 1.0891         estimate D2E/DX2                !
 ! R16   R(9,10)                 1.3886         estimate D2E/DX2                !
 ! R17   R(9,20)                 1.083          estimate D2E/DX2                !
 ! R18   R(10,11)                1.319          estimate D2E/DX2                !
 ! R19   R(10,12)                1.3222         estimate D2E/DX2                !
 ! R20   R(11,21)                0.9687         estimate D2E/DX2                !
 ! R21   R(12,22)                0.9684         estimate D2E/DX2                !
 ! R22   R(13,14)                1.4274         estimate D2E/DX2                !
 ! R23   R(14,23)                1.089          estimate D2E/DX2                !
 ! R24   R(14,24)                1.0952         estimate D2E/DX2                !
 ! R25   R(14,25)                1.0952         estimate D2E/DX2                !
 ! A1    A(2,1,6)              119.7102         estimate D2E/DX2                !
 ! A2    A(2,1,15)             118.4344         estimate D2E/DX2                !
 ! A3    A(6,1,15)             121.8553         estimate D2E/DX2                !
 ! A4    A(1,2,3)              120.6096         estimate D2E/DX2                !
 ! A5    A(1,2,7)              119.388          estimate D2E/DX2                !
 ! A6    A(3,2,7)              120.0023         estimate D2E/DX2                !
 ! A7    A(2,3,4)              119.5064         estimate D2E/DX2                !
 ! A8    A(2,3,13)             112.9419         estimate D2E/DX2                !
 ! A9    A(4,3,13)             127.5517         estimate D2E/DX2                !
 ! A10   A(3,4,5)              120.4025         estimate D2E/DX2                !
 ! A11   A(3,4,16)             120.4566         estimate D2E/DX2                !
 ! A12   A(5,4,16)             119.1409         estimate D2E/DX2                !
 ! A13   A(4,5,6)              118.9405         estimate D2E/DX2                !
 ! A14   A(4,5,8)              118.1586         estimate D2E/DX2                !
 ! A15   A(6,5,8)              122.9007         estimate D2E/DX2                !
 ! A16   A(1,6,5)              120.8304         estimate D2E/DX2                !
 ! A17   A(1,6,17)             118.8267         estimate D2E/DX2                !
 ! A18   A(5,6,17)             120.3429         estimate D2E/DX2                !
 ! A19   A(2,7,18)             109.465          estimate D2E/DX2                !
 ! A20   A(5,8,9)              127.4693         estimate D2E/DX2                !
 ! A21   A(5,8,19)             116.0443         estimate D2E/DX2                !
 ! A22   A(9,8,19)             116.4864         estimate D2E/DX2                !
 ! A23   A(8,9,10)             121.6834         estimate D2E/DX2                !
 ! A24   A(8,9,20)             122.958          estimate D2E/DX2                !
 ! A25   A(10,9,20)            115.3586         estimate D2E/DX2                !
 ! A26   A(9,10,11)            118.2133         estimate D2E/DX2                !
 ! A27   A(9,10,12)            120.9953         estimate D2E/DX2                !
 ! A28   A(11,10,12)           120.7892         estimate D2E/DX2                !
 ! A29   A(10,11,21)           115.0877         estimate D2E/DX2                !
 ! A30   A(10,12,22)           114.6094         estimate D2E/DX2                !
 ! A31   A(3,13,14)            118.954          estimate D2E/DX2                !
 ! A32   A(13,14,23)           105.7926         estimate D2E/DX2                !
 ! A33   A(13,14,24)           110.5728         estimate D2E/DX2                !
 ! A34   A(13,14,25)           110.5667         estimate D2E/DX2                !
 ! A35   A(23,14,24)           109.633          estimate D2E/DX2                !
 ! A36   A(23,14,25)           109.6337         estimate D2E/DX2                !
 ! A37   A(24,14,25)           110.5309         estimate D2E/DX2                !
 ! D1    D(6,1,2,3)             -0.0287         estimate D2E/DX2                !
 ! D2    D(6,1,2,7)           -179.9607         estimate D2E/DX2                !
 ! D3    D(15,1,2,3)           179.8611         estimate D2E/DX2                !
 ! D4    D(15,1,2,7)            -0.0709         estimate D2E/DX2                !
 ! D5    D(2,1,6,5)             -0.1314         estimate D2E/DX2                !
 ! D6    D(2,1,6,17)           179.8427         estimate D2E/DX2                !
 ! D7    D(15,1,6,5)           179.9827         estimate D2E/DX2                !
 ! D8    D(15,1,6,17)           -0.0432         estimate D2E/DX2                !
 ! D9    D(1,2,3,4)              0.0785         estimate D2E/DX2                !
 ! D10   D(1,2,3,13)          -179.9282         estimate D2E/DX2                !
 ! D11   D(7,2,3,4)           -179.9899         estimate D2E/DX2                !
 ! D12   D(7,2,3,13)             0.0034         estimate D2E/DX2                !
 ! D13   D(1,2,7,18)           179.9551         estimate D2E/DX2                !
 ! D14   D(3,2,7,18)             0.0227         estimate D2E/DX2                !
 ! D15   D(2,3,4,5)              0.0317         estimate D2E/DX2                !
 ! D16   D(2,3,4,16)           179.9825         estimate D2E/DX2                !
 ! D17   D(13,3,4,5)          -179.9605         estimate D2E/DX2                !
 ! D18   D(13,3,4,16)           -0.0097         estimate D2E/DX2                !
 ! D19   D(2,3,13,14)         -179.9531         estimate D2E/DX2                !
 ! D20   D(4,3,13,14)            0.0396         estimate D2E/DX2                !
 ! D21   D(3,4,5,6)             -0.1869         estimate D2E/DX2                !
 ! D22   D(3,4,5,8)            179.9819         estimate D2E/DX2                !
 ! D23   D(16,4,5,6)           179.8617         estimate D2E/DX2                !
 ! D24   D(16,4,5,8)             0.0305         estimate D2E/DX2                !
 ! D25   D(4,5,6,1)              0.2384         estimate D2E/DX2                !
 ! D26   D(4,5,6,17)          -179.7353         estimate D2E/DX2                !
 ! D27   D(8,5,6,1)           -179.9389         estimate D2E/DX2                !
 ! D28   D(8,5,6,17)             0.0874         estimate D2E/DX2                !
 ! D29   D(4,5,8,9)           -179.3111         estimate D2E/DX2                !
 ! D30   D(4,5,8,19)             0.698          estimate D2E/DX2                !
 ! D31   D(6,5,8,9)              0.8648         estimate D2E/DX2                !
 ! D32   D(6,5,8,19)          -179.1261         estimate D2E/DX2                !
 ! D33   D(5,8,9,10)          -178.8596         estimate D2E/DX2                !
 ! D34   D(5,8,9,20)             1.2092         estimate D2E/DX2                !
 ! D35   D(19,8,9,10)            1.1313         estimate D2E/DX2                !
 ! D36   D(19,8,9,20)         -178.8            estimate D2E/DX2                !
 ! D37   D(8,9,10,11)         -175.4371         estimate D2E/DX2                !
 ! D38   D(8,9,10,12)            5.0986         estimate D2E/DX2                !
 ! D39   D(20,9,10,11)           4.4991         estimate D2E/DX2                !
 ! D40   D(20,9,10,12)        -174.9652         estimate D2E/DX2                !
 ! D41   D(9,10,11,21)        -167.3787         estimate D2E/DX2                !
 ! D42   D(12,10,11,21)         12.0867         estimate D2E/DX2                !
 ! D43   D(9,10,12,22)        -164.5976         estimate D2E/DX2                !
 ! D44   D(11,10,12,22)         15.9519         estimate D2E/DX2                !
 ! D45   D(3,13,14,23)        -179.9948         estimate D2E/DX2                !
 ! D46   D(3,13,14,24)         -61.3672         estimate D2E/DX2                !
 ! D47   D(3,13,14,25)          61.38           estimate D2E/DX2                !
 --------------------------------------------------------------------------------
 Trust Radius=3.00D-01 FncErr=1.00D-07 GrdErr=1.00D-06
 Number of steps in this run=    119 maximum allowed number of steps=    150.
 GradGradGradGradGradGradGradGradGradGradGradGradGradGradGradGradGradGrad

                          Input orientation:                          
 ---------------------------------------------------------------------
 Center     Atomic      Atomic             Coordinates (Angstroms)
 Number     Number       Type             X           Y           Z
 ---------------------------------------------------------------------
      1          6           0        1.475358   -2.027968   -0.022258
      2          6           0        2.515049   -1.085648   -0.011255
      3          6           0        2.229075    0.309918    0.004686
      4          6           0        0.919360    0.733574    0.010930
      5          6           0       -0.146346   -0.214926    0.002225
      6          6           0        0.166639   -1.600235   -0.017010
      7          8           0        3.772139   -1.504336   -0.017181
      8          6           0       -1.473460    0.272532    0.009566
      9          6           0       -2.646260   -0.470681    0.016512
     10          6           0       -3.894816    0.136847   -0.000158
     11          8           0       -4.962974   -0.630379    0.100200
     12          8           0       -4.012462    1.447929   -0.124040
     13          8           0        3.341929    1.075347    0.012116
     14          6           0        3.203441    2.495921    0.029208
     15          1           0        1.733260   -3.081436   -0.036596
     16          1           0        0.683984    1.792598    0.023333
     17          1           0       -0.625492   -2.340712   -0.028268
     18          1           0        4.369739   -0.736386   -0.008782
     19          1           0       -1.584954    1.355871    0.009620
     20          1           0       -2.657516   -1.553415    0.036175
     21          1           0       -5.802893   -0.194081   -0.106011
     22          1           0       -4.885369    1.798081    0.106668
     23          1           0        4.217623    2.892555    0.032307
     24          1           0        2.675720    2.841952   -0.865929
     25          1           0        2.678603    2.820471    0.934048
 ---------------------------------------------------------------------
                    Distance matrix (angstroms):
                    1          2          3          4          5
     1  C    0.000000
     2  C    1.403227   0.000000
     3  C    2.456527   1.424654   0.000000
     4  C    2.817153   2.419976   1.376545   0.000000
     5  C    2.432621   2.800243   2.432713   1.426695   0.000000
     6  C    1.376855   2.404134   2.811191   2.452353   1.420356
     7  O    2.355721   1.324994   2.381815   3.625932   4.125225
     8  C    3.740166   4.213465   3.702727   2.436832   1.413825
     9  C    4.406175   5.197891   4.937445   3.763497   2.513003
    10  C    5.790137   6.525411   6.126338   4.851030   3.764941
    11  O    6.589413   7.492698   7.253885   6.039055   4.835505
    12  O    6.496798   7.002866   6.345741   4.985117   4.210449
    13  O    3.621579   2.313909   1.350696   2.446559   3.719269
    14  C    4.842984   3.647349   2.393449   2.885000   4.309349
    15  H    1.084672   2.143596   3.427655   3.901153   3.428018
    16  H    3.901932   3.411495   2.141493   1.084937   2.172567
    17  H    2.124009   3.382081   3.895572   3.440834   2.179329
    18  H    3.169512   1.887290   2.382724   3.750505   4.546104
    19  H    4.562553   4.771947   3.954853   2.580474   2.130035
    20  H    4.160440   5.193889   5.229892   4.245586   2.845818
    21  H    7.506204   8.366124   8.048526   6.786966   5.657621
    22  H    7.423889   7.943298   7.269136   5.902306   5.149898
    23  H    5.633342   4.327442   3.259617   3.942105   5.357384
    24  H    5.086135   4.022726   2.714527   2.880788   4.249971
    25  H    5.086225   4.022203   2.714529   2.881358   4.249972
                    6          7          8          9         10
     6  C    0.000000
     7  O    3.606775   0.000000
     8  C    2.489556   5.538437   0.000000
     9  C    3.031405   6.501186   1.388479   0.000000
    10  C    4.417370   7.840661   2.425174   1.388618   0.000000
    11  O    5.221809   8.779509   3.605575   2.323719   1.318965
    12  O    5.173746   8.326302   2.801060   2.359518   1.322166
    13  O    4.152355   2.615474   4.881853   6.184548   7.297356
    14  C    5.099294   4.040746   5.178537   6.558955   7.480063
    15  H    2.156071   2.577722   4.640505   5.098927   6.483357
    16  H    3.432286   4.517534   2.639196   4.026537   4.869032
    17  H    1.084391   4.476473   2.747640   2.753638   4.102142
    18  H    4.290962   0.973110   5.929690   7.021074   8.310564
    19  H    3.436182   6.072886   1.089061   2.112513   2.611815
    20  H    2.825044   6.430064   2.176414   1.082971   2.095046
    21  H    6.133555   9.664673   4.356039   3.171096   1.939453
    22  H    6.089880   9.266809   3.738697   3.188890   1.937087
    23  H    6.049634   4.419678   6.265258   7.643592   8.567768
    24  H    5.171961   4.562097   4.958236   6.330538   7.158149
    25  H    5.172728   4.561207   4.958456   6.326746   7.161314
                   11         12         13         14         15
    11  O    0.000000
    12  O    2.296328   0.000000
    13  O    8.478719   7.365081   0.000000
    14  C    8.744663   7.293218   1.427411   0.000000
    15  H    7.132036   7.316838   4.457469   5.768247   0.000000
    16  H    6.145312   4.711382   2.753043   2.615791   4.986058
    17  H    4.664278   5.082769   5.235601   6.169040   2.472337
    18  H    9.333951   8.662898   2.083076   3.436496   3.528605
    19  H    3.919747   2.432927   4.934863   4.922278   5.540972
    20  H    2.484196   3.296910   6.550138   7.123762   4.649630
    21  H    0.968681   2.429437   9.233264   9.400449   8.070641
    22  H    2.429708   0.968400   8.259523   8.119226   8.224139
    23  H    9.833567   8.357373   2.017298   1.088987   6.470346
    24  H    8.446309   6.872080   2.082232   1.095216   6.054961
    25  H    8.425994   6.911857   2.082167   1.095227   6.055438
                   16         17         18         19         20
    16  H    0.000000
    17  H    4.336086   0.000000
    18  H    4.470076   5.246577   0.000000
    19  H    2.310627   3.819258   6.311596   0.000000
    20  H    4.728804   2.180163   7.074735   3.100813   0.000000
    21  H    6.785514   5.605314  10.187541   4.495190   3.429490
    22  H    5.569979   5.940906   9.596555   3.331322   4.025025
    23  H    3.700891   7.130674   3.632360   6.002650   8.187442
    24  H    2.420525   6.201587   4.050791   4.596560   6.969681
    25  H    2.421658   6.203298   4.049704   4.601906   6.957817
                   21         22         23         24         25
    21  H    0.000000
    22  H    2.203586   0.000000
    23  H   10.486048   9.168853   0.000000
    24  H    9.037801   7.694523   1.785176   0.000000
    25  H    9.061182   7.677468   1.785193   1.800107   0.000000
 Stoichiometry    C10H11O4(1+)
 Framework group  C1[X(C10H11O4)]
 Deg. of freedom    69
 Full point group                 C1      NOp   1
 Largest Abelian subgroup         C1      NOp   1
 Largest concise Abelian subgroup C1      NOp   1
                         Standard orientation:                         
 ---------------------------------------------------------------------
 Center     Atomic      Atomic             Coordinates (Angstroms)
 Number     Number       Type             X           Y           Z
 ---------------------------------------------------------------------
      1          6           0        1.475358   -2.027968   -0.022258
      2          6           0        2.515049   -1.085648   -0.011255
      3          6           0        2.229075    0.309918    0.004686
      4          6           0        0.919360    0.733574    0.010930
      5          6           0       -0.146346   -0.214926    0.002225
      6          6           0        0.166639   -1.600235   -0.017010
      7          8           0        3.772139   -1.504336   -0.017181
      8          6           0       -1.473460    0.272532    0.009566
      9          6           0       -2.646260   -0.470681    0.016512
     10          6           0       -3.894816    0.136847   -0.000158
     11          8           0       -4.962974   -0.630379    0.100200
     12          8           0       -4.012462    1.447929   -0.124040
     13          8           0        3.341929    1.075347    0.012116
     14          6           0        3.203441    2.495921    0.029208
     15          1           0        1.733260   -3.081436   -0.036596
     16          1           0        0.683984    1.792598    0.023333
     17          1           0       -0.625492   -2.340712   -0.028268
     18          1           0        4.369739   -0.736386   -0.008782
     19          1           0       -1.584954    1.355871    0.009620
     20          1           0       -2.657516   -1.553415    0.036175
     21          1           0       -5.802893   -0.194081   -0.106011
     22          1           0       -4.885369    1.798081    0.106668
     23          1           0        4.217623    2.892555    0.032307
     24          1           0        2.675720    2.841952   -0.865929
     25          1           0        2.678603    2.820471    0.934048
 ---------------------------------------------------------------------
 Rotational constants (GHZ):      1.5392713      0.2853975      0.2412416
 Standard basis: 6-31+G(d,p) (6D, 7F)
 There are   321 symmetry adapted cartesian basis functions of A   symmetry.
 There are   321 symmetry adapted basis functions of A   symmetry.
   321 basis functions,   525 primitive gaussians,   321 cartesian basis functions
    51 alpha electrons       51 beta electrons
       nuclear repulsion energy       839.6626037816 Hartrees.
 NAtoms=   25 NActive=   25 NUniq=   25 SFac= 1.00D+00 NAtFMM=   60 NAOKFM=F Big=F
 Integral buffers will be    131072 words long.
 Raffenetti 2 integral format.
 Two-electron integral symmetry is turned on.
 Nuclear repulsion after empirical dispersion term =      839.6491139820 Hartrees.
 One-electron integrals computed using PRISM.
 NBasis=   321 RedAO= T EigKep=  1.39D-06  NBF=   321
 NBsUse=   320 1.00D-06 EigRej=  6.54D-07 NBFU=   320
 ExpMin= 4.38D-02 ExpMax= 5.48D+03 ExpMxC= 8.25D+02 IAcc=2 IRadAn=         4 AccDes= 0.00D+00
 Harris functional with IExCor=20419 and IRadAn=       4 diagonalized for initial guess.
 HarFok:  IExCor=20419 AccDes= 0.00D+00 IRadAn=         4 IDoV= 1 UseB2=F ITyADJ=14
 ICtDFT=  3500011 ScaDFX=  1.000000  1.000000  1.000000  1.000000
 FoFCou: FMM=F IPFlag=           0 FMFlag=      100000 FMFlg1=           0
         NFxFlg=           0 DoJE=T BraDBF=F KetDBF=T FulRan=T
         wScrn=  0.000000 ICntrl=     500 IOpCl=  0 I1Cent=   200000004 NGrid=           0
         NMat0=    1 NMatS0=      1 NMatT0=    0 NMatD0=    1 NMtDS0=    0 NMtDT0=    0
 Petite list used in FoFCou.
 Requested convergence on RMS density matrix=1.00D-08 within 128 cycles.
 Requested convergence on MAX density matrix=1.00D-06.
 Requested convergence on             energy=1.00D-06.
 No special actions if energy rises.
 SCF Done:  E(RCAM-B3LYP) =  -688.054238792     A.U. after   16 cycles
            NFock= 16  Conv=0.54D-08     -V/T= 2.0090

 **********************************************************************

            Population analysis using the SCF density.

 **********************************************************************

 Orbital symmetries:
       Occupied  (A) (A) (A) (A) (A) (A) (A) (A) (A) (A) (A) (A)
                 (A) (A) (A) (A) (A) (A) (A) (A) (A) (A) (A) (A)
                 (A) (A) (A) (A) (A) (A) (A) (A) (A) (A) (A) (A)
                 (A) (A) (A) (A) (A) (A) (A) (A) (A) (A) (A) (A)
                 (A) (A) (A)
       Virtual   (A) (A) (A) (A) (A) (A) (A) (A) (A) (A) (A) (A)
                 (A) (A) (A) (A) (A) (A) (A) (A) (A) (A) (A) (A)
                 (A) (A) (A) (A) (A) (A) (A) (A) (A) (A) (A) (A)
                 (A) (A) (A) (A) (A) (A) (A) (A) (A) (A) (A) (A)
                 (A) (A) (A) (A) (A) (A) (A) (A) (A) (A) (A) (A)
                 (A) (A) (A) (A) (A) (A) (A) (A) (A) (A) (A) (A)
                 (A) (A) (A) (A) (A) (A) (A) (A) (A) (A) (A) (A)
                 (A) (A) (A) (A) (A) (A) (A) (A) (A) (A) (A) (A)
                 (A) (A) (A) (A) (A) (A) (A) (A) (A) (A) (A) (A)
                 (A) (A) (A) (A) (A) (A) (A) (A) (A) (A) (A) (A)
                 (A) (A) (A) (A) (A) (A) (A) (A) (A) (A) (A) (A)
                 (A) (A) (A) (A) (A) (A) (A) (A) (A) (A) (A) (A)
                 (A) (A) (A) (A) (A) (A) (A) (A) (A) (A) (A) (A)
                 (A) (A) (A) (A) (A) (A) (A) (A) (A) (A) (A) (A)
                 (A) (A) (A) (A) (A) (A) (A) (A) (A) (A) (A) (A)
                 (A) (A) (A) (A) (A) (A) (A) (A) (A) (A) (A) (A)
                 (A) (A) (A) (A) (A) (A) (A) (A) (A) (A) (A) (A)
                 (A) (A) (A) (A) (A) (A) (A) (A) (A) (A) (A) (A)
                 (A) (A) (A) (A) (A) (A) (A) (A) (A) (A) (A) (A)
                 (A) (A) (A) (A) (A) (A) (A) (A) (A) (A) (A) (A)
                 (A) (A) (A) (A) (A) (A) (A) (A) (A) (A) (A) (A)
                 (A) (A) (A) (A) (A) (A) (A) (A) (A) (A) (A) (A)
                 (A) (A) (A) (A) (A)
 The electronic state is 1-A.
 Alpha  occ. eigenvalues --  -19.47115 -19.46876 -19.40187 -19.39723 -10.60096
 Alpha  occ. eigenvalues --  -10.48638 -10.46866 -10.46482 -10.43473 -10.42756
 Alpha  occ. eigenvalues --  -10.42452 -10.42115 -10.42035 -10.40436  -1.40414
 Alpha  occ. eigenvalues --   -1.32482  -1.31103  -1.27910  -1.09720  -1.05823
 Alpha  occ. eigenvalues --   -0.99728  -0.98280  -0.93363  -0.90943  -0.87782
 Alpha  occ. eigenvalues --   -0.85882  -0.82657  -0.79602  -0.77575  -0.74937
 Alpha  occ. eigenvalues --   -0.72629  -0.71874  -0.71043  -0.69519  -0.67623
 Alpha  occ. eigenvalues --   -0.66109  -0.65075  -0.63576  -0.62681  -0.62583
 Alpha  occ. eigenvalues --   -0.62233  -0.60560  -0.59803  -0.58799  -0.57581
 Alpha  occ. eigenvalues --   -0.54858  -0.54035  -0.53951  -0.49718  -0.44168
 Alpha  occ. eigenvalues --   -0.40086
 Alpha virt. eigenvalues --   -0.21055  -0.13001  -0.09469  -0.09312  -0.07631
 Alpha virt. eigenvalues --   -0.06693  -0.06278  -0.05913  -0.04513  -0.04189
 Alpha virt. eigenvalues --   -0.03206  -0.03087  -0.02268  -0.02006  -0.01798
 Alpha virt. eigenvalues --   -0.00344  -0.00232   0.00737   0.00985   0.01713
 Alpha virt. eigenvalues --    0.02868   0.03208   0.04815   0.05505   0.05697
 Alpha virt. eigenvalues --    0.05842   0.06029   0.06556   0.06605   0.06980
 Alpha virt. eigenvalues --    0.07278   0.07557   0.08351   0.08555   0.09454
 Alpha virt. eigenvalues --    0.10185   0.10623   0.10860   0.11840   0.12045
 Alpha virt. eigenvalues --    0.12494   0.13160   0.13447   0.13879   0.14524
 Alpha virt. eigenvalues --    0.14840   0.15423   0.16336   0.16869   0.17017
 Alpha virt. eigenvalues --    0.17267   0.17682   0.17887   0.19024   0.19587
 Alpha virt. eigenvalues --    0.20155   0.20504   0.21044   0.21678   0.22377
 Alpha virt. eigenvalues --    0.22938   0.23372   0.23602   0.24546   0.25109
 Alpha virt. eigenvalues --    0.25809   0.26736   0.27084   0.27423   0.28223
 Alpha virt. eigenvalues --    0.29466   0.29691   0.30826   0.31295   0.32664
 Alpha virt. eigenvalues --    0.33297   0.34353   0.34970   0.37836   0.39334
 Alpha virt. eigenvalues --    0.41171   0.42270   0.44536   0.51135   0.54982
 Alpha virt. eigenvalues --    0.57693   0.57895   0.58719   0.59767   0.61456
 Alpha virt. eigenvalues --    0.62625   0.62876   0.63831   0.64955   0.65813
 Alpha virt. eigenvalues --    0.66315   0.66654   0.67996   0.69570   0.70318
 Alpha virt. eigenvalues --    0.70625   0.72373   0.76880   0.77687   0.79120
 Alpha virt. eigenvalues --    0.81543   0.83587   0.84082   0.84641   0.85562
 Alpha virt. eigenvalues --    0.87184   0.88831   0.89790   0.91732   0.95522
 Alpha virt. eigenvalues --    0.96072   0.98912   0.99446   1.00369   1.01986
 Alpha virt. eigenvalues --    1.03219   1.04414   1.05522   1.06877   1.08892
 Alpha virt. eigenvalues --    1.09534   1.10150   1.11197   1.11710   1.12739
 Alpha virt. eigenvalues --    1.14591   1.14918   1.15850   1.16495   1.17237
 Alpha virt. eigenvalues --    1.18168   1.19825   1.20923   1.21854   1.22780
 Alpha virt. eigenvalues --    1.23343   1.24645   1.24809   1.26448   1.28162
 Alpha virt. eigenvalues --    1.30223   1.30826   1.32631   1.33594   1.34013
 Alpha virt. eigenvalues --    1.35558   1.36554   1.38922   1.41009   1.44830
 Alpha virt. eigenvalues --    1.47733   1.49267   1.49769   1.52901   1.53185
 Alpha virt. eigenvalues --    1.55221   1.58221   1.62787   1.67910   1.70126
 Alpha virt. eigenvalues --    1.71278   1.74135   1.74335   1.76771   1.78239
 Alpha virt. eigenvalues --    1.80194   1.81074   1.83198   1.83778   1.83924
 Alpha virt. eigenvalues --    1.85184   1.86985   1.87502   1.90199   1.90962
 Alpha virt. eigenvalues --    1.91786   1.95716   1.97982   1.98044   1.99470
 Alpha virt. eigenvalues --    1.99734   2.02009   2.02755   2.07836   2.08674
 Alpha virt. eigenvalues --    2.10868   2.11922   2.15394   2.16706   2.18145
 Alpha virt. eigenvalues --    2.21468   2.21768   2.22651   2.26610   2.30117
 Alpha virt. eigenvalues --    2.31444   2.32431   2.32835   2.35928   2.39351
 Alpha virt. eigenvalues --    2.40741   2.42356   2.43231   2.43983   2.45733
 Alpha virt. eigenvalues --    2.47459   2.48574   2.49637   2.50688   2.51819
 Alpha virt. eigenvalues --    2.52735   2.55080   2.56870   2.58777   2.59598
 Alpha virt. eigenvalues --    2.60488   2.63049   2.64619   2.65569   2.66625
 Alpha virt. eigenvalues --    2.68861   2.69297   2.71244   2.76823   2.77908
 Alpha virt. eigenvalues --    2.80479   2.81371   2.81708   2.84152   2.89285
 Alpha virt. eigenvalues --    2.92100   2.96173   3.01945   3.04359   3.09243
 Alpha virt. eigenvalues --    3.12849   3.15061   3.17286   3.21675   3.27812
 Alpha virt. eigenvalues --    3.30180   3.34947   3.37242   3.38384   3.42215
 Alpha virt. eigenvalues --    3.44633   3.49209   3.49498   3.55708   3.75557
 Alpha virt. eigenvalues --    4.12223   4.18605   4.20953   4.26811   4.28505
 Alpha virt. eigenvalues --    4.32505   4.37676   4.40607   4.45255   4.46770
 Alpha virt. eigenvalues --    4.52857   4.60516   4.74290   5.03411
          Condensed to atoms (all electrons):
               1          2          3          4          5          6
     1  C   10.976200   0.733388  -1.612747  -1.035560  -0.076191  -2.535041
     2  C    0.733388  13.230042  -2.240323  -3.069207  -0.809201  -0.458149
     3  C   -1.612747  -2.240323  12.570870  -0.222620  -1.084368  -1.008615
     4  C   -1.035560  -3.069207  -0.222620  13.778019   1.220128  -1.471999
     5  C   -0.076191  -0.809201  -1.084368   1.220128   8.421588  -0.335566
     6  C   -2.535041  -0.458149  -1.008615  -1.471999  -0.335566  10.426858
     7  O   -0.404018   0.092419   0.280874   0.045921  -0.019807  -0.026315
     8  C   -0.166854  -0.676747  -0.380927  -1.926039  -0.474996   0.781666
     9  C   -0.230341  -0.204390  -0.497186  -1.563132  -0.241219   0.649897
    10  C   -0.175072  -0.003593   0.110571  -0.344239  -1.030250   0.057191
    11  O    0.001227   0.000447   0.001018   0.006997   0.016590  -0.002585
    12  O   -0.006817  -0.000747   0.001061  -0.016379  -0.003443  -0.001036
    13  O    0.023161  -0.746811   0.420502   0.251680   0.035859  -0.042933
    14  C    0.017418   0.035115  -0.198589   0.056892  -0.038090   0.010650
    15  H    0.262376   0.043962   0.028560   0.019305  -0.007888  -0.004466
    16  H   -0.021049   0.036503  -0.133599   0.320920   0.003747   0.010137
    17  H   -0.004958  -0.027270   0.003066   0.055260   0.110007   0.207819
    18  H    0.142521   0.140713  -0.259208  -0.041872   0.003210   0.000850
    19  H    0.013842   0.004690   0.017778   0.177978   0.034840  -0.025525
    20  H    0.017485  -0.002533   0.003240   0.020917   0.086367  -0.023066
    21  H    0.000262   0.000036  -0.000034   0.001049   0.000105   0.002037
    22  H   -0.000431  -0.000008   0.000361   0.004897   0.010302  -0.003791
    23  H    0.004284   0.059670   0.091650  -0.128662  -0.013987  -0.000042
    24  H   -0.004629  -0.025878  -0.119219   0.114957   0.017697   0.003726
    25  H   -0.003498  -0.031943  -0.123174   0.119766   0.026492   0.002104
               7          8          9         10         11         12
     1  C   -0.404018  -0.166854  -0.230341  -0.175072   0.001227  -0.006817
     2  C    0.092419  -0.676747  -0.204390  -0.003593   0.000447  -0.000747
     3  C    0.280874  -0.380927  -0.497186   0.110571   0.001018   0.001061
     4  C    0.045921  -1.926039  -1.563132  -0.344239   0.006997  -0.016379
     5  C   -0.019807  -0.474996  -0.241219  -1.030250   0.016590  -0.003443
     6  C   -0.026315   0.781666   0.649897   0.057191  -0.002585  -0.001036
     7  O    8.312349   0.008881   0.000471   0.000379   0.000000  -0.000000
     8  C    0.008881   9.432965  -2.001629   0.925130  -0.104381   0.079384
     9  C    0.000471  -2.001629  12.754429  -2.323295   0.287461  -0.097489
    10  C    0.000379   0.925130  -2.323295   7.842054  -0.073075   0.165182
    11  O    0.000000  -0.104381   0.287461  -0.073075   8.172933  -0.096333
    12  O   -0.000000   0.079384  -0.097489   0.165182  -0.096333   8.231384
    13  O   -0.018858  -0.018550  -0.002818  -0.000206   0.000001  -0.000006
    14  C    0.000471  -0.017049   0.001247  -0.001543  -0.000003  -0.000005
    15  H   -0.006119  -0.008600  -0.001324  -0.000201   0.000000  -0.000000
    16  H   -0.000536   0.075498   0.023211   0.001179   0.000000  -0.000095
    17  H   -0.000562  -0.026436  -0.021019   0.013040   0.000124   0.000032
    18  H    0.206335   0.000140   0.000121   0.000011   0.000000  -0.000000
    19  H   -0.000005   0.270830  -0.129518  -0.070214   0.000830  -0.005744
    20  H   -0.000003  -0.028911   0.338647  -0.090273  -0.010587   0.007961
    21  H   -0.000000   0.054315  -0.067682   0.027371   0.218769  -0.004747
    22  H   -0.000000   0.001208   0.041478  -0.032425  -0.005204   0.212987
    23  H   -0.000069  -0.002380  -0.000072   0.000003   0.000000  -0.000000
    24  H   -0.000179   0.005019   0.000525   0.000029  -0.000000   0.000001
    25  H   -0.000159   0.003277   0.000504  -0.000078  -0.000000  -0.000001
              13         14         15         16         17         18
     1  C    0.023161   0.017418   0.262376  -0.021049  -0.004958   0.142521
     2  C   -0.746811   0.035115   0.043962   0.036503  -0.027270   0.140713
     3  C    0.420502  -0.198589   0.028560  -0.133599   0.003066  -0.259208
     4  C    0.251680   0.056892   0.019305   0.320920   0.055260  -0.041872
     5  C    0.035859  -0.038090  -0.007888   0.003747   0.110007   0.003210
     6  C   -0.042933   0.010650  -0.004466   0.010137   0.207819   0.000850
     7  O   -0.018858   0.000471  -0.006119  -0.000536  -0.000562   0.206335
     8  C   -0.018550  -0.017049  -0.008600   0.075498  -0.026436   0.000140
     9  C   -0.002818   0.001247  -0.001324   0.023211  -0.021019   0.000121
    10  C   -0.000206  -0.001543  -0.000201   0.001179   0.013040   0.000011
    11  O    0.000001  -0.000003   0.000000   0.000000   0.000124   0.000000
    12  O   -0.000006  -0.000005  -0.000000  -0.000095   0.000032  -0.000000
    13  O    8.620658   0.060973  -0.000458  -0.011398   0.000118   0.039713
    14  C    0.060973   4.959008   0.000157  -0.000042   0.000136   0.003984
    15  H   -0.000458   0.000157   0.495036   0.000011  -0.004274  -0.000028
    16  H   -0.011398  -0.000042   0.000011   0.541858  -0.000109  -0.000019
    17  H    0.000118   0.000136  -0.004274  -0.000109   0.545252   0.000005
    18  H    0.039713   0.003984  -0.000028  -0.000019   0.000005   0.347723
    19  H    0.000084   0.000839   0.000001   0.003160  -0.000021   0.000000
    20  H    0.000002   0.000034   0.000005  -0.000001   0.000515   0.000000
    21  H    0.000000   0.000000   0.000000  -0.000000  -0.000000  -0.000000
    22  H   -0.000000   0.000005  -0.000000  -0.000000   0.000000   0.000000
    23  H   -0.061377   0.421145  -0.000000   0.000067  -0.000000  -0.000064
    24  H   -0.041600   0.408703   0.000000  -0.000691   0.000000   0.000034
    25  H   -0.041928   0.407510   0.000000  -0.000662   0.000000   0.000033
              19         20         21         22         23         24
     1  C    0.013842   0.017485   0.000262  -0.000431   0.004284  -0.004629
     2  C    0.004690  -0.002533   0.000036  -0.000008   0.059670  -0.025878
     3  C    0.017778   0.003240  -0.000034   0.000361   0.091650  -0.119219
     4  C    0.177978   0.020917   0.001049   0.004897  -0.128662   0.114957
     5  C    0.034840   0.086367   0.000105   0.010302  -0.013987   0.017697
     6  C   -0.025525  -0.023066   0.002037  -0.003791  -0.000042   0.003726
     7  O   -0.000005  -0.000003  -0.000000  -0.000000  -0.000069  -0.000179
     8  C    0.270830  -0.028911   0.054315   0.001208  -0.002380   0.005019
     9  C   -0.129518   0.338647  -0.067682   0.041478  -0.000072   0.000525
    10  C   -0.070214  -0.090273   0.027371  -0.032425   0.000003   0.000029
    11  O    0.000830  -0.010587   0.218769  -0.005204   0.000000  -0.000000
    12  O   -0.005744   0.007961  -0.004747   0.212987  -0.000000   0.000001
    13  O    0.000084   0.000002   0.000000  -0.000000  -0.061377  -0.041600
    14  C    0.000839   0.000034   0.000000   0.000005   0.421145   0.408703
    15  H    0.000001   0.000005   0.000000  -0.000000  -0.000000   0.000000
    16  H    0.003160  -0.000001  -0.000000  -0.000000   0.000067  -0.000691
    17  H   -0.000021   0.000515  -0.000000   0.000000  -0.000000   0.000000
    18  H    0.000000   0.000000  -0.000000   0.000000  -0.000064   0.000034
    19  H    0.528422   0.003249   0.000010  -0.000030   0.000000  -0.000002
    20  H    0.003249   0.506066   0.000112  -0.000170   0.000000  -0.000000
    21  H    0.000010   0.000112   0.371152   0.003361   0.000000  -0.000000
    22  H   -0.000030  -0.000170   0.003361   0.370080  -0.000000   0.000000
    23  H    0.000000   0.000000   0.000000  -0.000000   0.494140  -0.023698
    24  H   -0.000002  -0.000000  -0.000000   0.000000  -0.023698   0.540635
    25  H   -0.000001   0.000000   0.000000  -0.000000  -0.023666  -0.040019
              25
     1  C   -0.003498
     2  C   -0.031943
     3  C   -0.123174
     4  C    0.119766
     5  C    0.026492
     6  C    0.002104
     7  O   -0.000159
     8  C    0.003277
     9  C    0.000504
    10  C   -0.000078
    11  O   -0.000000
    12  O   -0.000001
    13  O   -0.041928
    14  C    0.407510
    15  H    0.000000
    16  H   -0.000662
    17  H    0.000000
    18  H    0.000033
    19  H   -0.000001
    20  H    0.000000
    21  H    0.000000
    22  H   -0.000000
    23  H   -0.023666
    24  H   -0.040019
    25  H    0.540947
 Mulliken charges:
               1
     1  C    0.085041
     2  C   -0.080184
     3  C    0.351057
     4  C   -0.374976
     5  C    0.148073
     6  C   -0.213805
     7  O   -0.471470
     8  C    0.195187
     9  C   -0.716878
    10  C    1.002323
    11  O   -0.414229
    12  O   -0.465151
    13  O   -0.465809
    14  C   -0.128966
    15  H    0.183946
    16  H    0.151909
    17  H    0.149276
    18  H    0.415798
    19  H    0.174506
    20  H    0.170943
    21  H    0.393883
    22  H    0.397380
    23  H    0.183057
    24  H    0.164589
    25  H    0.164497
 Sum of Mulliken charges =   1.00000
 Mulliken charges with hydrogens summed into heavy atoms:
               1
     1  C    0.268988
     2  C   -0.080184
     3  C    0.351057
     4  C   -0.223067
     5  C    0.148073
     6  C   -0.064529
     7  O   -0.055672
     8  C    0.369694
     9  C   -0.545935
    10  C    1.002323
    11  O   -0.020345
    12  O   -0.067771
    13  O   -0.465809
    14  C    0.383178
 Electronic spatial extent (au):  <R**2>=           4156.5005
 Charge=              1.0000 electrons
 Dipole moment (field-independent basis, Debye):
    X=             -8.3022    Y=              3.6525    Z=              0.0674  Tot=              9.0704
 Quadrupole moment (field-independent basis, Debye-Ang):
   XX=              8.3061   YY=            -62.4987   ZZ=            -83.1974
   XY=             -2.4727   XZ=              0.3248   YZ=              1.1756
 Traceless Quadrupole moment (field-independent basis, Debye-Ang):
   XX=             54.1028   YY=            -16.7021   ZZ=            -37.4007
   XY=             -2.4727   XZ=              0.3248   YZ=              1.1756
 Octapole moment (field-independent basis, Debye-Ang**2):
  XXX=           -341.1286  YYY=             21.9002  ZZZ=             -0.0715  XYY=              2.1459
  XXY=             99.5357  XXZ=             -3.1689  XZZ=             -4.0689  YZZ=              5.4757
  YYZ=              1.5227  XYZ=             -4.4692
 Hexadecapole moment (field-independent basis, Debye-Ang**3):
 XXXX=          -1391.8972 YYYY=           -796.2926 ZZZZ=            -94.7014 XXXY=           -249.2125
 XXXZ=             31.4400 YYYX=             27.5784 YYYZ=              3.7005 ZZZX=              0.6385
 ZZZY=             -0.0137 XXYY=           -686.9556 XXZZ=           -714.8875 YYZZ=           -176.7578
 XXYZ=             23.7934 YYXZ=             -5.9522 ZZXY=             -3.1420
 N-N= 8.396491139820D+02 E-N=-3.268985864449D+03  KE= 6.819063255038D+02
 Calling FoFJK, ICntrl=      2127 FMM=F ISym2X=0 I1Cent= 0 IOpClX= 0 NMat=1 NMatS=1 NMatT=0.
 ***** Axes restored to original set *****
 -------------------------------------------------------------------
 Center     Atomic                   Forces (Hartrees/Bohr)
 Number     Number              X              Y              Z
 -------------------------------------------------------------------
      1        6           0.000501585    0.002508061    0.000049725
      2        6          -0.004262882    0.000087190   -0.000000757
      3        6          -0.003907282   -0.003304493   -0.000043214
      4        6           0.002443383   -0.001638694   -0.000012982
      5        6           0.000380235   -0.001252351    0.000010310
      6        6           0.000812151    0.002394098   -0.000032576
      7        8          -0.001111260    0.001526454    0.000022267
      8        6          -0.000334605   -0.001298415   -0.000027490
      9        6          -0.001452089    0.000964173   -0.000027314
     10        6           0.003863369   -0.001766653   -0.000000365
     11        8           0.003179166    0.003617817   -0.000497839
     12        8          -0.000547848   -0.003902946    0.000514908
     13        8          -0.000076635    0.001524112    0.000012437
     14        6           0.000856440    0.000018872    0.000003850
     15        1           0.000043388    0.000878718    0.000014691
     16        1           0.000465056   -0.000823495   -0.000015524
     17        1           0.000487140    0.000555881    0.000017854
     18        1           0.000922306   -0.000560135   -0.000006681
     19        1          -0.000075086   -0.000514745   -0.000004134
     20        1           0.000186414    0.000888052    0.000036354
     21        1          -0.001268689   -0.000369246   -0.000019546
     22        1          -0.000567675    0.001216817    0.000016526
     23        1          -0.000693857   -0.000103978    0.000000282
     24        1           0.000080001   -0.000328845    0.000451471
     25        1           0.000077272   -0.000316249   -0.000462256
 -------------------------------------------------------------------
 Cartesian Forces:  Max     0.004262882 RMS     0.001393236

 GradGradGradGradGradGradGradGradGradGradGradGradGradGradGradGradGradGrad
 Berny optimization.
 FormGI is forming the generalized inverse of G from B-inverse, IUseBI=4.
 GSVD:  received Info=                   1 from GESDD.
 Internal  Forces:  Max     0.004959464 RMS     0.001270779
 Search for a local minimum.
 Step number   1 out of a maximum of  119
 All quantities printed in internal units (Hartrees-Bohrs-Radians)
 Mixed Optimization -- RFO/linear search
 Second derivative matrix not updated -- first step.
 ITU=  0
     Eigenvalues ---    0.01329   0.01797   0.01846   0.01906   0.01949
     Eigenvalues ---    0.02038   0.02074   0.02076   0.02137   0.02165
     Eigenvalues ---    0.02226   0.02239   0.02240   0.02241   0.02254
     Eigenvalues ---    0.02344   0.02494   0.02684   0.02721   0.02764
     Eigenvalues ---    0.10147   0.10701   0.16000   0.16000   0.16000
     Eigenvalues ---    0.16000   0.16000   0.16000   0.16000   0.16000
     Eigenvalues ---    0.16000   0.16000   0.16000   0.22000   0.22000
     Eigenvalues ---    0.22369   0.23477   0.24604   0.24999   0.25000
     Eigenvalues ---    0.25000   0.25000   0.25000   0.25000   0.34215
     Eigenvalues ---    0.34217   0.34921   0.34930   0.35404   0.35436
     Eigenvalues ---    0.35469   0.35638   0.39078   0.40404   0.41364
     Eigenvalues ---    0.42121   0.43404   0.44023   0.47305   0.47560
     Eigenvalues ---    0.47584   0.49711   0.52746   0.53647   0.53705
     Eigenvalues ---    0.54873   0.60704   0.61395   0.62190
 RFO step:  Lambda=-4.43472343D-04 EMin= 1.32918816D-02
 Linear search not attempted -- first point.
 Iteration  1 RMS(Cart)=  0.01068075 RMS(Int)=  0.00002312
 Iteration  2 RMS(Cart)=  0.00002480 RMS(Int)=  0.00000103
 Iteration  3 RMS(Cart)=  0.00000000 RMS(Int)=  0.00000103
 Variable       Old X    -DE/DX   Delta X   Delta X   Delta X     New X
                                 (Linear)    (Quad)   (Total)
    R1        2.65171  -0.00410   0.00000  -0.00914  -0.00914   2.64257
    R2        2.60188  -0.00283   0.00000  -0.00562  -0.00563   2.59625
    R3        2.04973  -0.00084   0.00000  -0.00238  -0.00238   2.04736
    R4        2.69221  -0.00375   0.00000  -0.00911  -0.00911   2.68310
    R5        2.50388  -0.00048   0.00000  -0.00080  -0.00080   2.50308
    R6        2.60129  -0.00496   0.00000  -0.01003  -0.01003   2.59126
    R7        2.55245   0.00065   0.00000   0.00118   0.00118   2.55363
    R8        2.69606  -0.00239   0.00000  -0.00572  -0.00572   2.69034
    R9        2.05023  -0.00091   0.00000  -0.00255  -0.00255   2.04768
   R10        2.68408  -0.00402   0.00000  -0.00933  -0.00933   2.67475
   R11        2.67174  -0.00320   0.00000  -0.00736  -0.00736   2.66438
   R12        2.04920  -0.00074   0.00000  -0.00207  -0.00207   2.04713
   R13        1.83891   0.00012   0.00000   0.00023   0.00023   1.83914
   R14        2.62384  -0.00322   0.00000  -0.00676  -0.00676   2.61709
   R15        2.05803  -0.00050   0.00000  -0.00144  -0.00144   2.05659
   R16        2.62411  -0.00471   0.00000  -0.00990  -0.00990   2.61421
   R17        2.04652  -0.00089   0.00000  -0.00249  -0.00249   2.04402
   R18        2.49248  -0.00348   0.00000  -0.00559  -0.00559   2.48689
   R19        2.49853  -0.00261   0.00000  -0.00425  -0.00425   2.49428
   R20        1.83054   0.00094   0.00000   0.00175   0.00175   1.83229
   R21        1.83001   0.00096   0.00000   0.00178   0.00178   1.83179
   R22        2.69742  -0.00076   0.00000  -0.00184  -0.00184   2.69557
   R23        2.05789  -0.00068   0.00000  -0.00195  -0.00195   2.05593
   R24        2.06966  -0.00051   0.00000  -0.00150  -0.00150   2.06816
   R25        2.06968  -0.00051   0.00000  -0.00150  -0.00150   2.06818
    A1        2.08934  -0.00028   0.00000  -0.00110  -0.00110   2.08824
    A2        2.06707  -0.00012   0.00000  -0.00104  -0.00104   2.06603
    A3        2.12678   0.00039   0.00000   0.00214   0.00214   2.12892
    A4        2.10504   0.00048   0.00000   0.00169   0.00169   2.10673
    A5        2.08371  -0.00016   0.00000  -0.00052  -0.00052   2.08320
    A6        2.09444  -0.00032   0.00000  -0.00117  -0.00117   2.09326
    A7        2.08578   0.00020   0.00000   0.00048   0.00048   2.08626
    A8        1.97121   0.00064   0.00000   0.00272   0.00271   1.97392
    A9        2.22620  -0.00084   0.00000  -0.00319  -0.00319   2.22301
   A10        2.10142  -0.00034   0.00000  -0.00155  -0.00155   2.09987
   A11        2.10236  -0.00011   0.00000  -0.00099  -0.00099   2.10138
   A12        2.07940   0.00046   0.00000   0.00254   0.00254   2.08194
   A13        2.07590   0.00029   0.00000   0.00156   0.00155   2.07746
   A14        2.06226   0.00040   0.00000   0.00139   0.00139   2.06365
   A15        2.14502  -0.00069   0.00000  -0.00295  -0.00295   2.14207
   A16        2.10889  -0.00035   0.00000  -0.00107  -0.00107   2.10782
   A17        2.07392   0.00025   0.00000   0.00101   0.00101   2.07493
   A18        2.10038   0.00010   0.00000   0.00006   0.00006   2.10044
   A19        1.91052   0.00197   0.00000   0.01229   0.01229   1.92282
   A20        2.22476  -0.00054   0.00000  -0.00246  -0.00246   2.22229
   A21        2.02535   0.00040   0.00000   0.00205   0.00205   2.02740
   A22        2.03307   0.00014   0.00000   0.00042   0.00042   2.03349
   A23        2.12378  -0.00187   0.00000  -0.00847  -0.00847   2.11531
   A24        2.14602   0.00075   0.00000   0.00311   0.00311   2.14913
   A25        2.01339   0.00111   0.00000   0.00536   0.00536   2.01875
   A26        2.06321   0.00087   0.00000   0.00350   0.00349   2.06671
   A27        2.11177   0.00043   0.00000   0.00172   0.00172   2.11348
   A28        2.10817  -0.00130   0.00000  -0.00521  -0.00521   2.10296
   A29        2.00866   0.00170   0.00000   0.01060   0.01060   2.01926
   A30        2.00031   0.00173   0.00000   0.01078   0.01078   2.01109
   A31        2.07614  -0.00018   0.00000  -0.00073  -0.00073   2.07541
   A32        1.84643   0.00043   0.00000   0.00318   0.00318   1.84961
   A33        1.92986  -0.00030   0.00000  -0.00215  -0.00216   1.92770
   A34        1.92975  -0.00030   0.00000  -0.00212  -0.00213   1.92763
   A35        1.91346   0.00011   0.00000   0.00124   0.00124   1.91469
   A36        1.91347   0.00011   0.00000   0.00124   0.00124   1.91471
   A37        1.92913  -0.00003   0.00000  -0.00115  -0.00116   1.92797
    D1       -0.00050   0.00000   0.00000   0.00009   0.00009  -0.00041
    D2       -3.14091   0.00000   0.00000   0.00011   0.00011  -3.14080
    D3        3.13917  -0.00000   0.00000  -0.00006  -0.00006   3.13910
    D4       -0.00124  -0.00000   0.00000  -0.00005  -0.00005  -0.00128
    D5       -0.00229  -0.00001   0.00000  -0.00066  -0.00066  -0.00295
    D6        3.13885   0.00000   0.00000   0.00007   0.00007   3.13892
    D7        3.14129  -0.00001   0.00000  -0.00049  -0.00049   3.14080
    D8       -0.00075   0.00001   0.00000   0.00024   0.00024  -0.00051
    D9        0.00137   0.00001   0.00000   0.00034   0.00034   0.00171
   D10       -3.14034   0.00000   0.00000   0.00019   0.00019  -3.14015
   D11       -3.14142   0.00001   0.00000   0.00033   0.00033  -3.14109
   D12        0.00006   0.00000   0.00000   0.00017   0.00017   0.00023
   D13        3.14081   0.00000   0.00000  -0.00000  -0.00000   3.14081
   D14        0.00040  -0.00000   0.00000   0.00001   0.00001   0.00041
   D15        0.00055  -0.00000   0.00000  -0.00021  -0.00021   0.00034
   D16        3.14129  -0.00000   0.00000  -0.00006  -0.00006   3.14123
   D17       -3.14090  -0.00000   0.00000  -0.00003  -0.00003  -3.14093
   D18       -0.00017   0.00000   0.00000   0.00012   0.00012  -0.00005
   D19       -3.14077   0.00000   0.00000   0.00008   0.00008  -3.14069
   D20        0.00069  -0.00000   0.00000  -0.00008  -0.00008   0.00061
   D21       -0.00326  -0.00001   0.00000  -0.00034  -0.00034  -0.00361
   D22        3.14128   0.00000   0.00000   0.00020   0.00020   3.14148
   D23        3.13918  -0.00001   0.00000  -0.00049  -0.00049   3.13868
   D24        0.00053   0.00000   0.00000   0.00005   0.00005   0.00058
   D25        0.00416   0.00002   0.00000   0.00079   0.00079   0.00495
   D26       -3.13697   0.00000   0.00000   0.00004   0.00004  -3.13693
   D27       -3.14053   0.00001   0.00000   0.00023   0.00023  -3.14030
   D28        0.00153  -0.00001   0.00000  -0.00052  -0.00052   0.00101
   D29       -3.12957  -0.00001   0.00000  -0.00040  -0.00040  -3.12996
   D30        0.01218   0.00001   0.00000   0.00027   0.00027   0.01245
   D31        0.01509   0.00000   0.00000   0.00016   0.00016   0.01526
   D32       -3.12634   0.00002   0.00000   0.00083   0.00083  -3.12551
   D33       -3.12169   0.00002   0.00000   0.00104   0.00104  -3.12065
   D34        0.02110   0.00002   0.00000   0.00085   0.00085   0.02196
   D35        0.01974   0.00001   0.00000   0.00038   0.00038   0.02012
   D36       -3.12065   0.00000   0.00000   0.00019   0.00019  -3.12046
   D37       -3.06195  -0.00003   0.00000  -0.00134  -0.00134  -3.06329
   D38        0.08899  -0.00005   0.00000  -0.00210  -0.00210   0.08688
   D39        0.07852  -0.00003   0.00000  -0.00116  -0.00116   0.07736
   D40       -3.05372  -0.00004   0.00000  -0.00193  -0.00193  -3.05565
   D41       -2.92131  -0.00002   0.00000  -0.00071  -0.00071  -2.92202
   D42        0.21095   0.00000   0.00000   0.00009   0.00009   0.21104
   D43       -2.87277   0.00000   0.00000   0.00010   0.00010  -2.87267
   D44        0.27841  -0.00002   0.00000  -0.00073  -0.00073   0.27768
   D45       -3.14150  -0.00000   0.00000  -0.00011  -0.00011   3.14157
   D46       -1.07106   0.00022   0.00000   0.00208   0.00207  -1.06898
   D47        1.07128  -0.00023   0.00000  -0.00232  -0.00232   1.06896
         Item               Value     Threshold  Converged?
 Maximum Force            0.004959     0.000450     NO 
 RMS     Force            0.001271     0.000300     NO 
 Maximum Displacement     0.045447     0.001800     NO 
 RMS     Displacement     0.010690     0.001200     NO 
 Predicted change in Energy=-2.220359D-04
 GradGradGradGradGradGradGradGradGradGradGradGradGradGradGradGradGradGrad

                          Input orientation:                          
 ---------------------------------------------------------------------
 Center     Atomic      Atomic             Coordinates (Angstroms)
 Number     Number       Type             X           Y           Z
 ---------------------------------------------------------------------
      1          6           0        1.469668   -2.023358   -0.022260
      2          6           0        2.505127   -1.083570   -0.011380
      3          6           0        2.221511    0.307558    0.004564
      4          6           0        0.917473    0.731500    0.011359
      5          6           0       -0.145899   -0.215074    0.002933
      6          6           0        0.163954   -1.596015   -0.016984
      7          8           0        3.761889   -1.501904   -0.017462
      8          6           0       -1.470070    0.269094    0.010558
      9          6           0       -2.636923   -0.476803    0.017308
     10          6           0       -3.878006    0.134051   -0.000334
     11          8           0       -4.950002   -0.622977    0.097687
     12          8           0       -3.991627    1.443411   -0.122201
     13          8           0        3.333567    1.075253    0.011682
     14          6           0        3.191710    2.494513    0.028882
     15          1           0        1.729096   -3.075155   -0.036682
     16          1           0        0.684996    1.789779    0.023854
     17          1           0       -0.628428   -2.334621   -0.028072
     18          1           0        4.368830   -0.741156   -0.009207
     19          1           0       -1.585293    1.351276    0.010391
     20          1           0       -2.647275   -1.558220    0.037281
     21          1           0       -5.791998   -0.188014   -0.107217
     22          1           0       -4.861320    1.805648    0.105927
     23          1           0        4.202684    2.896464    0.031842
     24          1           0        2.661220    2.836625   -0.865156
     25          1           0        2.664493    2.815089    0.932795
 ---------------------------------------------------------------------
                    Distance matrix (angstroms):
                    1          2          3          4          5
     1  C    0.000000
     2  C    1.398390   0.000000
     3  C    2.449318   1.419835   0.000000
     4  C    2.809856   2.411564   1.371236   0.000000
     5  C    2.424991   2.789701   2.424413   1.423669   0.000000
     6  C    1.373878   2.396606   2.803141   2.446614   1.415416
     7  O    2.350790   1.324572   2.376426   3.616576   4.114262
     8  C    3.728065   4.199091   3.691786   2.431909   1.409931
     9  C    4.388336   5.177806   4.921359   3.754167   2.504778
    10  C    5.766500   6.498239   6.101987   4.832567   3.748403
    11  O    6.571729   7.470140   7.232232   6.022402   4.822320
    12  O    6.469484   6.971781   6.317383   4.962250   4.189971
    13  O    3.616167   2.312437   1.351323   2.440425   3.711025
    14  C    4.835205   3.643584   2.392624   2.877617   4.299090
    15  H    1.083415   2.137586   3.418614   3.892513   3.420123
    16  H    3.893308   3.401507   2.135001   1.083585   2.170313
    17  H    2.121067   3.374103   3.886429   3.434015   2.174000
    18  H    3.170071   1.894899   2.389763   3.752466   4.545293
    19  H    4.552144   4.760303   3.947295   2.578365   2.127290
    20  H    4.143564   5.174447   5.214142   4.236852   2.839384
    21  H    7.490494   8.345867   8.029597   6.773225   5.647239
    22  H    7.399941   7.913651   7.240238   5.878536   5.131191
    23  H    5.628229   4.327152   3.260096   3.934476   5.347213
    24  H    5.074416   4.015125   2.710338   2.870624   4.236314
    25  H    5.074476   4.014525   2.710269   2.870969   4.236134
                    6          7          8          9         10
     6  C    0.000000
     7  O    3.599166   0.000000
     8  C    2.479803   5.523641   0.000000
     9  C    3.016409   6.480497   1.384903   0.000000
    10  C    4.396686   7.813107   2.411745   1.383380   0.000000
    11  O    5.206966   8.756873   3.593510   2.319086   1.316007
    12  O    5.149566   8.294749   2.784762   2.354125   1.319918
    13  O    4.145231   2.612671   4.870813   6.168927   7.272743
    14  C    5.089385   4.037153   5.165754   6.542310   7.453424
    15  H    2.153582   2.570552   4.628271   5.080992   6.460644
    16  H    3.425895   4.506013   2.637606   4.021515   4.854175
    17  H    1.083296   4.468603   2.736638   2.736349   4.081039
    18  H    4.290901   0.973233   5.925685   7.010789   8.293153
    19  H    3.427410   6.060839   1.088299   2.108992   2.595821
    20  H    2.812006   6.409645   2.173845   1.081651   2.092820
    21  H    6.120782   9.644228   4.347630   3.170710   1.943840
    22  H    6.069579   9.236604   3.724335   3.188318   1.942275
    23  H    6.041200   4.420676   6.251693   7.626229   8.539878
    24  H    5.157909   4.555534   4.942331   6.310932   7.128345
    25  H    5.158741   4.554525   4.942390   6.307114   7.131829
                   11         12         13         14         15
    11  O    0.000000
    12  O    2.288404   0.000000
    13  O    8.456293   7.335662   0.000000
    14  C    8.718427   7.261404   1.426435   0.000000
    15  H    7.116290   7.290502   4.450006   5.758884   0.000000
    16  H    6.130257   4.691707   2.743286   2.603899   4.976082
    17  H    4.649898   5.059002   5.227449   6.157697   2.471109
    18  H    9.320194   8.641895   2.090825   3.443344   3.523706
    19  H    3.902123   2.411745   4.926598   4.911934   5.529981
    20  H    2.486137   3.292795   6.535006   7.107634   4.632406
    21  H    0.969606   2.429631   9.213356   9.376647   8.056514
    22  H    2.430258   0.969341   8.227911   8.082807   8.202204
    23  H    9.806247   8.323571   2.018064   1.087953   6.464021
    24  H    8.415855   6.837646   2.079261   1.094424   6.041884
    25  H    8.396323   6.877387   2.079215   1.094434   6.042336
                   16         17         18         19         20
    16  H    0.000000
    17  H    4.328794   0.000000
    18  H    4.469604   5.245195   0.000000
    19  H    2.312289   3.808269   6.311120   0.000000
    20  H    4.723696   2.163981   7.063674   3.097369   0.000000
    21  H    6.773500   5.592553  10.176345   4.481029   3.433312
    22  H    5.546946   5.922597   9.575757   3.308766   4.027693
    23  H    3.687675   7.120919   3.641644   5.990722   8.171057
    24  H    2.406592   6.185812   4.055749   4.583199   6.950479
    25  H    2.407455   6.187577   4.054505   4.588492   6.938490
                   21         22         23         24         25
    21  H    0.000000
    22  H    2.210493   0.000000
    23  H   10.460737   9.129706   0.000000
    24  H    9.009984   7.654705   1.784461   0.000000
    25  H    9.033964   7.638098   1.784480   1.798083   0.000000
 Stoichiometry    C10H11O4(1+)
 Framework group  C1[X(C10H11O4)]
 Deg. of freedom    69
 Full point group                 C1      NOp   1
 Largest Abelian subgroup         C1      NOp   1
 Largest concise Abelian subgroup C1      NOp   1
                         Standard orientation:                         
 ---------------------------------------------------------------------
 Center     Atomic      Atomic             Coordinates (Angstroms)
 Number     Number       Type             X           Y           Z
 ---------------------------------------------------------------------
      1          6           0        1.468706   -2.023635   -0.022273
      2          6           0        2.504346   -1.084047   -0.011393
      3          6           0        2.220999    0.307136    0.004551
      4          6           0        0.917043    0.731329    0.011347
      5          6           0       -0.146512   -0.215039    0.002920
      6          6           0        0.163074   -1.596040   -0.016996
      7          8           0        3.761028   -1.502623   -0.017475
      8          6           0       -1.470589    0.269384    0.010546
      9          6           0       -2.637587   -0.476288    0.017295
     10          6           0       -3.878552    0.134805   -0.000347
     11          8           0       -4.950694   -0.622017    0.097675
     12          8           0       -3.991921    1.444186   -0.122213
     13          8           0        3.333202    1.074617    0.011670
     14          6           0        3.191619    2.493904    0.028869
     15          1           0        1.727931   -3.075482   -0.036695
     16          1           0        0.684770    1.789653    0.023841
     17          1           0       -0.629449   -2.334494   -0.028085
     18          1           0        4.368115   -0.741992   -0.009219
     19          1           0       -1.585604    1.351588    0.010379
     20          1           0       -2.648147   -1.557703    0.037269
     21          1           0       -5.792606   -0.186891   -0.107230
     22          1           0       -4.861543    1.806591    0.105915
     23          1           0        4.202671    2.895661    0.031830
     24          1           0        2.661195    2.836118   -0.865169
     25          1           0        2.664464    2.814582    0.932783
 ---------------------------------------------------------------------
 Rotational constants (GHZ):      1.5444845      0.2873495      0.2427598
 Standard basis: 6-31+G(d,p) (6D, 7F)
 There are   321 symmetry adapted cartesian basis functions of A   symmetry.
 There are   321 symmetry adapted basis functions of A   symmetry.
   321 basis functions,   525 primitive gaussians,   321 cartesian basis functions
    51 alpha electrons       51 beta electrons
       nuclear repulsion energy       841.7226236700 Hartrees.
 NAtoms=   25 NActive=   25 NUniq=   25 SFac= 1.00D+00 NAtFMM=   60 NAOKFM=F Big=F
 Integral buffers will be    131072 words long.
 Raffenetti 2 integral format.
 Two-electron integral symmetry is turned on.
 Nuclear repulsion after empirical dispersion term =      841.7091293322 Hartrees.
 One-electron integrals computed using PRISM.
 NBasis=   321 RedAO= T EigKep=  1.34D-06  NBF=   321
 NBsUse=   320 1.00D-06 EigRej=  6.35D-07 NBFU=   320
 Initial guess from the checkpoint file:  "camb3lypD3FAyang.chk"
 B after Tr=    -0.000000   -0.000000   -0.000000
         Rot=    1.000000   -0.000050    0.000003    0.000124 Ang=  -0.02 deg.
 ExpMin= 4.38D-02 ExpMax= 5.48D+03 ExpMxC= 8.25D+02 IAcc=2 IRadAn=         4 AccDes= 0.00D+00
 Harris functional with IExCor=20419 and IRadAn=       4 diagonalized for initial guess.
 HarFok:  IExCor=20419 AccDes= 0.00D+00 IRadAn=         4 IDoV= 1 UseB2=F ITyADJ=14
 ICtDFT=  3500011 ScaDFX=  1.000000  1.000000  1.000000  1.000000
 FoFCou: FMM=F IPFlag=           0 FMFlag=      100000 FMFlg1=           0
         NFxFlg=           0 DoJE=T BraDBF=F KetDBF=T FulRan=T
         wScrn=  0.000000 ICntrl=     500 IOpCl=  0 I1Cent=   200000004 NGrid=           0
         NMat0=    1 NMatS0=      1 NMatT0=    0 NMatD0=    1 NMtDS0=    0 NMtDT0=    0
 Petite list used in FoFCou.
 Requested convergence on RMS density matrix=1.00D-08 within 128 cycles.
 Requested convergence on MAX density matrix=1.00D-06.
 Requested convergence on             energy=1.00D-06.
 No special actions if energy rises.
 SCF Done:  E(RCAM-B3LYP) =  -688.054436119     A.U. after   12 cycles
            NFock= 12  Conv=0.58D-08     -V/T= 2.0088
 Calling FoFJK, ICntrl=      2127 FMM=F ISym2X=0 I1Cent= 0 IOpClX= 0 NMat=1 NMatS=1 NMatT=0.
 ***** Axes restored to original set *****
 -------------------------------------------------------------------
 Center     Atomic                   Forces (Hartrees/Bohr)
 Number     Number              X              Y              Z
 -------------------------------------------------------------------
      1        6           0.000547550   -0.000433749   -0.000004810
      2        6           0.000264491    0.000140166    0.000000890
      3        6          -0.000030706   -0.000382765   -0.000000208
      4        6          -0.000072596    0.000401540    0.000004607
      5        6           0.000210621   -0.000044008   -0.000003329
      6        6          -0.000468483    0.000133147    0.000008814
      7        8           0.000367797   -0.000080764    0.000000363
      8        6           0.000031736    0.000344430   -0.000038943
      9        6          -0.000138717   -0.000550913    0.000023759
     10        6          -0.001238253    0.000215591    0.000077127
     11        8           0.000218955    0.000489965   -0.000205794
     12        8          -0.000254698   -0.000111189    0.000105279
     13        8           0.000581089    0.000633197    0.000002644
     14        6          -0.000031196   -0.000416839   -0.000003052
     15        1           0.000094435   -0.000049697   -0.000003127
     16        1          -0.000092094   -0.000016645    0.000001565
     17        1           0.000057992   -0.000050418   -0.000007634
     18        1          -0.000428207   -0.000249392   -0.000002492
     19        1          -0.000009187   -0.000060436    0.000018620
     20        1          -0.000003044    0.000092913    0.000011776
     21        1           0.000174623   -0.000177986    0.000125452
     22        1           0.000246903   -0.000112557   -0.000114748
     23        1          -0.000006931   -0.000050879   -0.000000122
     24        1          -0.000011019    0.000168776   -0.000022794
     25        1          -0.000011059    0.000168513    0.000026155
 -------------------------------------------------------------------
 Cartesian Forces:  Max     0.001238253 RMS     0.000263043

 GradGradGradGradGradGradGradGradGradGradGradGradGradGradGradGradGradGrad
 Berny optimization.
 Using GEDIIS/GDIIS optimizer.
 FormGI is forming the generalized inverse of G from B-inverse, IUseBI=4.
 GSVD:  received Info=                   1 from GESDD.
 Internal  Forces:  Max     0.000961613 RMS     0.000242793
 Search for a local minimum.
 Step number   2 out of a maximum of  119
 All quantities printed in internal units (Hartrees-Bohrs-Radians)
 Mixed Optimization -- En-DIIS/RFO-DIIS
 Update second derivatives using D2CorX and points    1    2
 DE= -1.97D-04 DEPred=-2.22D-04 R= 8.89D-01
 TightC=F SS=  1.41D+00  RLast= 3.69D-02 DXNew= 5.0454D-01 1.1059D-01
 Trust test= 8.89D-01 RLast= 3.69D-02 DXMaxT set to 3.00D-01
 ITU=  1  0
 Use linear search instead of GDIIS.
     Eigenvalues ---    0.01329   0.01797   0.01846   0.01906   0.01949
     Eigenvalues ---    0.02038   0.02074   0.02076   0.02136   0.02164
     Eigenvalues ---    0.02225   0.02239   0.02240   0.02241   0.02254
     Eigenvalues ---    0.02344   0.02493   0.02684   0.02721   0.02763
     Eigenvalues ---    0.10197   0.10687   0.15613   0.16000   0.16000
     Eigenvalues ---    0.16000   0.16000   0.16000   0.16000   0.16000
     Eigenvalues ---    0.16000   0.16000   0.16283   0.21871   0.22339
     Eigenvalues ---    0.22374   0.23554   0.24618   0.24794   0.25000
     Eigenvalues ---    0.25000   0.25000   0.25000   0.25188   0.34216
     Eigenvalues ---    0.34230   0.34876   0.34927   0.35368   0.35436
     Eigenvalues ---    0.35457   0.35597   0.39024   0.40489   0.41262
     Eigenvalues ---    0.42025   0.43631   0.44401   0.47063   0.47554
     Eigenvalues ---    0.48650   0.51899   0.53206   0.53672   0.54069
     Eigenvalues ---    0.56884   0.60647   0.60761   0.61798
 RFO step:  Lambda=-9.04014071D-06 EMin= 1.32918718D-02
 Quartic linear search produced a step of -0.10113.
 Iteration  1 RMS(Cart)=  0.00232297 RMS(Int)=  0.00000076
 Iteration  2 RMS(Cart)=  0.00000101 RMS(Int)=  0.00000011
 Iteration  3 RMS(Cart)=  0.00000000 RMS(Int)=  0.00000011
 Variable       Old X    -DE/DX   Delta X   Delta X   Delta X     New X
                                 (Linear)    (Quad)   (Total)
    R1        2.64257   0.00011   0.00092  -0.00090   0.00002   2.64260
    R2        2.59625   0.00076   0.00057   0.00069   0.00126   2.59751
    R3        2.04736   0.00007   0.00024  -0.00011   0.00013   2.04749
    R4        2.68310   0.00034   0.00092  -0.00039   0.00053   2.68363
    R5        2.50308   0.00005   0.00008  -0.00003   0.00005   2.50313
    R6        2.59126   0.00068   0.00101   0.00001   0.00103   2.59229
    R7        2.55363   0.00071  -0.00012   0.00131   0.00120   2.55483
    R8        2.69034   0.00049   0.00058   0.00036   0.00094   2.69129
    R9        2.04768   0.00000   0.00026  -0.00030  -0.00005   2.04763
   R10        2.67475   0.00033   0.00094  -0.00043   0.00052   2.67527
   R11        2.66438   0.00096   0.00074   0.00109   0.00184   2.66622
   R12        2.04713  -0.00001   0.00021  -0.00027  -0.00006   2.04707
   R13        1.83914  -0.00046  -0.00002  -0.00076  -0.00079   1.83836
   R14        2.61709   0.00091   0.00068   0.00090   0.00159   2.61867
   R15        2.05659  -0.00006   0.00015  -0.00033  -0.00018   2.05641
   R16        2.61421   0.00090   0.00100   0.00050   0.00150   2.61571
   R17        2.04402  -0.00009   0.00025  -0.00054  -0.00029   2.04373
   R18        2.48689  -0.00051   0.00057  -0.00142  -0.00085   2.48604
   R19        2.49428  -0.00022   0.00043  -0.00084  -0.00041   2.49388
   R20        1.83229  -0.00026  -0.00018  -0.00022  -0.00039   1.83190
   R21        1.83179  -0.00029  -0.00018  -0.00027  -0.00045   1.83134
   R22        2.69557  -0.00013   0.00019  -0.00051  -0.00032   2.69525
   R23        2.05593  -0.00002   0.00020  -0.00030  -0.00011   2.05583
   R24        2.06816   0.00008   0.00015   0.00002   0.00017   2.06833
   R25        2.06818   0.00008   0.00015   0.00001   0.00017   2.06835
    A1        2.08824   0.00001   0.00011  -0.00016  -0.00004   2.08819
    A2        2.06603  -0.00008   0.00011  -0.00057  -0.00046   2.06556
    A3        2.12892   0.00008  -0.00022   0.00073   0.00051   2.12943
    A4        2.10673  -0.00001  -0.00017   0.00013  -0.00004   2.10669
    A5        2.08320  -0.00025   0.00005  -0.00095  -0.00090   2.08230
    A6        2.09326   0.00026   0.00012   0.00081   0.00093   2.09419
    A7        2.08626   0.00000  -0.00005   0.00004  -0.00001   2.08625
    A8        1.97392   0.00002  -0.00027   0.00043   0.00015   1.97408
    A9        2.22301  -0.00002   0.00032  -0.00047  -0.00015   2.22286
   A10        2.09987   0.00010   0.00016   0.00021   0.00037   2.10024
   A11        2.10138   0.00005   0.00010   0.00021   0.00031   2.10169
   A12        2.08194  -0.00014  -0.00026  -0.00042  -0.00068   2.08126
   A13        2.07746  -0.00023  -0.00016  -0.00063  -0.00078   2.07667
   A14        2.06365   0.00004  -0.00014   0.00030   0.00016   2.06380
   A15        2.14207   0.00019   0.00030   0.00033   0.00063   2.14270
   A16        2.10782   0.00013   0.00011   0.00040   0.00051   2.10832
   A17        2.07493  -0.00014  -0.00010  -0.00057  -0.00068   2.07425
   A18        2.10044   0.00001  -0.00001   0.00018   0.00017   2.10061
   A19        1.92282  -0.00033  -0.00124  -0.00032  -0.00157   1.92125
   A20        2.22229   0.00047   0.00025   0.00161   0.00186   2.22416
   A21        2.02740  -0.00022  -0.00021  -0.00062  -0.00082   2.02658
   A22        2.03349  -0.00025  -0.00004  -0.00099  -0.00104   2.03245
   A23        2.11531   0.00025   0.00086  -0.00002   0.00084   2.11614
   A24        2.14913  -0.00012  -0.00031  -0.00010  -0.00042   2.14871
   A25        2.01875  -0.00013  -0.00054   0.00012  -0.00042   2.01833
   A26        2.06671  -0.00006  -0.00035   0.00020  -0.00016   2.06655
   A27        2.11348   0.00006  -0.00017   0.00044   0.00027   2.11375
   A28        2.10296  -0.00000   0.00053  -0.00064  -0.00012   2.10285
   A29        2.01926   0.00016  -0.00107   0.00222   0.00115   2.02041
   A30        2.01109   0.00001  -0.00109   0.00137   0.00028   2.01137
   A31        2.07541   0.00023   0.00007   0.00075   0.00082   2.07623
   A32        1.84961  -0.00017  -0.00032  -0.00069  -0.00101   1.84860
   A33        1.92770   0.00021   0.00022   0.00102   0.00123   1.92894
   A34        1.92763   0.00021   0.00021   0.00102   0.00124   1.92886
   A35        1.91469  -0.00007  -0.00012  -0.00040  -0.00053   1.91417
   A36        1.91471  -0.00007  -0.00013  -0.00040  -0.00053   1.91418
   A37        1.92797  -0.00012   0.00012  -0.00056  -0.00044   1.92753
    D1       -0.00041  -0.00000  -0.00001  -0.00002  -0.00003  -0.00044
    D2       -3.14080  -0.00000  -0.00001  -0.00001  -0.00002  -3.14082
    D3        3.13910  -0.00000   0.00001  -0.00010  -0.00009   3.13901
    D4       -0.00128  -0.00000   0.00000  -0.00009  -0.00008  -0.00137
    D5       -0.00295   0.00000   0.00007  -0.00002   0.00005  -0.00290
    D6        3.13892  -0.00000  -0.00001  -0.00013  -0.00014   3.13878
    D7        3.14080   0.00000   0.00005   0.00006   0.00011   3.14091
    D8       -0.00051  -0.00000  -0.00002  -0.00005  -0.00008  -0.00059
    D9        0.00171  -0.00000  -0.00003   0.00002  -0.00001   0.00170
   D10       -3.14015   0.00000  -0.00002   0.00003   0.00002  -3.14013
   D11       -3.14109  -0.00000  -0.00003   0.00001  -0.00003  -3.14112
   D12        0.00023  -0.00000  -0.00002   0.00002   0.00000   0.00023
   D13        3.14081  -0.00000   0.00000  -0.00002  -0.00002   3.14079
   D14        0.00041  -0.00000  -0.00000  -0.00001  -0.00001   0.00040
   D15        0.00034   0.00000   0.00002   0.00002   0.00004   0.00039
   D16        3.14123   0.00000   0.00001  -0.00001  -0.00000   3.14123
   D17       -3.14093   0.00000   0.00000   0.00001   0.00001  -3.14093
   D18       -0.00005  -0.00000  -0.00001  -0.00003  -0.00004  -0.00009
   D19       -3.14069   0.00000  -0.00001   0.00005   0.00005  -3.14064
   D20        0.00061   0.00000   0.00001   0.00007   0.00008   0.00068
   D21       -0.00361   0.00000   0.00003  -0.00006  -0.00002  -0.00363
   D22        3.14148  -0.00000  -0.00002   0.00003   0.00001   3.14149
   D23        3.13868   0.00000   0.00005  -0.00003   0.00002   3.13871
   D24        0.00058   0.00000  -0.00001   0.00006   0.00006   0.00064
   D25        0.00495  -0.00000  -0.00008   0.00006  -0.00002   0.00492
   D26       -3.13693   0.00000  -0.00000   0.00018   0.00017  -3.13676
[...]
 00000110,-0.00005575,0.00071366,0.00009321,-0.00108784,-0.00070458,-0.
 00002290,0.15398270,0.20299684,0.00014578,0.00008515,0.00615325,0.0000
 3314,-0.00013537,0.00906465,-0.00000473,0.00001694,-0.00131381,0.00010
 109,-0.00011009,0.00488148,-0.00047793,-0.00018378,0.00225989,-0.00241
 877,-0.00262494,-0.03897676,0.00001877,0.00001088,-0.00028660,0.000085
 81,0.00009619,-0.00303393,0.00005610,-0.00015146,0.00015814,-0.0000578
 9,0.00004479,-0.00031758,0.00003859,0.00000734,-0.00011371,-0.00001926
 ,-0.00002894,0.00017140,0.00000503,0.00001480,-0.00036159,0.00000028,-
 0.00000498,-0.00013826,0.00000234,0.00008048,-0.00497397,-0.00001141,-
 0.00003082,0.00123951,0.00241824,0.00288746,0.02480606,-0.00217492,0.0
 0510427,0.00007633,-0.04028267,-0.03371772,-0.00039472,-0.00063333,-0.
 00207386,-0.00001210,-0.00214967,-0.00131535,-0.00001129,0.00264015,-0
 .00088558,-0.00000739,-0.00157749,-0.00067823,-0.00001423,-0.20533293,
 -0.18884266,-0.00214270,-0.00264541,0.00013713,0.00001748,0.00228057,-
 0.00003769,0.00001623,-0.00229961,0.00114733,-0.00002082,0.00126240,0.
 00041154,-0.00012062,0.00040745,-0.00103666,0.00014004,-0.00045080,-0.
 00218866,-0.00003025,0.00117792,0.00139042,0.00001751,0.00009647,0.000
 00408,0.00000156,0.00034290,-0.00007668,-0.00000090,-0.00029192,0.0001
 7575,0.00000110,0.24985304,0.00771674,0.00047740,-0.00005292,0.0025352
 6,0.01533615,0.00020047,0.01276758,0.00073170,0.00000685,-0.00434767,-
 0.00057499,0.00001161,0.00384518,-0.00163645,-0.00002691,-0.00280481,0
 .00228950,0.00001672,-0.23600480,-0.33058512,-0.00367172,-0.00336679,-
 0.00009744,0.00001244,0.00233494,0.00003273,0.00002000,-0.00214210,0.0
 0125157,-0.00002622,0.00109770,0.00034345,-0.00011374,0.00034543,-0.00
 106452,0.00013133,-0.00308437,0.00110894,0.00004158,-0.00211553,-0.003
 11428,-0.00003008,0.00004858,0.00003082,0.00001083,0.00029074,-0.00003
 819,-0.00000411,0.00019799,-0.00007339,0.00000440,0.22328408,0.3139052
 8,0.00007532,-0.00004977,0.00436835,0.00007857,0.00024277,-0.00266047,
 0.00013692,0.00000492,0.00018855,-0.00004371,0.00000387,-0.00068623,0.
 00003416,-0.00001564,0.00004905,-0.00002184,-0.00000631,0.00165583,-0.
 00270988,-0.00370225,-0.01236121,-0.00003293,0.00000591,-0.00008317,0.
 00003103,-0.00000991,-0.00006986,-0.00003119,0.00001274,-0.00001467,0.
 00001741,0.00000445,-0.00001708,0.00000101,-0.00001726,0.00000399,-0.0
 0003459,0.00003532,-0.00185274,-0.00002379,-0.00002309,-0.00108462,0.0
 0000107,0.00001157,-0.00054510,0.00000489,-0.00000693,0.00039958,0.000
 00125,0.00000660,-0.00050903,0.00252558,0.00347672,0.01288056,0.000201
 51,0.00144578,0.00004137,0.00018741,0.00034399,-0.00001730,0.00000769,
 -0.00059853,0.00000281,0.00028335,0.00228454,0.00001614,-0.00035810,0.
 02958490,0.00000652,-0.00538116,-0.00004307,-0.00004767,0.00005675,-0.
 00019016,0.00000745,-0.06359170,0.02893060,0.00003805,0.00541082,-0.02
 869753,0.00024971,0.00035839,-0.00411505,0.00012731,0.00045834,0.00067
 673,-0.00006882,-0.00304367,0.00179423,-0.00059541,0.00010392,-0.00004
 040,-0.00000195,-0.00002582,0.00007577,0.00000172,-0.00036547,0.000043
 09,0.00000717,-0.00111580,-0.00095840,-0.00001217,0.00010470,-0.000021
 93,-0.00000084,-0.00005109,0.00003849,-0.00000106,0.07077935,-0.000466
 51,-0.00055517,-0.00003251,0.00017725,-0.00004831,-0.00000022,-0.00010
 506,0.00050344,-0.00000997,-0.00173850,0.00142628,-0.00005866,-0.00046
 083,-0.00799882,0.00007734,0.00150651,0.00073336,0.00011213,-0.0002106
 0,0.00006792,0.00000591,0.02841634,-0.33875338,0.00016095,0.00191746,-
 0.01450898,0.00020527,0.00018794,-0.00157818,0.00016646,-0.00008428,0.
 00019680,-0.00002504,0.00194016,0.00078846,-0.00006936,-0.00006175,-0.
 00010910,0.00000598,0.00000633,0.00004362,-0.00000027,0.00013408,0.000
 00134,-0.00000894,0.00024220,0.00068639,0.00001805,-0.00008981,0.00007
 307,0.00000235,0.00003438,0.00002699,0.00000033,-0.02959448,0.35803479
 ,0.00012208,0.00005541,-0.00100610,-0.00010828,-0.00000907,0.00048368,
 0.00001938,-0.00008538,0.00016181,-0.00009668,0.00000910,-0.00358280,0
 .00040744,-0.00035868,0.00862462,-0.00004839,0.00001653,0.00622717,0.0
 0010498,-0.00001419,-0.00012341,-0.00060665,0.00022875,-0.05017220,0.0
 0083351,0.00012927,0.00834565,-0.00024956,0.00042176,-0.00489335,0.000
 39329,-0.00008373,0.00007196,-0.00079808,-0.00034981,0.00062409,0.0000
 1323,0.00003285,0.00019871,0.00000160,-0.00001893,0.00004599,0.0000004
 3,0.00000821,-0.00066045,-0.00000860,0.00000174,0.00027316,-0.00000527
 ,0.00000822,-0.00005032,-0.00001120,-0.00001423,0.00006606,-0.00004230
 ,-0.00047562,0.02836651,0.00010006,0.00040512,0.00003726,0.00013443,-0
 .00040496,0.00000167,-0.00043370,0.00054972,0.00000324,0.00063484,0.00
 021073,-0.00001648,-0.00031330,0.00142503,0.00003190,-0.00117207,-0.00
 134262,-0.00004985,-0.00012690,0.00012809,-0.00000233,0.00779393,-0.02
 839435,0.00050135,-0.05913353,-0.00475584,-0.00003246,0.00381809,0.030
 33107,-0.00088261,-0.00048598,-0.00000073,0.00003807,-0.00616162,0.002
 48730,0.00065850,0.00017800,0.00015082,0.00000261,0.00001958,-0.000109
 19,-0.00000145,-0.00003792,0.00000616,-0.00000218,0.00015486,0.0001369
 0,0.00000059,-0.00215164,0.00138812,0.00009364,0.00001546,0.00002025,-
 0.00000111,-0.00413402,-0.00190887,-0.00003738,0.06100506,0.00018991,0
 .00033454,-0.00001831,-0.00011479,-0.00002391,-0.00000770,0.00001210,-
 0.00015689,-0.00000758,-0.00024620,-0.00016099,0.00000030,0.00133352,-
 0.00060376,-0.00012169,0.00047780,0.00008316,-0.00000688,0.00022198,-0
 .00001166,0.00000437,-0.00142280,-0.01040724,0.00022751,0.00268597,-0.
 35608533,0.00674101,-0.00215003,-0.01172895,0.00046452,-0.00140487,0.0
 0062446,-0.00016332,0.00161848,0.00093638,-0.00043897,0.00002664,0.000
 08668,0.00000221,0.00000487,-0.00004717,-0.00000013,0.00000246,0.00000
 236,0.00000069,0.00001440,0.00006595,0.00000317,0.00157112,0.00069125,
 -0.00001066,-0.00001592,-0.00002764,0.00000220,-0.00142868,0.00052633,
 0.00015948,-0.00130141,0.37581548,0.00001907,-0.00000522,-0.00022729,-
 0.00008085,0.00007298,-0.00032697,0.00006523,-0.00011243,0.00005370,-0
 .00015255,-0.00004943,-0.00015320,0.00028652,-0.00014979,-0.00374586,0
 .00000199,0.00016797,-0.00048595,0.00007187,-0.00002123,0.00012707,-0.
 00064230,0.00001987,0.00281087,0.00070595,0.00665443,-0.03260921,-0.00
 063924,0.00095304,0.00006938,0.00046935,-0.00002151,-0.00229081,-0.000
 36902,-0.00066950,0.00433151,0.00000828,0.00002723,0.00003981,-0.00000
 006,-0.00001021,0.00001887,0.00000219,-0.00000162,0.00013087,-0.000003
 15,-0.00000134,0.00010170,0.00009356,-0.00008870,0.00124422,-0.0000093
 9,-0.00001022,0.00004783,0.00007527,-0.00011597,0.00698125,0.00022050,
 -0.00721442,0.02309139,0.00110973,0.00047734,0.00001354,-0.00164049,0.
 00055580,0.00000281,0.00013657,-0.00156574,0.00000172,-0.00127211,-0.0
 0043772,-0.00007719,0.00281132,-0.00162921,-0.00007208,-0.00076739,0.0
 0138535,0.00005058,0.00161743,-0.00028849,-0.00000518,-0.00550649,-0.0
 0002542,0.00051874,0.00539639,-0.00436960,-0.00023238,-0.03985309,0.02
 036326,-0.00572219,-0.38437268,0.16705371,-0.07695415,0.00602173,0.002
 86184,0.00053866,0.00050349,0.00074277,0.00001667,0.00001305,-0.000376
 31,-0.00000722,0.00001905,0.00000607,-0.00000043,-0.00004261,0.0000204
 9,-0.00000276,-0.00004613,0.00003638,-0.00001058,-0.00022111,-0.000180
 81,-0.00000324,-0.00012903,-0.00005546,-0.00006175,0.00031316,-0.00000
 069,-0.00014835,0.41495106,-0.00025024,-0.00010920,-0.00001676,0.00032
 567,-0.00010327,-0.00000111,-0.00004605,0.00032583,0.00002777,0.000277
 57,0.00014741,-0.00006820,-0.00078270,0.00016157,-0.00026578,0.0002082
 0,-0.00037617,0.00005767,-0.00031534,0.00004521,-0.00000016,0.00064744
 ,0.00107066,0.00053949,-0.00351924,-0.00242554,0.00100865,-0.02952759,
 0.01207589,-0.00670089,0.21585523,-0.14459725,0.05333645,0.00046135,-0
 .00051074,0.00070521,-0.00009426,-0.00018070,0.00000739,-0.00001443,0.
 00010697,0.00000092,-0.00000064,0.00000056,0.00000506,-0.00001269,-0.0
 0001613,-0.00000418,0.00000012,0.00002014,0.00000138,0.00003635,0.0000
 4878,0.00000148,-0.00002764,0.00000776,0.00010133,-0.00016510,0.000272
 24,-0.00003697,-0.18142295,0.13719511,-0.00027518,-0.00012762,-0.00008
 426,0.00039407,-0.00013203,0.00004359,-0.00008374,0.00039657,0.0000168
 4,0.00037547,0.00012437,-0.00037100,-0.00081142,0.00044611,-0.00060074
 ,0.00023734,-0.00041498,0.00030380,-0.00037732,0.00006421,-0.00001878,
 0.00203264,0.00026386,0.00264674,-0.00091799,0.00089896,0.00323064,0.0
 0840953,-0.00204308,-0.00400548,-0.09126519,0.04855222,-0.02321581,0.0
 0013480,0.00066632,-0.00365886,-0.00009304,-0.00017818,0.00003849,-0.0
 0000512,0.00008864,0.00002377,-0.00000234,-0.00000124,0.00001300,-0.00
 000095,-0.00001107,-0.00001231,0.00000512,0.00001344,-0.00002866,0.000
 04704,0.00004887,0.00000938,-0.00004255,0.00000585,0.00014873,-0.00002
 938,0.00006149,-0.00097475,0.08269700,-0.04754229,0.02416159,0.0008125
 3,0.00037250,0.00004963,-0.00121834,0.00045405,0.00001302,0.00012404,-
 0.00119141,-0.00002662,-0.00093156,-0.00037484,0.00003039,0.00227720,-
 0.00086346,-0.00016237,-0.00065436,0.00107815,-0.00011711,0.00121404,-
 0.00022035,-0.00000502,-0.00389280,-0.00110571,0.00016351,0.00703130,-
 0.00100774,0.00131195,-0.00485333,0.00195878,-0.00186248,0.00042331,-0
 .00438536,0.00018450,-0.43012904,0.17280450,0.10093694,0.00038098,0.00
 055851,-0.00000029,0.00000980,-0.00028574,0.00000269,0.00000984,0.0000
 0313,0.00000479,-0.00002651,0.00002264,0.00000842,-0.00003537,0.000011
 32,0.00000230,-0.00016557,-0.00013689,0.00000019,0.00024763,0.00021663
 ,0.00018058,0.00000086,-0.00007147,0.00002513,0.00100170,-0.00163940,-
 0.00043571,0.42840706,-0.00070289,-0.00025127,-0.00002820,0.00105992,-
 0.00032141,-0.00001348,-0.00001560,0.00097738,0.00000350,0.00069526,0.
 00035086,0.00005068,-0.00155923,0.00100317,-0.00027881,0.00038596,-0.0
 0086760,0.00007014,-0.00102858,0.00016446,0.00000975,0.00172307,0.0005
 6112,-0.00014599,-0.00617683,-0.00477735,0.00058109,0.04975176,-0.0235
 1138,-0.00944528,-0.00199651,0.00485471,0.00089632,0.12590261,-0.09494
 462,-0.02730871,-0.00038693,-0.00060037,-0.00000804,-0.00003059,0.0003
 3606,0.00000467,-0.00001626,-0.00000114,0.00000401,0.00003486,0.000005
 15,0.00000820,0.00003862,0.00000233,0.00002709,0.00013983,0.00013114,0
 .00000689,0.00053572,0.00044028,0.00023188,0.00113210,-0.00019711,0.00
 060817,-0.00324612,-0.00313609,-0.00115652,-0.16627082,0.11984468,0.00
 026984,0.00014120,-0.00015635,-0.00040750,0.00018589,-0.00000087,0.000
 06667,-0.00045368,-0.00000636,-0.00038103,-0.00013665,-0.00007457,0.00
 088000,-0.00031336,0.00010406,-0.00023891,0.00044528,0.00020970,0.0004
 1784,-0.00007964,-0.00000207,-0.00171785,-0.00068473,-0.00082983,0.002
 73058,0.00204068,0.00261274,-0.00808104,0.00631998,-0.00377222,0.00025
 623,0.00050348,-0.00347080,0.10728509,-0.04311128,-0.02743241,0.000114
 84,0.00018831,-0.00001511,0.00000543,-0.00009622,0.00003565,0.00000185
 ,0.00000083,0.00000680,-0.00000116,0.00001055,0.00004121,-0.00001113,-
 0.00002408,0.00012119,-0.00005497,-0.00004944,0.00002360,0.00025643,0.
 00003531,-0.00008627,-0.00053417,0.00032278,0.00177504,-0.00054394,-0.
 00115611,0.00233828,-0.10030277,0.03588567,0.02858995,-0.00021140,0.00
 002117,0.00000410,0.00032704,0.00031871,0.00000125,0.00131453,0.001996
 21,0.00002574,-0.00031035,0.00041542,0.00000191,0.00012644,-0.00005276
 ,0.00000200,0.00002885,-0.00016759,-0.00000702,0.00002257,-0.00013133,
 -0.00000161,0.00016979,0.00005056,-0.00000072,-0.00015191,-0.00000886,
 0.00000180,0.00018531,-0.00007820,0.00000051,-0.00010044,-0.00002947,0
 .00000876,-0.00004048,0.00007636,-0.00001124,0.00853568,0.00344058,0.0
 0003169,-0.30865869,-0.09897487,-0.00087257,0.00001693,0.00001651,0.00
 000002,0.00020730,-0.00032640,-0.00000439,0.00000661,-0.00002101,-0.00
 000020,-0.00003015,0.00008466,0.00000113,0.00002475,-0.00000210,0.0000
 0085,-0.00000043,0.00000028,0.00000006,0.00001951,-0.00000232,-0.00000
 311,0.00001474,-0.00001466,0.00000410,0.32021335,0.00050837,-0.0003866
 3,-0.00000938,-0.00210679,-0.00077772,-0.00000812,0.00267789,-0.004844
 34,-0.00007320,0.00111446,-0.00049737,-0.00001076,-0.00058650,0.000263
 63,0.00000149,-0.00002462,0.00010762,0.00000742,0.00035058,0.00016371,
 0.00000316,0.00025674,-0.00012585,-0.00000145,-0.00026889,0.00003025,-
 0.00000524,0.00024019,-0.00015868,0.00000561,-0.00012988,-0.00003816,0
 .00001249,-0.00004311,0.00013902,-0.00001571,-0.03674007,-0.02870581,-
 0.00030526,-0.08290264,-0.07728035,-0.00019690,-0.00012076,-0.00008246
 ,-0.00000071,-0.00021403,0.00050832,0.00001236,-0.00001970,0.00003341,
 0.00000077,-0.00020935,-0.00025292,-0.00000496,-0.00002739,-0.00000194
 ,0.00000111,0.00000754,0.00000437,0.00000115,0.00001928,-0.00000653,-0
 .00000554,0.00001466,-0.00001538,0.00000535,0.10137770,0.10105746,0.00
 000656,-0.00000435,-0.00002957,-0.00002585,-0.00001571,0.00028836,0.00
 003199,-0.00006863,0.00055267,0.00001463,-0.00000799,0.00019855,-0.000
 00764,0.00000089,0.00014839,-0.00000049,0.00000283,-0.00002973,0.00000
 375,0.00000475,-0.00013254,0.00000216,-0.00000218,0.00002264,-0.000002
 81,0.00000159,0.00000457,0.00000172,-0.00000256,-0.00000720,-0.0000014
 6,-0.00000113,-0.00000110,0.00000085,0.00000213,0.00000236,-0.00046651
 ,-0.00036608,0.00013603,-0.00067307,-0.00017081,-0.05234760,-0.0000014
 3,-0.00000064,-0.00002543,-0.00000254,0.00001254,-0.00045045,-0.000000
 40,0.00000075,-0.00001613,-0.00000212,-0.00000523,0.00019836,0.0000000
 5,0.00000036,-0.00000847,0.00000016,0.,-0.00000131,0.00000027,0.000000
 17,0.00000219,-0.00000038,-0.00000066,0.00000011,0.00088047,0.00052617
 ,0.04729526,0.00021939,-0.00003075,-0.00002206,0.00036358,-0.00021559,
 -0.00026048,0.00073716,-0.00087567,0.00127020,0.00001425,0.00071187,0.
 00027318,-0.00009139,-0.00025347,-0.00039581,0.00004826,0.00034342,-0.
 00003686,-0.00027779,0.00011040,0.00010800,-0.00019161,-0.00003084,0.0
 0000889,0.00025179,-0.00000044,0.00000780,-0.00030109,0.00013156,0.000
 00295,0.00016969,0.00004943,-0.00001533,0.00006770,-0.00013194,0.00001
 979,0.00039862,0.00530425,-0.00027100,-0.11656080,0.03522232,-0.107002
 81,0.00001616,0.00001264,0.00000890,-0.00080939,-0.00088817,0.00103963
 ,0.00000043,0.00000318,0.00004311,0.00011512,-0.00021071,-0.00013485,-
 0.00001486,-0.00000119,-0.00000118,-0.00000866,-0.00000130,-0.00000132
 ,-0.00003171,0.00000416,0.00000308,-0.00002386,0.00002293,-0.00000840,
 -0.01088956,0.00872511,-0.02512231,0.11803991,0.00057208,0.00008772,-0
 .00007467,0.00040531,-0.00177771,-0.00065587,0.00584108,0.00437666,0.0
 0172524,-0.00056983,0.00055756,-0.00023876,-0.00066560,-0.00015913,-0.
 00024846,-0.00039306,0.00030234,-0.00006109,-0.00082861,-0.00028539,-0
 .00010575,0.00043650,-0.00013188,0.00001478,-0.00043357,0.00002560,-0.
 00000942,0.00041350,-0.00022856,0.00000664,-0.00023353,-0.00007775,0.0
 0002112,-0.00007281,0.00020754,-0.00002926,0.01718039,-0.03251647,0.02
 878469,0.03127812,-0.06871067,0.05582156,-0.00001955,-0.00000778,0.000
 07041,-0.00086170,-0.00041587,0.00088948,-0.00001536,0.00001530,0.0000
 4149,-0.00039354,0.00087366,0.00033100,-0.00000699,-0.00000192,0.00001
 265,0.00000231,0.00000374,0.00000198,0.00003774,-0.00000837,-0.0000084
 5,0.00002931,-0.00002338,0.00000902,-0.00402799,0.00557400,-0.00987343
 ,-0.04241733,0.08708179,-0.00016243,-0.00011345,-0.00001582,0.00017333
 ,0.00055865,-0.00025322,-0.00067684,-0.00072189,0.00060349,-0.00084527
 ,0.00094315,-0.00020521,0.00035400,-0.00031235,-0.00011535,0.00005241,
 -0.00009706,-0.00005122,0.00017908,-0.00018384,0.00002460,-0.00000272,
 0.00011018,0.00002998,0.00000668,-0.00003127,0.00000359,0.00003196,0.0
 0006161,-0.00000922,-0.00002824,-0.00001734,0.00000336,-0.00000748,-0.
 00004507,0.00000898,0.00319799,0.00289648,0.00791093,-0.10728161,0.061
 99537,-0.23803807,0.00000666,0.00000496,0.00001576,0.00067282,-0.00016
 240,-0.00005648,0.00001474,-0.00005334,0.00000972,-0.00001953,-0.00009
 606,-0.00000057,0.00005124,0.00000707,-0.00001762,-0.00000920,-0.00000
 424,-0.00000440,0.00000882,0.00000490,-0.00000183,0.00000530,0.0000041
 5,-0.00000572,0.00143729,-0.00128526,0.00199398,0.11676729,-0.07024832
 ,0.24690564,0.00022194,-0.00003096,0.00000930,0.00036264,-0.00022629,0
 .00025476,0.00073618,-0.00083365,-0.00128967,0.00002131,0.00071296,-0.
 00024938,-0.00009181,-0.00026559,0.00037482,0.00004723,0.00034463,0.00
 006598,-0.00027871,0.00011436,-0.00010343,-0.00019283,-0.00002908,-0.0
 0000365,0.00025292,-0.00000111,-0.00001383,-0.00030146,0.00013144,-0.0
 0000819,0.00016907,0.00004862,-0.00001341,0.00006784,-0.00013100,0.000
 02243,0.00038008,0.00528257,0.00042612,-0.11592446,0.03238452,0.107480
 15,0.00001626,0.00001296,-0.00000828,-0.00081648,-0.00085358,-0.001056
 99,0.00000049,0.00000495,-0.00004372,0.00011519,-0.00021315,0.00012966
 ,-0.00001392,0.00000014,-0.00000206,-0.00000859,-0.00000136,0.00000128
 ,-0.00003134,0.00000449,0.00000696,-0.00002430,0.00002240,-0.00000604,
 -0.01082000,0.00810120,0.02536439,0.00875866,-0.00525687,-0.01392629,0
 .11735408,0.00057032,0.00008317,0.00008187,0.00041065,-0.00178456,0.00
 061736,0.00582030,0.00441030,-0.00163706,-0.00058532,0.00057040,0.0002
 6161,-0.00065602,-0.00017471,0.00024323,-0.00039309,0.00030082,0.00006
 282,-0.00082442,-0.00028877,0.00009981,0.00043621,-0.00013048,-0.00002
 797,-0.00043425,0.00002487,0.00001376,0.00041520,-0.00022782,-0.000002
 15,-0.00023528,-0.00007810,0.00002537,-0.00007114,0.00020839,-0.000023
 89,0.01715711,-0.03173369,-0.02981998,0.02845670,-0.06586812,-0.051610
 76,-0.00001888,-0.00000529,-0.00007068,-0.00083849,-0.00039228,-0.0008
 8981,-0.00001495,0.00001539,-0.00004045,-0.00039326,0.00087682,-0.0003
 1064,-0.00000361,-0.00000101,-0.00000864,0.00000181,0.00000372,0.00000
 172,0.00003849,-0.00000815,-0.00000991,0.00002900,-0.00002426,0.000010
 86,-0.00396062,0.00529238,0.00996724,-0.00558388,0.00523899,0.00678536
 ,-0.03932260,0.08369199,0.00017578,0.00011605,-0.00001404,-0.00016460,
 -0.00059730,-0.00024586,0.00082234,0.00082359,0.00058073,0.00082913,-0
 .00092546,-0.00023006,-0.00037093,0.00031244,-0.00009731,-0.00006269,0
 .00010395,-0.00005068,-0.00019943,0.00017543,0.00003185,0.00001443,-0.
 00011463,0.00003371,-0.00001845,0.00003160,0.00000564,-0.00002156,-0.0
 0006360,-0.00000421,0.00002029,0.00001452,0.00000105,0.00000796,0.0000
 4946,0.00000577,-0.00274562,-0.00390616,0.00709828,0.10766593,-0.05777
 991,-0.24144371,-0.00000719,-0.00000570,0.00001455,-0.00069124,0.00015
 815,-0.00006975,-0.00001531,0.00005325,0.00001084,0.00000937,0.0001191
 0,-0.00000640,-0.00005117,-0.00000680,-0.00001840,0.00000912,0.0000041
 6,-0.00000377,-0.00000738,-0.00000540,-0.00000458,-0.00000660,-0.00000
 651,-0.00000575,-0.00150082,0.00134541,0.00220604,0.01371958,-0.006176
 56,-0.01873532,-0.11741092,0.06628092,0.25094139\\0.00000242,0.0000040
 5,0.00000057,-0.00001690,0.00001590,-0.00000053,-0.00001864,-0.0000365
 4,0.00000179,-0.00001635,0.00000646,0.00000126,0.00002950,-0.00001417,
 0.00000081,-0.00001220,0.00001045,-0.00000185,0.00001554,-0.00000673,-
 0.00000017,-0.00004366,-0.00000751,-0.00000079,0.00005999,0.00000874,0
 .00000799,-0.00005187,0.00000559,-0.00000096,0.00002657,0.00001312,-0.
 00000602,0.00000786,-0.00000953,-0.00001021,0.00000798,0.00003832,-0.0
 0000162,0.00001095,-0.00004881,0.00000019,-0.00000495,-0.00000189,-0.0
 0000101,0.00000277,0.00000014,-0.00000029,-0.00000359,-0.00000201,-0.0
 0000157,0.00000600,0.00000197,-0.00000047,0.00000533,0.00000301,-0.000
 00075,-0.00000312,-0.00000445,0.00000094,-0.00000332,0.00000416,0.0000
 0419,-0.00000185,0.00000492,0.00000850,0.00000296,0.00000767,0.0000000
 5,-0.00000053,0.00000379,-0.00000186,-0.00000090,0.00000335,0.00000180
 \\\@


 SLITHERY-DITHERY
 FRIEDRICH A. KEKULE
 DREAMT ON A BUS OF THINGS
 FREUD WOULD THINK KEEN.
 MOST OF THE TIME THEY WERE
 HERPETOLOGICAL
 BITING THEIR TAILS IN THE
 SHAPE OF BENZENE.
 Job cpu time:       0 days  0 hours 59 minutes 19.4 seconds.
 File lengths (MBytes):  RWF=    264 Int=      0 D2E=      0 Chk=      9 Scr=      1
 Normal termination of Gaussian 09 at Tue Dec 17 17:18:46 2024.
