 Entering Gaussian System, Link 0=g09
 Input=pbeD3FAyang.gjf
 Output=pbeD3FAyang.log
 Initial command:
 /home/c612/g09E/g09/l1.exe "/mnt/ja_sm883/scratch/Gau-1705013.inp" -scrdir="/mnt/ja_sm883/scratch/"
 Default is to use a total of  18 processors:
                               18 via shared-memory
                                1 via Linda
 Entering Link 1 = /home/c612/g09E/g09/l1.exe PID=   1705015.
  
 Copyright (c) 1988,1990,1992,1993,1995,1998,2003,2009,2015,
            Gaussian, Inc.  All Rights Reserved.
  
 This is part of the Gaussian(R) 09 program.  It is based on
 the Gaussian(R) 03 system (copyright 2003, Gaussian, Inc.),
 the Gaussian(R) 98 system (copyright 1998, Gaussian, Inc.),
 the Gaussian(R) 94 system (copyright 1995, Gaussian, Inc.),
 the Gaussian 92(TM) system (copyright 1992, Gaussian, Inc.),
 the Gaussian 90(TM) system (copyright 1990, Gaussian, Inc.),
 the Gaussian 88(TM) system (copyright 1988, Gaussian, Inc.),
 the Gaussian 86(TM) system (copyright 1986, Carnegie Mellon
 University), and the Gaussian 82(TM) system (copyright 1983,
 Carnegie Mellon University). Gaussian is a federally registered
 trademark of Gaussian, Inc.
  
 This software contains proprietary and confidential information,
 including trade secrets, belonging to Gaussian, Inc.
  
 This software is provided under written license and may be
 used, copied, transmitted, or stored only in accord with that
 written license.
  
 The following legend is applicable only to US Government
 contracts under FAR:
  
                    RESTRICTED RIGHTS LEGEND
  
 Use, reproduction and disclosure by the US Government is
 subject to restrictions as set forth in subparagraphs (a)
 and (c) of the Commercial Computer Software - Restricted
 Rights clause in FAR 52.227-19.
  
 Gaussian, Inc.
 340 Quinnipiac St., Bldg. 40, Wallingford CT 06492
  
  
 ---------------------------------------------------------------
 Warning -- This program may not be used in any manner that
 competes with the business of Gaussian, Inc. or will provide
 assistance to any competitor of Gaussian, Inc.  The licensee
 of this program is prohibited from giving any competitor of
 Gaussian, Inc. access to this program.  By using this program,
 the user acknowledges that Gaussian, Inc. is engaged in the
 business of creating and licensing software in the field of
 computational chemistry and represents and warrants to the
 licensee that it is not a competitor of Gaussian, Inc. and that
 it will not use this program in any manner prohibited above.
 ---------------------------------------------------------------
  

 Cite this work as:
 Gaussian 09, Revision E.01,
 M. J. Frisch, G. W. Trucks, H. B. Schlegel, G. E. Scuseria, 
 M. A. Robb, J. R. Cheeseman, G. Scalmani, V. Barone, B. Mennucci, 
 G. A. Petersson, H. Nakatsuji, M. Caricato, X. Li, H. P. Hratchian, 
 A. F. Izmaylov, J. Bloino, G. Zheng, J. L. Sonnenberg, M. Hada, 
 M. Ehara, K. Toyota, R. Fukuda, J. Hasegawa, M. Ishida, T. Nakajima, 
 Y. Honda, O. Kitao, H. Nakai, T. Vreven, J. A. Montgomery, Jr., 
 J. E. Peralta, F. Ogliaro, M. Bearpark, J. J. Heyd, E. Brothers, 
 K. N. Kudin, V. N. Staroverov, T. Keith, R. Kobayashi, J. Normand, 
 K. Raghavachari, A. Rendell, J. C. Burant, S. S. Iyengar, J. Tomasi, 
 M. Cossi, N. Rega, J. M. Millam, M. Klene, J. E. Knox, J. B. Cross, 
 V. Bakken, C. Adamo, J. Jaramillo, R. Gomperts, R. E. Stratmann, 
 O. Yazyev, A. J. Austin, R. Cammi, C. Pomelli, J. W. Ochterski, 
 R. L. Martin, K. Morokuma, V. G. Zakrzewski, G. A. Voth, 
 P. Salvador, J. J. Dannenberg, S. Dapprich, A. D. Daniels, 
 O. Farkas, J. B. Foresman, J. V. Ortiz, J. Cioslowski, 
 and D. J. Fox, Gaussian, Inc., Wallingford CT, 2013.
 
 ******************************************
 Gaussian 09:  ES64L-G09RevE.01 30-Nov-2015
                17-Dec-2024 
 ******************************************
 %chk=pbeD3FAyang.chk
 -----------------------------------------------------
 # opt freq pbepbe/6-31+g(d,p) empiricaldispersion=gd3
 -----------------------------------------------------
 1/14=-1,18=20,19=15,26=3,38=1/1,3;
 2/9=110,12=2,17=6,18=5,40=1/2;
 3/5=1,6=6,7=111,11=2,16=1,25=1,30=1,71=1,74=1009,124=31/1,2,3;
 4//1;
 5/5=2,38=5/2;
 6/7=2,8=2,9=2,10=2,28=1/1;
 7//1,2,3,16;
 1/14=-1,18=20,19=15,26=3/3(2);
 2/9=110/2;
 99//99;
 2/9=110/2;
 3/5=1,6=6,7=111,11=2,16=1,25=1,30=1,71=1,74=1009,124=31/1,2,3;
 4/5=5,16=3,69=1/1;
 5/5=2,38=5/2;
 7//1,2,3,16;
 1/14=-1,18=20,19=15,26=3/3(-5);
 2/9=110/2;
 6/7=2,8=2,9=2,10=2,19=2,28=1/1;
 99/9=1/99;
 ----------
 [No Title]
 ----------
 Symbolic Z-matrix:
 Charge =  1 Multiplicity = 1
 C                     1.47536  -2.02797  -0.02226 
 C                     2.51505  -1.08565  -0.01126 
 C                     2.22907   0.30992   0.00469 
 C                     0.91936   0.73357   0.01093 
 C                    -0.14635  -0.21493   0.00223 
 C                     0.16664  -1.60024  -0.01701 
 O                     3.77214  -1.50434  -0.01718 
 C                    -1.47346   0.27253   0.00957 
 C                    -2.64626  -0.47068   0.01651 
 C                    -3.89482   0.13685  -0.00016 
 O                    -4.96297  -0.63038   0.1002 
 O                    -4.01246   1.44793  -0.12404 
 O                     3.34193   1.07535   0.01212 
 C                     3.20344   2.49592   0.02921 
 H                     1.73326  -3.08144  -0.0366 
 H                     0.68398   1.7926    0.02333 
 H                    -0.62549  -2.34071  -0.02827 
 H                     4.36974  -0.73639  -0.00878 
 H                    -1.58495   1.35587   0.00962 
 H                    -2.65752  -1.55342   0.03618 
 H                    -5.80289  -0.19408  -0.10601 
 H                    -4.88537   1.79808   0.10667 
 H                     4.21762   2.89256   0.03231 
 H                     2.67572   2.84195  -0.86593 
 H                     2.6786    2.82047   0.93405 
 

 GradGradGradGradGradGradGradGradGradGradGradGradGradGradGradGradGradGrad
 Berny optimization.
 Initialization pass.
                           ----------------------------
                           !    Initial Parameters    !
                           ! (Angstroms and Degrees)  !
 --------------------------                            --------------------------
 ! Name  Definition              Value          Derivative Info.                !
 --------------------------------------------------------------------------------
 ! R1    R(1,2)                  1.4032         estimate D2E/DX2                !
 ! R2    R(1,6)                  1.3769         estimate D2E/DX2                !
 ! R3    R(1,15)                 1.0847         estimate D2E/DX2                !
 ! R4    R(2,3)                  1.4247         estimate D2E/DX2                !
 ! R5    R(2,7)                  1.325          estimate D2E/DX2                !
 ! R6    R(3,4)                  1.3765         estimate D2E/DX2                !
 ! R7    R(3,13)                 1.3507         estimate D2E/DX2                !
 ! R8    R(4,5)                  1.4267         estimate D2E/DX2                !
 ! R9    R(4,16)                 1.0849         estimate D2E/DX2                !
 ! R10   R(5,6)                  1.4204         estimate D2E/DX2                !
 ! R11   R(5,8)                  1.4138         estimate D2E/DX2                !
 ! R12   R(6,17)                 1.0844         estimate D2E/DX2                !
 ! R13   R(7,18)                 0.9731         estimate D2E/DX2                !
 ! R14   R(8,9)                  1.3885         estimate D2E/DX2                !
 ! R15   R(8,19)                 1.0891         estimate D2E/DX2                !
 ! R16   R(9,10)                 1.3886         estimate D2E/DX2                !
 ! R17   R(9,20)                 1.083          estimate D2E/DX2                !
 ! R18   R(10,11)                1.319          estimate D2E/DX2                !
 ! R19   R(10,12)                1.3222         estimate D2E/DX2                !
 ! R20   R(11,21)                0.9687         estimate D2E/DX2                !
 ! R21   R(12,22)                0.9684         estimate D2E/DX2                !
 ! R22   R(13,14)                1.4274         estimate D2E/DX2                !
 ! R23   R(14,23)                1.089          estimate D2E/DX2                !
 ! R24   R(14,24)                1.0952         estimate D2E/DX2                !
 ! R25   R(14,25)                1.0952         estimate D2E/DX2                !
 ! A1    A(2,1,6)              119.7102         estimate D2E/DX2                !
 ! A2    A(2,1,15)             118.4344         estimate D2E/DX2                !
 ! A3    A(6,1,15)             121.8553         estimate D2E/DX2                !
 ! A4    A(1,2,3)              120.6096         estimate D2E/DX2                !
 ! A5    A(1,2,7)              119.388          estimate D2E/DX2                !
 ! A6    A(3,2,7)              120.0023         estimate D2E/DX2                !
 ! A7    A(2,3,4)              119.5064         estimate D2E/DX2                !
 ! A8    A(2,3,13)             112.9419         estimate D2E/DX2                !
 ! A9    A(4,3,13)             127.5517         estimate D2E/DX2                !
 ! A10   A(3,4,5)              120.4025         estimate D2E/DX2                !
 ! A11   A(3,4,16)             120.4566         estimate D2E/DX2                !
 ! A12   A(5,4,16)             119.1409         estimate D2E/DX2                !
 ! A13   A(4,5,6)              118.9405         estimate D2E/DX2                !
 ! A14   A(4,5,8)              118.1586         estimate D2E/DX2                !
 ! A15   A(6,5,8)              122.9007         estimate D2E/DX2                !
 ! A16   A(1,6,5)              120.8304         estimate D2E/DX2                !
 ! A17   A(1,6,17)             118.8267         estimate D2E/DX2                !
 ! A18   A(5,6,17)             120.3429         estimate D2E/DX2                !
 ! A19   A(2,7,18)             109.465          estimate D2E/DX2                !
 ! A20   A(5,8,9)              127.4693         estimate D2E/DX2                !
 ! A21   A(5,8,19)             116.0443         estimate D2E/DX2                !
 ! A22   A(9,8,19)             116.4864         estimate D2E/DX2                !
 ! A23   A(8,9,10)             121.6834         estimate D2E/DX2                !
 ! A24   A(8,9,20)             122.958          estimate D2E/DX2                !
 ! A25   A(10,9,20)            115.3586         estimate D2E/DX2                !
 ! A26   A(9,10,11)            118.2133         estimate D2E/DX2                !
 ! A27   A(9,10,12)            120.9953         estimate D2E/DX2                !
 ! A28   A(11,10,12)           120.7892         estimate D2E/DX2                !
 ! A29   A(10,11,21)           115.0877         estimate D2E/DX2                !
 ! A30   A(10,12,22)           114.6094         estimate D2E/DX2                !
 ! A31   A(3,13,14)            118.954          estimate D2E/DX2                !
 ! A32   A(13,14,23)           105.7926         estimate D2E/DX2                !
 ! A33   A(13,14,24)           110.5728         estimate D2E/DX2                !
 ! A34   A(13,14,25)           110.5667         estimate D2E/DX2                !
 ! A35   A(23,14,24)           109.633          estimate D2E/DX2                !
 ! A36   A(23,14,25)           109.6337         estimate D2E/DX2                !
 ! A37   A(24,14,25)           110.5309         estimate D2E/DX2                !
 ! D1    D(6,1,2,3)             -0.0287         estimate D2E/DX2                !
 ! D2    D(6,1,2,7)           -179.9607         estimate D2E/DX2                !
 ! D3    D(15,1,2,3)           179.8611         estimate D2E/DX2                !
 ! D4    D(15,1,2,7)            -0.0709         estimate D2E/DX2                !
 ! D5    D(2,1,6,5)             -0.1314         estimate D2E/DX2                !
 ! D6    D(2,1,6,17)           179.8427         estimate D2E/DX2                !
 ! D7    D(15,1,6,5)           179.9827         estimate D2E/DX2                !
 ! D8    D(15,1,6,17)           -0.0432         estimate D2E/DX2                !
 ! D9    D(1,2,3,4)              0.0785         estimate D2E/DX2                !
 ! D10   D(1,2,3,13)          -179.9282         estimate D2E/DX2                !
 ! D11   D(7,2,3,4)           -179.9899         estimate D2E/DX2                !
 ! D12   D(7,2,3,13)             0.0034         estimate D2E/DX2                !
 ! D13   D(1,2,7,18)           179.9551         estimate D2E/DX2                !
 ! D14   D(3,2,7,18)             0.0227         estimate D2E/DX2                !
 ! D15   D(2,3,4,5)              0.0317         estimate D2E/DX2                !
 ! D16   D(2,3,4,16)           179.9825         estimate D2E/DX2                !
 ! D17   D(13,3,4,5)          -179.9605         estimate D2E/DX2                !
 ! D18   D(13,3,4,16)           -0.0097         estimate D2E/DX2                !
 ! D19   D(2,3,13,14)         -179.9531         estimate D2E/DX2                !
 ! D20   D(4,3,13,14)            0.0396         estimate D2E/DX2                !
 ! D21   D(3,4,5,6)             -0.1869         estimate D2E/DX2                !
 ! D22   D(3,4,5,8)            179.9819         estimate D2E/DX2                !
 ! D23   D(16,4,5,6)           179.8617         estimate D2E/DX2                !
 ! D24   D(16,4,5,8)             0.0305         estimate D2E/DX2                !
 ! D25   D(4,5,6,1)              0.2384         estimate D2E/DX2                !
 ! D26   D(4,5,6,17)          -179.7353         estimate D2E/DX2                !
 ! D27   D(8,5,6,1)           -179.9389         estimate D2E/DX2                !
 ! D28   D(8,5,6,17)             0.0874         estimate D2E/DX2                !
 ! D29   D(4,5,8,9)           -179.3111         estimate D2E/DX2                !
 ! D30   D(4,5,8,19)             0.698          estimate D2E/DX2                !
 ! D31   D(6,5,8,9)              0.8648         estimate D2E/DX2                !
 ! D32   D(6,5,8,19)          -179.1261         estimate D2E/DX2                !
 ! D33   D(5,8,9,10)          -178.8596         estimate D2E/DX2                !
 ! D34   D(5,8,9,20)             1.2092         estimate D2E/DX2                !
 ! D35   D(19,8,9,10)            1.1313         estimate D2E/DX2                !
 ! D36   D(19,8,9,20)         -178.8            estimate D2E/DX2                !
 ! D37   D(8,9,10,11)         -175.4371         estimate D2E/DX2                !
 ! D38   D(8,9,10,12)            5.0986         estimate D2E/DX2                !
 ! D39   D(20,9,10,11)           4.4991         estimate D2E/DX2                !
 ! D40   D(20,9,10,12)        -174.9652         estimate D2E/DX2                !
 ! D41   D(9,10,11,21)        -167.3787         estimate D2E/DX2                !
 ! D42   D(12,10,11,21)         12.0867         estimate D2E/DX2                !
 ! D43   D(9,10,12,22)        -164.5976         estimate D2E/DX2                !
 ! D44   D(11,10,12,22)         15.9519         estimate D2E/DX2                !
 ! D45   D(3,13,14,23)        -179.9948         estimate D2E/DX2                !
 ! D46   D(3,13,14,24)         -61.3672         estimate D2E/DX2                !
 ! D47   D(3,13,14,25)          61.38           estimate D2E/DX2                !
 --------------------------------------------------------------------------------
 Trust Radius=3.00D-01 FncErr=1.00D-07 GrdErr=1.00D-06
 Number of steps in this run=    119 maximum allowed number of steps=    150.
 GradGradGradGradGradGradGradGradGradGradGradGradGradGradGradGradGradGrad

                          Input orientation:                          
 ---------------------------------------------------------------------
 Center     Atomic      Atomic             Coordinates (Angstroms)
 Number     Number       Type             X           Y           Z
 ---------------------------------------------------------------------
      1          6           0        1.475358   -2.027968   -0.022258
      2          6           0        2.515049   -1.085648   -0.011255
      3          6           0        2.229075    0.309918    0.004686
      4          6           0        0.919360    0.733574    0.010930
      5          6           0       -0.146346   -0.214926    0.002225
      6          6           0        0.166639   -1.600235   -0.017010
      7          8           0        3.772139   -1.504336   -0.017181
      8          6           0       -1.473460    0.272532    0.009566
      9          6           0       -2.646260   -0.470681    0.016512
     10          6           0       -3.894816    0.136847   -0.000158
     11          8           0       -4.962974   -0.630379    0.100200
     12          8           0       -4.012462    1.447929   -0.124040
     13          8           0        3.341929    1.075347    0.012116
     14          6           0        3.203441    2.495921    0.029208
     15          1           0        1.733260   -3.081436   -0.036596
     16          1           0        0.683984    1.792598    0.023333
     17          1           0       -0.625492   -2.340712   -0.028268
     18          1           0        4.369739   -0.736386   -0.008782
     19          1           0       -1.584954    1.355871    0.009620
     20          1           0       -2.657516   -1.553415    0.036175
     21          1           0       -5.802893   -0.194081   -0.106011
     22          1           0       -4.885369    1.798081    0.106668
     23          1           0        4.217623    2.892555    0.032307
     24          1           0        2.675720    2.841952   -0.865929
     25          1           0        2.678603    2.820471    0.934048
 ---------------------------------------------------------------------
                    Distance matrix (angstroms):
                    1          2          3          4          5
     1  C    0.000000
     2  C    1.403227   0.000000
     3  C    2.456527   1.424654   0.000000
     4  C    2.817153   2.419976   1.376545   0.000000
     5  C    2.432621   2.800243   2.432713   1.426695   0.000000
     6  C    1.376855   2.404134   2.811191   2.452353   1.420356
     7  O    2.355721   1.324994   2.381815   3.625932   4.125225
     8  C    3.740166   4.213465   3.702727   2.436832   1.413825
     9  C    4.406175   5.197891   4.937445   3.763497   2.513003
    10  C    5.790137   6.525411   6.126338   4.851030   3.764941
    11  O    6.589413   7.492698   7.253885   6.039055   4.835505
    12  O    6.496798   7.002866   6.345741   4.985117   4.210449
    13  O    3.621579   2.313909   1.350696   2.446559   3.719269
    14  C    4.842984   3.647349   2.393449   2.885000   4.309349
    15  H    1.084672   2.143596   3.427655   3.901153   3.428018
    16  H    3.901932   3.411495   2.141493   1.084937   2.172567
    17  H    2.124009   3.382081   3.895572   3.440834   2.179329
    18  H    3.169512   1.887290   2.382724   3.750505   4.546104
    19  H    4.562553   4.771947   3.954853   2.580474   2.130035
    20  H    4.160440   5.193889   5.229892   4.245586   2.845818
    21  H    7.506204   8.366124   8.048526   6.786966   5.657621
    22  H    7.423889   7.943298   7.269136   5.902306   5.149898
    23  H    5.633342   4.327442   3.259617   3.942105   5.357384
    24  H    5.086135   4.022726   2.714527   2.880788   4.249971
    25  H    5.086225   4.022203   2.714529   2.881358   4.249972
                    6          7          8          9         10
     6  C    0.000000
     7  O    3.606775   0.000000
     8  C    2.489556   5.538437   0.000000
     9  C    3.031405   6.501186   1.388479   0.000000
    10  C    4.417370   7.840661   2.425174   1.388618   0.000000
    11  O    5.221809   8.779509   3.605575   2.323719   1.318965
    12  O    5.173746   8.326302   2.801060   2.359518   1.322166
    13  O    4.152355   2.615474   4.881853   6.184548   7.297356
    14  C    5.099294   4.040746   5.178537   6.558955   7.480063
    15  H    2.156071   2.577722   4.640505   5.098927   6.483357
    16  H    3.432286   4.517534   2.639196   4.026537   4.869032
    17  H    1.084391   4.476473   2.747640   2.753638   4.102142
    18  H    4.290962   0.973110   5.929690   7.021074   8.310564
    19  H    3.436182   6.072886   1.089061   2.112513   2.611815
    20  H    2.825044   6.430064   2.176414   1.082971   2.095046
    21  H    6.133555   9.664673   4.356039   3.171096   1.939453
    22  H    6.089880   9.266809   3.738697   3.188890   1.937087
    23  H    6.049634   4.419678   6.265258   7.643592   8.567768
    24  H    5.171961   4.562097   4.958236   6.330538   7.158149
    25  H    5.172728   4.561207   4.958456   6.326746   7.161314
                   11         12         13         14         15
    11  O    0.000000
    12  O    2.296328   0.000000
    13  O    8.478719   7.365081   0.000000
    14  C    8.744663   7.293218   1.427411   0.000000
    15  H    7.132036   7.316838   4.457469   5.768247   0.000000
    16  H    6.145312   4.711382   2.753043   2.615791   4.986058
    17  H    4.664278   5.082769   5.235601   6.169040   2.472337
    18  H    9.333951   8.662898   2.083076   3.436496   3.528605
    19  H    3.919747   2.432927   4.934863   4.922278   5.540972
    20  H    2.484196   3.296910   6.550138   7.123762   4.649630
    21  H    0.968681   2.429437   9.233264   9.400449   8.070641
    22  H    2.429708   0.968400   8.259523   8.119226   8.224139
    23  H    9.833567   8.357373   2.017298   1.088987   6.470346
    24  H    8.446309   6.872080   2.082232   1.095216   6.054961
    25  H    8.425994   6.911857   2.082167   1.095227   6.055438
                   16         17         18         19         20
    16  H    0.000000
    17  H    4.336086   0.000000
    18  H    4.470076   5.246577   0.000000
    19  H    2.310627   3.819258   6.311596   0.000000
    20  H    4.728804   2.180163   7.074735   3.100813   0.000000
    21  H    6.785514   5.605314  10.187541   4.495190   3.429490
    22  H    5.569979   5.940906   9.596555   3.331322   4.025025
    23  H    3.700891   7.130674   3.632360   6.002650   8.187442
    24  H    2.420525   6.201587   4.050791   4.596560   6.969681
    25  H    2.421658   6.203298   4.049704   4.601906   6.957817
                   21         22         23         24         25
    21  H    0.000000
    22  H    2.203586   0.000000
    23  H   10.486048   9.168853   0.000000
    24  H    9.037801   7.694523   1.785176   0.000000
    25  H    9.061182   7.677468   1.785193   1.800107   0.000000
 Stoichiometry    C10H11O4(1+)
 Framework group  C1[X(C10H11O4)]
 Deg. of freedom    69
 Full point group                 C1      NOp   1
 Largest Abelian subgroup         C1      NOp   1
 Largest concise Abelian subgroup C1      NOp   1
                         Standard orientation:                         
 ---------------------------------------------------------------------
 Center     Atomic      Atomic             Coordinates (Angstroms)
 Number     Number       Type             X           Y           Z
 ---------------------------------------------------------------------
      1          6           0        1.475358   -2.027968   -0.022258
      2          6           0        2.515049   -1.085648   -0.011255
      3          6           0        2.229075    0.309918    0.004686
      4          6           0        0.919360    0.733574    0.010930
      5          6           0       -0.146346   -0.214926    0.002225
      6          6           0        0.166639   -1.600235   -0.017010
      7          8           0        3.772139   -1.504336   -0.017181
      8          6           0       -1.473460    0.272532    0.009566
      9          6           0       -2.646260   -0.470681    0.016512
     10          6           0       -3.894816    0.136847   -0.000158
     11          8           0       -4.962974   -0.630379    0.100200
     12          8           0       -4.012462    1.447929   -0.124040
     13          8           0        3.341929    1.075347    0.012116
     14          6           0        3.203441    2.495921    0.029208
     15          1           0        1.733260   -3.081436   -0.036596
     16          1           0        0.683984    1.792598    0.023333
     17          1           0       -0.625492   -2.340712   -0.028268
     18          1           0        4.369739   -0.736386   -0.008782
     19          1           0       -1.584954    1.355871    0.009620
     20          1           0       -2.657516   -1.553415    0.036175
     21          1           0       -5.802893   -0.194081   -0.106011
     22          1           0       -4.885369    1.798081    0.106668
     23          1           0        4.217623    2.892555    0.032307
     24          1           0        2.675720    2.841952   -0.865929
     25          1           0        2.678603    2.820471    0.934048
 ---------------------------------------------------------------------
 Rotational constants (GHZ):      1.5392713      0.2853975      0.2412416
 Standard basis: 6-31+G(d,p) (6D, 7F)
 There are   321 symmetry adapted cartesian basis functions of A   symmetry.
 There are   321 symmetry adapted basis functions of A   symmetry.
   321 basis functions,   525 primitive gaussians,   321 cartesian basis functions
    51 alpha electrons       51 beta electrons
       nuclear repulsion energy       839.6626037816 Hartrees.
 NAtoms=   25 NActive=   25 NUniq=   25 SFac= 1.00D+00 NAtFMM=   60 NAOKFM=F Big=F
 Integral buffers will be    131072 words long.
 Raffenetti 2 integral format.
 Two-electron integral symmetry is turned on.
 Nuclear repulsion after empirical dispersion term =      839.6513592146 Hartrees.
 One-electron integrals computed using PRISM.
 NBasis=   321 RedAO= T EigKep=  1.39D-06  NBF=   321
 NBsUse=   320 1.00D-06 EigRej=  6.54D-07 NBFU=   320
 ExpMin= 4.38D-02 ExpMax= 5.48D+03 ExpMxC= 8.25D+02 IAcc=2 IRadAn=         4 AccDes= 0.00D+00
 Harris functional with IExCor= 1009 and IRadAn=       4 diagonalized for initial guess.
 HarFok:  IExCor= 1009 AccDes= 0.00D+00 IRadAn=         4 IDoV= 1 UseB2=F ITyADJ=14
 ICtDFT=  3500011 ScaDFX=  1.000000  1.000000  1.000000  1.000000
 FoFCou: FMM=F IPFlag=           0 FMFlag=      100000 FMFlg1=           0
         NFxFlg=           0 DoJE=T BraDBF=F KetDBF=T FulRan=T
         wScrn=  0.000000 ICntrl=     500 IOpCl=  0 I1Cent=   200000004 NGrid=           0
         NMat0=    1 NMatS0=      1 NMatT0=    0 NMatD0=    1 NMtDS0=    0 NMtDT0=    0
 Petite list used in FoFCou.
 Requested convergence on RMS density matrix=1.00D-08 within 128 cycles.
 Requested convergence on MAX density matrix=1.00D-06.
 Requested convergence on             energy=1.00D-06.
 No special actions if energy rises.
 EnCoef did     4 forward-backward iterations
 EnCoef did     1 forward-backward iterations
 SCF Done:  E(RPBE-PBE) =  -687.580854376     A.U. after   19 cycles
            NFock= 19  Conv=0.29D-08     -V/T= 2.0089

 **********************************************************************

            Population analysis using the SCF density.

 **********************************************************************

 Orbital symmetries:
       Occupied  (A) (A) (A) (A) (A) (A) (A) (A) (A) (A) (A) (A)
                 (A) (A) (A) (A) (A) (A) (A) (A) (A) (A) (A) (A)
                 (A) (A) (A) (A) (A) (A) (A) (A) (A) (A) (A) (A)
                 (A) (A) (A) (A) (A) (A) (A) (A) (A) (A) (A) (A)
                 (A) (A) (A)
       Virtual   (A) (A) (A) (A) (A) (A) (A) (A) (A) (A) (A) (A)
                 (A) (A) (A) (A) (A) (A) (A) (A) (A) (A) (A) (A)
                 (A) (A) (A) (A) (A) (A) (A) (A) (A) (A) (A) (A)
                 (A) (A) (A) (A) (A) (A) (A) (A) (A) (A) (A) (A)
                 (A) (A) (A) (A) (A) (A) (A) (A) (A) (A) (A) (A)
                 (A) (A) (A) (A) (A) (A) (A) (A) (A) (A) (A) (A)
                 (A) (A) (A) (A) (A) (A) (A) (A) (A) (A) (A) (A)
                 (A) (A) (A) (A) (A) (A) (A) (A) (A) (A) (A) (A)
                 (A) (A) (A) (A) (A) (A) (A) (A) (A) (A) (A) (A)
                 (A) (A) (A) (A) (A) (A) (A) (A) (A) (A) (A) (A)
                 (A) (A) (A) (A) (A) (A) (A) (A) (A) (A) (A) (A)
                 (A) (A) (A) (A) (A) (A) (A) (A) (A) (A) (A) (A)
                 (A) (A) (A) (A) (A) (A) (A) (A) (A) (A) (A) (A)
                 (A) (A) (A) (A) (A) (A) (A) (A) (A) (A) (A) (A)
                 (A) (A) (A) (A) (A) (A) (A) (A) (A) (A) (A) (A)
                 (A) (A) (A) (A) (A) (A) (A) (A) (A) (A) (A) (A)
                 (A) (A) (A) (A) (A) (A) (A) (A) (A) (A) (A) (A)
                 (A) (A) (A) (A) (A) (A) (A) (A) (A) (A) (A) (A)
                 (A) (A) (A) (A) (A) (A) (A) (A) (A) (A) (A) (A)
                 (A) (A) (A) (A) (A) (A) (A) (A) (A) (A) (A) (A)
                 (A) (A) (A) (A) (A) (A) (A) (A) (A) (A) (A) (A)
                 (A) (A) (A) (A) (A) (A) (A) (A) (A) (A) (A) (A)
                 (A) (A) (A) (A) (A)
 The electronic state is 1-A.
 Alpha  occ. eigenvalues --  -19.01222 -19.01110 -18.96116 -18.95831 -10.21310
 Alpha  occ. eigenvalues --  -10.11851 -10.10510 -10.08426 -10.07334 -10.06383
 Alpha  occ. eigenvalues --  -10.06366 -10.05414 -10.05311 -10.04483  -1.22196
 Alpha  occ. eigenvalues --   -1.14841  -1.14596  -1.11664  -0.93274  -0.89695
 Alpha  occ. eigenvalues --   -0.84428  -0.83145  -0.78848  -0.76715  -0.74316
 Alpha  occ. eigenvalues --   -0.72090  -0.69064  -0.66514  -0.64778  -0.61791
 Alpha  occ. eigenvalues --   -0.59939  -0.58574  -0.58420  -0.57010  -0.55432
 Alpha  occ. eigenvalues --   -0.53943  -0.53266  -0.51857  -0.51094  -0.50698
 Alpha  occ. eigenvalues --   -0.49716  -0.48359  -0.47899  -0.47256  -0.46661
 Alpha  occ. eigenvalues --   -0.43973  -0.43347  -0.43186  -0.40177  -0.35883
 Alpha  occ. eigenvalues --   -0.32892
 Alpha virt. eigenvalues --   -0.26441  -0.17909  -0.16965  -0.16869  -0.12212
 Alpha virt. eigenvalues --   -0.12005  -0.11259  -0.10971  -0.10719  -0.08962
 Alpha virt. eigenvalues --   -0.07675  -0.07535  -0.07047  -0.06377  -0.06034
 Alpha virt. eigenvalues --   -0.05044  -0.04124  -0.03991  -0.03776  -0.02820
 Alpha virt. eigenvalues --   -0.01655  -0.01238  -0.00848  -0.00398  -0.00074
 Alpha virt. eigenvalues --    0.00270   0.01196   0.01340   0.01754   0.01870
 Alpha virt. eigenvalues --    0.02431   0.02598   0.02820   0.03100   0.03518
 Alpha virt. eigenvalues --    0.04920   0.05300   0.05596   0.06048   0.06738
 Alpha virt. eigenvalues --    0.07024   0.07561   0.07668   0.08276   0.08736
 Alpha virt. eigenvalues --    0.09270   0.09435   0.09907   0.10858   0.11211
 Alpha virt. eigenvalues --    0.11795   0.12224   0.12865   0.13399   0.13670
 Alpha virt. eigenvalues --    0.13796   0.14710   0.15358   0.15438   0.15933
 Alpha virt. eigenvalues --    0.16199   0.17312   0.17568   0.18066   0.18619
 Alpha virt. eigenvalues --    0.20205   0.20648   0.21109   0.21410   0.21626
 Alpha virt. eigenvalues --    0.22443   0.22695   0.24424   0.24846   0.25435
 Alpha virt. eigenvalues --    0.26534   0.28260   0.28352   0.30407   0.31737
 Alpha virt. eigenvalues --    0.32342   0.34216   0.34891   0.40939   0.43731
 Alpha virt. eigenvalues --    0.48053   0.48665   0.49608   0.50086   0.52514
 Alpha virt. eigenvalues --    0.52717   0.53103   0.54277   0.55233   0.55534
 Alpha virt. eigenvalues --    0.56557   0.56945   0.58335   0.59489   0.60488
 Alpha virt. eigenvalues --    0.60706   0.62337   0.66852   0.67313   0.69053
 Alpha virt. eigenvalues --    0.71069   0.73275   0.74224   0.74347   0.74583
 Alpha virt. eigenvalues --    0.77016   0.78866   0.79894   0.81603   0.85186
 Alpha virt. eigenvalues --    0.85592   0.88415   0.88800   0.90396   0.91148
 Alpha virt. eigenvalues --    0.91885   0.93588   0.94279   0.95826   0.97738
 Alpha virt. eigenvalues --    0.98338   0.98432   0.99728   1.00796   1.01561
 Alpha virt. eigenvalues --    1.02085   1.03928   1.04086   1.04911   1.05648
 Alpha virt. eigenvalues --    1.06592   1.07350   1.09276   1.09472   1.10556
 Alpha virt. eigenvalues --    1.11357   1.12215   1.13352   1.15359   1.16386
 Alpha virt. eigenvalues --    1.16839   1.17364   1.19775   1.20825   1.22255
 Alpha virt. eigenvalues --    1.22777   1.24473   1.27046   1.27287   1.32067
 Alpha virt. eigenvalues --    1.34992   1.36698   1.37717   1.38556   1.40278
 Alpha virt. eigenvalues --    1.43353   1.46001   1.49500   1.54665   1.56415
 Alpha virt. eigenvalues --    1.58206   1.60554   1.61201   1.63140   1.64744
 Alpha virt. eigenvalues --    1.65500   1.67105   1.69077   1.69560   1.69997
 Alpha virt. eigenvalues --    1.71143   1.72426   1.72793   1.75987   1.76184
 Alpha virt. eigenvalues --    1.77903   1.81383   1.82977   1.83714   1.85305
 Alpha virt. eigenvalues --    1.85540   1.87105   1.88090   1.93246   1.94396
 Alpha virt. eigenvalues --    1.96272   1.97225   2.00470   2.02412   2.03053
 Alpha virt. eigenvalues --    2.06690   2.06822   2.08466   2.11207   2.15587
 Alpha virt. eigenvalues --    2.16874   2.17358   2.18267   2.21460   2.24450
 Alpha virt. eigenvalues --    2.25980   2.27739   2.28202   2.28885   2.30971
 Alpha virt. eigenvalues --    2.33004   2.33429   2.34749   2.36102   2.36870
 Alpha virt. eigenvalues --    2.37598   2.40702   2.42192   2.43115   2.44634
 Alpha virt. eigenvalues --    2.46057   2.47971   2.49405   2.50045   2.52346
 Alpha virt. eigenvalues --    2.53346   2.53505   2.56511   2.61568   2.63033
 Alpha virt. eigenvalues --    2.65371   2.65614   2.67364   2.68674   2.74994
 Alpha virt. eigenvalues --    2.77557   2.80872   2.86707   2.89075   2.93652
 Alpha virt. eigenvalues --    2.96987   3.00032   3.01880   3.06100   3.12484
 Alpha virt. eigenvalues --    3.14595   3.19784   3.21499   3.23423   3.26671
 Alpha virt. eigenvalues --    3.29091   3.33359   3.33983   3.40230   3.59401
 Alpha virt. eigenvalues --    3.97039   4.02591   4.06046   4.11397   4.13791
 Alpha virt. eigenvalues --    4.17852   4.22008   4.25123   4.29778   4.31642
 Alpha virt. eigenvalues --    4.37261   4.44841   4.58199   4.87284
          Condensed to atoms (all electrons):
               1          2          3          4          5          6
     1  C   11.961064   0.247654  -1.988838  -0.915614  -0.172850  -2.689178
     2  C    0.247654  16.589798  -3.434113  -4.657469  -0.782290  -0.123916
     3  C   -1.988838  -3.434113  14.702998  -0.130867  -1.379302  -1.273245
     4  C   -0.915614  -4.657469  -0.130867  16.087873   1.324161  -1.920961
     5  C   -0.172850  -0.782290  -1.379302   1.324161   8.940771  -0.401937
     6  C   -2.689178  -0.123916  -1.273245  -1.920961  -0.401937  10.903188
     7  O   -0.448919   0.015031   0.371792   0.073624  -0.034935  -0.028114
     8  C   -0.232503  -0.734465  -0.373989  -2.422777  -0.663200   0.849575
     9  C   -0.157365  -0.234955  -0.565594  -1.721168  -0.128632   0.740977
    10  C   -0.146941   0.012348   0.105612  -0.505556  -1.301980   0.146719
    11  O    0.000622   0.000609   0.001155   0.009774   0.022661  -0.005341
    12  O   -0.006143  -0.001003   0.001462  -0.016123  -0.002156  -0.000642
    13  O    0.052421  -0.861693   0.445435   0.337487   0.018207  -0.051822
    14  C    0.030897  -0.010065  -0.190717   0.076904  -0.053378   0.002839
    15  H    0.204602   0.077731   0.021210   0.020994  -0.008897   0.018820
    16  H   -0.021574   0.022030  -0.153191   0.291024   0.030523   0.012511
    17  H    0.013466  -0.025178   0.000776   0.044495   0.105538   0.178728
    18  H    0.169962   0.161510  -0.303976  -0.040242   0.004239  -0.001303
    19  H    0.014990   0.003858   0.026742   0.209960   0.039443  -0.043754
    20  H    0.025898  -0.003189   0.004955   0.018907   0.083026  -0.023451
    21  H    0.000325   0.000041  -0.000049   0.000937  -0.001042   0.002558
    22  H   -0.000413  -0.000017   0.000405   0.004902   0.010547  -0.003673
    23  H    0.004138   0.057452   0.091030  -0.125318  -0.012427  -0.000243
    24  H   -0.004182  -0.023642  -0.118023   0.112653   0.015539   0.003750
    25  H   -0.002985  -0.030571  -0.121823   0.116773   0.026948   0.001896
               7          8          9         10         11         12
     1  C   -0.448919  -0.232503  -0.157365  -0.146941   0.000622  -0.006143
     2  C    0.015031  -0.734465  -0.234955   0.012348   0.000609  -0.001003
     3  C    0.371792  -0.373989  -0.565594   0.105612   0.001155   0.001462
     4  C    0.073624  -2.422777  -1.721168  -0.505556   0.009774  -0.016123
     5  C   -0.034935  -0.663200  -0.128632  -1.301980   0.022661  -0.002156
     6  C   -0.028114   0.849575   0.740977   0.146719  -0.005341  -0.000642
     7  O    8.282230   0.010544   0.000687   0.000447   0.000000  -0.000000
     8  C    0.010544  10.208396  -2.315705   1.179925  -0.104260   0.108647
     9  C    0.000687  -2.315705  13.803260  -2.998721   0.286690  -0.154245
    10  C    0.000447   1.179925  -2.998721   8.702064  -0.099367   0.179628
    11  O    0.000000  -0.104260   0.286690  -0.099367   8.167978  -0.098809
    12  O   -0.000000   0.108647  -0.154245   0.179628  -0.098809   8.207840
    13  O   -0.020505  -0.031196  -0.003849  -0.000139   0.000001  -0.000006
    14  C    0.001813  -0.025933   0.001888  -0.002548  -0.000004  -0.000003
    15  H   -0.007460  -0.009218  -0.001252  -0.000264   0.000000  -0.000000
    16  H   -0.000513   0.102781   0.024965   0.000981   0.000001  -0.000115
    17  H   -0.000663  -0.014665  -0.020501   0.016067   0.000134   0.000022
    18  H    0.184374   0.000192   0.000147   0.000012   0.000000  -0.000000
    19  H   -0.000007   0.257415  -0.145435  -0.082218   0.000887  -0.003898
    20  H   -0.000003  -0.013793   0.321343  -0.104171  -0.011510   0.008874
    21  H   -0.000000   0.054074  -0.058633   0.025833   0.200666  -0.004708
    22  H   -0.000000  -0.002041   0.070423  -0.052917  -0.005802   0.196635
    23  H   -0.000052  -0.002102  -0.000058   0.000004   0.000000  -0.000000
    24  H   -0.000233   0.005129   0.000464   0.000029  -0.000000   0.000001
    25  H   -0.000206   0.002853   0.000501  -0.000083  -0.000000  -0.000001
              13         14         15         16         17         18
     1  C    0.052421   0.030897   0.204602  -0.021574   0.013466   0.169962
     2  C   -0.861693  -0.010065   0.077731   0.022030  -0.025178   0.161510
     3  C    0.445435  -0.190717   0.021210  -0.153191   0.000776  -0.303976
     4  C    0.337487   0.076904   0.020994   0.291024   0.044495  -0.040242
     5  C    0.018207  -0.053378  -0.008897   0.030523   0.105538   0.004239
     6  C   -0.051822   0.002839   0.018820   0.012511   0.178728  -0.001303
     7  O   -0.020505   0.001813  -0.007460  -0.000513  -0.000663   0.184374
     8  C   -0.031196  -0.025933  -0.009218   0.102781  -0.014665   0.000192
     9  C   -0.003849   0.001888  -0.001252   0.024965  -0.020501   0.000147
    10  C   -0.000139  -0.002548  -0.000264   0.000981   0.016067   0.000012
    11  O    0.000001  -0.000004   0.000000   0.000001   0.000134   0.000000
    12  O   -0.000006  -0.000003  -0.000000  -0.000115   0.000022  -0.000000
    13  O    8.540969   0.057288  -0.000560  -0.015274   0.000157   0.048333
    14  C    0.057288   5.084200   0.000121  -0.000914   0.000084   0.003660
    15  H   -0.000560   0.000121   0.501879   0.000013  -0.005277  -0.000059
    16  H   -0.015274  -0.000914   0.000013   0.548325  -0.000121  -0.000025
    17  H    0.000157   0.000084  -0.005277  -0.000121   0.550667   0.000006
    18  H    0.048333   0.003660  -0.000059  -0.000025   0.000006   0.368739
    19  H    0.000070   0.001010   0.000002   0.004143  -0.000019   0.000000
    20  H    0.000002   0.000030   0.000006  -0.000001   0.001977   0.000000
    21  H    0.000000  -0.000000   0.000000  -0.000000  -0.000000  -0.000000
    22  H   -0.000000   0.000005  -0.000000  -0.000000   0.000000   0.000000
    23  H   -0.060821   0.412686  -0.000000   0.000055  -0.000000  -0.000089
    24  H   -0.040703   0.402486   0.000000  -0.000384   0.000000   0.000047
    25  H   -0.041116   0.400720   0.000000  -0.000347   0.000000   0.000045
              19         20         21         22         23         24
     1  C    0.014990   0.025898   0.000325  -0.000413   0.004138  -0.004182
     2  C    0.003858  -0.003189   0.000041  -0.000017   0.057452  -0.023642
     3  C    0.026742   0.004955  -0.000049   0.000405   0.091030  -0.118023
     4  C    0.209960   0.018907   0.000937   0.004902  -0.125318   0.112653
     5  C    0.039443   0.083026  -0.001042   0.010547  -0.012427   0.015539
     6  C   -0.043754  -0.023451   0.002558  -0.003673  -0.000243   0.003750
     7  O   -0.000007  -0.000003  -0.000000  -0.000000  -0.000052  -0.000233
     8  C    0.257415  -0.013793   0.054074  -0.002041  -0.002102   0.005129
     9  C   -0.145435   0.321343  -0.058633   0.070423  -0.000058   0.000464
    10  C   -0.082218  -0.104171   0.025833  -0.052917   0.000004   0.000029
    11  O    0.000887  -0.011510   0.200666  -0.005802   0.000000  -0.000000
    12  O   -0.003898   0.008874  -0.004708   0.196635  -0.000000   0.000001
    13  O    0.000070   0.000002   0.000000  -0.000000  -0.060821  -0.040703
    14  C    0.001010   0.000030  -0.000000   0.000005   0.412686   0.402486
    15  H    0.000002   0.000006   0.000000  -0.000000  -0.000000   0.000000
    16  H    0.004143  -0.000001  -0.000000  -0.000000   0.000055  -0.000384
    17  H   -0.000019   0.001977  -0.000000   0.000000  -0.000000   0.000000
    18  H    0.000000   0.000000  -0.000000   0.000000  -0.000089   0.000047
    19  H    0.539448   0.003818   0.000012  -0.000092   0.000000  -0.000002
    20  H    0.003818   0.511132   0.000111  -0.000204   0.000000  -0.000000
    21  H    0.000012   0.000111   0.392185   0.003953   0.000000  -0.000000
    22  H   -0.000092  -0.000204   0.003953   0.391631  -0.000000   0.000000
    23  H    0.000000   0.000000   0.000000  -0.000000   0.484660  -0.023983
    24  H   -0.000002  -0.000000  -0.000000   0.000000  -0.023983   0.525385
    25  H   -0.000001   0.000000   0.000000  -0.000000  -0.023928  -0.039269
              25
     1  C   -0.002985
     2  C   -0.030571
     3  C   -0.121823
     4  C    0.116773
     5  C    0.026948
     6  C    0.001896
     7  O   -0.000206
     8  C    0.002853
     9  C    0.000501
    10  C   -0.000083
    11  O   -0.000000
    12  O   -0.000001
    13  O   -0.041116
    14  C    0.400720
    15  H    0.000000
    16  H   -0.000347
    17  H    0.000000
    18  H    0.000045
    19  H   -0.000001
    20  H    0.000000
    21  H    0.000000
    22  H   -0.000000
    23  H   -0.023928
    24  H   -0.039269
    25  H    0.525739
 Mulliken charges:
               1
     1  C    0.061468
     2  C   -0.265498
     3  C    0.260154
     4  C   -0.274372
     5  C    0.321422
     6  C   -0.293983
     7  O   -0.398931
     8  C    0.166317
     9  C   -0.745230
    10  C    0.925235
    11  O   -0.366085
    12  O   -0.415255
    13  O   -0.372685
    14  C   -0.193071
    15  H    0.187609
    16  H    0.155108
    17  H    0.154307
    18  H    0.404428
    19  H    0.173629
    20  H    0.176244
    21  H    0.383738
    22  H    0.386659
    23  H    0.198998
    24  H    0.184938
    25  H    0.184857
 Sum of Mulliken charges =   1.00000
 Mulliken charges with hydrogens summed into heavy atoms:
               1
     1  C    0.249077
     2  C   -0.265498
     3  C    0.260154
     4  C   -0.119264
     5  C    0.321422
     6  C   -0.139676
     7  O    0.005497
     8  C    0.339946
     9  C   -0.568986
    10  C    0.925235
    11  O    0.017653
    12  O   -0.028596
    13  O   -0.372685
    14  C    0.375722
 Electronic spatial extent (au):  <R**2>=           4154.1145
 Charge=              1.0000 electrons
 Dipole moment (field-independent basis, Debye):
    X=             -7.1512    Y=              3.3507    Z=              0.0633  Tot=              7.8975
 Quadrupole moment (field-independent basis, Debye-Ang):
   XX=             10.2729   YY=            -61.6633   ZZ=            -82.7904
   XY=             -2.4120   XZ=              0.3008   YZ=              1.1132
 Traceless Quadrupole moment (field-independent basis, Debye-Ang):
   XX=             54.9998   YY=            -16.9364   ZZ=            -38.0634
   XY=             -2.4120   XZ=              0.3008   YZ=              1.1132
 Octapole moment (field-independent basis, Debye-Ang**2):
  XXX=           -320.5376  YYY=             20.8616  ZZZ=             -0.0662  XYY=              4.5092
  XXY=             94.3887  XXZ=             -2.9863  XZZ=             -3.2635  YZZ=              5.1411
  YYZ=              1.4438  XYZ=             -4.1553
 Hexadecapole moment (field-independent basis, Debye-Ang**3):
 XXXX=          -1374.0128 YYYY=           -791.3742 ZZZZ=            -93.3202 XXXY=           -243.7012
 XXXZ=             29.7081 YYYX=             24.9145 YYYZ=              3.5550 ZZZX=              0.5744
 ZZZY=             -0.0500 XXYY=           -673.4402 XXZZ=           -711.7614 YYZZ=           -175.3513
 XXYZ=             22.5804 YYXZ=             -5.6563 ZZXY=             -2.9448
 N-N= 8.396513592146D+02 E-N=-3.268803275598D+03  KE= 6.815466262655D+02
 Calling FoFJK, ICntrl=      2527 FMM=F ISym2X=0 I1Cent= 0 IOpClX= 0 NMat=1 NMatS=1 NMatT=0.
 ***** Axes restored to original set *****
 -------------------------------------------------------------------
 Center     Atomic                   Forces (Hartrees/Bohr)
 Number     Number              X              Y              Z
 -------------------------------------------------------------------
      1        6           0.000463592   -0.002611312   -0.000012915
      2        6          -0.001984662    0.000846490    0.000030215
      3        6          -0.000016039    0.000765865    0.000005615
      4        6          -0.003305852    0.002122495    0.000008804
      5        6          -0.000420245    0.001238741   -0.000005597
      6        6          -0.002058435   -0.001434489   -0.000014667
      7        8           0.004871979   -0.012593414   -0.000152598
      8        6           0.000246125    0.000140122    0.000150916
      9        6           0.002616570   -0.000842529    0.000039838
     10        6           0.001436994   -0.000733479    0.000098606
     11        8          -0.002860926   -0.014224604    0.003388695
     12        8           0.008724903    0.010662693   -0.003858426
     13        8           0.008276722   -0.003254396   -0.000049497
     14        6          -0.000393102    0.002058659    0.000025126
     15        1           0.001408654   -0.005279043   -0.000070918
     16        1          -0.001338134    0.005253190    0.000062286
     17        1          -0.004053023   -0.003671592   -0.000067830
     18        1           0.006064575    0.008126848    0.000090789
     19        1          -0.000511972    0.005488450    0.000009952
     20        1           0.000041049   -0.005698628    0.000003203
     21        1          -0.008098601    0.004478296   -0.002087683
     22        1          -0.008444126    0.003151365    0.002333015
     23        1           0.005002260    0.002025044    0.000016600
     24        1          -0.002840994    0.002046245   -0.004449557
     25        1          -0.002827310    0.001938982    0.004506029
 -------------------------------------------------------------------
 Cartesian Forces:  Max     0.014224604 RMS     0.004104174

 GradGradGradGradGradGradGradGradGradGradGradGradGradGradGradGradGradGrad
 Berny optimization.
 FormGI is forming the generalized inverse of G from B-inverse, IUseBI=4.
 GSVD:  received Info=                   1 from GESDD.
 Internal  Forces:  Max     0.014637273 RMS     0.004141610
 Search for a local minimum.
 Step number   1 out of a maximum of  119
 All quantities printed in internal units (Hartrees-Bohrs-Radians)
 Mixed Optimization -- RFO/linear search
 Second derivative matrix not updated -- first step.
 ITU=  0
     Eigenvalues ---    0.01329   0.01797   0.01846   0.01906   0.01949
     Eigenvalues ---    0.02038   0.02074   0.02076   0.02137   0.02165
     Eigenvalues ---    0.02226   0.02239   0.02240   0.02241   0.02254
     Eigenvalues ---    0.02344   0.02494   0.02684   0.02721   0.02764
     Eigenvalues ---    0.10147   0.10701   0.16000   0.16000   0.16000
     Eigenvalues ---    0.16000   0.16000   0.16000   0.16000   0.16000
     Eigenvalues ---    0.16000   0.16000   0.16000   0.22000   0.22000
     Eigenvalues ---    0.22369   0.23477   0.24604   0.24999   0.25000
     Eigenvalues ---    0.25000   0.25000   0.25000   0.25000   0.34215
     Eigenvalues ---    0.34217   0.34921   0.34930   0.35404   0.35436
     Eigenvalues ---    0.35469   0.35638   0.39078   0.40404   0.41364
     Eigenvalues ---    0.42121   0.43404   0.44023   0.47305   0.47560
     Eigenvalues ---    0.47584   0.49711   0.52746   0.53647   0.53705
     Eigenvalues ---    0.54873   0.60704   0.61395   0.62190
 RFO step:  Lambda=-3.85556035D-03 EMin= 1.32918816D-02
 Linear search not attempted -- first point.
 Iteration  1 RMS(Cart)=  0.02443436 RMS(Int)=  0.00002825
 Iteration  2 RMS(Cart)=  0.00008423 RMS(Int)=  0.00000111
 Iteration  3 RMS(Cart)=  0.00000000 RMS(Int)=  0.00000111
 Variable       Old X    -DE/DX   Delta X   Delta X   Delta X     New X
                                 (Linear)    (Quad)   (Total)
    R1        2.65171   0.00813   0.00000   0.01797   0.01797   2.66969
    R2        2.60188   0.00864   0.00000   0.01717   0.01716   2.61904
    R3        2.04973   0.00546   0.00000   0.01525   0.01525   2.06499
    R4        2.69221   0.00912   0.00000   0.02183   0.02183   2.71404
    R5        2.50388   0.01179   0.00000   0.01930   0.01930   2.52317
    R6        2.60129   0.01035   0.00000   0.02074   0.02074   2.62203
    R7        2.55245   0.00868   0.00000   0.01570   0.01570   2.56815
    R8        2.69606   0.00666   0.00000   0.01580   0.01580   2.71186
    R9        2.05023   0.00542   0.00000   0.01514   0.01514   2.06537
   R10        2.68408   0.00813   0.00000   0.01880   0.01880   2.70288
   R11        2.67174   0.00728   0.00000   0.01662   0.01662   2.68836
   R12        2.04920   0.00547   0.00000   0.01526   0.01526   2.06446
   R13        1.83891   0.01013   0.00000   0.01907   0.01907   1.85798
   R14        2.62384   0.00726   0.00000   0.01513   0.01513   2.63898
   R15        2.05803   0.00551   0.00000   0.01562   0.01562   2.07364
   R16        2.62411   0.00978   0.00000   0.02040   0.02040   2.64451
   R17        2.04652   0.00569   0.00000   0.01581   0.01581   2.06232
   R18        2.49248   0.01464   0.00000   0.02339   0.02339   2.51587
   R19        2.49853   0.01383   0.00000   0.02238   0.02238   2.52091
   R20        1.83054   0.00949   0.00000   0.01756   0.01756   1.84810
   R21        1.83001   0.00931   0.00000   0.01721   0.01721   1.84722
   R22        2.69742   0.00812   0.00000   0.01944   0.01944   2.71686
   R23        2.05789   0.00540   0.00000   0.01528   0.01528   2.07317
   R24        2.06966   0.00565   0.00000   0.01633   0.01633   2.08598
   R25        2.06968   0.00565   0.00000   0.01633   0.01633   2.08601
    A1        2.08934   0.00035   0.00000   0.00149   0.00149   2.09082
    A2        2.06707  -0.00029   0.00000  -0.00142  -0.00142   2.06565
    A3        2.12678  -0.00006   0.00000  -0.00007  -0.00007   2.12671
    A4        2.10504  -0.00089   0.00000  -0.00307  -0.00306   2.10197
    A5        2.08371  -0.00036   0.00000  -0.00164  -0.00164   2.08207
    A6        2.09444   0.00125   0.00000   0.00471   0.00471   2.09914
    A7        2.08578   0.00006   0.00000   0.00068   0.00068   2.08646
    A8        1.97121   0.00001   0.00000  -0.00019  -0.00020   1.97101
    A9        2.22620  -0.00007   0.00000  -0.00048  -0.00049   2.22571
   A10        2.10142   0.00016   0.00000   0.00063   0.00063   2.10205
   A11        2.10236   0.00009   0.00000   0.00072   0.00072   2.10308
   A12        2.07940  -0.00025   0.00000  -0.00135  -0.00135   2.07806
   A13        2.07590  -0.00016   0.00000  -0.00122  -0.00122   2.07468
   A14        2.06226   0.00037   0.00000   0.00176   0.00176   2.06402
   A15        2.14502  -0.00021   0.00000  -0.00054  -0.00054   2.14449
   A16        2.10889   0.00048   0.00000   0.00149   0.00148   2.11037
   A17        2.07392  -0.00015   0.00000  -0.00019  -0.00019   2.07373
   A18        2.10038  -0.00033   0.00000  -0.00130  -0.00129   2.09909
   A19        1.91052  -0.00037   0.00000  -0.00227  -0.00227   1.90825
   A20        2.22476  -0.00034   0.00000  -0.00150  -0.00150   2.22326
   A21        2.02535   0.00011   0.00000   0.00041   0.00041   2.02576
   A22        2.03307   0.00022   0.00000   0.00109   0.00109   2.03416
   A23        2.12378   0.00179   0.00000   0.00800   0.00800   2.13177
   A24        2.14602  -0.00100   0.00000  -0.00461  -0.00461   2.14141
   A25        2.01339  -0.00080   0.00000  -0.00339  -0.00339   2.01000
   A26        2.06321  -0.00108   0.00000  -0.00426  -0.00426   2.05895
   A27        2.11177  -0.00117   0.00000  -0.00460  -0.00460   2.10716
   A28        2.10817   0.00225   0.00000   0.00886   0.00886   2.11703
   A29        2.00866  -0.00047   0.00000  -0.00286  -0.00286   2.00580
   A30        2.00031  -0.00043   0.00000  -0.00261  -0.00261   1.99770
   A31        2.07614  -0.00045   0.00000  -0.00178  -0.00178   2.07436
   A32        1.84643   0.00002   0.00000   0.00023   0.00023   1.84666
   A33        1.92986   0.00032   0.00000   0.00188   0.00188   1.93174
   A34        1.92975   0.00032   0.00000   0.00187   0.00187   1.93162
   A35        1.91346  -0.00010   0.00000  -0.00050  -0.00051   1.91295
   A36        1.91347  -0.00010   0.00000  -0.00051  -0.00051   1.91296
   A37        1.92913  -0.00043   0.00000  -0.00285  -0.00285   1.92628
    D1       -0.00050  -0.00000   0.00000  -0.00006  -0.00006  -0.00057
    D2       -3.14091   0.00000   0.00000   0.00005   0.00005  -3.14086
    D3        3.13917  -0.00000   0.00000  -0.00013  -0.00013   3.13904
    D4       -0.00124  -0.00000   0.00000  -0.00001  -0.00002  -0.00125
    D5       -0.00229  -0.00000   0.00000  -0.00010  -0.00010  -0.00239
    D6        3.13885  -0.00000   0.00000  -0.00014  -0.00014   3.13871
    D7        3.14129  -0.00000   0.00000  -0.00003  -0.00003   3.14126
    D8       -0.00075  -0.00000   0.00000  -0.00007  -0.00007  -0.00083
    D9        0.00137   0.00000   0.00000   0.00007   0.00007   0.00144
   D10       -3.14034  -0.00000   0.00000  -0.00003  -0.00003  -3.14037
   D11       -3.14142  -0.00000   0.00000  -0.00005  -0.00005  -3.14146
   D12        0.00006  -0.00000   0.00000  -0.00014  -0.00014  -0.00008
   D13        3.14081  -0.00000   0.00000  -0.00004  -0.00004   3.14077
   D14        0.00040   0.00000   0.00000   0.00007   0.00007   0.00047
   D15        0.00055   0.00000   0.00000   0.00009   0.00009   0.00064
   D16        3.14129  -0.00000   0.00000  -0.00015  -0.00015   3.14114
   D17       -3.14090   0.00000   0.00000   0.00020   0.00020  -3.14071
   D18       -0.00017  -0.00000   0.00000  -0.00004  -0.00004  -0.00021
   D19       -3.14077   0.00000   0.00000   0.00013   0.00013  -3.14064
   D20        0.00069   0.00000   0.00000   0.00003   0.00003   0.00072
   D21       -0.00326  -0.00001   0.00000  -0.00024  -0.00024  -0.00350
   D22        3.14128  -0.00001   0.00000  -0.00040  -0.00040   3.14088
   D23        3.13918   0.00000   0.00000  -0.00001  -0.00001   3.13917
   D24        0.00053  -0.00000   0.00000  -0.00017  -0.00017   0.00037
   D25        0.00416   0.00001   0.00000   0.00025   0.00025   0.00441
   D26       -3.13697   0.00001   0.00000   0.00029   0.00029  -3.13669
   D27       -3.14053   0.00001   0.00000   0.00042   0.00042  -3.14011
   D28        0.00153   0.00001   0.00000   0.00046   0.00046   0.00198
   D29       -3.12957  -0.00000   0.00000  -0.00006  -0.00006  -3.12963
   D30        0.01218   0.00001   0.00000   0.00045   0.00045   0.01264
   D31        0.01509  -0.00001   0.00000  -0.00022  -0.00022   0.01487
   D32       -3.12634   0.00001   0.00000   0.00029   0.00029  -3.12605
   D33       -3.12169   0.00004   0.00000   0.00153   0.00153  -3.12016
   D34        0.02110   0.00002   0.00000   0.00090   0.00090   0.02201
   D35        0.01974   0.00003   0.00000   0.00101   0.00101   0.02075
   D36       -3.12065   0.00001   0.00000   0.00039   0.00039  -3.12026
   D37       -3.06195   0.00009   0.00000   0.00339   0.00339  -3.05856
   D38        0.08899   0.00010   0.00000   0.00396   0.00396   0.09295
   D39        0.07852   0.00011   0.00000   0.00397   0.00397   0.08249
   D40       -3.05372   0.00012   0.00000   0.00454   0.00454  -3.04918
   D41       -2.92131   0.00003   0.00000   0.00087   0.00087  -2.92044
   D42        0.21095   0.00000   0.00000   0.00023   0.00023   0.21118
   D43       -2.87277   0.00005   0.00000   0.00158   0.00158  -2.87119
   D44        0.27841   0.00007   0.00000   0.00224   0.00224   0.28065
   D45       -3.14150  -0.00000   0.00000  -0.00003  -0.00003  -3.14153
   D46       -1.07106   0.00005   0.00000   0.00050   0.00050  -1.07056
   D47        1.07128  -0.00005   0.00000  -0.00054  -0.00054   1.07074
         Item               Value     Threshold  Converged?
 Maximum Force            0.014637     0.000450     NO 
 RMS     Force            0.004142     0.000300     NO 
 Maximum Displacement     0.086675     0.001800     NO 
 RMS     Displacement     0.024457     0.001200     NO 
 Predicted change in Energy=-1.943974D-03
 GradGradGradGradGradGradGradGradGradGradGradGradGradGradGradGradGradGrad

                          Input orientation:                          
 ---------------------------------------------------------------------
 Center     Atomic      Atomic             Coordinates (Angstroms)
 Number     Number       Type             X           Y           Z
 ---------------------------------------------------------------------
      1          6           0        1.481128   -2.040416   -0.023158
      2          6           0        2.532327   -1.096657   -0.011861
      3          6           0        2.246359    0.310695    0.004623
      4          6           0        0.927202    0.740807    0.011157
      5          6           0       -0.147574   -0.210068    0.002353
      6          6           0        0.165171   -1.605616   -0.017625
      7          8           0        3.796396   -1.526613   -0.018177
      8          6           0       -1.482351    0.282024    0.010474
      9          6           0       -2.661689   -0.465832    0.017456
     10          6           0       -3.924986    0.135936   -0.000227
     11          8           0       -4.993244   -0.651529    0.105606
     12          8           0       -4.048670    1.457741   -0.131052
     13          8           0        3.367480    1.078759    0.012334
     14          6           0        3.228099    2.509575    0.030140
     15          1           0        1.737454   -3.102567   -0.038043
     16          1           0        0.691816    1.808028    0.024107
     17          1           0       -0.635119   -2.349175   -0.029290
     18          1           0        4.403359   -0.753174   -0.009514
     19          1           0       -1.593829    1.373672    0.010662
     20          1           0       -2.667673   -1.556966    0.037523
     21          1           0       -5.845560   -0.220267   -0.104154
     22          1           0       -4.931236    1.806797    0.102945
     23          1           0        4.249750    2.909315    0.033411
     24          1           0        2.695913    2.860656   -0.870980
     25          1           0        2.698854    2.838269    0.941395
 ---------------------------------------------------------------------
                    Distance matrix (angstroms):
                    1          2          3          4          5
     1  C    0.000000
     2  C    1.412737   0.000000
     3  C    2.472665   1.436207   0.000000
     4  C    2.836056   2.439924   1.387521   0.000000
     5  C    2.450203   2.822784   2.449921   1.435055   0.000000
     6  C    1.385938   2.421259   2.829149   2.467230   1.430302
     7  O    2.371599   1.335205   2.403921   3.657093   4.157957
     8  C    3.765244   4.244867   3.728824   2.452840   1.422621
     9  C    4.432143   5.232265   4.969113   3.786311   2.527136
    10  C    5.827787   6.573911   6.173821   4.889757   3.793227
    11  O    6.622921   7.539638   7.303966   6.082696   4.866833
    12  O    6.544265   7.060359   6.400117   5.029265   4.244753
    13  O    3.645385   2.330343   1.359004   2.463568   3.743898
    14  C    4.874132   3.672979   2.408223   2.902245   4.335020
    15  H    1.092744   2.157819   3.451256   3.928162   3.452755
    16  H    3.928838   3.438890   2.158468   1.092947   2.185808
    17  H    2.138661   3.406143   3.921603   3.462726   2.194192
    18  H    3.193214   1.902301   2.405134   3.783660   4.583241
    19  H    4.594834   4.809178   3.984595   2.599252   2.144750
    20  H    4.177315   5.220567   5.257086   4.266566   2.857669
    21  H    7.549826   8.424106   8.110050   6.841584   5.698991
    22  H    7.478994   8.009244   7.332520   5.955337   5.192425
    23  H    5.671711   4.358831   3.281346   3.967650   5.391472
    24  H    5.120060   4.052798   2.733328   2.898321   4.275216
    25  H    5.120037   4.052168   2.733298   2.898869   4.275080
                    6          7          8          9         10
     6  C    0.000000
     7  O    3.632084   0.000000
     8  C    2.505654   5.580068   0.000000
     9  C    3.048192   6.544722   1.396486   0.000000
    10  C    4.445525   7.898363   2.447024   1.399413   0.000000
    11  O    5.247353   8.833961   3.634135   2.340599   1.331343
    12  O    5.210900   8.394293   2.826364   2.376111   1.334009
    13  O    4.178701   2.640618   4.914839   6.223878   7.353172
    14  C    5.130166   4.076287   5.210634   6.598697   7.536691
    15  H    2.171026   2.592926   4.671719   5.129124   6.523233
    16  H    3.454281   4.556318   2.656290   4.051725   4.910331
    17  H    1.092465   4.507222   2.764523   2.766975   4.123087
    18  H    4.323073   0.983203   5.976087   7.070940   8.375676
    19  H    3.459919   6.121030   1.097325   2.127004   2.639395
    20  H    2.833799   6.464380   2.188059   1.091335   2.109070
    21  H    6.168920   9.730429   4.393522   3.195642   1.956090
    22  H    6.134530   9.343331   3.772040   3.212941   1.953192
    23  H    6.088595   4.459333   6.305566   7.691544   8.632443
    24  H    5.203889   4.602876   4.988406   6.368574   7.212393
    25  H    5.204554   4.601909   4.988334   6.364445   7.215575
                   11         12         13         14         15
    11  O    0.000000
    12  O    2.323197   0.000000
    13  O    8.538401   7.427211   0.000000
    14  C    8.808448   7.354162   1.437700   0.000000
    15  H    7.164532   7.367787   4.488096   5.807135   0.000000
    16  H    6.194834   4.755942   2.773292   2.631527   5.021072
    17  H    4.679044   5.114224   5.270033   6.207691   2.489333
    18  H    9.397858   8.737260   2.104638   3.468190   3.553521
    19  H    3.958090   2.460364   4.970066   4.953952   5.580012
    20  H    2.496543   3.320244   6.585647   7.162188   4.669019
    21  H    0.977972   2.458709   9.304899   9.476358   8.112591
    22  H    2.459109   0.977506   8.331082   8.189868   8.282099
    23  H    9.905441   8.426024   2.032187   1.097075   6.516093
    24  H    8.509541   6.928568   2.099144   1.103855   6.096922
    25  H    8.487968   6.970300   2.099068   1.103868   6.097304
                   16         17         18         19         20
    16  H    0.000000
    17  H    4.364165   0.000000
    18  H    4.509594   5.285250   0.000000
    19  H    2.326590   3.844517   6.363187   0.000000
    20  H    4.754948   2.182507   7.116727   3.121298   0.000000
    21  H    6.846001   5.629081  10.263202   4.542141   3.450479
    22  H    5.623605   5.978813   9.679915   3.366659   4.054984
    23  H    3.724488   7.177575   3.665960   6.042031   8.233980
    24  H    2.434257   6.240717   4.088676   4.624965   7.007768
    25  H    2.435368   6.242369   4.087545   4.630166   6.995333
                   21         22         23         24         25
    21  H    0.000000
    22  H    2.233354   0.000000
    23  H   10.570170   9.247209   0.000000
    24  H    9.112457   7.760963   1.798528   0.000000
    25  H    9.135362   7.745012   1.798543   1.812515   0.000000
 Stoichiometry    C10H11O4(1+)
 Framework group  C1[X(C10H11O4)]
 Deg. of freedom    69
 Full point group                 C1      NOp   1
 Largest Abelian subgroup         C1      NOp   1
 Largest concise Abelian subgroup C1      NOp   1
                         Standard orientation:                         
 ---------------------------------------------------------------------
 Center     Atomic      Atomic             Coordinates (Angstroms)
 Number     Number       Type             X           Y           Z
 ---------------------------------------------------------------------
      1          6           0        1.481327   -2.039023   -0.023677
      2          6           0        2.532606   -1.095358   -0.012063
      3          6           0        2.246759    0.312014    0.004870
      4          6           0        0.927639    0.742237    0.011526
      5          6           0       -0.147218   -0.208543    0.002403
      6          6           0        0.165407   -1.604111   -0.018020
      7          8           0        3.796638   -1.525420   -0.018503
      8          6           0       -1.481953    0.283661    0.010666
      9          6           0       -2.661355   -0.464095    0.017393
     10          6           0       -3.924601    0.137786   -0.000111
     11          8           0       -4.992928   -0.649621    0.105455
     12          8           0       -4.048169    1.459644   -0.130513
     13          8           0        3.367946    1.079978    0.012842
     14          6           0        3.228688    2.510801    0.031105
     15          1           0        1.737561   -3.101191   -0.038900
     16          1           0        0.692345    1.809474    0.024816
     17          1           0       -0.634947   -2.347597   -0.029934
     18          1           0        4.403668   -0.752036   -0.009584
     19          1           0       -1.593338    1.375319    0.011204
     20          1           0       -2.667434   -1.555235    0.037110
     21          1           0       -5.845205   -0.218218   -0.104177
     22          1           0       -4.930708    1.808701    0.103586
     23          1           0        4.250373    2.910452    0.034518
     24          1           0        2.696543    2.862218   -0.869908
     25          1           0        2.699461    2.839247    0.942459
 ---------------------------------------------------------------------
 Rotational constants (GHZ):      1.5169178      0.2813478      0.2378149
 Standard basis: 6-31+G(d,p) (6D, 7F)
 There are   321 symmetry adapted cartesian basis functions of A   symmetry.
 There are   321 symmetry adapted basis functions of A   symmetry.
   321 basis functions,   525 primitive gaussians,   321 cartesian basis functions
    51 alpha electrons       51 beta electrons
       nuclear repulsion energy       833.5187784571 Hartrees.
 NAtoms=   25 NActive=   25 NUniq=   25 SFac= 1.00D+00 NAtFMM=   60 NAOKFM=F Big=F
 Integral buffers will be    131072 words long.
 Raffenetti 2 integral format.
 Two-electron integral symmetry is turned on.
 Nuclear repulsion after empirical dispersion term =      833.5075316914 Hartrees.
 One-electron integrals computed using PRISM.
 NBasis=   321 RedAO= T EigKep=  1.51D-06  NBF=   321
 NBsUse=   320 1.00D-06 EigRej=  7.01D-07 NBFU=   320
 Initial guess from the checkpoint file:  "pbeD3FAyang.chk"
 B after Tr=    -0.000000    0.000000   -0.000000
         Rot=    1.000000   -0.000057   -0.000015    0.000076 Ang=  -0.01 deg.
 ExpMin= 4.38D-02 ExpMax= 5.48D+03 ExpMxC= 8.25D+02 IAcc=2 IRadAn=         4 AccDes= 0.00D+00
 Harris functional with IExCor= 1009 and IRadAn=       4 diagonalized for initial guess.
 HarFok:  IExCor= 1009 AccDes= 0.00D+00 IRadAn=         4 IDoV= 1 UseB2=F ITyADJ=14
 ICtDFT=  3500011 ScaDFX=  1.000000  1.000000  1.000000  1.000000
 FoFCou: FMM=F IPFlag=           0 FMFlag=      100000 FMFlg1=           0
         NFxFlg=           0 DoJE=T BraDBF=F KetDBF=T FulRan=T
         wScrn=  0.000000 ICntrl=     500 IOpCl=  0 I1Cent=   200000004 NGrid=           0
         NMat0=    1 NMatS0=      1 NMatT0=    0 NMatD0=    1 NMtDS0=    0 NMtDT0=    0
 Petite list used in FoFCou.
 Requested convergence on RMS density matrix=1.00D-08 within 128 cycles.
 Requested convergence on MAX density matrix=1.00D-06.
 Requested convergence on             energy=1.00D-06.
 No special actions if energy rises.
 EnCoef did     7 forward-backward iterations
 SCF Done:  E(RPBE-PBE) =  -687.582756350     A.U. after   13 cycles
            NFock= 13  Conv=0.46D-08     -V/T= 2.0096
 Calling FoFJK, ICntrl=      2527 FMM=F ISym2X=0 I1Cent= 0 IOpClX= 0 NMat=1 NMatS=1 NMatT=0.
 ***** Axes restored to original set *****
 -------------------------------------------------------------------
 Center     Atomic                   Forces (Hartrees/Bohr)
 Number     Number              X              Y              Z
 -------------------------------------------------------------------
      1        6          -0.000091847    0.000402390    0.000009692
      2        6          -0.001834795    0.002006211    0.000021001
      3        6          -0.001642218   -0.000636038    0.000001781
      4        6          -0.000127238   -0.000371153    0.000000552
      5        6           0.000244514    0.000000069   -0.000006805
      6        6           0.000546328   -0.000055282    0.000000256
      7        8           0.000839737   -0.002000819   -0.000022356
      8        6          -0.000127924   -0.000055308    0.000037497
      9        6          -0.000321551    0.000661363   -0.000019142
     10        6           0.001618918   -0.000553116    0.000070769
     11        8          -0.000321824   -0.002550663    0.000708141
     12        8           0.001612487    0.001774341   -0.000823979
     13        8           0.001872460   -0.001672548   -0.000027721
     14        6          -0.000848729    0.002280486    0.000029860
     15        1          -0.000011913    0.000097925    0.000002626
     16        1           0.000134566   -0.000056524   -0.000000544
     17        1           0.000120953    0.000047038   -0.000005390
     18        1          -0.000141015    0.001193119    0.000016561
     19        1          -0.000004338    0.000004034    0.000001700
     20        1          -0.000114590   -0.000001788   -0.000039761
     21        1          -0.000304536    0.001158288   -0.000388151
     22        1          -0.001037289   -0.000459548    0.000448676
     23        1           0.000114020   -0.000527984   -0.000006601
     24        1          -0.000086588   -0.000341570   -0.000057658
     25        1          -0.000087592   -0.000342924    0.000048993
 -------------------------------------------------------------------
 Cartesian Forces:  Max     0.002550663 RMS     0.000818722

 GradGradGradGradGradGradGradGradGradGradGradGradGradGradGradGradGradGrad
 Berny optimization.
 Using GEDIIS/GDIIS optimizer.
 FormGI is forming the generalized inverse of G from B-inverse, IUseBI=4.
 GSVD:  received Info=                   1 from GESDD.
 Internal  Forces:  Max     0.001831150 RMS     0.000548220
 Search for a local minimum.
 Step number   2 out of a maximum of  119
 All quantities printed in internal units (Hartrees-Bohrs-Radians)
 Mixed Optimization -- En-DIIS/RFO-DIIS
 Update second derivatives using D2CorX and points    1    2
 DE= -1.90D-03 DEPred=-1.94D-03 R= 9.78D-01
 TightC=F SS=  1.41D+00  RLast= 9.17D-02 DXNew= 5.0454D-01 2.7500D-01
 Trust test= 9.78D-01 RLast= 9.17D-02 DXMaxT set to 3.00D-01
 ITU=  1  0
 Use linear search instead of GDIIS.
     Eigenvalues ---    0.01329   0.01797   0.01846   0.01906   0.01949
     Eigenvalues ---    0.02039   0.02074   0.02077   0.02137   0.02165
     Eigenvalues ---    0.02226   0.02239   0.02240   0.02241   0.02254
     Eigenvalues ---    0.02344   0.02496   0.02684   0.02721   0.02764
     Eigenvalues ---    0.10130   0.10690   0.15779   0.16000   0.16000
     Eigenvalues ---    0.16000   0.16000   0.16000   0.16000   0.16000
     Eigenvalues ---    0.16000   0.16000   0.16021   0.21969   0.22051
     Eigenvalues ---    0.22369   0.23478   0.24617   0.24758   0.25000
     Eigenvalues ---    0.25000   0.25000   0.25000   0.25088   0.34216
     Eigenvalues ---    0.34226   0.34914   0.34947   0.35412   0.35447
     Eigenvalues ---    0.35510   0.35631   0.39099   0.40546   0.40913
     Eigenvalues ---    0.42514   0.43596   0.44641   0.47307   0.47573
     Eigenvalues ---    0.48453   0.51471   0.52455   0.53207   0.53677
     Eigenvalues ---    0.54820   0.59594   0.61007   0.61907
 RFO step:  Lambda=-1.15544874D-04 EMin= 1.32918813D-02
 Quartic linear search produced a step of -0.00327.
 Iteration  1 RMS(Cart)=  0.00493801 RMS(Int)=  0.00001644
 Iteration  2 RMS(Cart)=  0.00001823 RMS(Int)=  0.00000094
 Iteration  3 RMS(Cart)=  0.00000000 RMS(Int)=  0.00000094
 Variable       Old X    -DE/DX   Delta X   Delta X   Delta X     New X
                                 (Linear)    (Quad)   (Total)
    R1        2.66969  -0.00081  -0.00006  -0.00123  -0.00129   2.66839
    R2        2.61904  -0.00098  -0.00006  -0.00137  -0.00142   2.61762
    R3        2.06499  -0.00010  -0.00005   0.00023   0.00018   2.06517
    R4        2.71404  -0.00148  -0.00007  -0.00290  -0.00297   2.71107
    R5        2.52317   0.00092  -0.00006   0.00215   0.00209   2.52526
    R6        2.62203  -0.00097  -0.00007  -0.00129  -0.00136   2.62068
    R7        2.56815   0.00045  -0.00005   0.00134   0.00129   2.56944
    R8        2.71186  -0.00087  -0.00005  -0.00152  -0.00157   2.71029
    R9        2.06537  -0.00009  -0.00005   0.00026   0.00021   2.06558
   R10        2.70288  -0.00028  -0.00006   0.00004  -0.00002   2.70286
   R11        2.68836  -0.00093  -0.00005  -0.00159  -0.00165   2.68672
   R12        2.06446  -0.00012  -0.00005   0.00017   0.00012   2.06458
   R13        1.85798   0.00085  -0.00006   0.00223   0.00217   1.86015
   R14        2.63898  -0.00099  -0.00005  -0.00157  -0.00162   2.63736
   R15        2.07364   0.00001  -0.00005   0.00054   0.00048   2.07413
   R16        2.64451  -0.00168  -0.00007  -0.00284  -0.00290   2.64161
   R17        2.06232  -0.00000  -0.00005   0.00052   0.00047   2.06279
   R18        2.51587   0.00135  -0.00008   0.00293   0.00286   2.51873
   R19        2.52091   0.00130  -0.00007   0.00285   0.00277   2.52369
   R20        1.84810   0.00086  -0.00006   0.00218   0.00213   1.85023
   R21        1.84722   0.00088  -0.00006   0.00220   0.00215   1.84937
   R22        2.71686   0.00114  -0.00006   0.00338   0.00332   2.72017
   R23        2.07317  -0.00009  -0.00005   0.00026   0.00021   2.07339
   R24        2.08598  -0.00002  -0.00005   0.00048   0.00042   2.08641
   R25        2.08601  -0.00002  -0.00005   0.00048   0.00042   2.08643
    A1        2.09082  -0.00030  -0.00000  -0.00123  -0.00123   2.08959
    A2        2.06565   0.00014   0.00000   0.00054   0.00055   2.06620
    A3        2.12671   0.00016   0.00000   0.00068   0.00068   2.12739
    A4        2.10197   0.00042   0.00001   0.00144   0.00145   2.10343
    A5        2.08207  -0.00012   0.00001  -0.00046  -0.00045   2.08162
    A6        2.09914  -0.00030  -0.00002  -0.00098  -0.00100   2.09814
    A7        2.08646   0.00018  -0.00000   0.00064   0.00063   2.08710
    A8        1.97101  -0.00055   0.00000  -0.00212  -0.00212   1.96889
    A9        2.22571   0.00036   0.00000   0.00148   0.00148   2.22720
   A10        2.10205  -0.00040  -0.00000  -0.00169  -0.00169   2.10036
   A11        2.10308   0.00007  -0.00000   0.00010   0.00010   2.10318
   A12        2.07806   0.00032   0.00000   0.00159   0.00159   2.07965
   A13        2.07468   0.00027   0.00000   0.00134   0.00134   2.07602
   A14        2.06402  -0.00023  -0.00001  -0.00099  -0.00100   2.06302
   A15        2.14449  -0.00005   0.00000  -0.00034  -0.00034   2.14415
   A16        2.11037  -0.00019  -0.00000  -0.00050  -0.00050   2.10987
   A17        2.07373   0.00005   0.00000  -0.00003  -0.00002   2.07370
   A18        2.09909   0.00014   0.00000   0.00052   0.00053   2.09961
   A19        1.90825  -0.00157   0.00001  -0.00985  -0.00984   1.89841
   A20        2.22326  -0.00052   0.00000  -0.00241  -0.00241   2.22085
   A21        2.02576   0.00026  -0.00000   0.00121   0.00121   2.02697
   A22        2.03416   0.00026  -0.00000   0.00120   0.00120   2.03536
   A23        2.13177  -0.00037  -0.00003  -0.00141  -0.00144   2.13034
   A24        2.14141   0.00031   0.00002   0.00143   0.00145   2.14286
   A25        2.01000   0.00006   0.00001  -0.00002  -0.00001   2.00998
   A26        2.05895  -0.00004   0.00001  -0.00032  -0.00031   2.05864
   A27        2.10716  -0.00013   0.00002  -0.00068  -0.00067   2.10650
   A28        2.11703   0.00018  -0.00003   0.00100   0.00097   2.11800
   A29        2.00580  -0.00171   0.00001  -0.01073  -0.01072   1.99508
   A30        1.99770  -0.00155   0.00001  -0.00972  -0.00971   1.98799
   A31        2.07436  -0.00183   0.00001  -0.00736  -0.00735   2.06701
   A32        1.84666  -0.00065  -0.00000  -0.00399  -0.00399   1.84267
   A33        1.93174  -0.00033  -0.00001  -0.00204  -0.00205   1.92969
   A34        1.93162  -0.00033  -0.00001  -0.00204  -0.00205   1.92957
   A35        1.91295   0.00048   0.00000   0.00300   0.00300   1.91595
   A36        1.91296   0.00048   0.00000   0.00300   0.00300   1.91596
   A37        1.92628   0.00034   0.00001   0.00195   0.00196   1.92824
    D1       -0.00057   0.00000   0.00000   0.00000   0.00000  -0.00056
    D2       -3.14086  -0.00000  -0.00000  -0.00003  -0.00003  -3.14089
    D3        3.13904  -0.00000   0.00000  -0.00004  -0.00004   3.13900
    D4       -0.00125  -0.00000   0.00000  -0.00007  -0.00007  -0.00132
    D5       -0.00239  -0.00000   0.00000  -0.00007  -0.00007  -0.00246
    D6        3.13871  -0.00000   0.00000  -0.00012  -0.00012   3.13859
    D7        3.14126  -0.00000   0.00000  -0.00002  -0.00002   3.14123
    D8       -0.00083  -0.00000   0.00000  -0.00008  -0.00008  -0.00090
    D9        0.00144   0.00000  -0.00000   0.00005   0.00005   0.00149
   D10       -3.14037   0.00000   0.00000   0.00009   0.00009  -3.14028
   D11       -3.14146   0.00000   0.00000   0.00008   0.00008  -3.14139
   D12       -0.00008   0.00000   0.00000   0.00012   0.00012   0.00003
   D13        3.14077   0.00000   0.00000   0.00006   0.00006   3.14082
   D14        0.00047   0.00000  -0.00000   0.00002   0.00002   0.00049
   D15        0.00064  -0.00000  -0.00000  -0.00002  -0.00002   0.00062
   D16        3.14114  -0.00000   0.00000  -0.00006  -0.00005   3.14108
   D17       -3.14071  -0.00000  -0.00000  -0.00007  -0.00007  -3.14078
   D18       -0.00021  -0.00000   0.00000  -0.00010  -0.00010  -0.00031
   D19       -3.14064  -0.00000  -0.00000  -0.00002  -0.00002  -3.14066
   D20        0.00072   0.00000  -0.00000   0.00003   0.00003   0.00075
   D21       -0.00350  -0.00000   0.00000  -0.00005  -0.00004  -0.00355
   D22        3.14088  -0.00000   0.00000  -0.00016  -0.00016   3.14072
   D23        3.13917   0.00000   0.00000  -0.00001  -0.00001   3.13916
   D24        0.00037  -0.00000   0.00000  -0.00013  -0.00013   0.00023
[...]
 00110,0.00002949,0.00073179,0.00008855,-0.00111582,-0.00073901,-0.0000
 2393,0.14629747,0.19000205,0.00014902,0.00007339,0.00461789,0.00003038
 ,-0.00012758,0.00836735,-0.00000171,0.00001625,-0.00112736,0.00009182,
 -0.00009339,0.00410548,-0.00042160,-0.00018196,0.00118418,-0.00244818,
 -0.00259121,-0.03294166,0.00001824,0.00000708,0.00003260,0.00010328,0.
 00010423,-0.00259537,0.00000151,-0.00014827,0.00023593,-0.00001785,0.0
 0002009,-0.00029066,0.00004027,0.00000174,-0.00010449,-0.00001878,-0.0
 0002800,0.00016296,0.00000286,0.00001237,-0.00039974,-0.00000024,-0.00
 000350,-0.00014554,0.00000443,0.00007412,-0.00452383,-0.00001068,-0.00
 003111,0.00132096,0.00240587,0.00285645,0.02154753,-0.00297739,0.00508
 604,0.00008060,-0.03866303,-0.03292235,-0.00039590,-0.00143870,-0.0016
 3037,0.00000037,-0.00138524,-0.00110938,-0.00001103,0.00137712,-0.0006
 7917,-0.00000483,-0.00123713,-0.00115515,-0.00002581,-0.18012274,-0.16
 876285,-0.00196069,-0.00138827,0.00012605,0.00000783,0.00135364,-0.000
 11696,0.00001787,-0.00163040,0.00080578,-0.00001157,0.00100587,0.00032
 895,-0.00013900,0.00032633,-0.00079772,0.00014494,-0.00034659,-0.00127
 224,-0.00001452,0.00105296,0.00117576,0.00001416,0.00013823,0.00008158
 ,0.00000215,0.00035996,-0.00009755,-0.00000110,-0.00036292,0.00021859,
 0.00000217,0.22408215,0.00618232,0.00029069,-0.00005305,0.00405149,0.0
 1240670,0.00016495,0.01188226,0.00182612,0.00002342,-0.00402528,-0.000
 66329,0.00000629,0.00247950,-0.00057186,-0.00001211,-0.00195755,0.0013
 4187,-0.00000189,-0.21414944,-0.30624014,-0.00346077,-0.00203588,-0.00
 021269,0.00000179,0.00145118,-0.00002508,0.00002400,-0.00152382,0.0008
 9628,-0.00001933,0.00083701,0.00025218,-0.00012621,0.00027865,-0.00080
 131,0.00012978,-0.00241322,0.00184819,0.00004167,-0.00258684,-0.003020
 09,-0.00002734,0.00012943,0.00010238,0.00001036,0.00030515,-0.00004170
 ,-0.00000491,0.00019458,-0.00006723,0.00000586,0.20147236,0.29086175,0
 .00005844,-0.00005564,0.00475070,0.00011445,0.00019476,-0.00251223,0.0
 0011531,0.00002972,-0.00048359,-0.00003845,0.00000403,-0.00066097,0.00
 001431,-0.00000312,0.00004773,-0.00001331,-0.00001713,0.00152793,-0.00
 251743,-0.00348633,-0.01262314,-0.00001318,0.00000686,-0.00007301,0.00
 001794,-0.00001399,-0.00006952,-0.00002332,0.00000825,-0.00004190,0.00
 001541,0.00000356,-0.00001536,0.00000206,-0.00001945,0.00001726,-0.000
 01864,0.00003363,-0.00117604,-0.00003014,-0.00001954,-0.00132771,0.000
 00207,0.00001172,-0.00050612,0.00000540,-0.00000817,0.00044321,0.00000
 152,0.00000833,-0.00058676,0.00232080,0.00328755,0.01294152,0.00025711
 ,0.00146809,0.00003840,0.00022341,0.00029369,-0.00001575,0.00004837,-0
 .00055431,-0.00000430,0.00033894,0.00251072,0.00005863,-0.00144525,0.0
 2759618,-0.00002815,-0.00512871,-0.00009475,-0.00004362,0.00003332,-0.
 00018741,0.00000716,-0.05660274,0.02682405,0.00005746,0.00406105,-0.02
 682295,0.00020182,0.00051371,-0.00377458,0.00017999,0.00044827,0.00066
 685,-0.00009869,-0.00238853,0.00142710,-0.00065420,0.00003914,-0.00007
 885,-0.00000408,-0.00002555,0.00010016,0.00000208,-0.00039424,0.000059
 34,0.00000828,-0.00085496,-0.00103101,-0.00001587,0.00008806,0.0000182
 6,-0.00000098,-0.00004884,0.00003485,-0.00000145,0.06452685,-0.0004382
 0,-0.00063720,-0.00004069,0.00007115,-0.00000202,0.00000427,-0.0001000
 2,0.00042657,-0.00001221,-0.00185025,0.00140718,-0.00006711,-0.0001501
 6,-0.00866445,0.00009047,0.00156646,0.00093467,0.00013830,-0.00013344,
 0.00004092,0.00000418,0.02644125,-0.31744637,0.00001040,0.00154441,-0.
 01446070,0.00018840,0.00062620,-0.00166156,0.00020207,-0.00019010,0.00
 017027,-0.00002810,0.00110490,0.00100209,-0.00004098,-0.00003361,-0.00
 004802,0.00000845,0.00001979,0.00001304,-0.00000061,0.00016435,-0.0000
 0115,-0.00001226,0.00055484,0.00048735,0.00001547,-0.00008132,0.000061
 10,0.00000220,0.00003439,0.00002332,0.00000109,-0.02737263,0.33746447,
 0.00007446,0.00001805,-0.00073933,-0.00005048,-0.00002316,0.00047035,0
 .00000248,-0.00003226,-0.00001751,-0.00005900,0.00002014,-0.00329961,0
 .00029292,-0.00035025,0.00653167,0.00001625,-0.00003144,0.00589408,0.0
 0005058,-0.00000438,-0.00012596,-0.00039019,0.00012326,-0.04224002,0.0
 0067076,0.00019246,0.00618269,-0.00014491,0.00042356,-0.00431281,0.000
 34475,-0.00015508,0.00002549,-0.00089911,-0.00040909,0.00054885,0.0000
 0685,0.00001486,0.00021742,0.00000162,-0.00000907,0.00004904,0.0000029
 5,0.00000898,-0.00071556,-0.00000474,-0.00000327,0.00035117,-0.0000057
 1,0.00001145,-0.00009895,-0.00000513,-0.00000804,0.00008099,-0.0000390
 6,-0.00032517,0.02465632,0.00012752,0.00045541,0.00001784,0.00008832,-
 0.00030523,0.00001685,-0.00031244,0.00041569,-0.00000636,0.00040838,0.
 00019077,-0.00001233,0.00017952,0.00109482,0.00003624,-0.00112809,-0.0
 0147143,-0.00003738,-0.00006412,0.00011302,-0.00000320,0.00659247,-0.0
 2611144,0.00049084,-0.05300049,-0.00295251,-0.00019708,0.00296315,0.02
 799917,-0.00101965,-0.00049104,0.00007630,0.00005366,-0.00570885,0.002
 18055,0.00088883,0.00015511,0.00013650,0.00000293,0.00002204,-0.000099
 58,-0.00000160,-0.00004114,0.00000347,-0.00000424,0.00017061,0.0001356
 0,0.00000210,-0.00177574,0.00156896,0.00009520,0.00002396,0.00001861,-
 0.00000238,-0.00388148,-0.00189497,-0.00003599,0.05549968,0.00008607,0
 .00027073,-0.00001752,-0.00002595,-0.00002521,-0.00000633,-0.00000312,
 -0.00009757,-0.00000969,-0.00019557,-0.00015643,0.00000217,0.00151026,
 -0.00049705,-0.00012415,0.00059916,0.00038651,0.00001312,0.00014284,0.
 00000303,0.00000292,-0.00112907,-0.01106647,0.00021259,0.00419436,-0.3
 3337246,0.00685208,-0.00207969,-0.01178565,0.00056228,-0.00133108,0.00
 048858,-0.00016646,0.00153249,0.00107480,-0.00063672,0.00000446,0.0000
 5936,0.00000138,0.00000486,-0.00003306,-0.00000015,-0.00000310,0.00000
 091,0.00000018,0.00001182,0.00007603,0.00000442,0.00095845,0.00057893,
 -0.00001431,-0.00000483,-0.00002237,0.00000329,-0.00155277,0.00052123,
 0.00016934,-0.00255816,0.35347692,-0.00000979,-0.00001693,-0.00025072,
 -0.00003389,0.00004395,-0.00032379,0.00004879,-0.00006245,-0.00000059,
 -0.00010946,-0.00003658,-0.00009882,0.00018012,-0.00010921,-0.00336177
 ,0.00003358,0.00012989,-0.00036602,0.00002260,-0.00000903,0.00014251,-
 0.00056307,0.00006607,0.00247483,0.00052509,0.00664257,-0.03032341,-0.
 00053216,0.00094332,-0.00037281,0.00056076,-0.00004128,-0.00191784,-0.
 00032433,-0.00083268,0.00425341,-0.00000074,0.00001043,0.00003376,-0.0
 0000029,-0.00000207,0.00001924,0.00000217,-0.00000110,0.00012334,-0.00
 000384,-0.00000233,0.00009087,0.00009568,-0.00009872,0.00114396,-0.000
 00470,-0.00000578,0.00004790,0.00011027,-0.00013121,0.00651802,0.00037
 192,-0.00733649,0.02145528,0.00069145,0.00034794,0.00001709,-0.0010887
 7,0.00038937,0.00000537,-0.00009954,-0.00112563,-0.00001096,-0.0006892
 4,-0.00019473,-0.00013876,0.00129343,-0.00128670,-0.00004805,-0.000423
 13,0.00089988,0.00006041,0.00113178,-0.00016539,-0.00000533,-0.0032478
 4,0.00057175,0.00083890,0.00226394,-0.00506219,-0.00050122,-0.03726123
 ,0.01982067,-0.00725503,-0.34621657,0.14718998,-0.09097371,0.00571219,
 0.00289958,0.00051889,0.00045048,0.00059787,0.00003246,0.00000618,-0.0
 0032454,-0.00000881,0.00001605,0.00000945,-0.00000104,-0.00003145,0.00
 002036,-0.00000578,-0.00003636,0.00002171,-0.00001929,-0.00017908,-0.0
 0014563,-0.00000371,-0.00016112,-0.00006314,-0.00006263,0.00040047,-0.
 00010888,-0.00024885,0.37660863,-0.00017905,-0.00008945,-0.00000499,0.
 00024575,-0.00009207,-0.00000377,0.00000668,0.00027088,0.00002654,0.00
 015808,0.00010159,-0.00007678,-0.00046555,0.00010858,-0.00029234,0.000
 14942,-0.00030390,0.00003455,-0.00024847,0.00002625,-0.00000059,0.0001
 6458,0.00092328,0.00063685,-0.00267849,-0.00216256,0.00113957,-0.02892
 478,0.00889188,-0.00771033,0.19444067,-0.12837536,0.06297001,0.0004209
 6,0.00009142,0.00084549,-0.00010657,-0.00016756,0.00001364,-0.00001132
 ,0.00010513,0.00000020,-0.00000054,-0.00000106,0.00000886,-0.00001272,
 -0.00001758,-0.00000611,-0.00000242,0.00002362,-0.00000015,0.00003445,
 0.00004480,0.00000080,0.00000537,0.00001176,0.00010753,-0.00022358,0.0
 0027727,-0.00002578,-0.16146105,0.12331029,-0.00025858,-0.00014110,-0.
 00005195,0.00039423,-0.00014142,0.00004025,-0.00000806,0.00042404,0.00
 001547,0.00029316,0.00010186,-0.00039253,-0.00055917,0.00044431,-0.000
 56013,0.00021807,-0.00040694,0.00024390,-0.00039627,0.00005206,-0.0000
 1971,0.00183733,0.00021271,0.00248905,-0.00025218,0.00095175,0.0028673
 4,0.00863150,-0.00207099,-0.00349924,-0.10784091,0.05746797,-0.0342340
 0,0.00021550,0.00075996,-0.00312112,-0.00014517,-0.00022546,0.00006376
 ,-0.00000493,0.00012386,0.00001331,-0.00000231,-0.00000368,0.00001532,
 -0.00000151,-0.00001416,-0.00001508,0.00000721,0.00001607,-0.00003780,
 0.00005946,0.00005906,0.00000654,-0.00004855,0.00000795,0.00010449,-0.
 00002635,0.00005909,-0.00090692,0.09842471,-0.05623831,0.03500595,0.00
 051483,0.00028194,0.00005606,-0.00082288,0.00033664,0.00001444,-0.0000
 6005,-0.00086164,-0.00001431,-0.00046657,-0.00022091,0.00001505,0.0011
 6748,-0.00050718,-0.00015027,-0.00043905,0.00074639,-0.00014641,0.0008
 6754,-0.00013208,-0.00000518,-0.00212605,-0.00077473,0.00021108,0.0055
 0360,-0.00013274,0.00147521,-0.00714024,0.00019102,-0.00122265,0.00086
 052,-0.00393853,0.00029208,-0.38645383,0.15154938,0.11847072,0.0003572
 0,0.00046032,-0.00000325,0.00000501,-0.00025746,0.00000534,0.00000575,
 0.00000598,0.00000797,-0.00001515,0.00002305,0.00001212,-0.00002854,-0
 .00001208,-0.00000520,-0.00013738,-0.00011260,-0.00000115,0.00035423,0
 .00018436,0.00023519,-0.00020949,-0.00005194,-0.00012081,0.00090261,-0
 .00131878,-0.00054933,0.38739394,-0.00040146,-0.00014903,-0.00003692,0
 .00066843,-0.00020801,-0.00004100,0.00012187,0.00063966,0.00001988,0.0
 0028343,0.00020933,0.00001082,-0.00058624,0.00065984,-0.00024752,0.000
 15856,-0.00052861,0.00007747,-0.00067876,0.00008658,0.00001203,0.00031
 727,0.00033869,-0.00024388,-0.00454321,-0.00506500,0.00047163,0.046324
 30,-0.02268491,-0.01136439,-0.00153874,0.00485485,0.00097519,0.1067823
 4,-0.08101466,-0.02993896,-0.00033675,-0.00045736,-0.00000401,-0.00002
 221,0.00027547,0.00000484,-0.00001568,-0.00000266,0.00000611,0.0000304
 5,0.00000164,0.00001001,0.00003029,0.00002045,0.00004417,0.00010705,0.
 00009946,0.00001114,0.00050850,0.00036170,0.00025933,0.00121639,-0.000
 16683,0.00087264,-0.00292329,-0.00295069,-0.00140213,-0.14553231,0.105
 73702,0.00022713,0.00013509,-0.00014836,-0.00038441,0.00019410,-0.0000
 1249,-0.00000791,-0.00044844,-0.00002776,-0.00026943,-0.00011147,-0.00
 007366,0.00060382,-0.00028038,0.00010388,-0.00020372,0.00042298,0.0001
 8857,0.00041521,-0.00006795,0.00000353,-0.00135285,-0.00055271,-0.0006
 8089,0.00211304,0.00236865,0.00218469,-0.00844008,0.00638621,-0.003155
 77,0.00023526,0.00069675,-0.00293378,0.12651465,-0.04829955,-0.0411632
 3,0.00016266,0.00022141,-0.00001155,0.00000403,-0.00012362,0.00003198,
 0.00000336,0.00000293,0.00000235,-0.00000227,0.00001114,0.00003597,-0.
 00000837,-0.00003108,0.00011767,-0.00006489,-0.00005530,0.00002807,0.0
 0029073,-0.00001532,-0.00003336,-0.00062996,0.00042901,0.00162675,-0.0
 0061686,-0.00142468,0.00197591,-0.11857448,0.04050660,0.04195024,-0.00
 017174,0.00005985,0.00000463,0.00035571,0.00027360,0.00000088,0.001336
 46,0.00218125,0.00002706,-0.00027015,0.00040366,0.00000325,0.00015792,
 -0.00010069,0.00000151,-0.00001427,-0.00013111,-0.00000699,0.00002920,
 -0.00014045,-0.00000159,0.00010414,0.00003844,-0.00000067,-0.00009109,
 -0.00000474,0.00000232,0.00013425,-0.00005405,-0.00000029,-0.00007666,
 -0.00002131,0.00000969,-0.00003253,0.00005623,-0.00001167,0.00714594,0
 .00284204,0.00002610,-0.29239897,-0.09269691,-0.00082381,0.00002444,0.
 00002143,0.00000017,0.00022419,-0.00033953,-0.00000462,0.00000708,-0.0
 0002342,-0.00000022,-0.00002378,0.00009304,0.00000125,0.00002275,-0.00
 000125,0.00000059,-0.00000041,-0.00000070,-0.00000032,0.00001508,-0.00
 000184,-0.00000380,0.00001127,-0.00001130,0.00000482,0.30439532,0.0004
 5211,-0.00045974,-0.00001122,-0.00209894,-0.00056145,-0.00000628,0.002
 23252,-0.00520615,-0.00007389,0.00103518,-0.00050951,-0.00001056,-0.00
 045257,0.00033023,0.00000269,0.00006552,0.00006548,0.00000789,0.000321
 24,0.00016391,0.00000301,0.00013544,-0.00011185,-0.00000164,-0.0001796
 2,0.00003875,-0.00000582,0.00018571,-0.00012637,0.00000565,-0.00011531
 ,-0.00003414,0.00001605,-0.00003949,0.00012110,-0.00001778,-0.03399799
 ,-0.02688226,-0.00028659,-0.07785726,-0.07023057,-0.00018815,-0.000138
 43,-0.00009161,-0.00000070,-0.00022666,0.00048073,0.00001270,-0.000021
 78,0.00003724,0.00000073,-0.00018855,-0.00026524,-0.00000484,-0.000028
 44,-0.00000017,0.00000041,0.00000717,0.00000395,0.00000065,0.00001729,
 -0.00000678,-0.00000774,0.00001412,-0.00001288,0.00000700,0.09528277,0
 .09357276,0.00000599,-0.00000497,-0.00002912,-0.00002599,-0.00001376,0
 .00033691,0.00002567,-0.00007191,0.00049682,0.00001339,-0.00000861,0.0
 0020584,-0.00000588,0.00000145,0.00016708,0.00000043,0.00000201,-0.000
 02489,0.00000357,0.00000465,-0.00012198,0.00000086,-0.00000212,0.00002
 746,-0.00000188,0.00000160,-0.00000102,0.00000109,-0.00000198,-0.00000
 981,-0.00000171,-0.00000156,0.00000061,0.00000097,0.00000201,0.0000011
 9,-0.00042852,-0.00033859,-0.00029164,-0.00063924,-0.00016262,-0.04684
 756,-0.00000165,-0.00000062,-0.00003386,-0.00000256,0.00001251,-0.0004
 7642,-0.00000043,0.00000081,-0.00001742,-0.00000188,-0.00000533,0.0001
 9099,-0.00000005,0.00000044,-0.00000750,0.00000022,0.,-0.00000075,0.00
 000081,0.00000046,0.00000273,-0.00000048,-0.00000065,0.00000043,0.0008
 3681,0.00049202,0.04363775,0.00020993,-0.00004967,-0.00003055,0.000336
 88,-0.00004736,-0.00024098,0.00073712,-0.00126257,0.00130974,0.0002294
 7,0.00080133,0.00016491,-0.00018827,-0.00028398,-0.00048846,0.00006123
 ,0.00038063,-0.00003064,-0.00025772,0.00009447,0.00009721,-0.00012036,
 -0.00001439,0.00000469,0.00018559,-0.00001129,0.00001902,-0.00026065,0
 .00011421,0.00000682,0.00016074,0.00004641,-0.00002401,0.00006388,-0.0
 0012345,0.00002452,-0.00008469,0.00499462,-0.00012545,-0.10750545,0.03
 326609,-0.10213740,0.00001224,0.00001045,0.00001059,-0.00066993,-0.000
 66408,0.00099267,-0.00000066,0.00000809,0.00005633,0.00011066,-0.00022
 882,-0.00012879,-0.00001228,-0.00000242,-0.00000584,-0.00000909,0.0000
 0015,-0.00000018,-0.00002979,0.00000414,0.00000517,-0.00002198,0.00002
 088,-0.00001111,-0.01047225,0.00808880,-0.02349866,0.11015614,0.000488
 27,0.00007092,-0.00006561,0.00044433,-0.00157313,-0.00071425,0.0060556
 0,0.00406089,0.00166599,-0.00086714,0.00064347,-0.00021837,-0.00037116
 ,0.00000796,-0.00023709,-0.00031781,0.00023069,-0.00005708,-0.00083416
 ,-0.00035661,-0.00012531,0.00022089,-0.00012117,0.00001081,-0.00028892
 ,0.00004668,-0.00001760,0.00034038,-0.00019117,0.00000492,-0.00022805,
 -0.00007904,0.00003197,-0.00007074,0.00020019,-0.00003626,0.01542648,-
 0.03086839,0.02619451,0.02991624,-0.06228925,0.05325814,-0.00001698,-0
 .00000795,0.00007183,-0.00084458,-0.00037576,0.00088365,-0.00001537,0.
 00001718,0.00004278,-0.00036689,0.00096594,0.00038718,-0.00000951,-0.0
 0000250,0.00001305,0.00000252,0.00000251,0.00000094,0.00003732,-0.0000
 1004,-0.00001312,0.00003016,-0.00002168,0.00001325,-0.00390097,0.00496
 839,-0.00894378,-0.04008061,0.07993782,-0.00010621,-0.00009456,-0.0000
 1665,0.00020011,0.00049431,-0.00024631,-0.00087740,-0.00086723,0.00083
 039,-0.00058788,0.00089388,-0.00021521,0.00025936,-0.00042151,-0.00016
 352,-0.00000138,-0.00002081,-0.00004340,0.00011746,-0.00021593,0.00002
 665,0.00000398,0.00010117,0.00002962,0.00002720,-0.00003575,0.00000569
 ,-0.00000891,0.00007578,-0.00000811,0.00000615,-0.00000311,-0.00000161
 ,0.00000339,-0.00006764,0.00001130,0.00316262,0.00261802,0.00679295,-0
 .10252055,0.05863713,-0.22422748,0.00000660,0.00000358,0.00001629,0.00
 070963,-0.00005412,-0.00004638,0.00001329,-0.00005772,0.00001598,-0.00
 001099,-0.00004203,0.00000090,0.00004973,0.00000617,-0.00001940,-0.000
 00914,-0.00000569,-0.00000364,0.00000223,0.00000610,0.00000093,-0.0000
 0073,0.00000677,-0.00000645,0.00194121,-0.00101386,0.00130211,0.110917
 48,-0.06632793,0.23354353,0.00021260,-0.00005045,0.00001981,0.00033497
 ,-0.00005733,0.00024006,0.00073208,-0.00120783,-0.00133022,0.00023699,
 0.00079327,-0.00014308,-0.00018810,-0.00029816,0.00046657,0.00005971,0
 .00038290,0.00005647,-0.00025831,0.00009837,-0.00009323,-0.00012250,-0
 .00001349,0.00000218,0.00018711,-0.00001219,-0.00002221,-0.00026113,0.
 00011482,-0.00001214,0.00015883,0.00004458,-0.00001633,0.00006500,-0.0
 0012247,0.00002581,-0.00010662,0.00496747,0.00026508,-0.10691299,0.030
 59064,0.10261321,0.00001237,0.00001087,-0.00000996,-0.00068501,-0.0006
 2610,-0.00100511,-0.00000070,0.00001019,-0.00005666,0.00011060,-0.0002
 3134,0.00012298,-0.00001151,-0.00000059,0.00000340,-0.00000886,-0.0000
 0006,0.00000146,-0.00002814,0.00000507,0.00001081,-0.00002278,0.000020
 20,-0.00000840,-0.01041191,0.00750719,0.02371915,0.00736925,-0.0047493
 2,-0.01329726,0.10953904,0.00048819,0.00006781,0.00007355,0.00044988,-
 0.00158307,0.00067839,0.00602474,0.00409199,-0.00157555,-0.00087494,0.
 00064478,0.00024164,-0.00036275,-0.00000979,0.00023964,-0.00031959,0.0
 0023191,0.00005725,-0.00083100,-0.00036090,0.00011754,0.00022036,-0.00
 012088,-0.00002069,-0.00028965,0.00004591,0.00001883,0.00034136,-0.000
 19035,-0.00000234,-0.00022914,-0.00007911,0.00003431,-0.00006808,0.000
 20061,-0.00003106,0.01540634,-0.03018743,-0.02716256,0.02725276,-0.059
 59713,-0.04924907,-0.00001623,-0.00000528,-0.00007196,-0.00081196,-0.0
 0034509,-0.00087682,-0.00001505,0.00001716,-0.00004200,-0.00036698,0.0
 0097132,-0.00036371,-0.00000594,-0.00000155,-0.00001121,0.00000195,0.0
 0000235,0.00000119,0.00003803,-0.00000971,-0.00001562,0.00002963,-0.00
 002236,0.00001538,-0.00382403,0.00471617,0.00903853,-0.00506164,0.0047
 4403,0.00638496,-0.03717622,0.07677859,0.00011731,0.00009683,-0.000016
 64,-0.00018966,-0.00052817,-0.00023483,0.00102831,0.00096069,0.0008109
 5,0.00056404,-0.00087625,-0.00024017,-0.00026865,0.00042721,-0.0001431
 0,-0.00000686,0.00002470,-0.00004301,-0.00013813,0.00020547,0.00003462
 ,0.00000263,-0.00010511,0.00003352,-0.00003535,0.00003630,0.00000564,0
 .00001764,-0.00007641,-0.00000041,-0.00001395,0.00000037,0.00000481,-0
 .00000285,0.00007194,-0.00000069,-0.00275816,-0.00356392,0.00605665,0.
 10291967,-0.05461032,-0.22743640,-0.00000707,-0.00000438,0.00001500,-0
 .00072841,0.00005370,-0.00005984,-0.00001382,0.00005748,0.00001711,0.0
 0000170,0.00006735,-0.00000738,-0.00004978,-0.00000620,-0.00002055,0.0
 0000904,0.00000565,-0.00000280,-0.00000085,-0.00000679,-0.00000647,-0.
 00000098,-0.00000917,-0.00000272,-0.00200631,0.00108026,0.00149206,0.0
 1311293,-0.00582262,-0.01757819,-0.11155239,0.06252139,0.23732282\\0.0
 0000090,-0.00001158,0.00000084,0.00000236,-0.00002770,-0.00000162,0.00
 000654,0.00003465,0.00000212,0.00002599,0.00000602,0.00000229,-0.00001
 734,-0.00000600,0.00000118,-0.00000576,-0.00000056,-0.00000148,-0.0000
 0634,0.00002065,-0.00000025,0.00001889,0.00000354,-0.00001003,-0.00002
 970,-0.00000085,-0.00000112,0.00001154,0.00000668,0.00004994,-0.000007
 13,0.00002961,-0.00003210,-0.00002292,-0.00000848,-0.00001019,0.000010
 08,-0.00010553,-0.00000283,-0.00003306,0.00013609,0.00000178,-0.000003
 61,0.00000358,-0.00000153,-0.00000516,-0.00000592,-0.00000017,-0.00000
 326,0.00000588,-0.00000263,-0.00000077,-0.00001970,-0.00000109,-0.0000
 0199,-0.00000253,-0.00000024,0.00000165,0.00000788,0.00000122,0.000009
 96,-0.00000863,0.00000922,0.00002147,0.00000698,-0.00000235,-0.0000020
 1,-0.00002206,-0.00000035,0.00001483,-0.00002090,0.00000760,0.00001483
 ,-0.00002112,-0.00000820\\\@


 Everywhere is walking distance if you have the time.
                                    -- Steven Wright
 Job cpu time:       0 days  0 hours 30 minutes 16.8 seconds.
 File lengths (MBytes):  RWF=    264 Int=      0 D2E=      0 Chk=      9 Scr=      1
 Normal termination of Gaussian 09 at Tue Dec 17 17:23:00 2024.
