 Entering Gaussian System, Link 0=g09
 Input=pbeD3FA.gjf
 Output=pbeD3FA.log
 Initial command:
 /home/c612/g09E/g09/l1.exe "/mnt/ja_sm883/scratch/Gau-1582111.inp" -scrdir="/mnt/ja_sm883/scratch/"
 Default is to use a total of  18 processors:
                               18 via shared-memory
                                1 via Linda
 Entering Link 1 = /home/c612/g09E/g09/l1.exe PID=   1582113.
  
 Copyright (c) 1988,1990,1992,1993,1995,1998,2003,2009,2015,
            Gaussian, Inc.  All Rights Reserved.
  
 This is part of the Gaussian(R) 09 program.  It is based on
 the Gaussian(R) 03 system (copyright 2003, Gaussian, Inc.),
 the Gaussian(R) 98 system (copyright 1998, Gaussian, Inc.),
 the Gaussian(R) 94 system (copyright 1995, Gaussian, Inc.),
 the Gaussian 92(TM) system (copyright 1992, Gaussian, Inc.),
 the Gaussian 90(TM) system (copyright 1990, Gaussian, Inc.),
 the Gaussian 88(TM) system (copyright 1988, Gaussian, Inc.),
 the Gaussian 86(TM) system (copyright 1986, Carnegie Mellon
 University), and the Gaussian 82(TM) system (copyright 1983,
 Carnegie Mellon University). Gaussian is a federally registered
 trademark of Gaussian, Inc.
  
 This software contains proprietary and confidential information,
 including trade secrets, belonging to Gaussian, Inc.
  
 This software is provided under written license and may be
 used, copied, transmitted, or stored only in accord with that
 written license.
  
 The following legend is applicable only to US Government
 contracts under FAR:
  
                    RESTRICTED RIGHTS LEGEND
  
 Use, reproduction and disclosure by the US Government is
 subject to restrictions as set forth in subparagraphs (a)
 and (c) of the Commercial Computer Software - Restricted
 Rights clause in FAR 52.227-19.
  
 Gaussian, Inc.
 340 Quinnipiac St., Bldg. 40, Wallingford CT 06492
  
  
 ---------------------------------------------------------------
 Warning -- This program may not be used in any manner that
 competes with the business of Gaussian, Inc. or will provide
 assistance to any competitor of Gaussian, Inc.  The licensee
 of this program is prohibited from giving any competitor of
 Gaussian, Inc. access to this program.  By using this program,
 the user acknowledges that Gaussian, Inc. is engaged in the
 business of creating and licensing software in the field of
 computational chemistry and represents and warrants to the
 licensee that it is not a competitor of Gaussian, Inc. and that
 it will not use this program in any manner prohibited above.
 ---------------------------------------------------------------
  

 Cite this work as:
 Gaussian 09, Revision E.01,
 M. J. Frisch, G. W. Trucks, H. B. Schlegel, G. E. Scuseria, 
 M. A. Robb, J. R. Cheeseman, G. Scalmani, V. Barone, B. Mennucci, 
 G. A. Petersson, H. Nakatsuji, M. Caricato, X. Li, H. P. Hratchian, 
 A. F. Izmaylov, J. Bloino, G. Zheng, J. L. Sonnenberg, M. Hada, 
 M. Ehara, K. Toyota, R. Fukuda, J. Hasegawa, M. Ishida, T. Nakajima, 
 Y. Honda, O. Kitao, H. Nakai, T. Vreven, J. A. Montgomery, Jr., 
 J. E. Peralta, F. Ogliaro, M. Bearpark, J. J. Heyd, E. Brothers, 
 K. N. Kudin, V. N. Staroverov, T. Keith, R. Kobayashi, J. Normand, 
 K. Raghavachari, A. Rendell, J. C. Burant, S. S. Iyengar, J. Tomasi, 
 M. Cossi, N. Rega, J. M. Millam, M. Klene, J. E. Knox, J. B. Cross, 
 V. Bakken, C. Adamo, J. Jaramillo, R. Gomperts, R. E. Stratmann, 
 O. Yazyev, A. J. Austin, R. Cammi, C. Pomelli, J. W. Ochterski, 
 R. L. Martin, K. Morokuma, V. G. Zakrzewski, G. A. Voth, 
 P. Salvador, J. J. Dannenberg, S. Dapprich, A. D. Daniels, 
 O. Farkas, J. B. Foresman, J. V. Ortiz, J. Cioslowski, 
 and D. J. Fox, Gaussian, Inc., Wallingford CT, 2013.
 
 ******************************************
 Gaussian 09:  ES64L-G09RevE.01 30-Nov-2015
                17-Dec-2024 
 ******************************************
 %chk=pbeD3FA.chk
 -----------------------------------------------------
 # opt freq pbepbe/6-31+g(d,p) empiricaldispersion=gd3
 -----------------------------------------------------
 1/14=-1,18=20,19=15,26=3,38=1/1,3;
 2/9=110,12=2,17=6,18=5,40=1/2;
 3/5=1,6=6,7=111,11=2,16=1,25=1,30=1,71=1,74=1009,124=31/1,2,3;
 4//1;
 5/5=2,38=5/2;
 6/7=2,8=2,9=2,10=2,28=1/1;
 7//1,2,3,16;
 1/14=-1,18=20,19=15,26=3/3(2);
 2/9=110/2;
 99//99;
 2/9=110/2;
 3/5=1,6=6,7=111,11=2,16=1,25=1,30=1,71=1,74=1009,124=31/1,2,3;
 4/5=5,16=3,69=1/1;
 5/5=2,38=5/2;
 7//1,2,3,16;
 1/14=-1,18=20,19=15,26=3/3(-5);
 2/9=110/2;
 6/7=2,8=2,9=2,10=2,19=2,28=1/1;
 99/9=1/99;
 ----------
 [No Title]
 ----------
 Symbolic Z-matrix:
 Charge =  0 Multiplicity = 1
 C                     1.46084  -2.01376  -0.00042 
 C                     2.49406  -1.08065  -0.00028 
 C                     2.189     0.29467  -0.00008 
 C                     0.86662   0.7127   -0.00002 
 C                    -0.18631  -0.22683  -0.00015 
 C                     0.13646  -1.59271  -0.00036 
 O                     3.78085  -1.49428  -0.00034 
 C                    -1.55728   0.2719   -0.00007 
 C                    -2.69671  -0.44863   0.00012 
 O                     3.29155   1.10182   0.00004 
 C                     3.09949   2.50661   0.00039 
 C                    -4.07724   0.07802   0.00032 
 O                    -5.04131  -0.65548   0.0021 
 O                    -4.2698    1.42358  -0.00112 
 H                     1.71474  -3.06889  -0.00058 
 H                     0.63076   1.7723    0.00015 
 H                    -0.64961  -2.34028  -0.00048 
 H                     4.349    -0.70917  -0.00021 
 H                    -1.61709   1.36317  -0.00003 
 H                    -2.67665  -1.53362   0.00044 
 H                     4.09677   2.94732   0.00051 
 H                     2.55815   2.8303   -0.89674 
 H                     2.55814   2.82983   0.89769 
 H                    -3.42813   1.89597  -0.00297 
 

 GradGradGradGradGradGradGradGradGradGradGradGradGradGradGradGradGradGrad
 Berny optimization.
 Initialization pass.
                           ----------------------------
                           !    Initial Parameters    !
                           ! (Angstroms and Degrees)  !
 --------------------------                            --------------------------
 ! Name  Definition              Value          Derivative Info.                !
 --------------------------------------------------------------------------------
 ! R1    R(1,2)                  1.3922         estimate D2E/DX2                !
 ! R2    R(1,6)                  1.3897         estimate D2E/DX2                !
 ! R3    R(1,15)                 1.0852         estimate D2E/DX2                !
 ! R4    R(2,3)                  1.4087         estimate D2E/DX2                !
 ! R5    R(2,7)                  1.3516         estimate D2E/DX2                !
 ! R6    R(3,4)                  1.3869         estimate D2E/DX2                !
 ! R7    R(3,10)                 1.3664         estimate D2E/DX2                !
 ! R8    R(4,5)                  1.4112         estimate D2E/DX2                !
 ! R9    R(4,16)                 1.0855         estimate D2E/DX2                !
 ! R10   R(5,6)                  1.4035         estimate D2E/DX2                !
 ! R11   R(5,8)                  1.4589         estimate D2E/DX2                !
 ! R12   R(6,17)                 1.0848         estimate D2E/DX2                !
 ! R13   R(7,18)                 0.9691         estimate D2E/DX2                !
 ! R14   R(8,9)                  1.3481         estimate D2E/DX2                !
 ! R15   R(8,19)                 1.0929         estimate D2E/DX2                !
 ! R16   R(9,12)                 1.4776         estimate D2E/DX2                !
 ! R17   R(9,20)                 1.0852         estimate D2E/DX2                !
 ! R18   R(10,11)                1.4179         estimate D2E/DX2                !
 ! R19   R(11,21)                1.0903         estimate D2E/DX2                !
 ! R20   R(11,22)                1.0967         estimate D2E/DX2                !
 ! R21   R(11,23)                1.0967         estimate D2E/DX2                !
 ! R22   R(12,13)                1.2114         estimate D2E/DX2                !
 ! R23   R(12,14)                1.3593         estimate D2E/DX2                !
 ! R24   R(14,24)                0.9652         estimate D2E/DX2                !
 ! A1    A(2,1,6)              120.2778         estimate D2E/DX2                !
 ! A2    A(2,1,15)             118.555          estimate D2E/DX2                !
 ! A3    A(6,1,15)             121.1672         estimate D2E/DX2                !
 ! A4    A(1,2,3)              119.579          estimate D2E/DX2                !
 ! A5    A(1,2,7)              120.095          estimate D2E/DX2                !
 ! A6    A(3,2,7)              120.326          estimate D2E/DX2                !
 ! A7    A(2,3,4)              120.049          estimate D2E/DX2                !
 ! A8    A(2,3,10)             113.7007         estimate D2E/DX2                !
 ! A9    A(4,3,10)             126.2502         estimate D2E/DX2                !
 ! A10   A(3,4,5)              120.715          estimate D2E/DX2                !
 ! A11   A(3,4,16)             120.0919         estimate D2E/DX2                !
 ! A12   A(5,4,16)             119.1931         estimate D2E/DX2                !
 ! A13   A(4,5,6)              118.4464         estimate D2E/DX2                !
 ! A14   A(4,5,8)              118.2672         estimate D2E/DX2                !
 ! A15   A(6,5,8)              123.2864         estimate D2E/DX2                !
 ! A16   A(1,6,5)              120.9328         estimate D2E/DX2                !
 ! A17   A(1,6,17)             118.8012         estimate D2E/DX2                !
 ! A18   A(5,6,17)             120.266          estimate D2E/DX2                !
 ! A19   A(2,7,18)             108.072          estimate D2E/DX2                !
 ! A20   A(5,8,9)              127.7021         estimate D2E/DX2                !
 ! A21   A(5,8,19)             113.128          estimate D2E/DX2                !
 ! A22   A(9,8,19)             119.1699         estimate D2E/DX2                !
 ! A23   A(8,9,12)             126.8114         estimate D2E/DX2                !
 ! A24   A(8,9,20)             121.2478         estimate D2E/DX2                !
 ! A25   A(12,9,20)            111.9408         estimate D2E/DX2                !
 ! A26   A(3,10,11)            118.4218         estimate D2E/DX2                !
 ! A27   A(10,11,21)           106.0562         estimate D2E/DX2                !
 ! A28   A(10,11,22)           111.0448         estimate D2E/DX2                !
 ! A29   A(10,11,23)           111.0447         estimate D2E/DX2                !
 ! A30   A(21,11,22)           109.4074         estimate D2E/DX2                !
 ! A31   A(21,11,23)           109.4077         estimate D2E/DX2                !
 ! A32   A(22,11,23)           109.7962         estimate D2E/DX2                !
 ! A33   A(9,12,13)            121.8533         estimate D2E/DX2                !
 ! A34   A(9,12,14)            119.0254         estimate D2E/DX2                !
 ! A35   A(13,12,14)           119.1213         estimate D2E/DX2                !
 ! A36   A(12,14,24)           111.1593         estimate D2E/DX2                !
 ! D1    D(6,1,2,3)             -0.0003         estimate D2E/DX2                !
 ! D2    D(6,1,2,7)           -179.9999         estimate D2E/DX2                !
 ! D3    D(15,1,2,3)           179.9995         estimate D2E/DX2                !
 ! D4    D(15,1,2,7)            -0.0001         estimate D2E/DX2                !
 ! D5    D(2,1,6,5)             -0.0002         estimate D2E/DX2                !
 ! D6    D(2,1,6,17)           179.9994         estimate D2E/DX2                !
 ! D7    D(15,1,6,5)          -180.0            estimate D2E/DX2                !
 ! D8    D(15,1,6,17)           -0.0005         estimate D2E/DX2                !
 ! D9    D(1,2,3,4)              0.0004         estimate D2E/DX2                !
 ! D10   D(1,2,3,10)          -179.9996         estimate D2E/DX2                !
 ! D11   D(7,2,3,4)           -180.0            estimate D2E/DX2                !
 ! D12   D(7,2,3,10)             0.0            estimate D2E/DX2                !
 ! D13   D(1,2,7,18)          -179.9992         estimate D2E/DX2                !
 ! D14   D(3,2,7,18)             0.0012         estimate D2E/DX2                !
 ! D15   D(2,3,4,5)              0.0            estimate D2E/DX2                !
 ! D16   D(2,3,4,16)           179.9993         estimate D2E/DX2                !
 ! D17   D(10,3,4,5)          -180.0            estimate D2E/DX2                !
 ! D18   D(10,3,4,16)           -0.0007         estimate D2E/DX2                !
 ! D19   D(2,3,10,11)         -179.9928         estimate D2E/DX2                !
 ! D20   D(4,3,10,11)            0.0072         estimate D2E/DX2                !
 ! D21   D(3,4,5,6)             -0.0005         estimate D2E/DX2                !
 ! D22   D(3,4,5,8)            179.9996         estimate D2E/DX2                !
 ! D23   D(16,4,5,6)          -179.9998         estimate D2E/DX2                !
 ! D24   D(16,4,5,8)             0.0003         estimate D2E/DX2                !
 ! D25   D(4,5,6,1)              0.0006         estimate D2E/DX2                !
 ! D26   D(4,5,6,17)          -179.999          estimate D2E/DX2                !
 ! D27   D(8,5,6,1)           -179.9995         estimate D2E/DX2                !
 ! D28   D(8,5,6,17)             0.001          estimate D2E/DX2                !
 ! D29   D(4,5,8,9)           -179.9842         estimate D2E/DX2                !
 ! D30   D(4,5,8,19)             0.0071         estimate D2E/DX2                !
 ! D31   D(6,5,8,9)              0.0159         estimate D2E/DX2                !
 ! D32   D(6,5,8,19)          -179.9929         estimate D2E/DX2                !
 ! D33   D(5,8,9,12)           179.9945         estimate D2E/DX2                !
 ! D34   D(5,8,9,20)             0.0121         estimate D2E/DX2                !
 ! D35   D(19,8,9,12)            0.0038         estimate D2E/DX2                !
 ! D36   D(19,8,9,20)         -179.9787         estimate D2E/DX2                !
 ! D37   D(8,9,12,13)         -179.91           estimate D2E/DX2                !
 ! D38   D(8,9,12,14)            0.0686         estimate D2E/DX2                !
 ! D39   D(20,9,12,13)           0.0738         estimate D2E/DX2                !
 ! D40   D(20,9,12,14)        -179.9476         estimate D2E/DX2                !
 ! D41   D(3,10,11,21)         179.9953         estimate D2E/DX2                !
 ! D42   D(3,10,11,22)         -61.2397         estimate D2E/DX2                !
 ! D43   D(3,10,11,23)          61.23           estimate D2E/DX2                !
 ! D44   D(9,12,14,24)           0.0526         estimate D2E/DX2                !
 ! D45   D(13,12,14,24)       -179.9682         estimate D2E/DX2                !
 --------------------------------------------------------------------------------
 Trust Radius=3.00D-01 FncErr=1.00D-07 GrdErr=1.00D-06
 Number of steps in this run=    115 maximum allowed number of steps=    144.
 GradGradGradGradGradGradGradGradGradGradGradGradGradGradGradGradGradGrad

                          Input orientation:                          
 ---------------------------------------------------------------------
 Center     Atomic      Atomic             Coordinates (Angstroms)
 Number     Number       Type             X           Y           Z
 ---------------------------------------------------------------------
      1          6           0        1.460837   -2.013762   -0.000419
      2          6           0        2.494064   -1.080651   -0.000277
      3          6           0        2.189003    0.294670   -0.000079
      4          6           0        0.866621    0.712699   -0.000018
      5          6           0       -0.186313   -0.226828   -0.000152
      6          6           0        0.136464   -1.592707   -0.000359
      7          8           0        3.780849   -1.494280   -0.000337
      8          6           0       -1.557275    0.271903   -0.000070
      9          6           0       -2.696714   -0.448627    0.000124
     10          8           0        3.291549    1.101821    0.000036
     11          6           0        3.099486    2.506606    0.000394
     12          6           0       -4.077238    0.078024    0.000317
     13          8           0       -5.041308   -0.655484    0.002101
     14          8           0       -4.269800    1.423580   -0.001118
     15          1           0        1.714740   -3.068887   -0.000579
     16          1           0        0.630757    1.772301    0.000146
     17          1           0       -0.649609   -2.340279   -0.000483
     18          1           0        4.349001   -0.709169   -0.000205
     19          1           0       -1.617093    1.363173   -0.000031
     20          1           0       -2.676646   -1.533616    0.000438
     21          1           0        4.096772    2.947324    0.000513
     22          1           0        2.558151    2.830295   -0.896741
     23          1           0        2.558135    2.829834    0.897685
     24          1           0       -3.428134    1.895968   -0.002974
 ---------------------------------------------------------------------
                    Distance matrix (angstroms):
                    1          2          3          4          5
     1  C    0.000000
     2  C    1.392212   0.000000
     3  C    2.420555   1.408748   0.000000
     4  C    2.790463   2.421709   1.386882   0.000000
     5  C    2.430275   2.813083   2.431889   1.411163   0.000000
     6  C    1.389695   2.412567   2.788388   2.418269   1.403499
     7  O    2.377460   1.351630   2.394643   3.655610   4.164710
     8  C    3.785930   4.271153   3.746347   2.463650   1.458859
     9  C    4.442396   5.229114   4.941935   3.747804   2.520180
    10  O    3.613636   2.323611   1.366419   2.455950   3.723014
    11  C    4.808212   3.637987   2.391995   2.864226   4.274124
    12  C    5.919953   6.672671   6.269985   4.984431   3.902849
    13  O    6.642501   7.547357   7.292475   6.064285   4.873882
    14  O    6.682479   7.212561   6.556720   5.185381   4.404397
    15  H    1.085244   2.135516   3.396828   3.875526   3.419255
    16  H    3.875991   3.407528   2.147446   1.085536   2.159657
    17  H    2.135555   3.386642   3.873070   3.408758   2.163635
    18  H    3.169141   1.891769   2.381866   3.761473   4.560891
    19  H    4.569173   4.782665   3.953235   2.567480   2.138980
    20  H    4.165250   5.190512   5.197804   4.195316   2.812375
    21  H    5.617876   4.335119   3.267439   3.927776   5.331047
    22  H    5.047017   4.012886   2.714713   2.854750   4.204992
    23  H    5.046888   4.012771   2.714645   2.854707   4.204912
    24  H    6.260035   6.628174   5.840924   4.454779   3.875006
                    6          7          8          9         10
     6  C    0.000000
     7  O    3.645714   0.000000
     8  C    2.519032   5.622719   0.000000
     9  C    3.055457   6.561419   1.348141   0.000000
    10  O    4.149101   2.641809   4.919335   6.185724   0.000000
    11  C    5.058050   4.058490   5.165203   6.506100   1.417854
    12  C    4.532839   8.013842   2.527410   1.477568   7.439569
    13  O    5.261912   8.861943   3.605348   2.353702   8.516139
    14  O    5.339771   8.563110   2.946889   2.445355   7.568192
    15  H    2.161033   2.597729   4.676212   5.130954   4.458826
    16  H    3.401118   4.538021   2.653051   4.000573   2.743967
    17  H    1.084792   4.510507   2.765385   2.787290   5.232665
    18  H    4.304196   0.969121   5.987203   7.050531   2.097115
    19  H    3.436887   6.107603   1.092908   2.109076   4.915595
    20  H    2.813731   6.457615   2.124357   1.085175   6.524177
    21  H    6.024610   4.452825   6.255088   7.594994   2.013521
    22  H    5.121622   4.582628   4.928095   6.258538   2.080794
    23  H    5.121508   4.582514   4.928040   6.258383   2.080793
    24  H    4.987707   7.966381   2.477440   2.456036   6.766448
                   11         12         13         14         15
    11  C    0.000000
    12  C    7.576502   0.000000
    13  O    8.733347   1.211391   0.000000
    14  O    7.448444   1.359266   2.217598   0.000000
    15  H    5.744880   6.591666   7.174169   7.483113   0.000000
    16  H    2.575622   5.003578   6.169803   4.912949   4.961060
    17  H    6.127643   4.194858   4.703782   5.222300   2.474069
    18  H    3.450000   8.462930   9.390463   8.878758   3.536609
    19  H    4.853201   2.775594   3.974950   2.653395   5.544751
    20  H    7.048907   2.135191   2.522448   3.359040   4.652024
    21  H    1.090326   8.662986   9.822664   8.504195   6.470616
    22  H    1.096663   7.239344   8.408945   7.028649   6.026176
    23  H    1.096662   7.239192   8.408391   7.028947   6.026035
    24  H    6.556120   1.930354   3.018653   0.965171   7.148353
                   16         17         18         19         20
    16  H    0.000000
    17  H    4.307279   0.000000
    18  H    4.470238   5.258006   0.000000
    19  H    2.284779   3.827739   6.315764   0.000000
    20  H    4.676324   2.181647   7.073855   3.084484   0.000000
    21  H    3.659773   7.105412   3.665182   5.929400   8.121454
    22  H    2.374575   6.150434   4.066783   4.515440   6.873991
    23  H    2.374603   6.150317   4.066688   4.515475   6.873695
    24  H    4.060776   5.066162   8.201864   1.887789   3.510953
                   21         22         23         24
    21  H    0.000000
    22  H    1.784969   0.000000
    23  H    1.784972   1.794426   0.000000
    24  H    7.597998   6.124328   6.125252   0.000000
 Stoichiometry    C10H10O4
 Framework group  C1[X(C10H10O4)]
 Deg. of freedom    66
 Full point group                 C1      NOp   1
 Largest Abelian subgroup         C1      NOp   1
 Largest concise Abelian subgroup C1      NOp   1
                         Standard orientation:                         
 ---------------------------------------------------------------------
 Center     Atomic      Atomic             Coordinates (Angstroms)
 Number     Number       Type             X           Y           Z
 ---------------------------------------------------------------------
      1          6           0        1.460837   -2.013762   -0.000419
      2          6           0        2.494064   -1.080651   -0.000277
      3          6           0        2.189003    0.294670   -0.000079
      4          6           0        0.866621    0.712699   -0.000018
      5          6           0       -0.186313   -0.226828   -0.000152
      6          6           0        0.136464   -1.592707   -0.000359
      7          8           0        3.780849   -1.494280   -0.000337
      8          6           0       -1.557275    0.271903   -0.000070
      9          6           0       -2.696714   -0.448627    0.000124
     10          8           0        3.291549    1.101821    0.000036
     11          6           0        3.099486    2.506606    0.000394
     12          6           0       -4.077238    0.078024    0.000317
     13          8           0       -5.041308   -0.655484    0.002101
     14          8           0       -4.269800    1.423580   -0.001118
     15          1           0        1.714740   -3.068887   -0.000579
     16          1           0        0.630757    1.772301    0.000146
     17          1           0       -0.649609   -2.340279   -0.000483
     18          1           0        4.349001   -0.709169   -0.000205
     19          1           0       -1.617093    1.363173   -0.000031
     20          1           0       -2.676646   -1.533616    0.000438
     21          1           0        4.096772    2.947324    0.000513
     22          1           0        2.558151    2.830295   -0.896741
     23          1           0        2.558135    2.829834    0.897685
     24          1           0       -3.428134    1.895968   -0.002974
 ---------------------------------------------------------------------
 Rotational constants (GHZ):      1.5465928      0.2847573      0.2408522
 Standard basis: 6-31+G(d,p) (6D, 7F)
 There are   316 symmetry adapted cartesian basis functions of A   symmetry.
 There are   316 symmetry adapted basis functions of A   symmetry.
   316 basis functions,   518 primitive gaussians,   316 cartesian basis functions
    51 alpha electrons       51 beta electrons
       nuclear repulsion energy       823.0999281954 Hartrees.
 NAtoms=   24 NActive=   24 NUniq=   24 SFac= 1.00D+00 NAtFMM=   60 NAOKFM=F Big=F
 Integral buffers will be    131072 words long.
 Raffenetti 2 integral format.
 Two-electron integral symmetry is turned on.
 Nuclear repulsion after empirical dispersion term =      823.0890588757 Hartrees.
 One-electron integrals computed using PRISM.
 NBasis=   316 RedAO= T EigKep=  1.47D-06  NBF=   316
 NBsUse=   315 1.00D-06 EigRej=  6.80D-07 NBFU=   315
 ExpMin= 4.38D-02 ExpMax= 5.48D+03 ExpMxC= 8.25D+02 IAcc=2 IRadAn=         4 AccDes= 0.00D+00
 Harris functional with IExCor= 1009 and IRadAn=       4 diagonalized for initial guess.
 HarFok:  IExCor= 1009 AccDes= 0.00D+00 IRadAn=         4 IDoV= 1 UseB2=F ITyADJ=14
 ICtDFT=  3500011 ScaDFX=  1.000000  1.000000  1.000000  1.000000
 FoFCou: FMM=F IPFlag=           0 FMFlag=      100000 FMFlg1=           0
         NFxFlg=           0 DoJE=T BraDBF=F KetDBF=T FulRan=T
         wScrn=  0.000000 ICntrl=     500 IOpCl=  0 I1Cent=   200000004 NGrid=           0
         NMat0=    1 NMatS0=      1 NMatT0=    0 NMatD0=    1 NMtDS0=    0 NMtDT0=    0
 Petite list used in FoFCou.
 Requested convergence on RMS density matrix=1.00D-08 within 128 cycles.
 Requested convergence on MAX density matrix=1.00D-06.
 Requested convergence on             energy=1.00D-06.
 No special actions if energy rises.
 EnCoef did     2 forward-backward iterations
 SCF Done:  E(RPBE-PBE) =  -687.222110595     A.U. after   17 cycles
            NFock= 17  Conv=0.38D-08     -V/T= 2.0089

 **********************************************************************

            Population analysis using the SCF density.

 **********************************************************************

 Orbital symmetries:
       Occupied  (A) (A) (A) (A) (A) (A) (A) (A) (A) (A) (A) (A)
                 (A) (A) (A) (A) (A) (A) (A) (A) (A) (A) (A) (A)
                 (A) (A) (A) (A) (A) (A) (A) (A) (A) (A) (A) (A)
                 (A) (A) (A) (A) (A) (A) (A) (A) (A) (A) (A) (A)
                 (A) (A) (A)
       Virtual   (A) (A) (A) (A) (A) (A) (A) (A) (A) (A) (A) (A)
                 (A) (A) (A) (A) (A) (A) (A) (A) (A) (A) (A) (A)
                 (A) (A) (A) (A) (A) (A) (A) (A) (A) (A) (A) (A)
                 (A) (A) (A) (A) (A) (A) (A) (A) (A) (A) (A) (A)
                 (A) (A) (A) (A) (A) (A) (A) (A) (A) (A) (A) (A)
                 (A) (A) (A) (A) (A) (A) (A) (A) (A) (A) (A) (A)
                 (A) (A) (A) (A) (A) (A) (A) (A) (A) (A) (A) (A)
                 (A) (A) (A) (A) (A) (A) (A) (A) (A) (A) (A) (A)
                 (A) (A) (A) (A) (A) (A) (A) (A) (A) (A) (A) (A)
                 (A) (A) (A) (A) (A) (A) (A) (A) (A) (A) (A) (A)
                 (A) (A) (A) (A) (A) (A) (A) (A) (A) (A) (A) (A)
                 (A) (A) (A) (A) (A) (A) (A) (A) (A) (A) (A) (A)
                 (A) (A) (A) (A) (A) (A) (A) (A) (A) (A) (A) (A)
                 (A) (A) (A) (A) (A) (A) (A) (A) (A) (A) (A) (A)
                 (A) (A) (A) (A) (A) (A) (A) (A) (A) (A) (A) (A)
                 (A) (A) (A) (A) (A) (A) (A) (A) (A) (A) (A) (A)
                 (A) (A) (A) (A) (A) (A) (A) (A) (A) (A) (A) (A)
                 (A) (A) (A) (A) (A) (A) (A) (A) (A) (A) (A) (A)
                 (A) (A) (A) (A) (A) (A) (A) (A) (A) (A) (A) (A)
                 (A) (A) (A) (A) (A) (A) (A) (A) (A) (A) (A) (A)
                 (A) (A) (A) (A) (A) (A) (A) (A) (A) (A) (A) (A)
                 (A) (A) (A) (A) (A) (A) (A) (A) (A) (A) (A) (A)
 The electronic state is 1-A.
 Alpha  occ. eigenvalues --  -18.85096 -18.83526 -18.82450 -18.75976 -10.02254
 Alpha  occ. eigenvalues --   -9.98594  -9.98553  -9.98104  -9.94492  -9.93698
 Alpha  occ. eigenvalues --   -9.93274  -9.92516  -9.92464  -9.92385  -1.02618
 Alpha  occ. eigenvalues --   -1.01130  -0.99677  -0.93026  -0.80766  -0.74889
 Alpha  occ. eigenvalues --   -0.71414  -0.69638  -0.66060  -0.61070  -0.57683
 Alpha  occ. eigenvalues --   -0.56533  -0.54401  -0.53087  -0.50007  -0.47621
 Alpha  occ. eigenvalues --   -0.46244  -0.45106  -0.43236  -0.42093  -0.40413
 Alpha  occ. eigenvalues --   -0.39644  -0.39435  -0.39192  -0.37574  -0.36169
 Alpha  occ. eigenvalues --   -0.35229  -0.33805  -0.33120  -0.32797  -0.32010
 Alpha  occ. eigenvalues --   -0.31998  -0.27691  -0.26699  -0.23633  -0.22614
 Alpha  occ. eigenvalues --   -0.20186
 Alpha virt. eigenvalues --   -0.10273  -0.05292  -0.03609  -0.02848  -0.02258
 Alpha virt. eigenvalues --   -0.01520  -0.00221   0.01539   0.01761   0.01968
 Alpha virt. eigenvalues --    0.03299   0.03622   0.03634   0.04217   0.05231
 Alpha virt. eigenvalues --    0.05729   0.05791   0.07588   0.07717   0.08158
 Alpha virt. eigenvalues --    0.08429   0.08750   0.08934   0.10532   0.10868
 Alpha virt. eigenvalues --    0.11159   0.11287   0.11710   0.12128   0.12885
 Alpha virt. eigenvalues --    0.12979   0.13244   0.13921   0.14998   0.15695
 Alpha virt. eigenvalues --    0.15817   0.15993   0.17208   0.17615   0.17680
 Alpha virt. eigenvalues --    0.18264   0.18648   0.18937   0.18949   0.19215
 Alpha virt. eigenvalues --    0.20261   0.20690   0.21639   0.22811   0.22829
 Alpha virt. eigenvalues --    0.22929   0.23973   0.24684   0.25203   0.25516
 Alpha virt. eigenvalues --    0.25569   0.26388   0.27203   0.27938   0.28514
 Alpha virt. eigenvalues --    0.28929   0.29017   0.30034   0.30366   0.30947
 Alpha virt. eigenvalues --    0.31269   0.31489   0.32126   0.32687   0.33814
 Alpha virt. eigenvalues --    0.34983   0.35531   0.35949   0.36442   0.37498
 Alpha virt. eigenvalues --    0.39647   0.39947   0.42552   0.43540   0.44063
 Alpha virt. eigenvalues --    0.45277   0.47764   0.52898   0.56312   0.60064
 Alpha virt. eigenvalues --    0.60320   0.61918   0.62402   0.63161   0.63272
 Alpha virt. eigenvalues --    0.66075   0.66585   0.66728   0.67662   0.68186
 Alpha virt. eigenvalues --    0.69740   0.70272   0.72745   0.73044   0.74020
 Alpha virt. eigenvalues --    0.77744   0.78432   0.79226   0.80654   0.81282
 Alpha virt. eigenvalues --    0.83384   0.85422   0.87655   0.89444   0.92122
 Alpha virt. eigenvalues --    0.94737   0.95602   0.97409   0.99249   0.99519
 Alpha virt. eigenvalues --    1.00843   1.02731   1.03883   1.04984   1.06439
 Alpha virt. eigenvalues --    1.08431   1.08661   1.10136   1.10159   1.11314
 Alpha virt. eigenvalues --    1.13297   1.13822   1.14975   1.15011   1.16335
 Alpha virt. eigenvalues --    1.17292   1.18304   1.19145   1.19835   1.20556
 Alpha virt. eigenvalues --    1.21588   1.22658   1.24988   1.25274   1.28159
 Alpha virt. eigenvalues --    1.28462   1.29075   1.30100   1.31378   1.32163
 Alpha virt. eigenvalues --    1.32189   1.35132   1.35245   1.37313   1.37436
 Alpha virt. eigenvalues --    1.38030   1.38088   1.45286   1.48591   1.50114
 Alpha virt. eigenvalues --    1.50343   1.51678   1.54997   1.59790   1.63940
 Alpha virt. eigenvalues --    1.66858   1.69659   1.70434   1.71266   1.73747
 Alpha virt. eigenvalues --    1.74535   1.75596   1.77150   1.77867   1.78711
 Alpha virt. eigenvalues --    1.80270   1.81251   1.82270   1.83894   1.87136
 Alpha virt. eigenvalues --    1.87234   1.87597   1.88500   1.92049   1.92226
 Alpha virt. eigenvalues --    1.94650   1.95977   1.96461   1.96470   1.97661
 Alpha virt. eigenvalues --    2.00739   2.01241   2.04582   2.06869   2.09522
 Alpha virt. eigenvalues --    2.12257   2.13718   2.14720   2.18849   2.19787
 Alpha virt. eigenvalues --    2.22552   2.27603   2.28298   2.30793   2.33828
 Alpha virt. eigenvalues --    2.36067   2.37208   2.38465   2.38616   2.40639
 Alpha virt. eigenvalues --    2.42569   2.43039   2.43793   2.45782   2.45786
 Alpha virt. eigenvalues --    2.46978   2.49629   2.52862   2.53319   2.54789
 Alpha virt. eigenvalues --    2.56329   2.58316   2.60056   2.60864   2.63134
 Alpha virt. eigenvalues --    2.63631   2.64833   2.65080   2.68140   2.71645
 Alpha virt. eigenvalues --    2.74266   2.75750   2.76456   2.79806   2.85641
 Alpha virt. eigenvalues --    2.86480   2.93585   2.98868   3.00525   3.03825
 Alpha virt. eigenvalues --    3.06919   3.08762   3.12494   3.14807   3.15770
 Alpha virt. eigenvalues --    3.24668   3.26235   3.30756   3.36294   3.39584
 Alpha virt. eigenvalues --    3.41311   3.44349   3.48118   3.50733   3.71491
 Alpha virt. eigenvalues --    4.10597   4.14430   4.18237   4.22303   4.26228
 Alpha virt. eigenvalues --    4.31054   4.33599   4.38052   4.42531   4.44940
 Alpha virt. eigenvalues --    4.50029   4.57431   4.68450   4.97767
          Condensed to atoms (all electrons):
               1          2          3          4          5          6
     1  C   12.230972  -1.116039  -2.285502  -1.488354   0.125260  -2.154199
     2  C   -1.116039  18.084560  -4.275346  -5.016699  -0.838435   1.170559
     3  C   -2.285502  -4.275346  16.867650  -1.330207  -1.594977  -1.218677
     4  C   -1.488354  -5.016699  -1.330207  17.121666   2.174062  -1.595091
     5  C    0.125260  -0.838435  -1.594977   2.174062   8.427441  -0.581132
     6  C   -2.154199   1.170559  -1.218677  -1.595091  -0.581132   9.602803
     7  O   -0.572771   0.041732   0.402840   0.090693  -0.050432  -0.001469
     8  C    0.459867  -0.999028   0.196866  -3.207847  -0.995091   0.395660
     9  C    0.224988  -0.090079  -0.744659  -1.610963  -1.319611   0.916640
    10  O    0.077024  -0.894916   0.465698   0.328102   0.004251  -0.056307
    11  C    0.023690  -0.031875  -0.191868   0.054387  -0.003435   0.004092
    12  C   -0.124934   0.051294   0.035305   0.228257  -0.163482  -0.129426
    13  O   -0.002480   0.000036   0.001183   0.015220   0.051220  -0.008928
    14  O   -0.000359  -0.001669   0.005674  -0.008021   0.020136  -0.000604
    15  H    0.223409   0.067235   0.052708   0.008779  -0.005705  -0.022069
    16  H   -0.023879   0.009857  -0.191051   0.309129   0.038533   0.006404
    17  H   -0.004334  -0.037982   0.007206   0.055645   0.120866   0.191277
    18  H    0.219510   0.163851  -0.352305  -0.036820   0.008233  -0.009434
    19  H    0.013884   0.001415   0.048414   0.227915   0.058418  -0.087578
    20  H    0.032888  -0.003423   0.003449   0.016810   0.102674  -0.044355
    21  H    0.004965   0.078528   0.098092  -0.147820  -0.013024  -0.000122
    22  H   -0.003567  -0.037102  -0.123527   0.125069   0.018495   0.003226
    23  H   -0.003559  -0.037190  -0.123659   0.125232   0.018539   0.003212
    24  H   -0.001201   0.001294  -0.003401   0.062130   0.073811  -0.012132
               7          8          9         10         11         12
     1  C   -0.572771   0.459867   0.224988   0.077024   0.023690  -0.124934
     2  C    0.041732  -0.999028  -0.090079  -0.894916  -0.031875   0.051294
     3  C    0.402840   0.196866  -0.744659   0.465698  -0.191868   0.035305
     4  C    0.090693  -3.207847  -1.610963   0.328102   0.054387   0.228257
     5  C   -0.050432  -0.995091  -1.319611   0.004251  -0.003435  -0.163482
     6  C   -0.001469   0.395660   0.916640  -0.056307   0.004092  -0.129426
     7  O    8.394004   0.008248   0.000323  -0.015809   0.001990   0.000254
     8  C    0.008248  11.187461  -2.152835  -0.037225  -0.038307   0.622191
     9  C    0.000323  -2.152835  14.013634  -0.003876   0.002920  -2.654311
    10  O   -0.015809  -0.037225  -0.003876   8.588291   0.054579   0.000141
    11  C    0.001990  -0.038307   0.002920   0.054579   5.097323  -0.000721
    12  C    0.000254   0.622191  -2.654311   0.000141  -0.000721   7.312797
    13  O    0.000000   0.099577  -0.416467   0.000001   0.000006   0.545392
    14  O    0.000000   0.155654  -0.084755  -0.000006  -0.000021  -0.104518
    15  H   -0.007374  -0.005562  -0.001759  -0.000747   0.000189  -0.000172
    16  H   -0.000523   0.126875   0.025348  -0.017280  -0.001870   0.000783
    17  H   -0.000650  -0.021718  -0.030706   0.000159   0.000139   0.014664
    18  H    0.177744   0.001075   0.000185   0.044173   0.003407   0.000006
    19  H   -0.000008   0.224066  -0.199229   0.000099   0.001009  -0.039581
    20  H   -0.000003  -0.091196   0.374223   0.000003   0.000033  -0.084454
    21  H   -0.000133  -0.002084  -0.000040  -0.066959   0.408749   0.000005
    22  H   -0.000211   0.003081   0.000433  -0.044740   0.410068  -0.000037
    23  H   -0.000210   0.003109   0.000436  -0.044744   0.410061  -0.000038
    24  H   -0.000000   0.072791  -0.320678   0.000003   0.000124   0.170524
              13         14         15         16         17         18
     1  C   -0.002480  -0.000359   0.223409  -0.023879  -0.004334   0.219510
     2  C    0.000036  -0.001669   0.067235   0.009857  -0.037982   0.163851
     3  C    0.001183   0.005674   0.052708  -0.191051   0.007206  -0.352305
     4  C    0.015220  -0.008021   0.008779   0.309129   0.055645  -0.036820
     5  C    0.051220   0.020136  -0.005705   0.038533   0.120866   0.008233
     6  C   -0.008928  -0.000604  -0.022069   0.006404   0.191277  -0.009434
     7  O    0.000000   0.000000  -0.007374  -0.000523  -0.000650   0.177744
     8  C    0.099577   0.155654  -0.005562   0.126875  -0.021718   0.001075
     9  C   -0.416467  -0.084755  -0.001759   0.025348  -0.030706   0.000185
    10  O    0.000001  -0.000006  -0.000747  -0.017280   0.000159   0.044173
    11  C    0.000006  -0.000021   0.000189  -0.001870   0.000139   0.003407
    12  C    0.545392  -0.104518  -0.000172   0.000783   0.014664   0.000006
    13  O    8.263356  -0.135871   0.000000   0.000000   0.000154   0.000000
    14  O   -0.135871   8.383643  -0.000000   0.000005  -0.000010  -0.000000
    15  H    0.000000  -0.000000   0.538834   0.000016  -0.005725  -0.000085
    16  H    0.000000   0.000005   0.000016   0.584862  -0.000153  -0.000029
    17  H    0.000154  -0.000010  -0.005725  -0.000153   0.569621   0.000006
    18  H    0.000000  -0.000000  -0.000085  -0.000029   0.000006   0.395105
    19  H   -0.000148  -0.010606   0.000002   0.005321   0.000026   0.000000
    20  H   -0.015562   0.008033   0.000006   0.000001   0.002387   0.000000
    21  H    0.000000  -0.000000  -0.000000   0.000109  -0.000000  -0.000071
    22  H   -0.000000   0.000000   0.000000  -0.000617   0.000000   0.000034
    23  H   -0.000000   0.000000   0.000000  -0.000615   0.000000   0.000034
    24  H    0.017006   0.145586   0.000000   0.000015   0.000004  -0.000000
              19         20         21         22         23         24
     1  C    0.013884   0.032888   0.004965  -0.003567  -0.003559  -0.001201
     2  C    0.001415  -0.003423   0.078528  -0.037102  -0.037190   0.001294
     3  C    0.048414   0.003449   0.098092  -0.123527  -0.123659  -0.003401
     4  C    0.227915   0.016810  -0.147820   0.125069   0.125232   0.062130
     5  C    0.058418   0.102674  -0.013024   0.018495   0.018539   0.073811
     6  C   -0.087578  -0.044355  -0.000122   0.003226   0.003212  -0.012132
     7  O   -0.000008  -0.000003  -0.000133  -0.000211  -0.000210  -0.000000
     8  C    0.224066  -0.091196  -0.002084   0.003081   0.003109   0.072791
     9  C   -0.199229   0.374223  -0.000040   0.000433   0.000436  -0.320678
    10  O    0.000099   0.000003  -0.066959  -0.044740  -0.044744   0.000003
    11  C    0.001009   0.000033   0.408749   0.410068   0.410061   0.000124
    12  C   -0.039581  -0.084454   0.000005  -0.000037  -0.000038   0.170524
    13  O   -0.000148  -0.015562   0.000000  -0.000000  -0.000000   0.017006
    14  O   -0.010606   0.008033  -0.000000   0.000000   0.000000   0.145586
    15  H    0.000002   0.000006  -0.000000   0.000000   0.000000   0.000000
    16  H    0.005321   0.000001   0.000109  -0.000617  -0.000615   0.000015
    17  H    0.000026   0.002387  -0.000000   0.000000   0.000000   0.000004
    18  H    0.000000   0.000000  -0.000071   0.000034   0.000034  -0.000000
    19  H    0.643670   0.004912   0.000000  -0.000002  -0.000002   0.015855
    20  H    0.004912   0.541750  -0.000000   0.000000   0.000000   0.000251
    21  H    0.000000  -0.000000   0.518269  -0.027008  -0.027005   0.000000
    22  H   -0.000002   0.000000  -0.027008   0.545602  -0.042852   0.000000
    23  H   -0.000002   0.000000  -0.027005  -0.042852   0.545588   0.000000
    24  H    0.015855   0.000251   0.000000   0.000000   0.000000   0.456344
 Mulliken charges:
               1
     1  C    0.144722
     2  C   -0.290579
     3  C    0.250095
     4  C   -0.501274
     5  C    0.323387
     6  C   -0.372350
     7  O   -0.468237
     8  C   -0.005628
     9  C    0.070837
    10  O   -0.379913
    11  C   -0.204670
    12  C    0.320060
    13  O   -0.413697
    14  O   -0.372291
    15  H    0.158020
    16  H    0.128759
    17  H    0.139120
    18  H    0.385380
    19  H    0.092147
    20  H    0.151571
    21  H    0.175551
    22  H    0.173653
    23  H    0.173661
    24  H    0.321674
 Sum of Mulliken charges =  -0.00000
 Mulliken charges with hydrogens summed into heavy atoms:
               1
     1  C    0.302742
     2  C   -0.290579
     3  C    0.250095
     4  C   -0.372515
     5  C    0.323387
     6  C   -0.233230
     7  O   -0.082856
     8  C    0.086519
     9  C    0.222408
    10  O   -0.379913
    11  C    0.318196
    12  C    0.320060
    13  O   -0.413697
    14  O   -0.050617
 Electronic spatial extent (au):  <R**2>=           4175.8917
 Charge=             -0.0000 electrons
 Dipole moment (field-independent basis, Debye):
    X=              7.1360    Y=              3.6576    Z=             -0.0049  Tot=              8.0188
 Quadrupole moment (field-independent basis, Debye-Ang):
   XX=           -113.3103   YY=            -71.1953   ZZ=            -85.0179
   XY=              5.4321   XZ=              0.0263   YZ=             -0.0015
 Traceless Quadrupole moment (field-independent basis, Debye-Ang):
   XX=            -23.4691   YY=             18.6459   ZZ=              4.8233
   XY=              5.4321   XZ=              0.0263   YZ=             -0.0015
 Octapole moment (field-independent basis, Debye-Ang**2):
  XXX=            266.5782  YYY=             22.5148  ZZZ=              0.0057  XYY=             12.7683
  XXY=             48.1507  XXZ=             -0.1005  XZZ=             -1.5838  YZZ=              4.9229
  YYZ=             -0.0168  XYZ=              0.0046
 Hexadecapole moment (field-independent basis, Debye-Ang**3):
 XXXX=          -5311.5811 YYYY=           -861.8027 ZZZZ=            -99.7895 XXXY=             60.0560
 XXXZ=              0.6565 YYYX=             46.4646 YYYZ=             -0.0223 ZZZX=              0.1206
 ZZZY=             -0.0047 XXYY=           -878.0882 XXZZ=           -732.8471 YYZZ=           -184.0923
 XXYZ=              0.0469 YYXZ=              0.1156 ZZXY=              1.3664
 N-N= 8.230890588757D+02 E-N=-3.249411741027D+03  KE= 6.811686782362D+02
 Calling FoFJK, ICntrl=      2527 FMM=F ISym2X=0 I1Cent= 0 IOpClX= 0 NMat=1 NMatS=1 NMatT=0.
 ***** Axes restored to original set *****
 -------------------------------------------------------------------
 Center     Atomic                   Forces (Hartrees/Bohr)
 Number     Number              X              Y              Z
 -------------------------------------------------------------------
      1        6          -0.000928891   -0.003058343   -0.000000430
      2        6           0.000674926   -0.000208906    0.000000260
      3        6          -0.001524264    0.002214133   -0.000000578
      4        6          -0.000666121    0.002652827    0.000001211
      5        6          -0.005825946    0.002978317    0.000002441
      6        6          -0.001053249   -0.002888230   -0.000000784
      7        8           0.003173609   -0.011896915   -0.000002059
      8        6           0.008607129    0.000901809   -0.000002148
      9        6          -0.006691103   -0.001418287   -0.000015852
     10        8           0.008833784   -0.003174085   -0.000000524
     11        6          -0.000364772    0.001850491   -0.000000037
     12        6           0.015758416    0.001201515    0.000026802
     13        8          -0.018439753   -0.013423273    0.000016440
     14        8          -0.011825245    0.007829796   -0.000001150
     15        1           0.001396479   -0.005242055   -0.000000839
     16        1          -0.001366928    0.005305218    0.000001012
     17        1          -0.004032359   -0.003687563   -0.000000862
     18        1           0.005761140    0.008353735    0.000001416
     19        1          -0.000432106    0.005787996   -0.000000205
     20        1           0.000152777   -0.005666935    0.000000969
     21        1           0.004872476    0.002212474    0.000000498
     22        1          -0.002986347    0.002032724   -0.004517562
     23        1          -0.002986281    0.002030419    0.004518723
     24        1           0.009892628    0.005313137   -0.000026744
 -------------------------------------------------------------------
 Cartesian Forces:  Max     0.018439753 RMS     0.005128236

 GradGradGradGradGradGradGradGradGradGradGradGradGradGradGradGradGradGrad
 Berny optimization.
 FormGI is forming the generalized inverse of G from B-inverse, IUseBI=4.
 GSVD:  received Info=                   1 from GESDD.
 Internal  Forces:  Max     0.022800434 RMS     0.004463313
 Search for a local minimum.
 Step number   1 out of a maximum of  115
 All quantities printed in internal units (Hartrees-Bohrs-Radians)
 Mixed Optimization -- RFO/linear search
 Second derivative matrix not updated -- first step.
 ITU=  0
     Eigenvalues ---    0.01063   0.01310   0.01438   0.01456   0.01789
     Eigenvalues ---    0.01988   0.02004   0.02065   0.02080   0.02112
     Eigenvalues ---    0.02126   0.02134   0.02136   0.02162   0.02195
     Eigenvalues ---    0.02209   0.02231   0.02332   0.02775   0.10122
     Eigenvalues ---    0.10680   0.16000   0.16000   0.16000   0.16000
     Eigenvalues ---    0.16000   0.16000   0.16000   0.16000   0.16000
     Eigenvalues ---    0.16000   0.22000   0.22000   0.22372   0.23481
     Eigenvalues ---    0.24605   0.25000   0.25000   0.25000   0.25000
     Eigenvalues ---    0.25000   0.25000   0.34054   0.34054   0.34479
     Eigenvalues ---    0.34775   0.34849   0.35334   0.35368   0.35376
     Eigenvalues ---    0.35421   0.37108   0.41128   0.41904   0.42785
     Eigenvalues ---    0.44631   0.45297   0.46743   0.47651   0.51671
     Eigenvalues ---    0.53096   0.53557   0.54376   0.54676   0.55419
     Eigenvalues ---    0.99302
 RFO step:  Lambda=-3.89815047D-03 EMin= 1.06267696D-02
 Linear search not attempted -- first point.
 Iteration  1 RMS(Cart)=  0.02018268 RMS(Int)=  0.00000841
 Iteration  2 RMS(Cart)=  0.00001564 RMS(Int)=  0.00000079
 Iteration  3 RMS(Cart)=  0.00000000 RMS(Int)=  0.00000079
 Variable       Old X    -DE/DX   Delta X   Delta X   Delta X     New X
                                 (Linear)    (Quad)   (Total)
    R1        2.63090   0.00911   0.00000   0.01931   0.01931   2.65020
    R2        2.62614   0.00775   0.00000   0.01616   0.01616   2.64230
    R3        2.05081   0.00542   0.00000   0.01517   0.01517   2.06598
    R4        2.66215   0.01004   0.00000   0.02266   0.02266   2.68481
    R5        2.55421   0.00959   0.00000   0.01742   0.01742   2.57163
    R6        2.62083   0.00891   0.00000   0.01854   0.01854   2.63936
    R7        2.58216   0.00887   0.00000   0.01704   0.01704   2.59920
    R8        2.66671   0.00847   0.00000   0.01909   0.01909   2.68580
    R9        2.05137   0.00547   0.00000   0.01533   0.01533   2.06669
   R10        2.65223   0.00923   0.00000   0.02019   0.02019   2.67242
   R11        2.75684   0.00299   0.00000   0.00796   0.00796   2.76481
   R12        2.04996   0.00546   0.00000   0.01526   0.01526   2.06522
   R13        1.83137   0.01014   0.00000   0.01880   0.01880   1.85017
   R14        2.54762   0.01271   0.00000   0.02277   0.02277   2.57039
   R15        2.06530   0.00580   0.00000   0.01665   0.01665   2.08194
   R16        2.79220   0.00464   0.00000   0.01318   0.01318   2.80538
   R17        2.05068   0.00567   0.00000   0.01584   0.01584   2.06652
   R18        2.67936   0.00824   0.00000   0.01908   0.01908   2.69843
   R19        2.06042   0.00535   0.00000   0.01522   0.01522   2.07564
   R20        2.07239   0.00577   0.00000   0.01675   0.01675   2.08914
   R21        2.07239   0.00577   0.00000   0.01675   0.01675   2.08914
   R22        2.28920   0.02280   0.00000   0.02287   0.02287   2.31207
   R23        2.56864   0.01329   0.00000   0.02485   0.02485   2.59349
   R24        1.82391   0.01123   0.00000   0.02051   0.02051   1.84442
    A1        2.09924   0.00026   0.00000   0.00109   0.00109   2.10034
    A2        2.06918  -0.00026   0.00000  -0.00135  -0.00135   2.06783
    A3        2.11477   0.00000   0.00000   0.00025   0.00025   2.11502
    A4        2.08705  -0.00048   0.00000  -0.00157  -0.00157   2.08548
    A5        2.09605  -0.00038   0.00000  -0.00164  -0.00165   2.09441
    A6        2.10009   0.00085   0.00000   0.00322   0.00321   2.10330
    A7        2.09525  -0.00010   0.00000  -0.00010  -0.00010   2.09515
    A8        1.98445  -0.00018   0.00000  -0.00085  -0.00085   1.98361
    A9        2.20348   0.00028   0.00000   0.00094   0.00094   2.20443
   A10        2.10687   0.00013   0.00000   0.00055   0.00055   2.10742
   A11        2.09600   0.00012   0.00000   0.00085   0.00085   2.09685
   A12        2.08031  -0.00025   0.00000  -0.00140  -0.00140   2.07891
   A13        2.06728  -0.00010   0.00000  -0.00081  -0.00081   2.06647
   A14        2.06415   0.00030   0.00000   0.00140   0.00140   2.06555
   A15        2.15175  -0.00020   0.00000  -0.00059  -0.00059   2.15116
   A16        2.11068   0.00029   0.00000   0.00084   0.00084   2.11151
   A17        2.07347  -0.00003   0.00000   0.00026   0.00027   2.07374
   A18        2.09904  -0.00026   0.00000  -0.00110  -0.00110   2.09794
   A19        1.88621  -0.00042   0.00000  -0.00255  -0.00255   1.88366
   A20        2.22882   0.00066   0.00000   0.00293   0.00293   2.23175
   A21        1.97446  -0.00021   0.00000  -0.00075  -0.00075   1.97371
   A22        2.07991  -0.00044   0.00000  -0.00218  -0.00218   2.07773
   A23        2.21328   0.00054   0.00000   0.00243   0.00243   2.21571
   A24        2.11617  -0.00032   0.00000  -0.00151  -0.00151   2.11467
   A25        1.95374  -0.00022   0.00000  -0.00093  -0.00093   1.95281
   A26        2.06685  -0.00051   0.00000  -0.00202  -0.00202   2.06483
   A27        1.85103  -0.00003   0.00000  -0.00009  -0.00010   1.85093
   A28        1.93810   0.00042   0.00000   0.00248   0.00248   1.94058
   A29        1.93810   0.00042   0.00000   0.00248   0.00248   1.94058
   A30        1.90952  -0.00013   0.00000  -0.00072  -0.00072   1.90880
   A31        1.90952  -0.00013   0.00000  -0.00072  -0.00072   1.90880
   A32        1.91630  -0.00052   0.00000  -0.00337  -0.00337   1.91293
   A33        2.12674   0.00083   0.00000   0.00326   0.00326   2.13001
   A34        2.07739  -0.00054   0.00000  -0.00213  -0.00213   2.07525
   A35        2.07906  -0.00029   0.00000  -0.00113  -0.00113   2.07793
   A36        1.94010  -0.00038   0.00000  -0.00229  -0.00229   1.93780
    D1       -0.00001  -0.00000   0.00000  -0.00000  -0.00000  -0.00001
    D2       -3.14159   0.00000   0.00000   0.00000   0.00000  -3.14159
    D3        3.14158  -0.00000   0.00000  -0.00000  -0.00000   3.14158
    D4       -0.00000   0.00000   0.00000   0.00000   0.00000  -0.00000
    D5       -0.00000  -0.00000   0.00000  -0.00000  -0.00000  -0.00000
    D6        3.14158  -0.00000   0.00000  -0.00001  -0.00001   3.14158
    D7       -3.14159   0.00000   0.00000   0.00000   0.00000  -3.14159
    D8       -0.00001  -0.00000   0.00000  -0.00000  -0.00000  -0.00001
    D9        0.00001   0.00000   0.00000   0.00000   0.00000   0.00001
   D10       -3.14159   0.00000   0.00000   0.00000   0.00000  -3.14158
   D11       -3.14159  -0.00000   0.00000   0.00000   0.00000  -3.14159
   D12        0.00000  -0.00000   0.00000  -0.00000  -0.00000  -0.00000
   D13       -3.14158  -0.00000   0.00000  -0.00000  -0.00000  -3.14158
   D14        0.00002   0.00000   0.00000   0.00000   0.00000   0.00002
   D15        0.00000  -0.00000   0.00000  -0.00001  -0.00001  -0.00001
   D16        3.14158  -0.00000   0.00000  -0.00000  -0.00000   3.14158
   D17       -3.14159  -0.00000   0.00000  -0.00000  -0.00000   3.14159
   D18       -0.00001  -0.00000   0.00000  -0.00000  -0.00000  -0.00001
   D19       -3.14147  -0.00000   0.00000  -0.00002  -0.00002  -3.14148
   D20        0.00013  -0.00000   0.00000  -0.00002  -0.00002   0.00011
   D21       -0.00001   0.00000   0.00000   0.00000   0.00000  -0.00000
   D22        3.14159   0.00000   0.00000   0.00001   0.00001   3.14159
   D23       -3.14159   0.00000   0.00000   0.00000   0.00000  -3.14159
   D24        0.00001   0.00000   0.00000   0.00000   0.00000   0.00001
   D25        0.00001   0.00000   0.00000   0.00000   0.00000   0.00001
   D26       -3.14157   0.00000   0.00000   0.00001   0.00001  -3.14157
   D27       -3.14158  -0.00000   0.00000  -0.00000  -0.00000  -3.14159
   D28        0.00002   0.00000   0.00000   0.00000   0.00000   0.00002
   D29       -3.14132   0.00000   0.00000   0.00006   0.00006  -3.14125
   D30        0.00012   0.00000   0.00000   0.00002   0.00002   0.00014
   D31        0.00028   0.00000   0.00000   0.00007   0.00007   0.00034
   D32       -3.14147   0.00000   0.00000   0.00002   0.00002  -3.14145
   D33        3.14150  -0.00000   0.00000  -0.00009  -0.00009   3.14141
   D34        0.00021  -0.00000   0.00000  -0.00001  -0.00001   0.00020
   D35        0.00007  -0.00000   0.00000  -0.00004  -0.00004   0.00003
   D36       -3.14122   0.00000   0.00000   0.00004   0.00004  -3.14119
   D37       -3.14002  -0.00001   0.00000  -0.00044  -0.00044  -3.14047
   D38        0.00120   0.00001   0.00000   0.00073   0.00073   0.00193
   D39        0.00129  -0.00001   0.00000  -0.00051  -0.00051   0.00078
   D40       -3.14068   0.00001   0.00000   0.00066   0.00066  -3.14002
   D41        3.14151   0.00000   0.00000   0.00001   0.00001   3.14152
   D42       -1.06883   0.00004   0.00000   0.00043   0.00043  -1.06841
   D43        1.06866  -0.00004   0.00000  -0.00041  -0.00041   1.06826
   D44        0.00092  -0.00001   0.00000  -0.00040  -0.00040   0.00052
   D45       -3.14104   0.00001   0.00000   0.00074   0.00074  -3.14030
         Item               Value     Threshold  Converged?
 Maximum Force            0.022800     0.000450     NO 
 RMS     Force            0.004463     0.000300     NO 
 Maximum Displacement     0.074154     0.001800     NO 
 RMS     Displacement     0.020184     0.001200     NO 
 Predicted change in Energy=-1.964704D-03
 GradGradGradGradGradGradGradGradGradGradGradGradGradGradGradGradGradGrad

                          Input orientation:                          
 ---------------------------------------------------------------------
 Center     Atomic      Atomic             Coordinates (Angstroms)
 Number     Number       Type             X           Y           Z
 ---------------------------------------------------------------------
      1          6           0        1.467005   -2.028590   -0.000494
      2          6           0        2.509296   -1.090276   -0.000347
      3          6           0        2.201651    0.296756   -0.000075
      4          6           0        0.869879    0.717626    0.000058
      5          6           0       -0.191029   -0.228134   -0.000082
      6          6           0        0.134687   -1.604297   -0.000366
      7          8           0        3.803506   -1.510899   -0.000478
      8          6           0       -1.566420    0.270747    0.000068
      9          6           0       -2.717487   -0.453936    0.000339
     10          8           0        3.312169    1.108283    0.000033
     11          6           0        3.117085    2.522844    0.000444
     12          6           0       -4.104761    0.074586    0.000702
     13          8           0       -5.080549   -0.663501    0.002098
     14          8           0       -4.296889    1.433486   -0.001528
     15          1           0        1.722539   -3.091578   -0.000715
     16          1           0        0.631251    1.784921    0.000283
     17          1           0       -0.657802   -2.356839   -0.000503
     18          1           0        4.378021   -0.718114   -0.000331
     19          1           0       -1.626929    1.370802    0.000138
     20          1           0       -2.697792   -1.547316    0.000661
     21          1           0        4.121261    2.967895    0.000537
     22          1           0        2.570707    2.851087   -0.902834
     23          1           0        2.570764    2.850568    0.903944
     24          1           0       -3.443864    1.907789   -0.003642
 ---------------------------------------------------------------------
                    Distance matrix (angstroms):
                    1          2          3          4          5
     1  C    0.000000
     2  C    1.402428   0.000000
     3  C    2.438634   1.420739   0.000000
     4  C    2.810385   2.440532   1.396692   0.000000
     5  C    2.447594   2.834614   2.449576   1.421263   0.000000
     6  C    1.398247   2.429606   2.808263   2.435536   1.414184
     7  O    2.393165   1.360846   2.415275   3.684086   4.195449
     8  C    3.806392   4.296957   3.768161   2.476945   1.463073
     9  C    4.470963   5.265376   4.976088   3.773824   2.536529
    10  O    3.639313   2.340569   1.375437   2.473336   3.749453
    11  C    4.841313   3.663883   2.406967   2.882489   4.302498
    12  C    5.955495   6.715850   6.310324   5.016028   3.925422
    13  O    6.688343   7.601834   7.345239   6.108609   4.908865
    14  O    6.723722   7.259030   6.597210   5.216124   4.429342
    15  H    1.093271   2.150395   3.422040   3.903469   3.443988
    16  H    3.904017   3.434211   2.163514   1.093646   2.174519
    17  H    2.150012   3.410966   3.901030   3.433096   2.179280
    18  H    3.192391   1.905423   2.401363   3.790568   4.595247
    19  H    4.596552   4.813030   3.976380   2.580831   2.149047
    20  H    4.192512   5.227107   5.234992   4.225901   2.832685
    21  H    5.657732   4.366598   3.289360   3.954136   5.367536
    22  H    5.083663   4.043834   2.734188   2.873967   4.233645
    23  H    5.083550   4.043732   2.734128   2.873928   4.233577
    24  H    6.293784   6.665471   5.870884   4.474916   3.891416
                    6          7          8          9         10
     6  C    0.000000
     7  O    3.670007   0.000000
     8  C    2.531710   5.657770   0.000000
     9  C    3.075423   6.606096   1.360191   0.000000
    10  O    4.177856   2.664869   4.949959   6.228745   0.000000
    11  C    5.091953   4.091730   5.196841   6.550072   1.427950
    12  C    4.559777   8.065633   2.545909   1.484542   7.488616
    13  O    5.299414   8.924377   3.636196   2.372337   8.577699
    14  O    5.372801   8.618921   2.967731   2.461072   7.616004
    15  H    2.175610   2.613230   4.703454   5.164396   4.490630
    16  H    3.425401   4.574454   2.668797   4.028216   2.764988
    17  H    1.092867   4.540802   2.780251   2.804165   5.269510
    18  H    4.334882   0.979069   6.026128   7.100424   2.114655
    19  H    3.457529   6.147667   1.101718   2.125790   4.946069
    20  H    2.833052   6.501399   2.141344   1.093557   6.570527
    21  H    6.066112   4.490052   6.294785   7.647051   2.028001
    22  H    5.157431   4.621792   4.958751   6.301102   2.098166
    23  H    5.157332   4.621691   4.958706   6.300940   2.098165
    24  H    5.014059   8.013226   2.490927   2.470907   6.803175
                   11         12         13         14         15
    11  C    0.000000
    12  C    7.625550   0.000000
    13  O    8.795112   1.223494   0.000000
    14  O    7.493578   1.372416   2.238636   0.000000
    15  H    5.785023   6.631894   7.223404   7.530586   0.000000
    16  H    2.593049   5.035380   6.214453   4.940655   4.997114
    17  H    6.169366   4.218217   4.735830   5.254476   2.491157
    18  H    3.477609   8.519739   9.458728   8.937754   3.561589
    19  H    4.881892   2.796395   4.008227   2.670697   5.579585
    20  H    7.097816   2.147120   2.541390   3.382646   4.682315
    21  H    1.098380   8.720015   9.892438   8.556849   6.516984
    22  H    1.105524   7.286096   8.468350   7.070065   6.070295
    23  H    1.105524   7.285915   8.467857   7.070549   6.070173
    24  H    6.589716   1.948701   3.048000   0.976023   7.189256
                   16         17         18         19         20
    16  H    0.000000
    17  H    4.337722   0.000000
    18  H    4.505937   5.295747   0.000000
    19  H    2.295837   3.851560   6.357907   0.000000
    20  H    4.710236   2.194741   7.124233   3.108401   0.000000
    21  H    3.685050   7.154875   3.694941   5.965936   8.178423
    22  H    2.390360   6.193543   4.101230   4.541668   6.922379
    23  H    2.390380   6.193445   4.101144   4.541717   6.922065
    24  H    4.076968   5.094036   8.250894   1.894630   3.534740
                   21         22         23         24
    21  H    0.000000
    22  H    1.798316   0.000000
    23  H    1.798319   1.806778   0.000000
    24  H    7.639041   6.154138   6.155346   0.000000
 Stoichiometry    C10H10O4
 Framework group  C1[X(C10H10O4)]
 Deg. of freedom    66
 Full point group                 C1      NOp   1
 Largest Abelian subgroup         C1      NOp   1
 Largest concise Abelian subgroup C1      NOp   1
                         Standard orientation:                         
 ---------------------------------------------------------------------
 Center     Atomic      Atomic             Coordinates (Angstroms)
 Number     Number       Type             X           Y           Z
 ---------------------------------------------------------------------
      1          6           0        1.468709   -2.027078   -0.000494
      2          6           0        2.511148   -1.088929   -0.000347
      3          6           0        2.203723    0.298151   -0.000075
      4          6           0        0.872018    0.719232    0.000058
      5          6           0       -0.189040   -0.226360   -0.000083
      6          6           0        0.136458   -1.602575   -0.000367
      7          8           0        3.805291   -1.509757   -0.000478
      8          6           0       -1.564352    0.272738    0.000068
      9          6           0       -2.715534   -0.451762    0.000339
     10          8           0        3.314369    1.109502    0.000033
     11          6           0        3.119509    2.524094    0.000444
     12          6           0       -4.102724    0.076979    0.000702
     13          8           0       -5.078629   -0.660954    0.002097
     14          8           0       -4.294637    1.435909   -0.001528
     15          1           0        1.724075   -3.090107   -0.000715
     16          1           0        0.633558    1.786564    0.000283
     17          1           0       -0.656150   -2.354991   -0.000503
     18          1           0        4.379932   -0.717063   -0.000331
     19          1           0       -1.624687    1.372803    0.000138
     20          1           0       -2.696012   -1.545145    0.000661
     21          1           0        4.123755    2.968986    0.000537
     22          1           0        2.573183    2.852424   -0.902834
     23          1           0        2.573240    2.851905    0.903944
     24          1           0       -3.441537    1.910077   -0.003642
 ---------------------------------------------------------------------
 Rotational constants (GHZ):      1.5235580      0.2810443      0.2376423
 Standard basis: 6-31+G(d,p) (6D, 7F)
 There are   316 symmetry adapted cartesian basis functions of A   symmetry.
 There are   316 symmetry adapted basis functions of A   symmetry.
   316 basis functions,   518 primitive gaussians,   316 cartesian basis functions
    51 alpha electrons       51 beta electrons
       nuclear repulsion energy       817.2703935035 Hartrees.
 NAtoms=   24 NActive=   24 NUniq=   24 SFac= 1.00D+00 NAtFMM=   60 NAOKFM=F Big=F
 Integral buffers will be    131072 words long.
 Raffenetti 2 integral format.
 Two-electron integral symmetry is turned on.
 Nuclear repulsion after empirical dispersion term =      817.2595286475 Hartrees.
 One-electron integrals computed using PRISM.
 NBasis=   316 RedAO= T EigKep=  1.58D-06  NBF=   316
 NBsUse=   315 1.00D-06 EigRej=  7.24D-07 NBFU=   315
 Initial guess from the checkpoint file:  "pbeD3FA.chk"
 B after Tr=     0.000000    0.000000    0.000000
         Rot=    1.000000    0.000002   -0.000002    0.000112 Ang=   0.01 deg.
 ExpMin= 4.38D-02 ExpMax= 5.48D+03 ExpMxC= 8.25D+02 IAcc=2 IRadAn=         4 AccDes= 0.00D+00
 Harris functional with IExCor= 1009 and IRadAn=       4 diagonalized for initial guess.
 HarFok:  IExCor= 1009 AccDes= 0.00D+00 IRadAn=         4 IDoV= 1 UseB2=F ITyADJ=14
 ICtDFT=  3500011 ScaDFX=  1.000000  1.000000  1.000000  1.000000
 FoFCou: FMM=F IPFlag=           0 FMFlag=      100000 FMFlg1=           0
         NFxFlg=           0 DoJE=T BraDBF=F KetDBF=T FulRan=T
         wScrn=  0.000000 ICntrl=     500 IOpCl=  0 I1Cent=   200000004 NGrid=           0
         NMat0=    1 NMatS0=      1 NMatT0=    0 NMatD0=    1 NMtDS0=    0 NMtDT0=    0
 Petite list used in FoFCou.
 Requested convergence on RMS density matrix=1.00D-08 within 128 cycles.
 Requested convergence on MAX density matrix=1.00D-06.
 Requested convergence on             energy=1.00D-06.
 No special actions if energy rises.
 EnCoef did     6 forward-backward iterations
 SCF Done:  E(RPBE-PBE) =  -687.224044143     A.U. after   13 cycles
            NFock= 13  Conv=0.57D-08     -V/T= 2.0096
 Calling FoFJK, ICntrl=      2527 FMM=F ISym2X=0 I1Cent= 0 IOpClX= 0 NMat=1 NMatS=1 NMatT=0.
 ***** Axes restored to original set *****
 -------------------------------------------------------------------
 Center     Atomic                   Forces (Hartrees/Bohr)
 Number     Number              X              Y              Z
 -------------------------------------------------------------------
      1        6          -0.000329066    0.000391202    0.000000040
      2        6          -0.001289548    0.001699072    0.000000291
      3        6          -0.002338482   -0.000586802   -0.000000153
      4        6           0.000632531   -0.000356313   -0.000000784
      5        6          -0.001113685    0.000408823   -0.000003932
      6        6           0.000954674   -0.000195714    0.000000011
      7        8           0.000524513   -0.001829202   -0.000000361
      8        6           0.001532800   -0.000430910    0.000005012
      9        6          -0.001665127    0.000388792    0.000027878
     10        8           0.002241555   -0.001385546    0.000000341
     11        6          -0.000940742    0.001981205    0.000000343
     12        6           0.004870314   -0.002165446   -0.000103253
     13        8          -0.001376402   -0.000256368    0.000042479
     14        8          -0.002707104    0.002341166    0.000026580
     15        1           0.000047171    0.000123004    0.000000029
     16        1           0.000031892   -0.000052596    0.000000003
     17        1           0.000045313    0.000136264   -0.000000200
     18        1          -0.000142201    0.001175327    0.000000276
     19        1          -0.000253070    0.000049135    0.000003487
     20        1           0.000147421    0.000041961    0.000001518
     21        1           0.000126764   -0.000479354   -0.000000191
     22        1          -0.000092542   -0.000320880   -0.000055251
     23        1          -0.000092314   -0.000320826    0.000055154
     24        1           0.001185334   -0.000355993    0.000000682
 -------------------------------------------------------------------
 Cartesian Forces:  Max     0.004870314 RMS     0.001061154

 GradGradGradGradGradGradGradGradGradGradGradGradGradGradGradGradGradGrad
 Berny optimization.
 Using GEDIIS/GDIIS optimizer.
 FormGI is forming the generalized inverse of G from B-inverse, IUseBI=4.
 GSVD:  received Info=                   1 from GESDD.
 Internal  Forces:  Max     0.002186564 RMS     0.000582420
 Search for a local minimum.
 Step number   2 out of a maximum of  115
 All quantities printed in internal units (Hartrees-Bohrs-Radians)
 Mixed Optimization -- En-DIIS/RFO-DIIS
 Update second derivatives using D2CorX and points    1    2
 DE= -1.93D-03 DEPred=-1.96D-03 R= 9.84D-01
 TightC=F SS=  1.41D+00  RLast= 8.96D-02 DXNew= 5.0454D-01 2.6866D-01
 Trust test= 9.84D-01 RLast= 8.96D-02 DXMaxT set to 3.00D-01
 ITU=  1  0
 Use linear search instead of GDIIS.
     Eigenvalues ---    0.01063   0.01310   0.01436   0.01456   0.01789
     Eigenvalues ---    0.01988   0.02004   0.02065   0.02080   0.02112
     Eigenvalues ---    0.02126   0.02135   0.02136   0.02162   0.02195
     Eigenvalues ---    0.02209   0.02231   0.02332   0.02775   0.10098
     Eigenvalues ---    0.10668   0.15853   0.16000   0.16000   0.16000
     Eigenvalues ---    0.16000   0.16000   0.16000   0.16000   0.16000
     Eigenvalues ---    0.16026   0.21998   0.22022   0.22370   0.23483
     Eigenvalues ---    0.24603   0.24720   0.25000   0.25000   0.25000
     Eigenvalues ---    0.25000   0.25026   0.33877   0.34054   0.34371
     Eigenvalues ---    0.34692   0.35001   0.35345   0.35372   0.35406
     Eigenvalues ---    0.35786   0.37477   0.41100   0.42027   0.42430
     Eigenvalues ---    0.45023   0.45763   0.46793   0.49533   0.50591
     Eigenvalues ---    0.52049   0.53530   0.54267   0.54647   0.56149
     Eigenvalues ---    0.98104
 RFO step:  Lambda=-1.17147773D-04 EMin= 1.06267629D-02
 Quartic linear search produced a step of  0.00269.
 Iteration  1 RMS(Cart)=  0.00523724 RMS(Int)=  0.00001396
 Iteration  2 RMS(Cart)=  0.00001668 RMS(Int)=  0.00000105
 Iteration  3 RMS(Cart)=  0.00000000 RMS(Int)=  0.00000105
 Variable       Old X    -DE/DX   Delta X   Delta X   Delta X     New X
                                 (Linear)    (Quad)   (Total)
    R1        2.65020  -0.00077   0.00005  -0.00116  -0.00111   2.64909
    R2        2.64230  -0.00106   0.00004  -0.00175  -0.00171   2.64059
    R3        2.06598  -0.00011   0.00004   0.00011   0.00015   2.06614
    R4        2.68481  -0.00135   0.00006  -0.00253  -0.00246   2.68234
    R5        2.57163   0.00057   0.00005   0.00152   0.00156   2.57319
    R6        2.63936  -0.00125   0.00005  -0.00214  -0.00209   2.63728
    R7        2.59920   0.00069   0.00005   0.00181   0.00186   2.60106
    R8        2.68580  -0.00055   0.00005  -0.00069  -0.00064   2.68516
    R9        2.06669  -0.00006   0.00004   0.00025   0.00030   2.06699
   R10        2.67242  -0.00015   0.00005   0.00031   0.00037   2.67279
   R11        2.76481  -0.00175   0.00002  -0.00452  -0.00450   2.76031
   R12        2.06522  -0.00013   0.00004   0.00006   0.00011   2.06533
   R13        1.85017   0.00086   0.00005   0.00213   0.00219   1.85236
   R14        2.57039  -0.00039   0.00006  -0.00009  -0.00003   2.57036
   R15        2.08194   0.00006   0.00004   0.00065   0.00069   2.08264
   R16        2.80538  -0.00199   0.00004  -0.00537  -0.00534   2.80004
   R17        2.06652  -0.00004   0.00004   0.00032   0.00036   2.06688
   R18        2.69843   0.00098   0.00005   0.00281   0.00286   2.70130
   R19        2.07564  -0.00008   0.00004   0.00020   0.00024   2.07587
   R20        2.08914  -0.00001   0.00005   0.00044   0.00049   2.08962
   R21        2.08914  -0.00001   0.00005   0.00044   0.00049   2.08962
   R22        2.31207   0.00125   0.00006   0.00189   0.00195   2.31402
   R23        2.59349   0.00219   0.00007   0.00481   0.00488   2.59837
   R24        1.84442   0.00087   0.00006   0.00216   0.00222   1.84663
    A1        2.10034  -0.00028   0.00000  -0.00120  -0.00119   2.09914
    A2        2.06783   0.00007  -0.00000   0.00012   0.00011   2.06794
    A3        2.11502   0.00021   0.00000   0.00108   0.00108   2.11610
    A4        2.08548   0.00031  -0.00000   0.00101   0.00101   2.08648
    A5        2.09441  -0.00007  -0.00000  -0.00023  -0.00024   2.09417
    A6        2.10330  -0.00024   0.00001  -0.00078  -0.00077   2.10253
    A7        2.09515   0.00030  -0.00000   0.00101   0.00101   2.09616
    A8        1.98361  -0.00064  -0.00000  -0.00248  -0.00249   1.98112
    A9        2.20443   0.00034   0.00000   0.00147   0.00148   2.20590
   A10        2.10742  -0.00033   0.00000  -0.00141  -0.00141   2.10601
   A11        2.09685   0.00014   0.00000   0.00060   0.00060   2.09746
   A12        2.07891   0.00019  -0.00000   0.00081   0.00081   2.07972
   A13        2.06647   0.00005  -0.00000   0.00049   0.00049   2.06696
   A14        2.06555  -0.00007   0.00000  -0.00040  -0.00039   2.06516
   A15        2.15116   0.00002  -0.00000  -0.00009  -0.00010   2.15107
   A16        2.11151  -0.00005   0.00000   0.00010   0.00010   2.11161
   A17        2.07374   0.00010   0.00000   0.00042   0.00042   2.07416
   A18        2.09794  -0.00005  -0.00000  -0.00052  -0.00052   2.09741
   A19        1.88366  -0.00149  -0.00001  -0.00938  -0.00938   1.87428
   A20        2.23175  -0.00024   0.00001  -0.00099  -0.00099   2.23076
   A21        1.97371   0.00038  -0.00000   0.00214   0.00214   1.97584
   A22        2.07773  -0.00014  -0.00001  -0.00114  -0.00115   2.07658
   A23        2.21571  -0.00043   0.00001  -0.00187  -0.00186   2.21385
   A24        2.11467   0.00006  -0.00000  -0.00002  -0.00003   2.11464
   A25        1.95281   0.00036  -0.00000   0.00189   0.00189   1.95470
   A26        2.06483  -0.00208  -0.00001  -0.00840  -0.00841   2.05642
   A27        1.85093  -0.00057  -0.00000  -0.00351  -0.00352   1.84742
   A28        1.94058  -0.00032   0.00001  -0.00195  -0.00194   1.93864
   A29        1.94058  -0.00032   0.00001  -0.00195  -0.00194   1.93863
   A30        1.90880   0.00045  -0.00000   0.00290   0.00289   1.91169
   A31        1.90880   0.00045  -0.00000   0.00290   0.00289   1.91169
   A32        1.91293   0.00030  -0.00001   0.00165   0.00164   1.91457
   A33        2.13001   0.00046   0.00001   0.00192   0.00193   2.13194
   A34        2.07525   0.00054  -0.00001   0.00212   0.00211   2.07737
   A35        2.07793  -0.00100  -0.00000  -0.00404  -0.00405   2.07388
   A36        1.93780  -0.00163  -0.00001  -0.01028  -0.01029   1.92751
    D1       -0.00001  -0.00000  -0.00000  -0.00001  -0.00001  -0.00001
    D2       -3.14159  -0.00000   0.00000  -0.00001  -0.00001   3.14159
    D3        3.14158  -0.00000  -0.00000  -0.00000  -0.00000   3.14158
    D4       -0.00000  -0.00000   0.00000  -0.00000  -0.00000  -0.00000
    D5       -0.00000   0.00000  -0.00000   0.00000   0.00000  -0.00000
    D6        3.14158   0.00000  -0.00000   0.00000   0.00000   3.14158
    D7       -3.14159  -0.00000   0.00000  -0.00000  -0.00000   3.14159
    D8       -0.00001  -0.00000  -0.00000  -0.00000  -0.00000  -0.00001
    D9        0.00001  -0.00000   0.00000  -0.00000  -0.00000   0.00001
   D10       -3.14158  -0.00000   0.00000  -0.00001  -0.00001  -3.14159
   D11       -3.14159   0.00000   0.00000   0.00000   0.00000  -3.14159
   D12       -0.00000  -0.00000  -0.00000  -0.00000  -0.00000  -0.00001
   D13       -3.14158   0.00000  -0.00000   0.00000   0.00000  -3.14158
   D14        0.00002   0.00000   0.00000   0.00000   0.00000   0.00002
   D15       -0.00001   0.00000  -0.00000   0.00001   0.00001   0.00001
   D16        3.14158  -0.00000  -0.00000  -0.00001  -0.00001   3.14157
   D17        3.14159   0.00000  -0.00000   0.00002   0.00002  -3.14158
   D18       -0.00001   0.00000  -0.00000  -0.00000  -0.00000  -0.00002
   D19       -3.14148  -0.00000  -0.00000  -0.00001  -0.00001  -3.14149
   D20        0.00011  -0.00000  -0.00000  -0.00001  -0.00001   0.00010
   D21       -0.00000  -0.00000   0.00000  -0.00002  -0.00002  -0.00002
   D22        3.14159  -0.00000   0.00000  -0.00003  -0.00003   3.14157
   D23       -3.14159   0.00000   0.00000   0.00000   0.00000  -3.14158
   D24        0.00001  -0.00000   0.00000  -0.00001  -0.00001   0.00000
   D25        0.00001   0.00000   0.00000   0.00001   0.00001   0.00002
   D26       -3.14157   0.00000   0.00000   0.00001   0.00001  -3.14156
   D27       -3.14159   0.00000  -0.00000   0.00002   0.00002  -3.14157
   D28        0.00002   0.00000   0.00000   0.00002   0.00002   0.00004
   D29       -3.14125   0.00000   0.00000   0.00001   0.00001  -3.14124
   D30        0.00014   0.00000   0.00000   0.00003   0.00003   0.00018
   D31        0.00034  -0.00000   0.00000   0.00000   0.00000   0.00035
   D32       -3.14145   0.00000   0.00000   0.00002   0.00002  -3.14142
   D33        3.14141   0.00000  -0.00000   0.00014   0.00014   3.14155
   D34        0.00020   0.00000  -0.00000   0.00016   0.00016   0.00036
   D35        0.00003   0.00000  -0.00000   0.00011   0.00011   0.00014
   D36       -3.14119   0.00000   0.00000   0.00014   0.00014  -3.14105
   D37       -3.14047   0.00003  -0.00000   0.00203   0.00203  -3.13843
   D38        0.00193  -0.00002   0.00000  -0.00141  -0.00141   0.00051
   D39        0.00078   0.00003  -0.00000   0.00201   0.00201   0.00278
   D40       -3.14002  -0.00002   0.00000  -0.00144  -0.00144  -3.14146
   D41        3.14152   0.00000   0.00000   0.00001   0.00001   3.14153
   D42       -1.06841   0.00003   0.00000   0.00033   0.00033  -1.06807
   D43        1.06826  -0.00003  -0.00000  -0.00030  -0.00030   1.06795
   D44        0.00052   0.00002  -0.00000   0.00161   0.00160   0.00212
   D45       -3.14030  -0.00003   0.00000  -0.00173  -0.00173   3.14116
         Item               Value     Threshold  Converged?
 Maximum Force            0.002187     0.000450     NO 
 RMS     Force            0.000582     0.000300     NO 
 Maximum Displacement     0.020468     0.001800     NO 
 RMS     Displacement     0.005243     0.001200     NO 
 Predicted change in Energy=-5.860931D-05
 GradGradGradGradGradGradGradGradGradGradGradGradGradGradGradGradGradGrad

                          Input orientation:                          
 ---------------------------------------------------------------------
 Center     Atomic      Atomic             Coordinates (Angstroms)
 Number     Number       Type             X           Y           Z
 ---------------------------------------------------------------------
      1          6           0        1.466086   -2.028152   -0.000472
      2          6           0        2.507342   -1.089568   -0.000238
      3          6           0        2.200493    0.296303   -0.000058
      4          6           0        0.870356    0.718676   -0.000102
      5          6           0       -0.190268   -0.226892   -0.000317
      6          6           0        0.134866   -1.603392   -0.000511
      7          8           0        3.802506   -1.509929   -0.000196
      8          6           0       -1.563244    0.271671   -0.000319
      9          6           0       -2.713844   -0.453726   -0.000126
     10          8           0        3.314120    1.105235    0.000158
     11          6           0        3.110973    2.520190    0.000481
[...]
 ,-0.00057071,0.02917831,0.00099106,-0.06677568,0.06024497,0.00181167,0
 .00756844,-0.01993363,-0.00063559,-0.00321280,-0.00287653,-0.00016118,
 -0.00094935,0.00181205,0.00001835,0.00095112,-0.00279792,0.00014753,0.
 00011481,0.00039854,-0.00001845,0.00184790,-0.00162292,-0.00005549,-0.
 00150443,0.00066229,0.00003170,-0.00027269,-0.00006623,0.00005722,0.00
 020156,0.00008032,-0.00005750,0.00010578,0.00002860,0.00003600,0.00007
 148,0.00004171,0.00000506,0.06925766,-0.00030495,0.00059081,0.00003036
 ,0.00110780,0.00157213,-0.00015302,0.00056689,-0.00613768,-0.00039468,
 0.06109481,-0.30941953,-0.00882385,0.00601938,-0.01639474,-0.00052900,
 -0.00395733,-0.00084736,-0.00013899,0.00017975,-0.00049298,0.00003491,
 0.00275379,0.00052991,0.00009974,-0.00066191,0.00040268,0.00003745,-0.
 00047857,-0.00074539,0.00006382,-0.00154282,-0.00057582,0.00000372,0.0
 0019537,-0.00025058,-0.00001056,-0.00007950,0.00000822,0.00002055,-0.0
 0002082,0.00018227,-0.00000334,0.00008129,-0.00008143,0.00000632,-0.06
 221180,0.33211279,-0.00003798,0.00002653,-0.00094741,-0.00008252,-0.00
 012552,0.00572438,-0.00001309,-0.00008313,0.00367620,0.00177787,-0.009
 14456,-0.02811563,0.00017136,-0.00064113,0.00164280,-0.00012173,-0.000
 23980,0.00430953,-0.00001356,0.00003880,-0.00056430,0.00015604,-0.0000
 7504,-0.00373592,0.00014294,0.00011642,0.00009235,0.00005466,0.0000833
 4,-0.00288426,-0.00007238,-0.00001531,-0.00018951,0.00001145,-0.000056
 55,0.00035789,-0.00002912,0.00002152,-0.00013293,-0.00002637,0.0000390
 2,-0.00008034,0.00000503,0.00001136,-0.00035965,-0.00180909,0.00991971
 ,0.02030962,-0.01700681,-0.02062886,-0.00079881,-0.00289136,0.00334735
 ,0.00007660,-0.00028482,0.00080660,0.00001838,0.00045363,0.00173522,0.
 00002323,0.00859146,0.00433194,0.00025316,-0.19642029,-0.13621293,-0.0
 0713521,-0.00120877,-0.00135813,-0.00007103,-0.00079657,-0.00032443,0.
 00011027,-0.00034466,0.00154869,0.00007610,0.00008496,-0.00025079,-0.0
 0000546,-0.00001413,0.00009732,0.00000620,-0.00034513,-0.00003486,0.00
 000128,0.00020296,0.00005013,-0.00005541,0.00013817,-0.00015288,0.0000
 4165,0.00091251,0.00010947,0.00003000,0.00026836,0.00044412,0.00002834
 ,0.21042103,0.00880513,0.00878772,0.00028540,0.00224359,0.00003676,-0.
 00025838,0.00089279,-0.00035221,0.00001571,0.00287905,-0.00436453,-0.0
 0032273,-0.02208045,-0.01471131,-0.00083487,-0.13759366,-0.18440162,-0
 .00711203,0.00043736,0.00049620,0.00000665,-0.00180953,0.00059070,0.00
 016531,0.00032783,-0.00057234,0.00013699,-0.00013338,0.00020549,0.0000
 2236,-0.00000709,-0.00010149,0.00000490,0.00041772,0.00033657,0.000029
 89,-0.00007595,0.00004441,0.00001210,-0.00031379,0.00030234,-0.0001283
 8,-0.00013372,0.00075168,0.00019188,-0.00114173,-0.00090353,-0.0000455
 6,0.14578588,0.19324572,0.00030013,0.00009594,0.00271069,-0.00001297,-
 0.00026599,0.00692958,0.00003332,0.00001651,-0.00082361,0.00014190,-0.
 00020198,0.00518754,-0.00109015,-0.00025818,0.00185133,-0.00721240,-0.
 00753718,-0.03182759,0.00003723,-0.00000065,0.00027956,0.00041847,0.00
 024921,-0.00321315,0.00011588,-0.00066614,0.00007153,-0.00001505,0.000
 00711,-0.00046639,-0.00000271,0.00001121,-0.00021863,-0.00019753,0.000
 03431,-0.00014544,0.00004206,0.00006505,-0.00013233,-0.00007147,0.0001
 3199,0.00007385,0.00002818,0.00016917,-0.00402953,-0.00000912,-0.00007
 733,0.00088900,0.00712857,0.00813581,0.02207730,-0.00471173,0.00492880
 ,0.00013182,-0.03532561,-0.03501054,-0.00134686,-0.00198225,-0.0014546
 0,-0.00004751,-0.00102883,-0.00110666,-0.00003989,0.00079467,-0.000044
 67,0.00003009,-0.00047235,-0.00178607,-0.00008924,-0.17004814,-0.16890
 855,-0.00669716,-0.00067843,0.00021360,0.00005292,0.00067129,-0.000056
 49,0.00002588,-0.00004502,-0.00090743,-0.00003875,0.00106518,0.0012448
 5,0.00006674,-0.00076693,0.00035678,0.00000215,0.00042863,0.00006611,-
 0.00006349,0.00014308,-0.00026741,0.00005719,0.00016606,0.00013910,0.0
 0001168,0.00033562,-0.00015108,-0.00000035,-0.00040100,0.00023085,0.00
 000672,0.21171762,0.00504543,0.00031610,-0.00004485,0.00427054,0.00996
 615,0.00040796,0.01027416,0.00246114,0.00012929,-0.00247244,-0.0007199
 6,-0.00002836,0.00142700,-0.00069440,0.00003681,-0.00122710,0.00082626
 ,-0.00004873,-0.21654231,-0.33021196,-0.01206290,-0.00115091,0.0000594
 2,0.00005040,0.00081111,0.00003555,0.00001186,-0.00165938,0.00114632,0
 .00011028,-0.00231385,-0.00271244,-0.00010682,-0.00073167,0.00046267,-
 0.00003306,0.00034516,0.00002543,-0.00003387,0.00010853,-0.00034896,0.
 00005571,0.00015541,0.00014322,0.00003411,0.00032848,-0.00007607,-0.00
 000547,0.00019228,-0.00002883,0.00000355,0.20347085,0.31767109,0.00008
 955,-0.00005001,0.00233941,0.00007188,0.00025743,-0.00273306,0.0002516
 3,0.00002233,0.00111738,-0.00006466,0.00000105,-0.00064782,0.00002269,
 -0.00000415,0.00000488,-0.00002586,-0.00005770,0.00166631,-0.00832130,
 -0.01180650,-0.00810697,-0.00001146,0.00001657,-0.00010007,0.00004330,
 -0.00004414,-0.00002924,-0.00004415,0.00006546,-0.00097008,-0.00004472
 ,-0.00003207,-0.00136329,-0.00006359,-0.00000255,-0.00001557,0.0000296
 5,0.00001370,-0.00001785,0.00000043,0.00000287,-0.00000041,0.00001033,
 0.00003304,-0.00058968,0.00001866,-0.00001750,0.00021694,-0.00000437,0
 .00000581,-0.00020155,0.00805904,0.01154439,0.00922335,0.00050172,0.00
 148932,0.00017596,0.00019034,-0.00008247,-0.00007293,-0.00005329,-0.00
 022474,0.00000058,0.00051194,0.00268056,0.00009013,-0.00223584,0.02788
 944,-0.00094713,-0.00541898,-0.00004464,-0.00020098,-0.00006074,-0.000
 12715,0.00002689,-0.05366665,0.01648845,-0.00120330,0.00484381,-0.0262
 1509,0.00194410,-0.00004938,-0.00020920,-0.00000559,-0.00005203,0.0001
 6019,0.00000339,0.00042853,-0.00172902,0.00002687,0.00048769,0.0006102
 8,-0.00037951,-0.00175830,0.00101608,0.00048332,-0.00041506,0.00010579
 ,0.00002740,-0.00059602,-0.00118883,-0.00008006,0.00013821,0.00002370,
 -0.00003052,-0.00003384,0.00003094,-0.00000851,0.06225746,-0.00030870,
 -0.00066956,-0.00009163,-0.00044615,0.00033162,-0.00001818,0.00001672,
 -0.00014511,-0.00013185,-0.00226970,0.00113812,-0.00016792,-0.00046452
 ,-0.01199371,0.00043825,0.00208619,0.00123216,0.00031725,0.00039716,-0
 .00000846,0.00004118,0.01915192,-0.30074184,0.01033024,0.00117019,-0.0
 1711292,0.00131854,0.00030041,0.00043078,0.00002980,0.00007944,-0.0002
 8199,0.00000397,0.00205361,-0.00406604,0.00104741,-0.00018723,0.001379
 50,-0.00036647,0.00199382,0.00339642,-0.00056612,0.00024644,-0.0000424
 5,-0.00001905,0.00065573,0.00062663,0.00015816,-0.00015093,0.00007428,
 0.00001849,-0.00002523,-0.00005221,-0.00000368,-0.01967758,0.32555395,
 0.00038380,0.00016918,-0.00008603,-0.00016241,-0.00013679,0.00020037,0
 .00006731,-0.00009855,-0.00004959,-0.00009310,0.00001802,-0.00151772,0
 .00125953,0.00012928,0.00371484,-0.00042474,0.00009075,0.00293481,0.00
 009579,0.00000203,-0.00003374,-0.00324215,0.00722316,-0.03732617,0.002
 42912,0.00189395,0.00479567,-0.00003875,-0.00001383,0.00001425,-0.0000
 0479,0.00001090,0.00005891,-0.00138944,0.00039806,-0.00682366,0.001238
 94,0.00053777,0.00067512,-0.00119020,-0.00050596,0.00020957,-0.0000259
 9,0.00001397,-0.00036107,-0.00009487,-0.00000517,0.00034844,0.00000201
 ,0.00004324,-0.00007497,-0.00000839,-0.00002047,0.00003000,0.00142757,
 -0.01162613,0.02338984,0.00003977,0.00037165,0.00000546,0.00001169,-0.
 00005457,-0.00000790,-0.00014752,0.00015653,0.00003886,0.00020355,0.00
 013322,-0.00007601,0.00027608,0.00063394,-0.00037313,-0.00114821,-0.00
 112387,-0.00005455,0.00000907,0.00007241,0.00000370,0.00547280,-0.0258
 8336,0.00264153,-0.04980423,0.00531130,0.00181672,0.00018156,0.0002018
 3,0.00001136,0.00003126,-0.00012275,-0.00000344,0.00112797,0.02871409,
 -0.00395789,0.00071675,-0.00187171,-0.00042168,-0.00546547,0.00333100,
 -0.00036692,-0.00002991,-0.00000482,0.00000873,0.00015489,0.00016048,0
 .00001106,-0.00145683,0.00126273,0.00037488,0.00001225,0.00000878,0.00
 000096,-0.00362133,-0.00247789,0.00061625,0.05399642,0.00005339,0.0004
 0773,-0.00013094,-0.00006052,0.00007768,-0.00006396,0.00002093,-0.0002
 6400,-0.00003615,-0.00033240,-0.00013093,-0.00001946,0.00157033,-0.000
 62549,-0.00073195,0.00054473,0.00031164,-0.00007297,0.00021369,0.00000
 430,0.00004373,0.00018037,-0.01223096,0.00169480,0.00835174,-0.3227277
 8,0.03250050,0.00007433,0.00018637,0.00001805,0.00002405,-0.00010272,0
 .00000117,-0.00347125,-0.01153054,0.00278642,-0.00030587,0.00207523,-0
 .00045717,0.00227603,-0.00024362,0.00013510,-0.00002151,-0.00000935,0.
 00000347,0.00002692,0.00011104,0.00002306,0.00067906,0.00057163,0.0001
 0169,-0.00000860,-0.00003006,0.00001634,-0.00163259,0.00011482,0.00138
 614,-0.00810766,0.34361051,-0.00002962,-0.00008985,-0.00031657,-0.0002
 4259,0.00031236,-0.00042156,0.00020905,-0.00048210,0.00000069,-0.00054
 320,-0.00017429,-0.00016421,0.00070371,-0.00071424,-0.00483613,0.00026
 379,0.00059772,-0.00017189,0.00029919,-0.00009832,0.00020066,-0.002261
 12,0.00180173,0.00402848,0.00260439,0.03567423,-0.03716046,0.00004425,
 0.00011526,0.00004275,0.00000395,-0.00004954,0.00002597,-0.00163627,-0
 .00022366,0.00180980,0.00069784,-0.00008191,-0.00127504,0.00009480,0.0
 0094489,0.00204897,0.00002254,-0.00001007,0.00011429,-0.00005348,-0.00
 003041,0.00012888,0.00031754,-0.00039756,0.00099724,-0.00004169,-0.000
 04014,0.00004486,0.00077524,0.00006424,0.00929200,-0.00078874,-0.03673
 518,0.02543758,-0.00013539,0.00003772,0.00000685,0.00026140,0.00025475
 ,-0.00000126,0.00122423,0.00227145,0.00008800,-0.00042237,0.00044218,-
 0.00000950,0.00025926,-0.00010934,-0.00000198,-0.00006214,-0.00013996,
 -0.00001039,0.00011594,-0.00018254,-0.00000360,0.00009415,0.00000819,0
 .00000162,-0.00010655,0.00000482,-0.00000979,0.00813280,0.00320614,0.0
 0018035,-0.27830327,-0.09954746,-0.00495988,0.00018012,-0.00007455,0.0
 0000099,-0.00010515,-0.00001107,0.00001523,-0.00004430,0.00006162,-0.0
 0001864,0.00002225,0.00001404,0.00000037,0.00026784,-0.00048509,-0.000
 01044,0.00000576,-0.00003885,-0.00000017,-0.00008610,0.00011783,0.0000
 0276,0.00002711,0.00000310,0.00000103,-0.00000037,0.00000173,0.0000061
 7,0.29088126,0.00055140,-0.00043393,-0.00001419,-0.00229866,-0.0005697
 0,-0.00004756,0.00313282,-0.00453640,-0.00019676,0.00116846,-0.0005187
 9,-0.00001825,-0.00048256,0.00018424,-0.00001120,-0.00001755,0.0001171
 9,0.00001655,0.00038748,0.00012164,0.00000947,0.00013426,-0.00011764,-
 0.00001087,-0.00016816,0.00003342,-0.00000443,-0.03291817,-0.02907820,
 -0.00123362,-0.08636427,-0.07775006,-0.00165852,0.00015435,-0.00010174
 ,0.00000742,-0.00007925,-0.00000166,0.00000960,-0.00003199,0.00008026,
 -0.00001213,-0.00014443,-0.00011613,-0.00000288,-0.00016781,0.00059701
 ,0.00003946,-0.00002519,0.00003689,0.00000127,-0.00017916,-0.00018909,
 -0.00001389,-0.00002868,0.00002483,-0.00000031,0.00001089,0.00000988,0
 .00000493,0.10348916,0.10259354,0.00002248,-0.00001517,-0.00001109,-0.
 00008338,-0.00003657,0.00032196,0.00011853,-0.00016260,0.00057722,0.00
 003836,-0.00002118,0.00025372,-0.00001611,-0.00000231,0.00016654,-0.00
 000229,0.00000735,-0.00002909,0.00001450,0.00000959,-0.00011609,0.0000
 0420,-0.00000089,0.00003804,-0.00000621,0.00000025,0.00000656,-0.00116
 246,-0.00105704,-0.00016919,-0.00449588,-0.00174026,-0.04698448,0.0000
 0416,-0.00000398,-0.00000862,-0.00000278,-0.00000080,0.00000245,0.0000
 0019,0.00000325,0.00000348,-0.00000478,-0.00000254,-0.00004296,0.00000
 189,0.00003500,-0.00049915,-0.00000106,0.00000189,-0.00002505,-0.00000
 708,-0.00001118,0.00016129,0.00000054,-0.00000043,-0.00001213,0.000000
 06,-0.00000021,-0.00000161,0.00521960,0.00278419,0.04360376,0.00024677
 ,-0.00004225,-0.00006180,0.00033499,-0.00021497,-0.00013090,0.00035790
 ,-0.00111031,0.00112209,0.00011689,0.00057270,0.00037638,-0.00014478,-
 0.00029010,-0.00048510,0.00007163,0.00039836,-0.00003689,-0.00029704,0
 .00014436,0.00009565,-0.00010174,0.00004075,0.00000537,0.00016343,-0.0
 0001624,0.00000770,-0.00089898,0.00717082,-0.00153633,-0.10731923,0.03
 307212,-0.10021816,-0.00023062,0.00011876,-0.00000669,0.00013206,0.000
 00772,-0.00001594,0.00005937,-0.00009661,0.00002860,0.00001300,0.00002
 475,0.00000597,-0.00066520,-0.00077213,0.00096822,0.00000238,0.0000110
 1,0.00008733,0.00014572,-0.00024525,-0.00014129,-0.00000364,-0.0000158
 7,0.00000841,-0.00000989,-0.00000648,-0.00000383,-0.01100621,0.0078046
 0,-0.02286273,0.11146382,0.00069051,0.00021393,-0.00008641,0.00023750,
 -0.00170781,-0.00065791,0.00586391,0.00439688,0.00159114,-0.00065379,0
 .00071494,-0.00023734,-0.00050115,-0.00042018,-0.00029304,-0.00053957,
 0.00039266,-0.00005722,-0.00069378,-0.00030616,-0.00013401,0.00022778,
 -0.00010221,-0.00000989,-0.00023308,0.00002134,-0.00001056,0.01709600,
 -0.03114205,0.02558462,0.02999994,-0.06248676,0.05276323,0.00020282,-0
 .00011979,0.00000938,-0.00010429,-0.00000903,0.00001276,-0.00003929,0.
 00009323,-0.00002437,-0.00001432,-0.00001716,0.00007468,-0.00090280,-0
 .00042120,0.00092525,-0.00001892,0.00002149,0.00005963,-0.00041254,0.0
 0093350,0.00041545,-0.00002082,0.00002911,0.00001646,0.00001105,0.0000
 1031,0.00000782,-0.00467320,0.00522720,-0.00981283,-0.04146709,0.08038
 991,-0.00008069,-0.00012554,-0.00003107,0.00032480,0.00031843,-0.00025
 279,-0.00102557,-0.00089396,0.00068753,-0.00077098,0.00092621,-0.00008
 100,0.00037906,-0.00033992,-0.00012583,0.00004715,0.00000980,-0.000062
 09,0.00005074,-0.00017076,0.00004874,-0.00008336,0.00011336,0.00003422
 ,0.00008335,-0.00002935,-0.00000334,0.00296706,0.00372306,0.00783250,-
 0.10028912,0.05699412,-0.21720122,-0.00003181,0.00010120,-0.00002987,-
 0.00000506,-0.00002715,0.00001583,0.00001090,-0.00008046,0.00001541,0.
 00001247,0.00000777,0.00001841,0.00065534,-0.00021136,-0.00008650,0.00
 001408,-0.00006500,0.00003127,0.00002835,-0.00007109,-0.00001226,0.000
 05244,-0.00002756,-0.00001389,-0.00001563,-0.00001384,-0.00000294,0.00
 171345,-0.00084509,0.00083262,0.10941841,-0.06558190,0.22705401,0.0002
 5063,-0.00004738,0.00004059,0.00033520,-0.00022621,0.00014442,0.000400
 74,-0.00103084,-0.00126890,0.00012975,0.00057771,-0.00024677,-0.000155
 31,-0.00033119,0.00044985,0.00006724,0.00040266,0.00007936,-0.00029831
 ,0.00014598,-0.00008958,-0.00010411,0.00004598,-0.00001570,0.00016409,
 -0.00002166,0.00000877,-0.00090742,0.00699945,0.00201972,-0.10967334,0
 .02628641,0.10390669,-0.00023203,0.00011423,-0.00000756,0.00013428,0.0
 0000930,-0.00001831,0.00005885,-0.00009068,0.00002812,0.00001407,0.000
 02538,-0.00000171,-0.00064805,-0.00068622,-0.00100039,0.00000346,0.000
 01800,-0.00008351,0.00014173,-0.00024931,0.00012686,0.00000141,-0.0000
 1444,-0.00000819,-0.00000964,-0.00000693,-0.00000572,-0.01122148,0.006
 07038,0.02321744,0.00759375,-0.00405692,-0.01346896,0.11397482,0.00068
 311,0.00020179,0.00011785,0.00026569,-0.00171689,0.00056177,0.00576823
 ,0.00447941,-0.00118744,-0.00070273,0.00072555,0.00024797,-0.00047672,
 -0.00046494,0.00026127,-0.00053727,0.00039326,0.00007193,-0.00068282,-
 0.00031503,0.00010513,0.00021970,-0.00009756,-0.00001967,-0.00022127,0
 .00001340,0.00002001,0.01754185,-0.02889651,-0.02811400,0.02310384,-0.
 05506770,-0.04042857,0.00020100,-0.00010377,-0.00001240,-0.00010606,-0
 .00001341,0.00001959,-0.00003739,0.00008614,-0.00001042,-0.00000925,-0
 .00000904,-0.00007528,-0.00088625,-0.00036365,-0.00095137,-0.00001668,
 0.00002152,-0.00006049,-0.00040153,0.00093474,-0.00036141,-0.00001018,
 0.00002854,-0.00001188,0.00000814,0.00000986,0.00000900,-0.00463132,0.
 00441026,0.01002634,-0.00511628,0.00430923,0.00625997,-0.03396196,0.07
 145569,0.00013446,0.00014388,-0.00002741,-0.00030302,-0.00043787,-0.00
 021426,0.00141716,0.00112447,0.00061640,0.00071496,-0.00084714,-0.0001
 0098,-0.00041230,0.00030428,-0.00009595,-0.00008602,0.00002679,-0.0000
 4580,-0.00010183,0.00014812,0.00006146,0.00009477,-0.00011108,0.000023
 69,-0.00009595,0.00002442,0.00001605,-0.00169399,-0.00619855,0.0054569
 4,0.10378361,-0.04470518,-0.22240733,0.00004366,-0.00007933,0.00000547
 ,-0.00000781,0.00001597,0.00000045,-0.00000141,0.00006990,0.00000953,-
 0.00001262,-0.00000956,0.00001389,-0.00074135,0.00016940,-0.00018099,-
 0.00001680,0.00006455,0.00002772,-0.00005299,0.00013365,-0.00003040,-0
 .00004969,0.00002486,-0.00002194,0.00001445,0.00001275,-0.00000507,-0.
 00222632,0.00119247,0.00193581,0.01339635,-0.00456863,-0.01866772,-0.1
 1378640,0.05352541,0.23365733,-0.00007313,-0.00021390,-0.00001820,-0.0
 0014857,0.00007815,-0.00001788,-0.00024063,-0.00010107,0.00003258,0.00
 012942,0.00005972,-0.00000379,-0.00115656,-0.00104133,0.00030359,0.000
 46115,-0.00000994,-0.00001808,0.00019345,-0.00005609,-0.00000316,0.000
 43606,0.00653630,-0.00047543,-0.00243093,0.00164660,-0.00090123,0.0002
 2480,0.00016951,0.00000305,0.00000810,-0.00009279,-0.00000840,0.002462
 80,-0.00366049,-0.00159203,0.00437931,0.00318648,-0.00028866,-0.339742
 78,-0.12583476,0.17798607,0.00006402,-0.00001790,0.00000802,-0.0001181
 4,-0.00006260,-0.00002991,-0.00005253,-0.00000748,0.00001091,-0.000041
 63,0.00000573,0.00000218,-0.00142313,-0.00211647,-0.00084676,-0.000540
 67,-0.00006348,-0.00043621,0.00002122,0.00000209,0.00000282,-0.0000243
 8,0.00000208,0.00001355,-0.00002035,0.00000614,-0.00001094,0.33763310,
 -0.00017633,-0.00015547,0.00002512,0.00048583,-0.00022320,-0.00000604,
 0.00015393,0.00053162,0.00002863,0.00004836,0.00029519,0.00000962,0.00
 002110,0.00000535,-0.00036094,-0.00014496,-0.00006403,0.00004334,-0.00
 065019,0.00009607,-0.00000268,0.00122410,0.00157449,0.00029325,-0.0000
 9223,-0.00112263,-0.00069519,-0.00034340,-0.00051523,-0.00001150,-0.00
 007069,0.00033008,-0.00000282,-0.03863183,-0.01224248,0.01569488,0.002
 24977,-0.00888658,0.00497658,-0.08576889,-0.07517216,0.06262303,-0.000
 02459,0.00002016,-0.00000016,0.00002694,-0.00002356,-0.00001918,0.0000
 4653,-0.00008754,-0.00003302,0.00006962,0.00008239,-0.00000083,0.00069
 624,0.00075352,0.00048618,-0.00074141,0.00039447,-0.00040491,-0.000019
 32,-0.00002302,0.00000012,0.00002764,-0.00002138,0.00002907,0.00002827
 ,-0.00002090,-0.00002357,0.12158550,0.09447485,0.00006560,-0.00010281,
 -0.00002342,-0.00020851,0.00009345,-0.00000464,-0.00010556,-0.00017913
 ,0.00002946,-0.00000882,-0.00003650,-0.00017772,-0.00030290,-0.0009444
 1,0.00016166,0.00039128,0.00001097,-0.00000527,0.00026421,-0.00005892,
 -0.00001589,0.00097250,0.00183569,-0.00072142,-0.00089693,-0.00106535,
 -0.00009927,0.00018622,0.00015696,-0.00001254,0.00000808,-0.00008504,0
 .00006287,0.01466705,-0.00003362,-0.01087535,-0.00141673,0.00449346,0.
 00496854,0.16178056,0.07979043,-0.10152390,0.00004833,-0.00002139,0.00
 000503,-0.00009408,-0.00002579,0.00008058,-0.00003926,0.00004204,0.000
 03162,-0.00003918,-0.00001106,0.00001382,-0.00205622,-0.00077336,0.000
 65708,0.00052187,-0.00046138,0.00018331,0.00001554,0.00000435,-0.00000
 401,-0.00002086,0.00001370,-0.00000004,-0.00002010,0.00000668,-0.00002
 688,-0.17371209,-0.08264898,0.10729638\\-0.00000157,-0.00000448,-0.000
 00136,-0.00000120,-0.00000171,-0.00000090,-0.00000146,-0.00000267,0.00
 000259,-0.00000196,0.00000336,-0.00000018,-0.00000025,0.00000011,-0.00
 000257,-0.00000657,0.00000610,-0.00000063,-0.00000206,-0.00000414,-0.0
 0000290,0.00000279,-0.00000746,0.00000630,-0.00001458,-0.00000803,-0.0
 0001360,0.00000486,-0.00001705,-0.00000647,0.00000366,0.00001724,0.000
 00390,-0.00002966,0.00001731,0.00000729,0.00002501,0.00001679,-0.00000
 344,0.00000073,-0.00002104,-0.00000120,-0.00000271,-0.00000165,-0.0000
 0212,-0.00000090,-0.00000294,-0.00000032,-0.00000100,-0.00000078,-0.00
 000009,0.00000255,0.00000010,-0.00000099,0.00000794,0.00000667,0.00000
 460,0.00000412,0.00000341,0.00000436,0.00000408,-0.00000113,0.00000084
 ,0.00000292,-0.00000321,0.00000011,0.00000207,-0.00000435,-0.00000013,
 0.00000318,0.00000954,0.00000691\\\@


 IN THE UNIVERSE THE DIFFICULT THINGS ARE DONE AS IF THEY WERE EASY.

                                                          -- LAO-TSU
 Job cpu time:       0 days  0 hours 26 minutes 37.3 seconds.
 File lengths (MBytes):  RWF=    250 Int=      0 D2E=      0 Chk=      9 Scr=      1
 Normal termination of Gaussian 09 at Tue Dec 17 16:14:26 2024.
