 Entering Gaussian System, Link 0=g09
 Input=APFDPNA.gjf
 Output=APFDPNA.log
 Initial command:
 /home/phzd/g09E/g09/l1.exe "/home/phzd/g09E/scratch/Gau-61287.inp" -scrdir="/home/phzd/g09E/scratch/"
 Default is to use a total of  18 processors:
                               18 via shared-memory
                                1 via Linda
 Entering Link 1 = /home/phzd/g09E/g09/l1.exe PID=     61289.
  
 Copyright (c) 1988,1990,1992,1993,1995,1998,2003,2009,2015,
            Gaussian, Inc.  All Rights Reserved.
  
 This is part of the Gaussian(R) 09 program.  It is based on
 the Gaussian(R) 03 system (copyright 2003, Gaussian, Inc.),
 the Gaussian(R) 98 system (copyright 1998, Gaussian, Inc.),
 the Gaussian(R) 94 system (copyright 1995, Gaussian, Inc.),
 the Gaussian 92(TM) system (copyright 1992, Gaussian, Inc.),
 the Gaussian 90(TM) system (copyright 1990, Gaussian, Inc.),
 the Gaussian 88(TM) system (copyright 1988, Gaussian, Inc.),
 the Gaussian 86(TM) system (copyright 1986, Carnegie Mellon
 University), and the Gaussian 82(TM) system (copyright 1983,
 Carnegie Mellon University). Gaussian is a federally registered
 trademark of Gaussian, Inc.
  
 This software contains proprietary and confidential information,
 including trade secrets, belonging to Gaussian, Inc.
  
 This software is provided under written license and may be
 used, copied, transmitted, or stored only in accord with that
 written license.
  
 The following legend is applicable only to US Government
 contracts under FAR:
  
                    RESTRICTED RIGHTS LEGEND
  
 Use, reproduction and disclosure by the US Government is
 subject to restrictions as set forth in subparagraphs (a)
 and (c) of the Commercial Computer Software - Restricted
 Rights clause in FAR 52.227-19.
  
 Gaussian, Inc.
 340 Quinnipiac St., Bldg. 40, Wallingford CT 06492
  
  
 ---------------------------------------------------------------
 Warning -- This program may not be used in any manner that
 competes with the business of Gaussian, Inc. or will provide
 assistance to any competitor of Gaussian, Inc.  The licensee
 of this program is prohibited from giving any competitor of
 Gaussian, Inc. access to this program.  By using this program,
 the user acknowledges that Gaussian, Inc. is engaged in the
 business of creating and licensing software in the field of
 computational chemistry and represents and warrants to the
 licensee that it is not a competitor of Gaussian, Inc. and that
 it will not use this program in any manner prohibited above.
 ---------------------------------------------------------------
  

 Cite this work as:
 Gaussian 09, Revision E.01,
 M. J. Frisch, G. W. Trucks, H. B. Schlegel, G. E. Scuseria, 
 M. A. Robb, J. R. Cheeseman, G. Scalmani, V. Barone, B. Mennucci, 
 G. A. Petersson, H. Nakatsuji, M. Caricato, X. Li, H. P. Hratchian, 
 A. F. Izmaylov, J. Bloino, G. Zheng, J. L. Sonnenberg, M. Hada, 
 M. Ehara, K. Toyota, R. Fukuda, J. Hasegawa, M. Ishida, T. Nakajima, 
 Y. Honda, O. Kitao, H. Nakai, T. Vreven, J. A. Montgomery, Jr., 
 J. E. Peralta, F. Ogliaro, M. Bearpark, J. J. Heyd, E. Brothers, 
 K. N. Kudin, V. N. Staroverov, T. Keith, R. Kobayashi, J. Normand, 
 K. Raghavachari, A. Rendell, J. C. Burant, S. S. Iyengar, J. Tomasi, 
 M. Cossi, N. Rega, J. M. Millam, M. Klene, J. E. Knox, J. B. Cross, 
 V. Bakken, C. Adamo, J. Jaramillo, R. Gomperts, R. E. Stratmann, 
 O. Yazyev, A. J. Austin, R. Cammi, C. Pomelli, J. W. Ochterski, 
 R. L. Martin, K. Morokuma, V. G. Zakrzewski, G. A. Voth, 
 P. Salvador, J. J. Dannenberg, S. Dapprich, A. D. Daniels, 
 O. Farkas, J. B. Foresman, J. V. Ortiz, J. Cioslowski, 
 and D. J. Fox, Gaussian, Inc., Wallingford CT, 2013.
 
 ******************************************
 Gaussian 09:  ES64L-G09RevE.01 30-Nov-2015
                13-Jun-2024 
 ******************************************
 %chk=APFDPNA.chk
 ---------------------------
 # opt freq apfd/6-31+g(d,p)
 ---------------------------
 1/14=-1,18=20,19=15,26=3,38=1/1,3;
 2/9=110,12=2,17=6,18=5,40=1/2;
 3/5=1,6=6,7=111,11=2,16=1,25=1,30=1,71=1,74=-44/1,2,3;
 4//1;
 5/5=2,38=5/2;
 6/7=2,8=2,9=2,10=2,28=1/1;
 7//1,2,3,16;
 1/14=-1,18=20,19=15,26=3/3(2);
 2/9=110/2;
 99//99;
 2/9=110/2;
 3/5=1,6=6,7=111,11=2,16=1,25=1,30=1,71=1,74=-44/1,2,3;
 4/5=5,16=3,69=1/1;
 5/5=2,38=5/2;
 7//1,2,3,16;
 1/14=-1,18=20,19=15,26=3/3(-5);
 2/9=110/2;
 6/7=2,8=2,9=2,10=2,19=2,28=1/1;
 99/9=1/99;
 ----------
 [No Title]
 ----------
 Symbolic Z-matrix:
 Charge =  0 Multiplicity = 1
 C                    -0.0218    1.21641   0.00023 
 C                    -0.71134   0.        0.00039 
 C                    -0.0218   -1.2164    0.0003 
 C                     1.36325  -1.2161    0.00016 
 C                     2.08217  0.         0.00006 
 C                     1.36325   1.2161    0.00009 
 N                     3.4515    0.       -0.00007 
 N                    -2.16391   0.        0.00061 
 O                    -2.7452   -1.0916   -0.0007 
 O                    -2.74521   1.0916   -0.00077 
 H                    -0.58095   2.14355   0.00027 
 H                    -0.58095  -2.14355   0.0004 
 H                     1.90326  -2.15827   0.00014 
 H                     1.90326   2.15827   0.00002 
 H                     3.9715    0.86123  -0.00016 
 H                     3.9715   -0.86123  -0.0001 
 

 GradGradGradGradGradGradGradGradGradGradGradGradGradGradGradGradGradGrad
 Berny optimization.
 Initialization pass.
                           ----------------------------
                           !    Initial Parameters    !
                           ! (Angstroms and Degrees)  !
 --------------------------                            --------------------------
 ! Name  Definition              Value          Derivative Info.                !
 --------------------------------------------------------------------------------
 ! R1    R(1,2)                  1.3983         estimate D2E/DX2                !
 ! R2    R(1,6)                  1.3851         estimate D2E/DX2                !
 ! R3    R(1,11)                 1.0827         estimate D2E/DX2                !
 ! R4    R(2,3)                  1.3983         estimate D2E/DX2                !
 ! R5    R(2,8)                  1.4526         estimate D2E/DX2                !
 ! R6    R(3,4)                  1.3851         estimate D2E/DX2                !
 ! R7    R(3,12)                 1.0827         estimate D2E/DX2                !
 ! R8    R(4,5)                  1.4127         estimate D2E/DX2                !
 ! R9    R(4,13)                 1.086          estimate D2E/DX2                !
 ! R10   R(5,6)                  1.4127         estimate D2E/DX2                !
 ! R11   R(5,7)                  1.3693         estimate D2E/DX2                !
 ! R12   R(6,14)                 1.086          estimate D2E/DX2                !
 ! R13   R(7,15)                 1.006          estimate D2E/DX2                !
 ! R14   R(7,16)                 1.006          estimate D2E/DX2                !
 ! R15   R(8,9)                  1.2367         estimate D2E/DX2                !
 ! R16   R(8,10)                 1.2367         estimate D2E/DX2                !
 ! A1    A(2,1,6)              119.5352         estimate D2E/DX2                !
 ! A2    A(2,1,11)             119.3587         estimate D2E/DX2                !
 ! A3    A(6,1,11)             121.1062         estimate D2E/DX2                !
 ! A4    A(1,2,3)              120.9048         estimate D2E/DX2                !
 ! A5    A(1,2,8)              119.5476         estimate D2E/DX2                !
 ! A6    A(3,2,8)              119.5475         estimate D2E/DX2                !
 ! A7    A(2,3,4)              119.5353         estimate D2E/DX2                !
 ! A8    A(2,3,12)             119.3585         estimate D2E/DX2                !
 ! A9    A(4,3,12)             121.1062         estimate D2E/DX2                !
 ! A10   A(3,4,5)              120.6023         estimate D2E/DX2                !
 ! A11   A(3,4,13)             119.8071         estimate D2E/DX2                !
 ! A12   A(5,4,13)             119.5906         estimate D2E/DX2                !
 ! A13   A(4,5,6)              118.8201         estimate D2E/DX2                !
 ! A14   A(4,5,7)              120.5901         estimate D2E/DX2                !
 ! A15   A(6,5,7)              120.5898         estimate D2E/DX2                !
 ! A16   A(1,6,5)              120.6024         estimate D2E/DX2                !
 ! A17   A(1,6,14)             119.8071         estimate D2E/DX2                !
 ! A18   A(5,6,14)             119.5905         estimate D2E/DX2                !
 ! A19   A(5,7,15)             121.1236         estimate D2E/DX2                !
 ! A20   A(5,7,16)             121.1233         estimate D2E/DX2                !
 ! A21   A(15,7,16)            117.7531         estimate D2E/DX2                !
 ! A22   A(2,8,9)              118.0358         estimate D2E/DX2                !
 ! A23   A(2,8,10)             118.0364         estimate D2E/DX2                !
 ! A24   A(9,8,10)             123.9276         estimate D2E/DX2                !
 ! D1    D(6,1,2,3)             -0.0059         estimate D2E/DX2                !
 ! D2    D(6,1,2,8)            179.9966         estimate D2E/DX2                !
 ! D3    D(11,1,2,3)           179.9978         estimate D2E/DX2                !
 ! D4    D(11,1,2,8)             0.0004         estimate D2E/DX2                !
 ! D5    D(2,1,6,5)              0.0029         estimate D2E/DX2                !
 ! D6    D(2,1,6,14)          -179.9966         estimate D2E/DX2                !
 ! D7    D(11,1,6,5)           179.999          estimate D2E/DX2                !
 ! D8    D(11,1,6,14)           -0.0004         estimate D2E/DX2                !
 ! D9    D(1,2,3,4)              0.0059         estimate D2E/DX2                !
 ! D10   D(1,2,3,12)          -179.9979         estimate D2E/DX2                !
 ! D11   D(8,2,3,4)           -179.9966         estimate D2E/DX2                !
 ! D12   D(8,2,3,12)            -0.0004         estimate D2E/DX2                !
 ! D13   D(1,2,8,9)            179.9235         estimate D2E/DX2                !
 ! D14   D(1,2,8,10)             0.0742         estimate D2E/DX2                !
 ! D15   D(3,2,8,9)             -0.074          estimate D2E/DX2                !
 ! D16   D(3,2,8,10)          -179.9233         estimate D2E/DX2                !
 ! D17   D(2,3,4,5)             -0.0029         estimate D2E/DX2                !
 ! D18   D(2,3,4,13)           179.9966         estimate D2E/DX2                !
 ! D19   D(12,3,4,5)          -179.999          estimate D2E/DX2                !
 ! D20   D(12,3,4,13)            0.0005         estimate D2E/DX2                !
 ! D21   D(3,4,5,6)             -0.0001         estimate D2E/DX2                !
 ! D22   D(3,4,5,7)            179.9996         estimate D2E/DX2                !
 ! D23   D(13,4,5,6)          -179.9996         estimate D2E/DX2                !
 ! D24   D(13,4,5,7)             0.0002         estimate D2E/DX2                !
 ! D25   D(4,5,6,1)              0.0001         estimate D2E/DX2                !
 ! D26   D(4,5,6,14)           179.9996         estimate D2E/DX2                !
 ! D27   D(7,5,6,1)           -179.9996         estimate D2E/DX2                !
 ! D28   D(7,5,6,14)            -0.0002         estimate D2E/DX2                !
 ! D29   D(4,5,7,15)           179.9994         estimate D2E/DX2                !
 ! D30   D(4,5,7,16)             0.0007         estimate D2E/DX2                !
 ! D31   D(6,5,7,15)            -0.0008         estimate D2E/DX2                !
 ! D32   D(6,5,7,16)          -179.9995         estimate D2E/DX2                !
 --------------------------------------------------------------------------------
 Trust Radius=3.00D-01 FncErr=1.00D-07 GrdErr=1.00D-06
 Number of steps in this run=     82 maximum allowed number of steps=    100.
 GradGradGradGradGradGradGradGradGradGradGradGradGradGradGradGradGradGrad

                          Input orientation:                          
 ---------------------------------------------------------------------
 Center     Atomic      Atomic             Coordinates (Angstroms)
 Number     Number       Type             X           Y           Z
 ---------------------------------------------------------------------
      1          6           0       -0.021796    1.216405    0.000228
      2          6           0       -0.711339    0.000001    0.000394
      3          6           0       -0.021797   -1.216402    0.000299
      4          6           0        1.363253   -1.216104    0.000162
      5          6           0        2.082168   -0.000001    0.000057
      6          6           0        1.363254    1.216104    0.000091
      7          7           0        3.451498    0.000001   -0.000071
      8          7           0       -2.163906    0.000000    0.000613
      9          8           0       -2.745196   -1.091600   -0.000701
     10          8           0       -2.745209    1.091597   -0.000768
     11          1           0       -0.580949    2.143553    0.000271
     12          1           0       -0.580954   -2.143550    0.000397
     13          1           0        1.903261   -2.158272    0.000144
     14          1           0        1.903264    2.158270    0.000018
     15          1           0        3.971504    0.861227   -0.000155
     16          1           0        3.971503   -0.861226   -0.000103
 ---------------------------------------------------------------------
                    Distance matrix (angstroms):
                    1          2          3          4          5
     1  C    0.000000
     2  C    1.398252   0.000000
     3  C    2.432807   1.398250   0.000000
     4  C    2.799189   2.404754   1.385050   0.000000
     5  C    2.430290   2.793507   2.430288   1.412708   0.000000
     6  C    1.385050   2.404754   2.799188   2.432208   1.412710
     7  N    3.680137   4.162837   3.680138   2.416543   1.369330
     8  N    2.463387   1.452567   2.463385   3.730919   4.246074
     9  O    3.569845   2.308283   2.726257   4.110335   4.949246
    10  O    2.726272   2.308292   3.569851   4.712212   4.949258
    11  H    1.082707   2.147514   3.406163   3.881651   3.418628
    12  H    3.406164   2.147513   1.082710   2.154088   3.418629
    13  H    3.885137   3.390321   2.143121   1.085951   2.165673
    14  H    2.143121   3.390321   3.885135   3.417311   2.165673
    15  H    4.009064   4.761379   4.501444   3.334408   2.076368
    16  H    4.501443   4.761378   4.009064   2.632282   2.076366
                    6          7          8          9         10
     6  C    0.000000
     7  N    2.416541   0.000000
     8  N    3.730920   5.615404   0.000000
     9  O    4.712203   6.292107   1.236726   0.000000
    10  O    4.110349   6.292119   1.236729   2.183197   0.000000
    11  H    2.154086   4.566776   2.664690   3.892323   2.406374
    12  H    3.881652   4.566780   2.664685   2.406355   3.892323
    13  H    3.417312   2.656159   4.604344   4.769271   5.671854
    14  H    1.085950   2.656154   4.604346   5.671846   4.769286
    15  H    2.632281   1.006040   6.195560   6.994826   6.720662
    16  H    3.334406   1.006040   6.195559   6.720649   6.994837
                   11         12         13         14         15
    11  H    0.000000
    12  H    4.287103   0.000000
    13  H    4.967595   2.484259   0.000000
    14  H    2.484257   4.967594   4.316542   0.000000
    15  H    4.729608   5.454682   3.659918   2.441298   0.000000
    16  H    5.454678   4.729611   2.441302   3.659914   1.722453
                   16
    16  H    0.000000
 Stoichiometry    C6H6N2O2
 Framework group  C1[X(C6H6N2O2)]
 Deg. of freedom    42
 Full point group                 C1      NOp   1
 Largest Abelian subgroup         C1      NOp   1
 Largest concise Abelian subgroup C1      NOp   1
                         Standard orientation:                         
 ---------------------------------------------------------------------
 Center     Atomic      Atomic             Coordinates (Angstroms)
 Number     Number       Type             X           Y           Z
 ---------------------------------------------------------------------
      1          6           0        0.021796   -1.216405    0.000228
      2          6           0        0.711339   -0.000001    0.000394
      3          6           0        0.021797    1.216402    0.000299
      4          6           0       -1.363253    1.216104    0.000162
      5          6           0       -2.082168    0.000001    0.000057
      6          6           0       -1.363254   -1.216104    0.000091
      7          7           0       -3.451498   -0.000001   -0.000071
      8          7           0        2.163906    0.000000    0.000613
      9          8           0        2.745196    1.091600   -0.000701
     10          8           0        2.745209   -1.091597   -0.000768
     11          1           0        0.580949   -2.143553    0.000271
     12          1           0        0.580954    2.143550    0.000397
     13          1           0       -1.903261    2.158272    0.000144
     14          1           0       -1.903264   -2.158270    0.000018
     15          1           0       -3.971504   -0.861227   -0.000155
     16          1           0       -3.971503    0.861226   -0.000103
 ---------------------------------------------------------------------
 Rotational constants (GHZ):      3.9094978      0.8215452      0.6788840
 Standard basis: 6-31+G(d,p) (6D, 7F)
 There are   220 symmetry adapted cartesian basis functions of A   symmetry.
 There are   220 symmetry adapted basis functions of A   symmetry.
   220 basis functions,   362 primitive gaussians,   220 cartesian basis functions
    36 alpha electrons       36 beta electrons
       nuclear repulsion energy       494.6945858361 Hartrees.
 NAtoms=   16 NActive=   16 NUniq=   16 SFac= 1.00D+00 NAtFMM=   60 NAOKFM=F Big=F
 Integral buffers will be    131072 words long.
 Raffenetti 2 integral format.
 Two-electron integral symmetry is turned on.
 R6APFD:  NTU= -4 IXU= 1 FactS= 1.050
 Nuclear repulsion after empirical dispersion term =      494.6860532108 Hartrees.
 One-electron integrals computed using PRISM.
 NBasis=   220 RedAO= T EigKep=  3.27D-06  NBF=   220
 NBsUse=   220 1.00D-06 EigRej= -1.00D+00 NBFU=   220
 ExpMin= 4.38D-02 ExpMax= 5.48D+03 ExpMxC= 8.25D+02 IAcc=2 IRadAn=         4 AccDes= 0.00D+00
 Harris functional with IExCor= 3731 and IRadAn=       4 diagonalized for initial guess.
 HarFok:  IExCor= 3731 AccDes= 0.00D+00 IRadAn=         4 IDoV= 1 UseB2=F ITyADJ=14
 ICtDFT=  3500011 ScaDFX=  1.000000  1.000000  1.000000  1.000000
 FoFCou: FMM=F IPFlag=           0 FMFlag=      100000 FMFlg1=           0
         NFxFlg=           0 DoJE=T BraDBF=F KetDBF=T FulRan=T
         wScrn=  0.000000 ICntrl=     500 IOpCl=  0 I1Cent=   200000004 NGrid=           0
         NMat0=    1 NMatS0=      1 NMatT0=    0 NMatD0=    1 NMtDS0=    0 NMtDT0=    0
 Petite list used in FoFCou.
 Keep R1 ints in memory in canonical form, NReq=301066375.
 Requested convergence on RMS density matrix=1.00D-08 within 128 cycles.
 Requested convergence on MAX density matrix=1.00D-06.
 Requested convergence on             energy=1.00D-06.
 No special actions if energy rises.
 SCF Done:  E(RAPFD) =  -491.752705061     A.U. after   16 cycles
            NFock= 16  Conv=0.54D-08     -V/T= 2.0091

 **********************************************************************

            Population analysis using the SCF density.

 **********************************************************************

 Orbital symmetries:
       Occupied  (A) (A) (A) (A) (A) (A) (A) (A) (A) (A) (A) (A)
                 (A) (A) (A) (A) (A) (A) (A) (A) (A) (A) (A) (A)
                 (A) (A) (A) (A) (A) (A) (A) (A) (A) (A) (A) (A)
       Virtual   (A) (A) (A) (A) (A) (A) (A) (A) (A) (A) (A) (A)
                 (A) (A) (A) (A) (A) (A) (A) (A) (A) (A) (A) (A)
                 (A) (A) (A) (A) (A) (A) (A) (A) (A) (A) (A) (A)
                 (A) (A) (A) (A) (A) (A) (A) (A) (A) (A) (A) (A)
                 (A) (A) (A) (A) (A) (A) (A) (A) (A) (A) (A) (A)
                 (A) (A) (A) (A) (A) (A) (A) (A) (A) (A) (A) (A)
                 (A) (A) (A) (A) (A) (A) (A) (A) (A) (A) (A) (A)
                 (A) (A) (A) (A) (A) (A) (A) (A) (A) (A) (A) (A)
                 (A) (A) (A) (A) (A) (A) (A) (A) (A) (A) (A) (A)
                 (A) (A) (A) (A) (A) (A) (A) (A) (A) (A) (A) (A)
                 (A) (A) (A) (A) (A) (A) (A) (A) (A) (A) (A) (A)
                 (A) (A) (A) (A) (A) (A) (A) (A) (A) (A) (A) (A)
                 (A) (A) (A) (A) (A) (A) (A) (A) (A) (A) (A) (A)
                 (A) (A) (A) (A) (A) (A) (A) (A) (A) (A) (A) (A)
                 (A) (A) (A) (A) (A) (A) (A) (A) (A) (A) (A) (A)
                 (A) (A) (A) (A)
 The electronic state is 1-A.
 Alpha  occ. eigenvalues --  -19.21879 -19.21878 -14.60240 -14.41921 -10.29751
 Alpha  occ. eigenvalues --  -10.27013 -10.24859 -10.24858 -10.24106 -10.24106
 Alpha  occ. eigenvalues --   -1.23842  -1.06259  -0.97789  -0.89967  -0.81312
 Alpha  occ. eigenvalues --   -0.79408  -0.71210  -0.66096  -0.61772  -0.57613
 Alpha  occ. eigenvalues --   -0.56634  -0.55236  -0.53630  -0.51592  -0.47822
 Alpha  occ. eigenvalues --   -0.46980  -0.45819  -0.43377  -0.42710  -0.37887
 Alpha  occ. eigenvalues --   -0.35398  -0.31467  -0.31430  -0.29513  -0.28998
 Alpha  occ. eigenvalues --   -0.24334
 Alpha virt. eigenvalues --   -0.08410  -0.03230  -0.00853   0.00739   0.01709
 Alpha virt. eigenvalues --    0.02127   0.04590   0.05161   0.06722   0.07104
 Alpha virt. eigenvalues --    0.08350   0.09141   0.09411   0.10012   0.11417
 Alpha virt. eigenvalues --    0.12943   0.13718   0.13900   0.14416   0.14464
 Alpha virt. eigenvalues --    0.14474   0.16193   0.16841   0.17183   0.17445
 Alpha virt. eigenvalues --    0.18343   0.18583   0.19875   0.20271   0.20640
 Alpha virt. eigenvalues --    0.20947   0.22339   0.22351   0.23659   0.23793
 Alpha virt. eigenvalues --    0.24004   0.24921   0.25995   0.26541   0.27612
 Alpha virt. eigenvalues --    0.27637   0.27882   0.28733   0.30646   0.30914
 Alpha virt. eigenvalues --    0.32129   0.34020   0.34077   0.35354   0.37106
 Alpha virt. eigenvalues --    0.37296   0.39605   0.40573   0.42048   0.42888
 Alpha virt. eigenvalues --    0.44022   0.47133   0.54481   0.58714   0.60985
 Alpha virt. eigenvalues --    0.64869   0.65295   0.65793   0.70367   0.70977
 Alpha virt. eigenvalues --    0.71977   0.73775   0.75720   0.78214   0.78772
 Alpha virt. eigenvalues --    0.81942   0.84239   0.85148   0.88002   0.90753
 Alpha virt. eigenvalues --    0.91263   0.94093   0.94396   0.96679   0.99871
 Alpha virt. eigenvalues --    1.00108   1.02739   1.04611   1.07022   1.07462
 Alpha virt. eigenvalues --    1.09280   1.10409   1.16200   1.17415   1.19813
 Alpha virt. eigenvalues --    1.20085   1.20986   1.21086   1.24065   1.25587
 Alpha virt. eigenvalues --    1.27177   1.31873   1.31968   1.32951   1.35087
 Alpha virt. eigenvalues --    1.35481   1.36556   1.37185   1.38698   1.41689
 Alpha virt. eigenvalues --    1.44067   1.44764   1.45254   1.46977   1.53434
 Alpha virt. eigenvalues --    1.62534   1.69011   1.71860   1.75101   1.80498
 Alpha virt. eigenvalues --    1.81508   1.81578   1.84180   1.85392   1.87506
 Alpha virt. eigenvalues --    1.91414   1.92113   1.92918   1.95816   1.95883
 Alpha virt. eigenvalues --    1.96496   1.97352   2.02787   2.07059   2.08149
 Alpha virt. eigenvalues --    2.12572   2.12929   2.13023   2.17204   2.18597
 Alpha virt. eigenvalues --    2.21738   2.22473   2.29280   2.37217   2.37956
 Alpha virt. eigenvalues --    2.38679   2.41308   2.42730   2.43113   2.47947
 Alpha virt. eigenvalues --    2.51880   2.52497   2.54311   2.55953   2.56752
 Alpha virt. eigenvalues --    2.58705   2.60219   2.66231   2.69712   2.72559
 Alpha virt. eigenvalues --    2.72724   2.79320   2.81985   2.83331   2.84464
 Alpha virt. eigenvalues --    2.99031   3.02789   3.03904   3.07021   3.11616
 Alpha virt. eigenvalues --    3.11865   3.19868   3.28892   3.34482   3.34812
 Alpha virt. eigenvalues --    3.42204   3.53266   3.65804   3.83864   4.14036
 Alpha virt. eigenvalues --    4.22758   4.30113   4.30387   4.34625   4.49063
 Alpha virt. eigenvalues --    4.50736   4.53871   4.82146   4.86656
          Condensed to atoms (all electrons):
               1          2          3          4          5          6
     1  C   10.538949  -0.244614  -2.991687  -0.900052   0.043478  -1.059921
     2  C   -0.244614  10.506199  -0.244706  -0.966398  -0.652867  -0.966392
     3  C   -2.991687  -0.244706  10.539023  -1.059934   0.043488  -0.900054
     4  C   -0.900052  -0.966398  -1.059934  10.057592   0.160236  -1.533761
     5  C    0.043478  -0.652867   0.043488   0.160236   6.073665   0.160262
     6  C   -1.059921  -0.966392  -0.900054  -1.533761   0.160262  10.057539
     7  N    0.050950  -0.035185   0.050950  -0.070186   0.103461  -0.070186
     8  N    0.224657  -0.880787   0.224673   0.005766  -0.015269   0.005773
     9  O    0.137698  -0.333592  -0.055359   0.192704   0.014208  -0.023580
    10  O   -0.055362  -0.333588   0.137702  -0.023581   0.014208   0.192698
    11  H   -0.058104   0.346549   0.101388  -0.000734  -0.048305   0.017444
    12  H    0.101387   0.346553  -0.058109   0.017446  -0.048305  -0.000734
    13  H   -0.002702   0.000100   0.134466   0.062901   0.112108   0.026077
    14  H    0.134466   0.000099  -0.002702   0.026077   0.112107   0.062903
    15  H    0.023211  -0.000560  -0.002625   0.076982   0.005713  -0.111967
    16  H   -0.002625  -0.000560   0.023211  -0.111968   0.005714   0.076982
               7          8          9         10         11         12
     1  C    0.050950   0.224657   0.137698  -0.055362  -0.058104   0.101387
     2  C   -0.035185  -0.880787  -0.333592  -0.333588   0.346549   0.346553
     3  C    0.050950   0.224673  -0.055359   0.137702   0.101388  -0.058109
     4  C   -0.070186   0.005766   0.192704  -0.023581  -0.000734   0.017446
     5  C    0.103461  -0.015269   0.014208   0.014208  -0.048305  -0.048305
     6  C   -0.070186   0.005773  -0.023580   0.192698   0.017444  -0.000734
     7  N    6.976640   0.001155  -0.000271  -0.000271  -0.000408  -0.000408
     8  N    0.001155   6.969403   0.372204   0.372215  -0.054465  -0.054466
     9  O   -0.000271   0.372204   7.836585  -0.077495  -0.003148   0.022124
    10  O   -0.000271   0.372215  -0.077495   7.836580   0.022124  -0.003148
    11  H   -0.000408  -0.054465  -0.003148   0.022124   0.486175  -0.000131
    12  H   -0.000408  -0.054466   0.022124  -0.003148  -0.000131   0.486174
    13  H   -0.020917  -0.000599   0.000062   0.000043   0.000012  -0.004461
    14  H   -0.020918  -0.000599   0.000043   0.000062  -0.004461   0.000012
    15  H    0.334988   0.000004   0.000000   0.000000  -0.000008   0.000003
    16  H    0.334987   0.000004   0.000000   0.000000   0.000003  -0.000008
              13         14         15         16
     1  C   -0.002702   0.134466   0.023211  -0.002625
     2  C    0.000100   0.000099  -0.000560  -0.000560
     3  C    0.134466  -0.002702  -0.002625   0.023211
     4  C    0.062901   0.026077   0.076982  -0.111968
     5  C    0.112108   0.112107   0.005713   0.005714
     6  C    0.026077   0.062903  -0.111967   0.076982
     7  N   -0.020917  -0.020918   0.334988   0.334987
     8  N   -0.000599  -0.000599   0.000004   0.000004
     9  O    0.000062   0.000043   0.000000   0.000000
    10  O    0.000043   0.000062   0.000000   0.000000
    11  H    0.000012  -0.004461  -0.000008   0.000003
    12  H   -0.004461   0.000012   0.000003  -0.000008
    13  H    0.537776  -0.000134  -0.000065   0.004751
    14  H   -0.000134   0.537777   0.004751  -0.000065
    15  H   -0.000065   0.004751   0.372115  -0.024989
    16  H    0.004751  -0.000065  -0.024989   0.372116
 Mulliken charges:
               1
     1  C    0.060272
     2  C   -0.540253
     3  C    0.060274
     4  C    0.066911
     5  C   -0.083900
     6  C    0.066917
     7  N   -0.634379
     8  N   -0.169668
     9  O   -0.082183
    10  O   -0.082188
    11  H    0.196070
    12  H    0.196071
    13  H    0.150582
    14  H    0.150581
    15  H    0.322447
    16  H    0.322447
 Sum of Mulliken charges =  -0.00000
 Mulliken charges with hydrogens summed into heavy atoms:
               1
     1  C    0.256342
     2  C   -0.540253
     3  C    0.256345
     4  C    0.217492
     5  C   -0.083900
     6  C    0.217499
     7  N    0.010514
     8  N   -0.169668
     9  O   -0.082183
    10  O   -0.082188
 Electronic spatial extent (au):  <R**2>=           1561.6845
 Charge=             -0.0000 electrons
 Dipole moment (field-independent basis, Debye):
    X=             -7.8852    Y=              0.0000    Z=              0.0025  Tot=              7.8852
 Quadrupole moment (field-independent basis, Debye-Ang):
   XX=            -55.9639   YY=            -52.4319   ZZ=            -60.6393
   XY=              0.0000   XZ=              0.0094   YZ=              0.0002
 Traceless Quadrupole moment (field-independent basis, Debye-Ang):
   XX=              0.3811   YY=              3.9132   ZZ=             -4.2943
   XY=              0.0000   XZ=              0.0094   YZ=              0.0002
 Octapole moment (field-independent basis, Debye-Ang**2):
  XXX=           -111.5364  YYY=              0.0000  ZZZ=             -0.0069  XYY=            -17.2404
  XXY=              0.0001  XXZ=              0.0176  XZZ=             13.3078  YZZ=              0.0000
  YYZ=             -0.0006  XYZ=             -0.0009
 Hexadecapole moment (field-independent basis, Debye-Ang**3):
 XXXX=          -1352.7279 YYYY=           -363.3346 ZZZZ=            -64.7172 XXXY=              0.0007
 XXXZ=              0.1302 YYYX=              0.0001 YYYZ=             -0.0033 ZZZX=              0.0419
 ZZZY=             -0.0055 XXYY=           -296.6406 XXZZ=           -279.2053 YYZZ=            -84.1351
 XXYZ=             -0.0005 YYXZ=              0.0160 ZZXY=              0.0000
 N-N= 4.946860532108D+02 E-N=-2.135898861356D+03  KE= 4.873355614873D+02
 R6APFD:  NTU= -4 IXU= 1 FactS= 1.050
 Calling FoFJK, ICntrl=      2127 FMM=F ISym2X=0 I1Cent= 0 IOpClX= 0 NMat=1 NMatS=1 NMatT=0.
 ***** Axes restored to original set *****
 -------------------------------------------------------------------
 Center     Atomic                   Forces (Hartrees/Bohr)
 Number     Number              X              Y              Z
 -------------------------------------------------------------------
      1        6           0.000969302   -0.002955288    0.000024516
      2        6          -0.001784315    0.000001701    0.000085769
      3        6           0.000968606    0.002953194    0.000024414
      4        6          -0.000887589    0.002329475   -0.000006490
      5        6           0.002459677    0.000001199    0.000002368
      6        6          -0.000887965   -0.002330403   -0.000006322
      7        7          -0.003991747   -0.000000934    0.000000818
      8        7          -0.008094372    0.000002161   -0.000439948
      9        8           0.006686501    0.009156626    0.000160179
     10        8           0.006690052   -0.009159697    0.000160750
     11        1          -0.000727469    0.001063920    0.000000374
     12        1          -0.000726432   -0.001062773    0.000000394
     13        1           0.000248801   -0.000774259   -0.000003276
     14        1           0.000249021    0.000774723   -0.000003329
     15        1          -0.000586113   -0.000997939   -0.000000078
     16        1          -0.000585957    0.000998294   -0.000000138
 -------------------------------------------------------------------
 Cartesian Forces:  Max     0.009159697 RMS     0.002840327

 GradGradGradGradGradGradGradGradGradGradGradGradGradGradGradGradGradGrad
 Berny optimization.
 FormGI is forming the generalized inverse of G from B-inverse, IUseBI=4.
 Internal  Forces:  Max     0.011229514 RMS     0.002216797
 Search for a local minimum.
 Step number   1 out of a maximum of   82
 All quantities printed in internal units (Hartrees-Bohrs-Radians)
 Mixed Optimization -- RFO/linear search
 Second derivative matrix not updated -- first step.
 ITU=  0
     Eigenvalues ---    0.00996   0.00996   0.01774   0.01947   0.02015
     Eigenvalues ---    0.02078   0.02097   0.02097   0.02106   0.02155
     Eigenvalues ---    0.02167   0.02210   0.02216   0.16000   0.16000
     Eigenvalues ---    0.16000   0.16000   0.16000   0.16000   0.22000
     Eigenvalues ---    0.22969   0.24000   0.25000   0.25000   0.25000
     Eigenvalues ---    0.25000   0.35285   0.35285   0.35669   0.35669
     Eigenvalues ---    0.37911   0.40804   0.41759   0.44815   0.45017
     Eigenvalues ---    0.46642   0.46642   0.46706   0.48191   0.51106
     Eigenvalues ---    0.88339   0.88341
 RFO step:  Lambda=-5.45053347D-04 EMin= 9.96419452D-03
 Linear search not attempted -- first point.
 Iteration  1 RMS(Cart)=  0.00864001 RMS(Int)=  0.00004492
 Iteration  2 RMS(Cart)=  0.00003632 RMS(Int)=  0.00002666
 Iteration  3 RMS(Cart)=  0.00000000 RMS(Int)=  0.00002666
 Variable       Old X    -DE/DX   Delta X   Delta X   Delta X     New X
                                 (Linear)    (Quad)   (Total)
    R1        2.64231  -0.00258   0.00000  -0.00568  -0.00568   2.63663
    R2        2.61737  -0.00199   0.00000  -0.00413  -0.00413   2.61324
    R3        2.04602   0.00129   0.00000   0.00360   0.00360   2.04962
    R4        2.64231  -0.00258   0.00000  -0.00568  -0.00568   2.63663
    R5        2.74495  -0.00528   0.00000  -0.01391  -0.01391   2.73104
    R6        2.61737  -0.00199   0.00000  -0.00413  -0.00413   2.61324
    R7        2.04602   0.00129   0.00000   0.00360   0.00360   2.04962
    R8        2.66963  -0.00196   0.00000  -0.00441  -0.00441   2.66522
    R9        2.05215   0.00080   0.00000   0.00225   0.00225   2.05440
   R10        2.66963  -0.00196   0.00000  -0.00441  -0.00441   2.66523
   R11        2.58766  -0.00516   0.00000  -0.01009  -0.01009   2.57757
   R12        2.05215   0.00080   0.00000   0.00225   0.00225   2.05440
   R13        1.90114  -0.00116   0.00000  -0.00248  -0.00248   1.89866
   R14        1.90114  -0.00116   0.00000  -0.00248  -0.00248   1.89866
   R15        2.33707  -0.01123   0.00000  -0.01270  -0.01270   2.32437
   R16        2.33708  -0.01123   0.00000  -0.01270  -0.01270   2.32438
    A1        2.08628  -0.00026   0.00000  -0.00124  -0.00124   2.08504
    A2        2.08320   0.00006   0.00000   0.00015   0.00015   2.08335
    A3        2.11370   0.00021   0.00000   0.00109   0.00109   2.11479
    A4        2.11019   0.00075   0.00000   0.00283   0.00283   2.11302
    A5        2.08650  -0.00038   0.00000  -0.00142  -0.00142   2.08508
    A6        2.08650  -0.00038   0.00000  -0.00141  -0.00141   2.08508
    A7        2.08628  -0.00026   0.00000  -0.00124  -0.00124   2.08504
    A8        2.08320   0.00006   0.00000   0.00015   0.00015   2.08335
    A9        2.11370   0.00021   0.00000   0.00109   0.00109   2.11479
   A10        2.10491  -0.00028   0.00000  -0.00103  -0.00103   2.10388
   A11        2.09103  -0.00003   0.00000  -0.00056  -0.00056   2.09046
   A12        2.08725   0.00032   0.00000   0.00160   0.00160   2.08885
   A13        2.07380   0.00034   0.00000   0.00171   0.00171   2.07551
   A14        2.10469  -0.00017   0.00000  -0.00086  -0.00086   2.10384
   A15        2.10469  -0.00017   0.00000  -0.00085  -0.00085   2.10384
   A16        2.10491  -0.00028   0.00000  -0.00103  -0.00103   2.10388
   A17        2.09103  -0.00003   0.00000  -0.00056  -0.00056   2.09046
   A18        2.08725   0.00032   0.00000   0.00160   0.00160   2.08885
   A19        2.11400   0.00001   0.00000   0.00005   0.00005   2.11406
   A20        2.11400   0.00001   0.00000   0.00006   0.00006   2.11406
   A21        2.05518  -0.00002   0.00000  -0.00011  -0.00011   2.05507
   A22        2.06011  -0.00124   0.00000  -0.00494  -0.00507   2.05504
   A23        2.06012  -0.00125   0.00000  -0.00495  -0.00509   2.05504
   A24        2.16294   0.00249   0.00000   0.00997   0.00983   2.17278
    D1       -0.00010   0.00001   0.00000   0.00044   0.00044   0.00034
    D2        3.14153   0.00001   0.00000   0.00022   0.00022  -3.14143
    D3        3.14155   0.00000   0.00000   0.00017   0.00017  -3.14146
    D4        0.00001  -0.00000   0.00000  -0.00005  -0.00005  -0.00004
    D5        0.00005  -0.00000   0.00000  -0.00021  -0.00021  -0.00016
    D6       -3.14153  -0.00001   0.00000  -0.00025  -0.00025   3.14141
    D7        3.14158   0.00000   0.00000   0.00006   0.00006  -3.14155
    D8       -0.00001   0.00000   0.00000   0.00003   0.00003   0.00002
    D9        0.00010  -0.00001   0.00000  -0.00044  -0.00044  -0.00034
   D10       -3.14156  -0.00000   0.00000  -0.00017  -0.00017   3.14146
   D11       -3.14153  -0.00001   0.00000  -0.00022  -0.00022   3.14143
   D12       -0.00001   0.00000   0.00000   0.00005   0.00005   0.00004
   D13        3.14026   0.00015   0.00000   0.01448   0.01448  -3.12845
   D14        0.00129  -0.00015   0.00000  -0.01426  -0.01426  -0.01297
   D15       -0.00129   0.00015   0.00000   0.01426   0.01426   0.01297
   D16       -3.14025  -0.00015   0.00000  -0.01448  -0.01448   3.12845
   D17       -0.00005   0.00000   0.00000   0.00021   0.00021   0.00016
   D18        3.14153   0.00001   0.00000   0.00025   0.00025  -3.14141
   D19       -3.14157  -0.00000   0.00000  -0.00006  -0.00006   3.14155
   D20        0.00001  -0.00000   0.00000  -0.00003  -0.00003  -0.00002
   D21       -0.00000   0.00000   0.00000   0.00001   0.00001   0.00001
   D22        3.14159   0.00000   0.00000   0.00002   0.00002  -3.14158
   D23       -3.14159  -0.00000   0.00000  -0.00002  -0.00002   3.14158
   D24        0.00000  -0.00000   0.00000  -0.00002  -0.00002  -0.00001
   D25        0.00000  -0.00000   0.00000  -0.00001  -0.00001  -0.00001
   D26        3.14159   0.00000   0.00000   0.00002   0.00002  -3.14158
   D27       -3.14159  -0.00000   0.00000  -0.00002  -0.00002   3.14158
   D28       -0.00000   0.00000   0.00000   0.00002   0.00002   0.00001
   D29        3.14158  -0.00000   0.00000  -0.00001  -0.00001   3.14157
   D30        0.00001   0.00000   0.00000   0.00001   0.00001   0.00002
   D31       -0.00001  -0.00000   0.00000  -0.00001  -0.00001  -0.00002
   D32       -3.14158   0.00000   0.00000   0.00001   0.00001  -3.14158
         Item               Value     Threshold  Converged?
 Maximum Force            0.011230     0.000450     NO 
 RMS     Force            0.002217     0.000300     NO 
 Maximum Displacement     0.035880     0.001800     NO 
 RMS     Displacement     0.008661     0.001200     NO 
 Predicted change in Energy=-2.730168D-04
 GradGradGradGradGradGradGradGradGradGradGradGradGradGradGradGradGradGrad

                          Input orientation:                          
 ---------------------------------------------------------------------
 Center     Atomic      Atomic             Coordinates (Angstroms)
 Number     Number       Type             X           Y           Z
 ---------------------------------------------------------------------
      1          6           0       -0.022049    1.214760   -0.002510
      2          6           0       -0.708387   -0.000001   -0.003558
      3          6           0       -0.022048   -1.214762   -0.002439
      4          6           0        1.360818   -1.214709   -0.000665
      5          6           0        2.077506   -0.000000    0.000211
      6          6           0        1.360816    1.214708   -0.000736
      7          7           0        3.441494    0.000001    0.001946
      8          7           0       -2.153590    0.000000   -0.005613
      9          8           0       -2.726230   -1.088493    0.007821
     10          8           0       -2.726222    1.088499    0.007754
     11          1           0       -0.583362    2.142830   -0.003294
     12          1           0       -0.583360   -2.142832   -0.003169
     13          1           0        1.900718   -2.158311    0.000036
     14          1           0        1.900716    2.158311   -0.000090
     15          1           0        3.960869    0.860076    0.002565
     16          1           0        3.960870   -0.860073    0.002617
 ---------------------------------------------------------------------
                    Distance matrix (angstroms):
                    1          2          3          4          5
     1  C    0.000000
     2  C    1.395244   0.000000
     3  C    2.429522   1.395244   0.000000
     4  C    2.795468   2.399402   1.382866   0.000000
     5  C    2.425650   2.785895   2.425650   1.410376   0.000000
     6  C    1.382866   2.399402   2.795468   2.429418   1.410377
     7  N    3.670393   4.149884   3.670393   2.409303   1.363989
     8  N    2.453389   1.445204   2.453391   3.718414   4.231100
     9  O    3.552137   2.292735   2.707148   4.089005   4.925521
    10  O    2.707139   2.292732   3.552136   4.691346   4.925514
    11  H    1.084614   2.146475   3.404188   3.879808   3.416424
    12  H    3.404188   2.146475   1.084613   2.154355   3.416423
    13  H    3.882608   3.386110   2.141803   1.087142   2.165539
    14  H    2.141803   3.386110   3.882608   3.415956   2.165540
    15  H    3.998682   4.747812   4.490946   3.326411   2.070457
    16  H    4.490946   4.747812   3.998682   2.624128   2.070457
                    6          7          8          9         10
     6  C    0.000000
     7  N    2.409303   0.000000
     8  N    3.718412   5.595088   0.000000
     9  O    4.691349   6.263040   1.230006   0.000000
    10  O    4.088995   6.263033   1.230007   2.176992   0.000000
    11  H    2.154355   4.559737   2.656565   3.877300   2.388218
    12  H    3.879807   4.559737   2.656568   2.388230   3.877303
    13  H    3.415956   2.651850   4.593011   4.749023   5.652469
    14  H    1.087142   2.651849   4.593009   5.652471   4.749012
    15  H    2.624128   1.004729   6.174658   6.965216   6.690993
    16  H    3.326411   1.004729   6.174658   6.691002   6.965210
                   11         12         13         14         15
    11  H    0.000000
    12  H    4.285662   0.000000
    13  H    4.966938   2.484128   0.000000
    14  H    2.484128   4.966938   4.316622   0.000000
    15  H    4.721814   5.446788   3.654434   2.435087   0.000000
    16  H    5.446788   4.721814   2.435088   3.654433   1.720149
                   16
    16  H    0.000000
 Stoichiometry    C6H6N2O2
 Framework group  C1[X(C6H6N2O2)]
 Deg. of freedom    42
 Full point group                 C1      NOp   1
 Largest Abelian subgroup         C1      NOp   1
 Largest concise Abelian subgroup C1      NOp   1
                         Standard orientation:                         
 ---------------------------------------------------------------------
 Center     Atomic      Atomic             Coordinates (Angstroms)
 Number     Number       Type             X           Y           Z
 ---------------------------------------------------------------------
      1          6           0        0.025271   -1.214760   -0.003036
      2          6           0        0.711608    0.000002   -0.004493
      3          6           0        0.025269    1.214762   -0.003036
      4          6           0       -1.357595    1.214709   -0.000508
      5          6           0       -2.074282    0.000000    0.000795
      6          6           0       -1.357593   -1.214708   -0.000507
      7          7           0       -3.438269   -0.000001    0.003275
      8          7           0        2.156810    0.000001   -0.007337
      9          8           0        2.729457    1.088494    0.005752
     10          8           0        2.729449   -1.088498    0.005750
     11          1           0        0.586584   -2.142829   -0.004098
     12          1           0        0.586581    2.142832   -0.004100
     13          1           0       -1.897495    2.158311    0.000460
     14          1           0       -1.897492   -2.158311    0.000462
     15          1           0       -3.957643   -0.860076    0.004203
     16          1           0       -3.957645    0.860073    0.004204
 ---------------------------------------------------------------------
 Rotational constants (GHZ):      3.9216635      0.8289033      0.6842766
 Standard basis: 6-31+G(d,p) (6D, 7F)
 There are   220 symmetry adapted cartesian basis functions of A   symmetry.
 There are   220 symmetry adapted basis functions of A   symmetry.
   220 basis functions,   362 primitive gaussians,   220 cartesian basis functions
    36 alpha electrons       36 beta electrons
       nuclear repulsion energy       496.3410112211 Hartrees.
 NAtoms=   16 NActive=   16 NUniq=   16 SFac= 1.00D+00 NAtFMM=   60 NAOKFM=F Big=F
 Integral buffers will be    131072 words long.
 Raffenetti 2 integral format.
 Two-electron integral symmetry is turned on.
 R6APFD:  NTU= -4 IXU= 1 FactS= 1.050
 Nuclear repulsion after empirical dispersion term =      496.3325098367 Hartrees.
 One-electron integrals computed using PRISM.
 NBasis=   220 RedAO= T EigKep=  3.22D-06  NBF=   220
 NBsUse=   220 1.00D-06 EigRej= -1.00D+00 NBFU=   220
 Initial guess from the checkpoint file:  "APFDPNA.chk"
 B after Tr=     0.000000   -0.000000   -0.000000
         Rot=    1.000000    0.000015    0.000034    0.000000 Ang=   0.00 deg.
 ExpMin= 4.38D-02 ExpMax= 5.48D+03 ExpMxC= 8.25D+02 IAcc=2 IRadAn=         4 AccDes= 0.00D+00
 Harris functional with IExCor= 3731 and IRadAn=       4 diagonalized for initial guess.
 HarFok:  IExCor= 3731 AccDes= 0.00D+00 IRadAn=         4 IDoV= 1 UseB2=F ITyADJ=14
 ICtDFT=  3500011 ScaDFX=  1.000000  1.000000  1.000000  1.000000
 FoFCou: FMM=F IPFlag=           0 FMFlag=      100000 FMFlg1=           0
         NFxFlg=           0 DoJE=T BraDBF=F KetDBF=T FulRan=T
         wScrn=  0.000000 ICntrl=     500 IOpCl=  0 I1Cent=   200000004 NGrid=           0
         NMat0=    1 NMatS0=      1 NMatT0=    0 NMatD0=    1 NMtDS0=    0 NMtDT0=    0
 Petite list used in FoFCou.
 Keep R1 ints in memory in canonical form, NReq=301066375.
 Requested convergence on RMS density matrix=1.00D-08 within 128 cycles.
 Requested convergence on MAX density matrix=1.00D-06.
 Requested convergence on             energy=1.00D-06.
 No special actions if energy rises.
 SCF Done:  E(RAPFD) =  -491.752913414     A.U. after   12 cycles
            NFock= 12  Conv=0.99D-08     -V/T= 2.0088
 R6APFD:  NTU= -4 IXU= 1 FactS= 1.050
 Calling FoFJK, ICntrl=      2127 FMM=F ISym2X=0 I1Cent= 0 IOpClX= 0 NMat=1 NMatS=1 NMatT=0.
 ***** Axes restored to original set *****
 -------------------------------------------------------------------
 Center     Atomic                   Forces (Hartrees/Bohr)
 Number     Number              X              Y              Z
 -------------------------------------------------------------------
      1        6           0.000479456    0.000176285   -0.000197818
      2        6          -0.000068178   -0.000000133   -0.000941679
      3        6           0.000479243   -0.000176239   -0.000197780
      4        6          -0.000082497   -0.000223397    0.000054192
      5        6           0.000809441    0.000000296   -0.000024414
      6        6          -0.000082238    0.000223145    0.000054147
      7        7          -0.000214388   -0.000000155   -0.000002558
      8        7          -0.001390848    0.000001172    0.004240545
      9        8          -0.000268338    0.001237030   -0.001513013
     10        8          -0.000268905   -0.001237916   -0.001512929
     11        1           0.000078698   -0.000125591   -0.000006204
     12        1           0.000078580    0.000125420   -0.000006219
     13        1           0.000049560    0.000003808    0.000025007
     14        1           0.000049521   -0.000003800    0.000025016
     15        1           0.000175444   -0.000006472    0.000001865
     16        1           0.000175448    0.000006548    0.000001842
 -------------------------------------------------------------------
 Cartesian Forces:  Max     0.004240545 RMS     0.000792226

 GradGradGradGradGradGradGradGradGradGradGradGradGradGradGradGradGradGrad
 Berny optimization.
 Using GEDIIS/GDIIS optimizer.
 FormGI is forming the generalized inverse of G from B-inverse, IUseBI=4.
 Internal  Forces:  Max     0.001926364 RMS     0.000548202
 Search for a local minimum.
 Step number   2 out of a maximum of   82
 All quantities printed in internal units (Hartrees-Bohrs-Radians)
 Mixed Optimization -- En-DIIS/RFO-DIIS
 Update second derivatives using D2CorX and points    1    2
 DE= -2.08D-04 DEPred=-2.73D-04 R= 7.63D-01
 TightC=F SS=  1.41D+00  RLast= 4.25D-02 DXNew= 5.0454D-01 1.2760D-01
 Trust test= 7.63D-01 RLast= 4.25D-02 DXMaxT set to 3.00D-01
 ITU=  1  0
 Use linear search instead of GDIIS.
     Eigenvalues ---    0.00996   0.01287   0.01776   0.01947   0.02015
     Eigenvalues ---    0.02078   0.02097   0.02097   0.02106   0.02156
     Eigenvalues ---    0.02167   0.02210   0.02216   0.15985   0.16000
     Eigenvalues ---    0.16000   0.16000   0.16000   0.16015   0.22000
     Eigenvalues ---    0.22963   0.24070   0.25000   0.25000   0.25000
     Eigenvalues ---    0.26351   0.35209   0.35285   0.35649   0.35669
     Eigenvalues ---    0.40297   0.40736   0.41758   0.44814   0.46222
     Eigenvalues ---    0.46642   0.46704   0.46727   0.49026   0.50341
     Eigenvalues ---    0.74303   0.88340
 RFO step:  Lambda=-5.82431147D-04 EMin= 9.96419452D-03
 Quartic linear search produced a step of -0.19362.
 Iteration  1 RMS(Cart)=  0.02636713 RMS(Int)=  0.00221624
 Iteration  2 RMS(Cart)=  0.00192110 RMS(Int)=  0.00134908
 Iteration  3 RMS(Cart)=  0.00000553 RMS(Int)=  0.00134907
 Iteration  4 RMS(Cart)=  0.00000001 RMS(Int)=  0.00134907
 Variable       Old X    -DE/DX   Delta X   Delta X   Delta X     New X
                                 (Linear)    (Quad)   (Total)
    R1        2.63663   0.00067   0.00110  -0.00610  -0.00500   2.63163
    R2        2.61324   0.00044   0.00080  -0.00456  -0.00376   2.60948
    R3        2.04962  -0.00015  -0.00070   0.00429   0.00359   2.05322
    R4        2.63663   0.00067   0.00110  -0.00610  -0.00500   2.63163
    R5        2.73104   0.00193   0.00269  -0.01376  -0.01106   2.71998
    R6        2.61324   0.00044   0.00080  -0.00456  -0.00376   2.60948
    R7        2.04962  -0.00015  -0.00070   0.00429   0.00359   2.05321
    R8        2.66522   0.00030   0.00085  -0.00513  -0.00427   2.66095
    R9        2.05440   0.00002  -0.00044   0.00294   0.00250   2.05690
   R10        2.66523   0.00030   0.00085  -0.00513  -0.00427   2.66095
   R11        2.57757   0.00014   0.00195  -0.01274  -0.01079   2.56678
   R12        2.05440   0.00002  -0.00044   0.00294   0.00251   2.05691
   R13        1.89866   0.00009   0.00048  -0.00303  -0.00255   1.89611
   R14        1.89866   0.00009   0.00048  -0.00303  -0.00255   1.89611
   R15        2.32437  -0.00099   0.00246  -0.01720  -0.01474   2.30964
   R16        2.32438  -0.00099   0.00246  -0.01720  -0.01474   2.30963
    A1        2.08504   0.00045   0.00024  -0.00000   0.00023   2.08528
    A2        2.08335  -0.00022  -0.00003  -0.00059  -0.00062   2.08273
    A3        2.11479  -0.00023  -0.00021   0.00059   0.00038   2.11517
    A4        2.11302  -0.00091  -0.00055   0.00070   0.00015   2.11317
    A5        2.08508   0.00045   0.00027  -0.00035  -0.00008   2.08501
    A6        2.08508   0.00045   0.00027  -0.00035  -0.00007   2.08501
    A7        2.08504   0.00045   0.00024  -0.00001   0.00023   2.08528
    A8        2.08335  -0.00022  -0.00003  -0.00059  -0.00062   2.08274
    A9        2.11479  -0.00023  -0.00021   0.00059   0.00038   2.11517
   A10        2.10388   0.00022   0.00020  -0.00068  -0.00048   2.10339
   A11        2.09046  -0.00006   0.00011  -0.00082  -0.00071   2.08976
   A12        2.08885  -0.00015  -0.00031   0.00150   0.00119   2.09004
   A13        2.07551  -0.00042  -0.00033   0.00068   0.00035   2.07586
   A14        2.10384   0.00021   0.00017  -0.00034  -0.00018   2.10366
   A15        2.10384   0.00021   0.00017  -0.00034  -0.00017   2.10366
   A16        2.10388   0.00022   0.00020  -0.00068  -0.00048   2.10339
   A17        2.09046  -0.00006   0.00011  -0.00082  -0.00071   2.08976
   A18        2.08885  -0.00015  -0.00031   0.00150   0.00119   2.09004
   A19        2.11406   0.00010  -0.00001   0.00056   0.00055   2.11461
   A20        2.11406   0.00010  -0.00001   0.00057   0.00055   2.11461
   A21        2.05507  -0.00019   0.00002  -0.00113  -0.00110   2.05396
   A22        2.05504   0.00066   0.00098  -0.00267  -0.00823   2.04682
   A23        2.05504   0.00067   0.00098  -0.00269  -0.00824   2.04680
   A24        2.17278  -0.00125  -0.00190   0.01029   0.00173   2.17450
    D1        0.00034  -0.00008  -0.00009  -0.00239  -0.00248  -0.00214
    D2       -3.14143  -0.00004  -0.00004  -0.00103  -0.00108   3.14068
    D3       -3.14146  -0.00003  -0.00003  -0.00106  -0.00109   3.14064
    D4       -0.00004   0.00001   0.00001   0.00030   0.00031   0.00027
    D5       -0.00016   0.00004   0.00004   0.00113   0.00117   0.00101
    D6        3.14141   0.00004   0.00005   0.00126   0.00131  -3.14047
    D7       -3.14155  -0.00001  -0.00001  -0.00023  -0.00025   3.14139
    D8        0.00002  -0.00000  -0.00001  -0.00010  -0.00010  -0.00008
    D9       -0.00034   0.00008   0.00009   0.00239   0.00248   0.00214
   D10        3.14146   0.00003   0.00003   0.00106   0.00109  -3.14064
   D11        3.14143   0.00004   0.00004   0.00103   0.00108  -3.14068
   D12        0.00004  -0.00001  -0.00001  -0.00030  -0.00031  -0.00027
   D13       -3.12845  -0.00157  -0.00280  -0.09999  -0.10223   3.05251
   D14       -0.01297   0.00154   0.00276   0.09865   0.10085   0.08788
   D15        0.01297  -0.00154  -0.00276  -0.09865  -0.10085  -0.08788
   D16        3.12845   0.00157   0.00280   0.09999   0.10223  -3.05251
   D17        0.00016  -0.00004  -0.00004  -0.00113  -0.00117  -0.00101
   D18       -3.14141  -0.00004  -0.00005  -0.00126  -0.00131   3.14047
   D19        3.14155   0.00001   0.00001   0.00023   0.00025  -3.14139
   D20       -0.00002   0.00000   0.00001   0.00010   0.00010   0.00008
   D21        0.00001  -0.00000  -0.00000  -0.00010  -0.00010  -0.00009
   D22       -3.14158  -0.00000  -0.00000  -0.00012  -0.00013   3.14148
   D23        3.14158   0.00000   0.00000   0.00004   0.00004  -3.14156
   D24       -0.00001   0.00000   0.00000   0.00001   0.00002   0.00000
   D25       -0.00001   0.00000   0.00000   0.00010   0.00010   0.00009
   D26       -3.14158  -0.00000  -0.00000  -0.00004  -0.00004   3.14156
   D27        3.14158   0.00000   0.00000   0.00012   0.00013  -3.14148
   D28        0.00001  -0.00000  -0.00000  -0.00001  -0.00002  -0.00000
   D29        3.14157   0.00000   0.00000   0.00006   0.00006  -3.14155
   D30        0.00002  -0.00000  -0.00000  -0.00003  -0.00003  -0.00002
   D31       -0.00002   0.00000   0.00000   0.00003   0.00003   0.00002
   D32       -3.14158  -0.00000  -0.00000  -0.00006  -0.00006   3.14155
         Item               Value     Threshold  Converged?
 Maximum Force            0.001926     0.000450     NO 
 RMS     Force            0.000548     0.000300     NO 
 Maximum Displacement     0.114368     0.001800     NO 
 RMS     Displacement     0.026628     0.001200     NO 
 Predicted change in Energy=-3.154332D-04
 GradGradGradGradGradGradGradGradGradGradGradGradGradGradGradGradGradGrad

                          Input orientation:                          
 ---------------------------------------------------------------------
 Center     Atomic      Atomic             Coordinates (Angstroms)
 Number     Number       Type             X           Y           Z
 ---------------------------------------------------------------------
      1          6           0       -0.022261    1.212508    0.017177
      2          6           0       -0.707169   -0.000001    0.024402
      3          6           0       -0.022259   -1.212511    0.017249
      4          6           0        1.358567   -1.212886    0.005329
      5          6           0        2.073869    0.000001   -0.000827
      6          6           0        1.358565    1.212886    0.005258
      7          7           0        3.432101   -0.000000   -0.012417
      8          7           0       -2.146456    0.000001    0.037975
      9          8           0       -2.707408   -1.082082   -0.052700
     10          8           0       -2.707387    1.082086   -0.052766
     11          1           0       -0.585181    2.141815    0.022154
     12          1           0       -0.585174   -2.141818    0.022280
     13          1           0        1.898145   -2.158187    0.000767
     14          1           0        1.898141    2.158189    0.000641
     15          1           0        3.951232    0.858631   -0.016848
     16          1           0        3.951234   -0.858631   -0.016796
 ---------------------------------------------------------------------
                    Distance matrix (angstroms):
                    1          2          3          4          5
     1  C    0.000000
     2  C    1.392599   0.000000
     3  C    2.425020   1.392600   0.000000
     4  C    2.790943   2.395563   1.380877   0.000000
     5  C    2.421623   2.781153   2.421624   1.408115   0.000000
     6  C    1.380877   2.395562   2.790944   2.425771   1.408114
     7  N    3.661102   4.139434   3.661101   2.402279   1.358281
     8  N    2.445979   1.439351   2.445983   3.709090   4.220503
     9  O    3.532710   2.275477   2.689225   4.068492   4.902468
    10  O    2.689202   2.275465   3.532703   4.669288   4.902450
    11  H    1.086515   2.145289   3.401236   3.877171   3.414446
    12  H    3.401235   2.145289   1.086512   2.154375   3.414444
    13  H    3.879409   3.383192   2.140684   1.088467   2.165331
    14  H    2.140684   3.383193   3.879411   3.413987   2.165331
    15  H    3.989365   4.737051   4.481007   3.318672   2.064460
    16  H    4.481008   4.737053   3.989366   2.616851   2.064462
                    6          7          8          9         10
     6  C    0.000000
     7  N    2.402281   0.000000
     8  N    3.709088   5.578784   0.000000
     9  O    4.669300   6.234267   1.222208   0.000000
    10  O    4.068469   6.234248   1.222205   2.164168   0.000000
    11  H    2.154377   4.552704   2.650509   3.860435   2.373268
    12  H    3.877170   4.552700   2.650516   2.373297   3.860437
    13  H    3.413986   2.647822   4.584535   4.729903   5.631445
    14  H    1.088468   2.647826   4.584533   5.631455   4.729878
    15  H    2.616851   1.003377   6.158089   6.935787   6.662464
    16  H    3.318675   1.003377   6.158090   6.662487   6.935771
                   11         12         13         14         15
    11  H    0.000000
    12  H    4.283633   0.000000
    13  H    4.965620   2.483466   0.000000
    14  H    2.483469   4.965620   4.316376   0.000000
    15  H    4.714565   5.439044   3.649201   2.429884   0.000000
    16  H    5.439049   4.714562   2.429883   3.649205   1.717262
                   16
    16  H    0.000000
 Stoichiometry    C6H6N2O2
 Framework group  C1[X(C6H6N2O2)]
 Deg. of freedom    42
 Full point group                 C1      NOp   1
 Largest Abelian subgroup         C1      NOp   1
 Largest concise Abelian subgroup C1      NOp   1
                         Standard orientation:                         
 ---------------------------------------------------------------------
 Center     Atomic      Atomic             Coordinates (Angstroms)
 Number     Number       Type             X           Y           Z
 ---------------------------------------------------------------------
      1          6           0        0.028369   -1.212507    0.020671
      2          6           0        0.713245    0.000002    0.030472
      3          6           0        0.028366    1.212512    0.020670
      4          6           0       -1.352404    1.212886    0.003482
      5          6           0       -2.067677   -0.000001   -0.005367
      6          6           0       -1.352401   -1.212885    0.003483
      7          7           0       -3.425855    0.000000   -0.022139
      8          7           0        2.152469    0.000001    0.049536
      9          8           0        2.713763    1.082081   -0.039030
     10          8           0        2.713742   -1.082087   -0.039032
     11          1           0        0.591265   -2.141814    0.027823
     12          1           0        0.591258    2.141819    0.027821
     13          1           0       -1.891961    2.158188   -0.003166
     14          1           0       -1.891956   -2.158189   -0.003165
     15          1           0       -3.944966   -0.858632   -0.028525
     16          1           0       -3.944968    0.858630   -0.028524
 ---------------------------------------------------------------------
 Rotational constants (GHZ):      3.9395415      0.8356695      0.6896426
 Standard basis: 6-31+G(d,p) (6D, 7F)
 There are   220 symmetry adapted cartesian basis functions of A   symmetry.
 There are   220 symmetry adapted basis functions of A   symmetry.
   220 basis functions,   362 primitive gaussians,   220 cartesian basis functions
    36 alpha electrons       36 beta electrons
       nuclear repulsion energy       498.0171716323 Hartrees.
 NAtoms=   16 NActive=   16 NUniq=   16 SFac= 1.00D+00 NAtFMM=   60 NAOKFM=F Big=F
 Integral buffers will be    131072 words long.
 Raffenetti 2 integral format.
 Two-electron integral symmetry is turned on.
 R6APFD:  NTU= -4 IXU= 1 FactS= 1.050
 Nuclear repulsion after empirical dispersion term =      498.0087471780 Hartrees.
 One-electron integrals computed using PRISM.
 NBasis=   220 RedAO= T EigKep=  3.17D-06  NBF=   220
 NBsUse=   220 1.00D-06 EigRej= -1.00D+00 NBFU=   220
 Initial guess from the checkpoint file:  "APFDPNA.chk"
 B after Tr=     0.000000   -0.000000   -0.000000
         Rot=    1.000000    0.000000   -0.000009    0.000000 Ang=  -0.00 deg.
 ExpMin= 4.38D-02 ExpMax= 5.48D+03 ExpMxC= 8.25D+02 IAcc=2 IRadAn=         4 AccDes= 0.00D+00
 Harris functional with IExCor= 3731 and IRadAn=       4 diagonalized for initial guess.
 HarFok:  IExCor= 3731 AccDes= 0.00D+00 IRadAn=         4 IDoV= 1 UseB2=F ITyADJ=14
 ICtDFT=  3500011 ScaDFX=  1.000000  1.000000  1.000000  1.000000
 FoFCou: FMM=F IPFlag=           0 FMFlag=      100000 FMFlg1=           0
         NFxFlg=           0 DoJE=T BraDBF=F KetDBF=T FulRan=T
         wScrn=  0.000000 ICntrl=     500 IOpCl=  0 I1Cent=   200000004 NGrid=           0
         NMat0=    1 NMatS0=      1 NMatT0=    0 NMatD0=    1 NMtDS0=    0 NMtDT0=    0
 Petite list used in FoFCou.
 Keep R1 ints in memory in canonical form, NReq=301066375.
 Requested convergence on RMS density matrix=1.00D-08 within 128 cycles.
 Requested convergence on MAX density matrix=1.00D-06.
 Requested convergence on             energy=1.00D-06.
 No special actions if energy rises.
 SCF Done:  E(RAPFD) =  -491.750679433     A.U. after   13 cycles
            NFock= 13  Conv=0.40D-08     -V/T= 2.0086
 R6APFD:  NTU= -4 IXU= 1 FactS= 1.050
 Calling FoFJK, ICntrl=      2127 FMM=F ISym2X=0 I1Cent= 0 IOpClX= 0 NMat=1 NMatS=1 NMatT=0.
 ***** Axes restored to original set *****
 -------------------------------------------------------------------
 Center     Atomic                   Forces (Hartrees/Bohr)
 Number     Number              X              Y              Z
 -------------------------------------------------------------------
      1        6          -0.000467646    0.003290006    0.001327539
      2        6           0.003210938   -0.000001704    0.006809527
      3        6          -0.000466962   -0.003287844    0.001327638
      4        6           0.000786333   -0.002777793   -0.000373336
      5        6          -0.001666245   -0.000000855    0.000186739
      6        6           0.000787169    0.002778421   -0.000373544
      7        7           0.004093513    0.000000810   -0.000021063
      8        7           0.007752304   -0.000002104   -0.027882750
      9        8          -0.008560348   -0.010578072    0.009641327
     10        8          -0.008564449    0.010581262    0.009640408
     11        1           0.000891314   -0.001236644    0.000042179
     12        1           0.000890098    0.001235293    0.000042151
     13        1          -0.000235519    0.000821166   -0.000164114
     14        1          -0.000235817   -0.000821657   -0.000164051
     15        1           0.000892741    0.001076383   -0.000019351
     16        1           0.000892576   -0.001076668   -0.000019300
 -------------------------------------------------------------------
 Cartesian Forces:  Max     0.027882750 RMS     0.005632487

 GradGradGradGradGradGradGradGradGradGradGradGradGradGradGradGradGradGrad
 Berny optimization.
 Using GEDIIS/GDIIS optimizer.
 FormGI is forming the generalized inverse of G from B-inverse, IUseBI=4.
 Internal  Forces:  Max     0.012583029 RMS     0.003805317
 Search for a local minimum.
 Step number   3 out of a maximum of   82
 All quantities printed in internal units (Hartrees-Bohrs-Radians)
 Mixed Optimization -- RFO/linear search
 Update second derivatives using D2CorX and points    1    3    2
 DE=  2.23D-03 DEPred=-3.15D-04 R=-7.08D+00
 Trust test=-7.08D+00 RLast= 2.06D-01 DXMaxT set to 1.50D-01
 ITU= -1  1  0
 Use linear search instead of GDIIS.
 Energy rises -- skip Quadratic/GDIIS search.
 Quartic linear search produced a step of -0.88865.
 Iteration  1 RMS(Cart)=  0.02382849 RMS(Int)=  0.00137744
 Iteration  2 RMS(Cart)=  0.00148109 RMS(Int)=  0.00013336
 Iteration  3 RMS(Cart)=  0.00000316 RMS(Int)=  0.00013334
 Iteration  4 RMS(Cart)=  0.00000000 RMS(Int)=  0.00013334
 Variable       Old X    -DE/DX   Delta X   Delta X   Delta X     New X
                                 (Linear)    (Quad)   (Total)
    R1        2.63163   0.00353   0.00444   0.00000   0.00444   2.63607
    R2        2.60948   0.00266   0.00334   0.00000   0.00334   2.61282
    R3        2.05322  -0.00152  -0.00319   0.00000  -0.00319   2.05002
    R4        2.63163   0.00353   0.00444   0.00000   0.00444   2.63607
    R5        2.71998   0.00929   0.00983   0.00000   0.00983   2.72981
    R6        2.60948   0.00266   0.00334   0.00000   0.00334   2.61282
    R7        2.05321  -0.00152  -0.00319   0.00000  -0.00319   2.05002
    R8        2.66095   0.00252   0.00380   0.00000   0.00380   2.66475
    R9        2.05690  -0.00083  -0.00223   0.00000  -0.00223   2.05468
   R10        2.66095   0.00252   0.00380   0.00000   0.00380   2.66475
   R11        2.56678   0.00588   0.00958   0.00000   0.00958   2.57636
   R12        2.05691  -0.00083  -0.00223   0.00000  -0.00223   2.05468
   R13        1.89611   0.00138   0.00227   0.00000   0.00227   1.89838
   R14        1.89611   0.00138   0.00227   0.00000   0.00227   1.89838
   R15        2.30964   0.01258   0.01310   0.00000   0.01310   2.32273
   R16        2.30963   0.01258   0.01310   0.00000   0.01310   2.32273
    A1        2.08528   0.00085  -0.00021   0.00000  -0.00021   2.08507
    A2        2.08273  -0.00030   0.00055   0.00000   0.00055   2.08328
    A3        2.11517  -0.00055  -0.00034   0.00000  -0.00034   2.11483
    A4        2.11317  -0.00193  -0.00013   0.00000  -0.00013   2.11304
    A5        2.08501   0.00096   0.00007   0.00000   0.00007   2.08507
    A6        2.08501   0.00096   0.00007   0.00000   0.00007   2.08508
    A7        2.08528   0.00085  -0.00021   0.00000  -0.00021   2.08507
    A8        2.08274  -0.00030   0.00055   0.00000   0.00055   2.08328
    A9        2.11517  -0.00055  -0.00034   0.00000  -0.00034   2.11483
   A10        2.10339   0.00060   0.00043   0.00000   0.00043   2.10382
   A11        2.08976  -0.00009   0.00063   0.00000   0.00063   2.09038
   A12        2.09004  -0.00051  -0.00106   0.00000  -0.00106   2.08898
   A13        2.07586  -0.00096  -0.00031   0.00000  -0.00031   2.07555
   A14        2.10366   0.00048   0.00016   0.00000   0.00016   2.10382
   A15        2.10366   0.00048   0.00015   0.00000   0.00015   2.10382
   A16        2.10339   0.00060   0.00043   0.00000   0.00043   2.10382
   A17        2.08976  -0.00009   0.00063   0.00000   0.00063   2.09038
   A18        2.09004  -0.00051  -0.00106   0.00000  -0.00106   2.08898
   A19        2.11461   0.00013  -0.00049   0.00000  -0.00049   2.11412
   A20        2.11461   0.00013  -0.00049   0.00000  -0.00049   2.11412
   A21        2.05396  -0.00026   0.00098   0.00000   0.00098   2.05494
   A22        2.04682   0.00381   0.00731   0.00000   0.00797   2.05478
   A23        2.04680   0.00382   0.00732   0.00000   0.00797   2.05477
   A24        2.17450  -0.00376  -0.00153   0.00000  -0.00088   2.17362
    D1       -0.00214   0.00053   0.00220   0.00000   0.00220   0.00006
    D2        3.14068   0.00027   0.00096   0.00000   0.00096  -3.14155
    D3        3.14064   0.00022   0.00097   0.00000   0.00097  -3.14158
    D4        0.00027  -0.00004  -0.00028   0.00000  -0.00028  -0.00001
    D5        0.00101  -0.00025  -0.00104   0.00000  -0.00104  -0.00003
    D6       -3.14047  -0.00029  -0.00117   0.00000  -0.00117   3.14155
    D7        3.14139   0.00006   0.00022   0.00000   0.00022  -3.14157
    D8       -0.00008   0.00003   0.00009   0.00000   0.00009   0.00001
    D9        0.00214  -0.00053  -0.00220   0.00000  -0.00220  -0.00006
   D10       -3.14064  -0.00022  -0.00097   0.00000  -0.00097   3.14158
   D11       -3.14068  -0.00027  -0.00096   0.00000  -0.00096   3.14155
   D12       -0.00027   0.00004   0.00028   0.00000   0.00028   0.00001
   D13        3.05251   0.01118   0.09085   0.00000   0.09085  -3.13983
   D14        0.08788  -0.01093  -0.08962   0.00000  -0.08962  -0.00174
   D15       -0.08788   0.01093   0.08962   0.00000   0.08962   0.00174
   D16       -3.05251  -0.01118  -0.09084   0.00000  -0.09085   3.13983
   D17       -0.00101   0.00025   0.00104   0.00000   0.00104   0.00003
   D18        3.14047   0.00029   0.00117   0.00000   0.00117  -3.14155
   D19       -3.14139  -0.00006  -0.00022   0.00000  -0.00022   3.14157
   D20        0.00008  -0.00003  -0.00009   0.00000  -0.00009  -0.00001
   D21       -0.00009   0.00001   0.00009   0.00000   0.00009   0.00000
   D22        3.14148   0.00003   0.00011   0.00000   0.00011   3.14159
   D23       -3.14156  -0.00002  -0.00004   0.00000  -0.00004   3.14158
   D24        0.00000  -0.00001  -0.00001   0.00000  -0.00001  -0.00001
   D25        0.00009  -0.00001  -0.00009   0.00000  -0.00009  -0.00000
   D26        3.14156   0.00002   0.00004   0.00000   0.00004  -3.14158
   D27       -3.14148  -0.00003  -0.00011   0.00000  -0.00011  -3.14159
   D28       -0.00000   0.00001   0.00001   0.00000   0.00001   0.00001
   D29       -3.14155  -0.00002  -0.00005   0.00000  -0.00005   3.14158
   D30       -0.00002   0.00000   0.00003   0.00000   0.00003   0.00001
   D31        0.00002  -0.00000  -0.00003   0.00000  -0.00003  -0.00002
   D32        3.14155   0.00002   0.00005   0.00000   0.00005  -3.14158
         Item               Value     Threshold  Converged?
 Maximum Force            0.012583     0.000450     NO 
 RMS     Force            0.003805     0.000300     NO 
 Maximum Displacement     0.101618     0.001800     NO 
 RMS     Displacement     0.023707     0.001200     NO 
 Predicted change in Energy=-9.326043D-05
 GradGradGradGradGradGradGradGradGradGradGradGradGradGradGradGradGradGrad

                          Input orientation:                          
 ---------------------------------------------------------------------
 Center     Atomic      Atomic             Coordinates (Angstroms)
 Number     Number       Type             X           Y           Z
 ---------------------------------------------------------------------
      1          6           0       -0.022001    1.214509   -0.000314
      2          6           0       -0.708185   -0.000001   -0.000438
      3          6           0       -0.022000   -1.214511   -0.000243
      4          6           0        1.360645   -1.214506    0.000003
      5          6           0        2.077182   -0.000000    0.000095
      6          6           0        1.360643    1.214506   -0.000068
      7          7           0        3.440535    0.000001    0.000340
      8          7           0       -2.152738    0.000000   -0.000745
      9          8           0       -2.724668   -1.087966    0.001074
     10          8           0       -2.724659    1.087972    0.001007
     11          1           0       -0.583496    2.142717   -0.000457
     12          1           0       -0.583494   -2.142719   -0.000332
     13          1           0        1.900512   -2.158297    0.000118
     14          1           0        1.900510    2.158297   -0.000008
     15          1           0        3.959886    0.859915    0.000396
     16          1           0        3.959887   -0.859913    0.000448
 ---------------------------------------------------------------------
                    Distance matrix (angstroms):
                    1          2          3          4          5
     1  C    0.000000
     2  C    1.394950   0.000000
     3  C    2.429021   1.394949   0.000000
     4  C    2.794964   2.398975   1.382645   0.000000
     5  C    2.425202   2.785367   2.425202   1.410124   0.000000
     6  C    1.382645   2.398974   2.794964   2.429012   1.410125
     7  N    3.669358   4.148720   3.669359   2.408521   1.363353
     8  N    2.452564   1.444553   2.452566   3.717376   4.229920
     9  O    3.550465   2.291261   2.705630   4.087273   4.923560
    10  O    2.705619   2.291256   3.550464   4.689468   4.923552
    11  H    1.084825   2.146343   3.403859   3.879514   3.416203
    12  H    3.403859   2.146343   1.084825   2.154357   3.416203
    13  H    3.882252   3.385785   2.141678   1.087290   2.165516
    14  H    2.141678   3.385785   3.882252   3.415737   2.165516
    15  H    3.997645   4.746614   4.489840   3.325549   2.069789
    16  H    4.489840   4.746614   3.997645   2.623318   2.069789
                    6          7          8          9         10
     6  C    0.000000
     7  N    2.408521   0.000000
     8  N    3.717374   5.593273   0.000000
     9  O    4.689472   6.260464   1.229137   0.000000
    10  O    4.087262   6.260456   1.229138   2.175938   0.000000
    11  H    2.154357   4.558954   2.655890   3.875814   2.386853
    12  H    3.879514   4.558954   2.655894   2.386867   3.875817
    13  H    3.415737   2.651400   4.592067   4.747410   5.650705
    14  H    1.087290   2.651400   4.592065   5.650708   4.747398
    15  H    2.623318   1.004578   6.172813   6.962579   6.688434
    16  H    3.325549   1.004578   6.172814   6.688444   6.962572
                   11         12         13         14         15
    11  H    0.000000
    12  H    4.285436   0.000000
    13  H    4.966792   2.484054   0.000000
    14  H    2.484055   4.966791   4.316595   0.000000
    15  H    4.721006   5.445926   3.653851   2.434507   0.000000
    16  H    5.445926   4.721006   2.434508   3.653851   1.719828
                   16
    16  H    0.000000
 Stoichiometry    C6H6N2O2
 Framework group  C1[X(C6H6N2O2)]
 Deg. of freedom    42
 Full point group                 C1      NOp   1
 Largest Abelian subgroup         C1      NOp   1
 Largest concise Abelian subgroup C1      NOp   1
                         Standard orientation:                         
 ---------------------------------------------------------------------
 Center     Atomic      Atomic             Coordinates (Angstroms)
 Number     Number       Type             X           Y           Z
 ---------------------------------------------------------------------
      1          6           0        0.025494   -1.214509   -0.000428
      2          6           0        0.711678    0.000002   -0.000552
      3          6           0        0.025493    1.214512   -0.000356
      4          6           0       -1.357152    1.214506   -0.000110
      5          6           0       -2.073689    0.000000   -0.000019
      6          6           0       -1.357150   -1.214505   -0.000181
      7          7           0       -3.437043   -0.000001    0.000226
      8          7           0        2.156230    0.000001   -0.000859
      9          8           0        2.728161    1.087967    0.000960
     10          8           0        2.728152   -1.087971    0.000893
     11          1           0        0.586989   -2.142716   -0.000571
     12          1           0        0.586986    2.142720   -0.000446
     13          1           0       -1.897020    2.158298    0.000004
     14          1           0       -1.897017   -2.158297   -0.000122
     15          1           0       -3.956393   -0.859915    0.000282
     16          1           0       -3.956394    0.859912    0.000334
 ---------------------------------------------------------------------
 Rotational constants (GHZ):      3.9237106      0.8295301      0.6847616
 Standard basis: 6-31+G(d,p) (6D, 7F)
 There are   220 symmetry adapted cartesian basis functions of A   symmetry.
 There are   220 symmetry adapted basis functions of A   symmetry.
   220 basis functions,   362 primitive gaussians,   220 cartesian basis functions
    36 alpha electrons       36 beta electrons
       nuclear repulsion energy       496.5080859303 Hartrees.
 NAtoms=   16 NActive=   16 NUniq=   16 SFac= 1.00D+00 NAtFMM=   60 NAOKFM=F Big=F
 Integral buffers will be    131072 words long.
 Raffenetti 2 integral format.
 Two-electron integral symmetry is turned on.
 R6APFD:  NTU= -4 IXU= 1 FactS= 1.050
 Nuclear repulsion after empirical dispersion term =      496.4995903561 Hartrees.
 One-electron integrals computed using PRISM.
 NBasis=   220 RedAO= T EigKep=  3.21D-06  NBF=   220
 NBsUse=   220 1.00D-06 EigRej= -1.00D+00 NBFU=   220
 Lowest energy guess from the checkpoint file:  "APFDPNA.chk"
 B after Tr=     0.000000   -0.000000    0.000000
         Rot=    1.000000   -0.000015    0.000030    0.000000 Ang=  -0.00 deg.
 B after Tr=     0.000000    0.000000    0.000000
         Rot=    1.000000   -0.000015    0.000040   -0.000000 Ang=  -0.00 deg.
 Keep R1 ints in memory in canonical form, NReq=301066375.
 Requested convergence on RMS density matrix=1.00D-08 within 128 cycles.
 Requested convergence on MAX density matrix=1.00D-06.
 Requested convergence on             energy=1.00D-06.
 No special actions if energy rises.
 SCF Done:  E(RAPFD) =  -491.752947512     A.U. after    9 cycles
            NFock=  9  Conv=0.81D-08     -V/T= 2.0088
 R6APFD:  NTU= -4 IXU= 1 FactS= 1.050
 Calling FoFJK, ICntrl=      2127 FMM=F ISym2X=0 I1Cent= 0 IOpClX= 0 NMat=1 NMatS=1 NMatT=0.
 ***** Axes restored to original set *****
 -------------------------------------------------------------------
 Center     Atomic                   Forces (Hartrees/Bohr)
 Number     Number              X              Y              Z
 -------------------------------------------------------------------
      1        6           0.000371945    0.000527437   -0.000028373
      2        6           0.000153948   -0.000000304   -0.000125915
      3        6           0.000371836   -0.000527154   -0.000028359
      4        6           0.000007292   -0.000513412    0.000007491
      5        6           0.000548469    0.000000168   -0.000002861
      6        6           0.000007617    0.000513258    0.000007463
      7        7           0.000247225   -0.000000047   -0.000000347
[...]
 ! A23   A(2,8,10)             117.79           -DE/DX =    0.0001              !
 ! A24   A(9,8,10)             124.4199         -DE/DX =   -0.0001              !
 ! D1    D(6,1,2,3)             -0.0007         -DE/DX =    0.0                 !
 ! D2    D(6,1,2,8)           -180.0002         -DE/DX =    0.0                 !
 ! D3    D(11,1,2,3)           179.9996         -DE/DX =    0.0                 !
 ! D4    D(11,1,2,8)             0.0001         -DE/DX =    0.0                 !
 ! D5    D(2,1,6,5)              0.0003         -DE/DX =    0.0                 !
 ! D6    D(2,1,6,14)          -179.9997         -DE/DX =    0.0                 !
 ! D7    D(11,1,6,5)          -180.0            -DE/DX =    0.0                 !
 ! D8    D(11,1,6,14)            0.0            -DE/DX =    0.0                 !
 ! D9    D(1,2,3,4)              0.0007         -DE/DX =    0.0                 !
 ! D10   D(1,2,3,12)          -179.9996         -DE/DX =    0.0                 !
 ! D11   D(8,2,3,4)            180.0002         -DE/DX =    0.0                 !
 ! D12   D(8,2,3,12)            -0.0001         -DE/DX =    0.0                 !
 ! D13   D(1,2,8,9)           -180.027          -DE/DX =    0.0001              !
 ! D14   D(1,2,8,10)             0.0267         -DE/DX =   -0.0001              !
 ! D15   D(3,2,8,9)             -0.0266         -DE/DX =    0.0001              !
 ! D16   D(3,2,8,10)          -179.9728         -DE/DX =   -0.0001              !
 ! D17   D(2,3,4,5)             -0.0003         -DE/DX =    0.0                 !
 ! D18   D(2,3,4,13)           179.9996         -DE/DX =    0.0                 !
 ! D19   D(12,3,4,5)           180.0            -DE/DX =    0.0                 !
 ! D20   D(12,3,4,13)            0.0            -DE/DX =    0.0                 !
 ! D21   D(3,4,5,6)              0.0            -DE/DX =    0.0                 !
 ! D22   D(3,4,5,7)            179.9998         -DE/DX =    0.0                 !
 ! D23   D(13,4,5,6)          -180.0            -DE/DX =    0.0                 !
 ! D24   D(13,4,5,7)            -0.0001         -DE/DX =    0.0                 !
 ! D25   D(4,5,6,1)              0.0            -DE/DX =    0.0                 !
 ! D26   D(4,5,6,14)           180.0            -DE/DX =    0.0                 !
 ! D27   D(7,5,6,1)           -179.9999         -DE/DX =    0.0                 !
 ! D28   D(7,5,6,14)             0.0002         -DE/DX =    0.0                 !
 ! D29   D(4,5,7,15)           179.9991         -DE/DX =    0.0                 !
 ! D30   D(4,5,7,16)             0.0009         -DE/DX =    0.0                 !
 ! D31   D(6,5,7,15)            -0.001          -DE/DX =    0.0                 !
 ! D32   D(6,5,7,16)          -179.9993         -DE/DX =    0.0                 !
 --------------------------------------------------------------------------------
 GradGradGradGradGradGradGradGradGradGradGradGradGradGradGradGradGradGrad

 1\1\ WCSS.PL-BEM-QINLAB\Freq\RAPFD\6-31+G(d,p)\C6H6N2O2\PHZD\13-Jun-20
 24\0\\#N Geom=AllCheck Guess=TCheck SCRF=Check GenChk RAPFD/6-31+G(d,p
 ) Freq\\[No Title]\\0,1\C,-0.0216125457,1.2141698134,0.0001019547\C,-0
 .7102639852,0.0000002308,0.0001668225\C,-0.0216126181,-1.2141693523,0.
 0001729486\C,1.3616101627,-1.2143554376,0.0001291895\C,2.0797574678,0.
 0000001109,0.0000713592\C,1.3616101654,1.2143557331,0.0000582509\N,3.4
 437221391,0.0000001878,0.0000313294\N,-2.1579962216,0.0000001807,0.000
 2178902\O,-2.731144585,-1.08753075,-0.0002386393\O,-2.7311446689,1.087
 5311755,-0.0003054283\H,-0.5820388046,2.1426321799,0.000092769\H,-0.58
 20388912,-2.1426317251,0.0002181913\H,1.9010305514,-2.1582760431,0.000
 1396174\H,1.9010307209,2.1582762457,0.0000133485\H,3.9638249985,0.8597
 706333,-0.0000228206\H,3.9638251145,-0.8597701829,0.0000292169\\Versio
 n=ES64L-G09RevE.01\State=1-A\HF=-491.7529672\RMSD=2.311e-09\RMSF=5.585
 e-05\ZeroPoint=0.1199781\Thermal=0.1279041\Dipole=3.0758336,-0.0000003
 ,0.0003774\DipoleDeriv=0.5679579,0.1052599,-0.0000069,0.3074016,0.0711
 708,0.0000058,0.0000539,-0.0000271,-0.0523089,-1.2053712,0.,-0.0000552
 ,0.0000001,-0.1870611,0.0000055,0.00016,0.0000056,-0.0020758,0.5679581
 ,-0.1052599,-0.0000008,-0.3074017,0.0711708,-0.0000129,0.0000725,0.000
 0196,-0.0523088,-0.6634504,-0.0223879,-0.0000072,-0.5822786,0.019039,0
 .0000023,0.0000534,-0.0000024,-0.2074476,2.094564,0.,-0.0000224,0.0000
 002,0.1175332,0.000001,-0.0000624,0.0000009,0.1451155,-0.6634502,0.022
 3879,-0.0000084,0.5822784,0.019039,-0.0000156,0.0000185,-0.000011,-0.2
 074476,-1.9065745,0.,0.0000025,0.,-0.1560515,-0.0000133,0.0000207,-0.0
 000133,-0.5974559,2.6203731,0.,0.0000675,0.0000001,1.5637895,-0.000041
 1,0.0002639,-0.0000409,0.2373354,-1.023241,-0.3718878,0.0000159,-0.541
 5354,-0.9390224,0.0001083,-0.0002629,-0.0002912,-0.25812,-1.023241,0.3
 718878,-0.000007,0.5415353,-0.9390223,-0.0000663,-0.0002958,0.0003331,
 -0.2581202,0.1084403,0.0409515,0.0000038,0.0207754,0.0582579,-0.000001
 4,-0.0000001,0.0000031,0.1430405,0.1084403,-0.0409515,0.0000061,-0.020
 7754,0.0582579,0.0000063,0.0000009,0.0000021,0.1430405,-0.0084648,0.07
 81983,-0.0000018,0.0735334,-0.0309542,0.0000024,-0.0000249,-0.0000064,
 0.1498752,-0.0084649,-0.0781983,0.0000028,-0.0735334,-0.0309541,0.0000
 082,-0.0000204,0.0000171,0.1498752,0.217262,0.0471927,0.0000041,0.0923
 723,0.1524038,0.0000072,0.0000089,0.0000047,0.3335012,0.217262,-0.0471
 927,0.000007,-0.0923723,0.1524038,0.0000037,0.0000136,0.0000062,0.3335
 012\Polar=153.7098352,-0.0000021,98.0125451,0.0030206,-0.0014394,49.45
 91768\PG=C01 [X(C6H6N2O2)]\NImag=1\\0.73688722,-0.03725483,0.73131894,
 -0.00002197,-0.00001681,0.13542267,-0.14644163,-0.10914650,0.00001019,
 0.58408451,-0.05720655,-0.29599263,0.00001006,0.,0.76499705,0.00001173
 ,0.00001143,-0.05531862,0.00000863,-0.00001902,0.11770660,0.05038535,0
 .01991451,-0.00000310,-0.14644163,0.05720657,0.00000839,0.73688705,-0.
 01991452,-0.05507822,0.00000417,0.10914652,-0.29599268,0.00000264,0.03
 725475,0.73131899,-0.00000197,-0.00000074,0.00402814,0.00000377,0.0000
 0404,-0.05531859,-0.00002416,-0.00001797,0.13542265,-0.03933839,-0.027
 94337,0.00000278,-0.03860760,0.06690810,-0.00000172,-0.38448577,-0.028
 70695,0.00001394,0.74303190,-0.01754614,-0.01500531,0.00000132,0.01922
 083,0.02735674,-0.00000392,0.03109130,-0.12557184,0.00000183,-0.038427
 37,0.69865866,0.00000240,0.00000241,-0.00091484,0.00000267,-0.00000394
 ,0.00442960,0.00000968,0.00000431,-0.05407169,-0.00001895,-0.00001344,
 0.11877010,-0.03320015,0.02970469,-0.00000110,0.01731531,0.,-0.0000002
 1,-0.03320016,-0.02970469,0.00000064,-0.15540250,-0.09898550,0.0000056
 4,0.75550394,0.07284148,0.03899704,-0.00000375,0.,-0.06639863,0.000001
 85,-0.07284148,0.03899704,0.00000140,-0.03869209,-0.27400915,0.0000054
 8,0.00000008,0.69593430,-0.00000247,-0.00000355,-0.00077300,-0.0000005
 2,0.00000183,-0.00385406,0.00000176,0.00000124,-0.00077301,0.00000551,
 0.00000917,-0.06661234,-0.00001958,-0.00001566,0.16180127,-0.38448596,
 0.02870699,0.00001221,-0.03860761,-0.06690810,0.00000217,-0.03933839,0
 .02794337,0.00000113,0.05244521,0.01303844,-0.00000278,-0.15540247,0.0
 3869203,0.00000325,0.74303211,-0.03109126,-0.12557183,0.00000233,-0.01
 922083,0.02735675,0.00000257,0.01754614,-0.01500531,-0.00000050,-0.013
 03845,-0.04126999,0.00000157,0.09898545,-0.27400905,0.00000294,0.03842
 742,0.69865850,0.00001153,-0.00000016,-0.05407169,0.00000381,0.0000025
 9,0.00442959,0.00000135,-0.00000157,-0.00091483,-0.00000205,0.00000112
 ,0.00545581,-0.00000016,0.00000663,-0.06661235,-0.00002119,-0.00002036
 ,0.11877010,0.01161695,0.00180475,0.00000103,-0.01875945,0.,-0.0000005
 1,0.01161695,-0.00180476,0.00000115,-0.04532387,-0.01798683,0.00000242
 ,-0.37199633,0.,0.00001029,-0.04532388,0.01798683,0.00000136,0.8023856
 2,-0.00620618,-0.01048101,0.00000079,0.,0.00713415,-0.00000024,0.00620
 618,-0.01048101,0.00000007,-0.04945453,0.00154460,0.00000203,-0.000000
 01,-0.13113722,0.00000284,0.04945452,0.00154459,-0.00000156,-0.0000000
 2,0.88970781,0.00000057,0.00000073,0.00421711,0.00000009,-0.00000023,-
 0.00098690,0.00000023,0.00000013,0.00421711,0.00000253,0.00000032,0.00
 949833,0.00001190,0.00000287,-0.03634887,-0.00000036,0.00000013,0.0094
 9834,-0.00003217,-0.00002667,0.00786927,-0.04353084,-0.02247682,0.0000
 0200,-0.14482061,0.,0.00003050,-0.04353087,0.02247683,0.00000067,0.015
 16906,0.00925234,-0.00000346,-0.01835143,0.,0.00000112,0.01516906,-0.0
 0925234,-0.00000290,0.01771009,0.,-0.00000016,0.68233649,-0.02573596,0
 .01385918,0.00000363,0.,-0.11174905,0.00000116,0.02573597,0.01385918,-
 0.00000487,0.00504972,-0.00739383,-0.00000113,0.,-0.00509568,0.0000000
 8,-0.00504972,-0.00739383,0.00000203,0.,0.00018669,-0.00000002,0.00000
 023,0.98461651,-0.00000103,-0.00000617,-0.00711660,-0.00001903,0.00000
 111,-0.07161692,-0.00000251,0.00000495,-0.00711662,0.00000042,-0.00000
 084,0.00796766,-0.00000187,0.00000009,-0.00216223,0.00000072,0.0000017
 4,0.00796766,0.00000105,-0.00000002,-0.00045184,0.00019907,-0.00002293
 ,0.23462656,-0.00246622,0.00803368,-0.00000295,-0.04256751,-0.05162024
 ,-0.00002787,-0.00271028,-0.00336198,-0.00000105,-0.00198795,-0.002538
 36,0.00000038,0.00480035,-0.00206377,-0.00000066,-0.00471803,-0.000090
 93,0.00000181,-0.00490300,0.00034047,0.00000017,-0.24130192,-0.1856600
 3,-0.00008329,0.25313939,0.00161862,0.00398089,-0.00000171,-0.04143321
 ,-0.01235883,-0.00001940,0.01182005,-0.00868453,0.00000268,-0.00448830
 ,-0.00012605,0.00000126,0.00486783,0.00003363,-0.00000038,-0.00274358,
 0.00265831,0.00000074,-0.00427888,0.00056987,0.,-0.17730959,-0.4368571
 1,-0.00010814,0.22393944,0.59433435,-0.00000298,0.00000298,0.00465430,
 -0.00000144,-0.00001288,0.01790863,0.00000166,-0.00000292,0.00183584,-
 0.00000152,0.,-0.00067821,0.00000154,0.00000040,0.00041680,0.00000001,
 -0.00000105,-0.00115366,-0.00000125,0.00000014,0.00003517,-0.00010961,
 -0.00014584,-0.07858022,0.00010738,0.00013661,0.02917725,-0.00271028,0
 .00336197,-0.00000128,-0.04256749,0.05162023,-0.00003101,-0.00246621,-
 0.00803368,-0.00000249,-0.00471802,0.00009093,0.00000182,0.00480035,0.
 00206377,-0.00000078,-0.00198795,0.00253836,0.00000023,-0.00490300,-0.
 00034047,0.00000019,-0.24130184,0.18565979,-0.00009481,0.04763068,-0.0
 1343085,0.00000763,0.25313929,-0.01182004,-0.00868453,-0.00000206,0.04
 143319,-0.01235882,0.00002129,-0.00161862,0.00398088,0.00000175,0.0027
 4358,0.00265831,-0.00000097,-0.00486783,0.00003363,0.00000041,0.004488
 30,-0.00012605,-0.00000130,0.00427888,0.00056987,-0.00000003,0.1773093
 5,-0.43685664,0.00013015,0.01343086,-0.14788481,0.00002168,-0.22393919
 ,0.59433388,0.00000238,0.00000355,0.00183583,-0.00000399,0.00001475,0.
 01790864,-0.00000290,-0.00000296,0.00465430,-0.00000015,0.00000082,-0.
 00115366,0.00000183,-0.00000038,0.00041680,-0.00000179,-0.00000003,-0.
 00067821,-0.00000151,-0.00000017,0.00003517,-0.00012063,0.00016782,-0.
 07858030,0.00000681,-0.00001095,0.02695083,0.00012130,-0.00017129,0.02
 917733,-0.13137444,0.12951936,0.00000032,0.01266407,-0.01227622,-0.000
 00076,-0.00181271,-0.00351746,0.00000035,-0.00076352,-0.00061723,0.000
 00002,-0.00474728,-0.00121245,0.00000063,-0.00988983,0.02565481,-0.000
 00005,-0.00029540,0.00135530,-0.00000012,0.00131540,-0.00116848,0.0000
 0052,0.00037759,0.00148618,0.00000020,-0.00446292,-0.00008007,-0.00000
 113,0.13777994,0.12805862,-0.27757698,0.00000242,0.01509032,-0.0181261
 1,-0.00000027,-0.00400374,-0.00318221,0.00000074,-0.00070805,0.0004354
 4,-0.00000006,-0.00158537,0.00119777,0.00000038,-0.00285723,0.00603214
 ,0.00000022,-0.00007885,0.00026613,-0.00000001,0.00311249,-0.00380069,
 0.00000123,-0.00012967,0.00118019,0.00000007,0.00038351,0.00325705,-0.
 00000101,-0.13827873,0.29041083,0.00000118,0.00000512,-0.03957928,-0.0
 0000311,-0.00000072,0.00490474,0.00000024,0.00000069,0.00481247,0.0000
 0044,0.00000005,-0.00104618,0.00000069,-0.00000036,0.00848434,-0.00000
 007,-0.00000134,0.00459135,-0.00000003,0.,-0.00008727,0.00000190,0.000
 00009,-0.00398718,-0.00000038,-0.00000036,0.00035820,-0.00000081,0.000
 00024,-0.00009931,0.00000012,-0.00000337,0.02674843,-0.00181271,0.0035
 1746,0.00000015,0.01266407,0.01227622,-0.00000147,-0.13137444,-0.12951
 934,0.00000792,-0.00988983,-0.02565482,0.00000146,-0.00474728,0.001212
 45,0.00000056,-0.00076352,0.00061723,-0.00000001,-0.00029540,-0.001355
 30,-0.00000004,0.00131540,0.00116849,0.00000044,-0.00446293,0.00008007
 ,-0.00000111,0.00037759,-0.00148618,0.00000029,0.00074091,0.00087918,0
 .00000008,0.13777995,0.00400374,-0.00318221,-0.00000027,-0.01509032,-0
 .01812611,0.00000160,-0.12805860,-0.27757695,0.00001150,0.00285723,0.0
 0603214,-0.00000030,0.00158537,0.00119777,0.00000004,0.00070805,0.0004
 3544,-0.00000002,0.00007885,0.00026613,-0.00000001,-0.00311249,-0.0038
 0069,-0.00000124,-0.00038351,0.00325705,0.00000082,0.00012967,0.001180
 19,-0.00000012,-0.00087918,-0.00088304,0.00000009,0.13827871,0.2904108
 0,0.00000002,-0.00000022,0.00481247,-0.00000225,0.00000211,0.00490474,
 0.00000872,0.00000881,-0.03957928,-0.00000024,0.00000125,0.00459135,0.
 00000060,0.00000079,0.00848434,0.00000040,-0.00000013,-0.00104618,-0.0
 0000004,-0.00000002,-0.00008727,0.00000208,-0.00000010,-0.00398718,-0.
 00000076,-0.00000049,-0.00009931,-0.00000040,0.00000032,0.00035820,0.0
 0000013,0.,0.00058527,-0.00000802,-0.00001204,0.02674843,-0.00086186,-
 0.00069884,0.00000009,-0.00469510,-0.00211845,0.00000119,-0.01208777,0
 .02902938,-0.00000006,-0.12596671,0.12076357,-0.00000111,0.00940796,-0
 .01486864,0.00000019,-0.00130885,-0.00301402,0.00000010,0.00222772,-0.
 00082996,-0.00000009,0.00049570,0.00192144,0.00000024,-0.00018969,-0.0
 0024550,-0.00000022,-0.00101641,0.00024904,-0.00000045,0.00002240,0.00
 008410,0.,0.00082521,-0.00014727,-0.00000027,0.13308310,-0.00117727,-0
 .00006270,0.00000003,-0.00078065,0.00205670,0.00000021,-0.00174573,0.0
 0382064,0.00000005,0.12068184,-0.27391632,0.00000276,0.01734887,-0.018
 64233,-0.00000007,-0.00400439,-0.00287485,0.00000036,0.00084481,0.0017
 3748,-0.00000014,-0.00047205,0.00020434,0.00000012,0.00017437,0.000029
 89,0.00000003,0.00001971,-0.00001460,-0.00000005,0.00005808,-0.0000058
 7,0.,0.00010142,0.00077132,-0.00000023,-0.12980175,0.28842466,0.000000
 32,0.00000024,-0.00065254,0.00000062,-0.00000035,0.00727700,0.00000026
 ,-0.00000119,0.00217370,-0.00000105,0.00000269,-0.03250209,-0.00000013
 ,0.00000121,0.00361144,0.00000028,0.00000057,0.00496417,-0.00000060,0.
 ,-0.00267551,-0.00000026,0.00000035,0.00159159,-0.00000007,-0.00000011
 ,-0.00006705,0.00000040,-0.00000024,-0.00071371,-0.00000003,-0.0000000
 3,-0.00062221,-0.00000017,-0.00000006,-0.00478831,0.00000033,-0.000003
 13,0.02259165,-0.01208777,-0.02902938,0.00000165,-0.00469510,0.0021184
 5,0.00000106,-0.00086186,0.00069884,0.00000005,-0.00130885,0.00301402,
 -0.00000008,0.00940796,0.01486864,-0.00000068,-0.12596675,-0.12076360,
 0.00000597,0.00222772,0.00082996,-0.00000015,0.00049570,-0.00192144,0.
 00000035,-0.00101641,-0.00024904,-0.00000044,-0.00018969,0.00024550,-0
 .00000023,0.00082521,0.00014727,-0.00000027,0.00002240,-0.00008410,0.,
 0.00057782,0.00077809,-0.00000003,0.13308314,0.00174573,0.00382065,-0.
 00000015,0.00078065,0.00205670,0.00000009,0.00117727,-0.00006270,-0.00
 000007,0.00400439,-0.00287485,0.00000010,-0.01734888,-0.01864233,0.000
 00138,-0.12068186,-0.27391627,0.00001135,-0.00084481,0.00173748,-0.000
 00012,0.00047205,0.00020434,-0.00000004,-0.00001971,-0.00001460,0.,-0.
 00017438,0.00002989,-0.00000003,-0.00010142,0.00077132,-0.00000009,-0.
 00005808,-0.00000587,-0.00000003,-0.00077809,-0.00103453,0.00000007,0.
 12980177,0.28842461,0.00000014,0.00000109,0.00217370,0.00000057,0.0000
 0066,0.00727700,0.00000025,-0.00000027,-0.00065254,0.00000004,-0.00000
 011,0.00496417,0.00000091,0.00000008,0.00361144,0.00000604,0.00001144,
 -0.03250210,-0.00000055,-0.00000027,-0.00267551,-0.00000029,-0.0000002
 7,0.00159159,0.00000040,0.00000020,-0.00071371,-0.00000006,0.00000010,
 -0.00006705,-0.00000016,-0.00000026,-0.00478831,-0.00000003,0.,-0.0006
 2221,0.00000002,-0.00000002,-0.00013128,-0.00000730,-0.00001241,0.0225
 9166,-0.00058315,0.00000527,0.,0.00073789,0.00036039,-0.00000007,0.000
 00388,-0.00198105,0.00000011,-0.00495082,0.00328524,0.00000017,-0.0120
 9414,-0.03199223,0.00000167,0.00209768,-0.00199959,-0.00000016,-0.1779
 9232,-0.17763403,0.00001409,-0.00058470,-0.00002777,-0.00000013,0.0002
 3416,0.00030855,0.00000012,0.00014177,-0.00005821,0.00000004,0.0000195
 1,0.00000904,0.00000002,-0.00039891,0.00012289,0.,0.00008497,-0.000198
 52,0.,-0.00059848,0.00182686,0.00000002,0.18006916,-0.00108984,-0.0006
 9693,-0.00000011,0.00158487,0.00007239,0.00000012,-0.00077440,0.000355
 65,-0.00000003,0.00249061,0.00191892,-0.00000009,-0.00068557,0.0057716
 0,-0.00000044,0.00327637,0.00156254,-0.00000024,-0.17574017,-0.3765827
 9,0.00002142,-0.00160405,0.00000865,-0.00000019,0.00036845,0.00035679,
 0.00000011,0.00041908,-0.00047504,0.00000018,0.00008581,0.00000610,0.,
 0.00002830,0.00001793,0.,0.00016172,0.00024670,0.,-0.00029325,-0.00074
 053,0.00000010,0.18987261,0.38175831,-0.00000013,-0.00000012,-0.000860
 47,-0.00000004,0.00000020,0.00017428,0.00000032,-0.00000015,0.00214282
 ,-0.00000024,-0.00000019,0.00324383,-0.00000037,0.00000046,-0.00484528
 ,0.00000007,-0.00000013,-0.00194183,0.00001505,0.00002276,0.00397134,0
 .00000003,0.,-0.00007298,0.00000006,0.,-0.00002166,-0.00000002,0.,-0.0
 0002319,0.00000003,0.,0.00013879,-0.00000007,-0.00000001,-0.00041385,-
 0.00000003,0.00000003,-0.00070231,0.00000011,0.,0.00064546,-0.00001441
 ,-0.00002214,0.00257829,0.00000388,0.00198105,0.,0.00073789,-0.0003603
 9,-0.00000005,-0.00058315,-0.00000527,0.,0.00209768,0.00199959,-0.0000
 0028,-0.01209414,0.03199223,-0.00000027,-0.00495082,-0.00328524,0.0000
 0036,-0.17799238,0.17763407,0.00000332,-0.00058470,0.00002777,-0.00000
 014,0.00014177,0.00005821,0.00000003,0.00023416,-0.00030855,0.00000014
 ,-0.00039891,-0.00012289,0.00000002,0.00001951,-0.00000904,0.00000002,
 -0.00059848,-0.00182686,0.00000013,0.00008497,0.00019852,-0.00000002,0
 .01381351,-0.01810055,-0.00000036,0.18006921,0.00077439,0.00035565,0.0
 0000014,-0.00158487,0.00007239,-0.00000011,0.00108984,-0.00069694,0.00
 000010,-0.00327637,0.00156254,0.00000003,0.00068556,0.00577161,-0.0000
 0021,-0.00249061,0.00191891,0.00000018,0.17574020,-0.37658276,0.000001
 63,0.00160405,0.00000865,0.00000019,-0.00041908,-0.00047504,-0.0000001
 6,-0.00036845,0.00035679,-0.00000013,-0.00002830,0.00001793,-0.0000000
 3,-0.00008581,0.00000610,0.,0.00029326,-0.00074053,-0.00000002,-0.0001
 6172,0.00024671,-0.00000005,0.01810055,-0.01358028,-0.00000073,-0.1898
 7265,0.38175827,0.00000028,0.00000026,0.00214282,0.00000004,-0.0000002
 0,0.00017428,-0.00000019,0.00000011,-0.00086047,0.00000026,-0.00000008
 ,-0.00194183,-0.00000034,-0.00000112,-0.00484528,-0.00000009,0.0000002
 7,0.00324383,0.00000433,0.00000031,0.00397134,-0.00000005,0.,-0.000072
 98,0.,0.00000003,-0.00002319,0.00000008,-0.00000003,-0.00002166,-0.000
 00007,-0.00000001,-0.00041385,0.00000004,0.,0.00013879,0.00000008,0.00
 000007,0.00064546,-0.00000002,-0.00000008,-0.00070231,-0.00000146,0.00
 000131,-0.00401322,-0.00000290,-0.00000083,0.00257828\\0.00003695,0.00
 006408,-0.00000707,-0.00018846,0.,-0.00003355,0.00003690,-0.00006405,-
 0.00000706,0.00000294,-0.00003668,0.00000199,-0.00000092,-0.00000003,-
 0.00000089,0.00000287,0.00003670,0.00000198,0.00007409,0.,-0.00000019,
 0.00000683,-0.00000010,0.00015175,0.00001567,-0.00017742,-0.00005418,0
 .00001561,0.00017753,-0.00005419,-0.00001012,-0.00002150,-0.00000025,-
 0.00001012,0.00002149,-0.00000024,0.00000664,0.00000606,0.00000086,0.0
 0000665,-0.00000607,0.00000085,0.00000224,0.00000645,0.00000009,0.0000
 0224,-0.00000645,0.00000010\\\@


 I LOVE THOSE WHO LONG FOR THE IMPOSSIBLE.

                                 -- GOETHE
 Job cpu time:       0 days  0 hours 18 minutes 30.8 seconds.
 File lengths (MBytes):  RWF=     85 Int=      0 D2E=      0 Chk=      5 Scr=      1
 Normal termination of Gaussian 09 at Thu Jun 13 22:02:01 2024.
