 Entering Gaussian System, Link 0=g09
 Input=APFDPNAyang.gjf
 Output=APFDPNAyang.log
 Initial command:
 /home/phzd/g09E/g09/l1.exe "/home/phzd/g09E/scratch/Gau-74327.inp" -scrdir="/home/phzd/g09E/scratch/"
 Default is to use a total of  18 processors:
                               18 via shared-memory
                                1 via Linda
 Entering Link 1 = /home/phzd/g09E/g09/l1.exe PID=     74329.
  
 Copyright (c) 1988,1990,1992,1993,1995,1998,2003,2009,2015,
            Gaussian, Inc.  All Rights Reserved.
  
 This is part of the Gaussian(R) 09 program.  It is based on
 the Gaussian(R) 03 system (copyright 2003, Gaussian, Inc.),
 the Gaussian(R) 98 system (copyright 1998, Gaussian, Inc.),
 the Gaussian(R) 94 system (copyright 1995, Gaussian, Inc.),
 the Gaussian 92(TM) system (copyright 1992, Gaussian, Inc.),
 the Gaussian 90(TM) system (copyright 1990, Gaussian, Inc.),
 the Gaussian 88(TM) system (copyright 1988, Gaussian, Inc.),
 the Gaussian 86(TM) system (copyright 1986, Carnegie Mellon
 University), and the Gaussian 82(TM) system (copyright 1983,
 Carnegie Mellon University). Gaussian is a federally registered
 trademark of Gaussian, Inc.
  
 This software contains proprietary and confidential information,
 including trade secrets, belonging to Gaussian, Inc.
  
 This software is provided under written license and may be
 used, copied, transmitted, or stored only in accord with that
 written license.
  
 The following legend is applicable only to US Government
 contracts under FAR:
  
                    RESTRICTED RIGHTS LEGEND
  
 Use, reproduction and disclosure by the US Government is
 subject to restrictions as set forth in subparagraphs (a)
 and (c) of the Commercial Computer Software - Restricted
 Rights clause in FAR 52.227-19.
  
 Gaussian, Inc.
 340 Quinnipiac St., Bldg. 40, Wallingford CT 06492
  
  
 ---------------------------------------------------------------
 Warning -- This program may not be used in any manner that
 competes with the business of Gaussian, Inc. or will provide
 assistance to any competitor of Gaussian, Inc.  The licensee
 of this program is prohibited from giving any competitor of
 Gaussian, Inc. access to this program.  By using this program,
 the user acknowledges that Gaussian, Inc. is engaged in the
 business of creating and licensing software in the field of
 computational chemistry and represents and warrants to the
 licensee that it is not a competitor of Gaussian, Inc. and that
 it will not use this program in any manner prohibited above.
 ---------------------------------------------------------------
  

 Cite this work as:
 Gaussian 09, Revision E.01,
 M. J. Frisch, G. W. Trucks, H. B. Schlegel, G. E. Scuseria, 
 M. A. Robb, J. R. Cheeseman, G. Scalmani, V. Barone, B. Mennucci, 
 G. A. Petersson, H. Nakatsuji, M. Caricato, X. Li, H. P. Hratchian, 
 A. F. Izmaylov, J. Bloino, G. Zheng, J. L. Sonnenberg, M. Hada, 
 M. Ehara, K. Toyota, R. Fukuda, J. Hasegawa, M. Ishida, T. Nakajima, 
 Y. Honda, O. Kitao, H. Nakai, T. Vreven, J. A. Montgomery, Jr., 
 J. E. Peralta, F. Ogliaro, M. Bearpark, J. J. Heyd, E. Brothers, 
 K. N. Kudin, V. N. Staroverov, T. Keith, R. Kobayashi, J. Normand, 
 K. Raghavachari, A. Rendell, J. C. Burant, S. S. Iyengar, J. Tomasi, 
 M. Cossi, N. Rega, J. M. Millam, M. Klene, J. E. Knox, J. B. Cross, 
 V. Bakken, C. Adamo, J. Jaramillo, R. Gomperts, R. E. Stratmann, 
 O. Yazyev, A. J. Austin, R. Cammi, C. Pomelli, J. W. Ochterski, 
 R. L. Martin, K. Morokuma, V. G. Zakrzewski, G. A. Voth, 
 P. Salvador, J. J. Dannenberg, S. Dapprich, A. D. Daniels, 
 O. Farkas, J. B. Foresman, J. V. Ortiz, J. Cioslowski, 
 and D. J. Fox, Gaussian, Inc., Wallingford CT, 2013.
 
 ******************************************
 Gaussian 09:  ES64L-G09RevE.01 30-Nov-2015
                13-Jun-2024 
 ******************************************
 %chk=APFDPNAyang.chk
 ---------------------------
 # opt freq apfd/6-31+g(d,p)
 ---------------------------
 1/14=-1,18=20,19=15,26=3,38=1/1,3;
 2/9=110,12=2,17=6,18=5,40=1/2;
 3/5=1,6=6,7=111,11=2,16=1,25=1,30=1,71=1,74=-44/1,2,3;
 4//1;
 5/5=2,38=5/2;
 6/7=2,8=2,9=2,10=2,28=1/1;
 7//1,2,3,16;
 1/14=-1,18=20,19=15,26=3/3(2);
 2/9=110/2;
 99//99;
 2/9=110/2;
 3/5=1,6=6,7=111,11=2,16=1,25=1,30=1,71=1,74=-44/1,2,3;
 4/5=5,16=3,69=1/1;
 5/5=2,38=5/2;
 7//1,2,3,16;
 1/14=-1,18=20,19=15,26=3/3(-5);
 2/9=110/2;
 6/7=2,8=2,9=2,10=2,19=2,28=1/1;
 99/9=1/99;
 ----------
 [No Title]
 ----------
 Symbolic Z-matrix:
 Charge =  1 Multiplicity = 1
 C                    -0.06017   1.26451  0. 
 C                     0.66722   0.0387    0. 
 C                    -0.00646  -1.2169    0. 
 C                    -1.37234  -1.23943   0. 
 C                    -2.12014  -0.01853  0. 
 C                    -1.42463   1.23363  -0.00001 
 N                    -3.4557   -0.04642  0. 
 N                     2.03132   0.1101    0.00001 
 O                     2.67315  -1.10362   0. 
 O                     2.71015   1.12009   0. 
 H                     0.47887   2.20441  0. 
 H                     0.5588   -2.1397   0. 
 H                    -1.89983  -2.18732   0.00001 
 H                    -1.99069   2.15903  -0.00001 
 H                    -4.00226   0.80435  -0.00001 
 H                    -3.96667  -0.919     0.00001 
 H                     3.62522  -0.87117  -0.00013 
 

 GradGradGradGradGradGradGradGradGradGradGradGradGradGradGradGradGradGrad
 Berny optimization.
 Initialization pass.
                           ----------------------------
                           !    Initial Parameters    !
                           ! (Angstroms and Degrees)  !
 --------------------------                            --------------------------
 ! Name  Definition              Value          Derivative Info.                !
 --------------------------------------------------------------------------------
 ! R1    R(1,2)                  1.4254         estimate D2E/DX2                !
 ! R2    R(1,6)                  1.3648         estimate D2E/DX2                !
 ! R3    R(1,11)                 1.0835         estimate D2E/DX2                !
 ! R4    R(2,3)                  1.4249         estimate D2E/DX2                !
 ! R5    R(2,8)                  1.366          estimate D2E/DX2                !
 ! R6    R(3,4)                  1.3661         estimate D2E/DX2                !
 ! R7    R(3,12)                 1.0822         estimate D2E/DX2                !
 ! R8    R(4,5)                  1.4317         estimate D2E/DX2                !
 ! R9    R(4,13)                 1.0848         estimate D2E/DX2                !
 ! R10   R(5,6)                  1.4323         estimate D2E/DX2                !
 ! R11   R(5,7)                  1.3359         estimate D2E/DX2                !
 ! R12   R(6,14)                 1.0848         estimate D2E/DX2                !
 ! R13   R(7,15)                 1.0112         estimate D2E/DX2                !
 ! R14   R(7,16)                 1.0112         estimate D2E/DX2                !
 ! R15   R(8,9)                  1.373          estimate D2E/DX2                !
 ! R16   R(8,10)                 1.2169         estimate D2E/DX2                !
 ! R17   R(9,17)                 0.98           estimate D2E/DX2                !
 ! A1    A(2,1,6)              119.3876         estimate D2E/DX2                !
 ! A2    A(2,1,11)             119.481          estimate D2E/DX2                !
 ! A3    A(6,1,11)             121.1313         estimate D2E/DX2                !
 ! A4    A(1,2,3)              121.1003         estimate D2E/DX2                !
 ! A5    A(1,2,8)              117.6881         estimate D2E/DX2                !
 ! A6    A(3,2,8)              121.2115         estimate D2E/DX2                !
 ! A7    A(2,3,4)              119.1603         estimate D2E/DX2                !
 ! A8    A(2,3,12)             120.2948         estimate D2E/DX2                !
 ! A9    A(4,3,12)             120.5448         estimate D2E/DX2                !
 ! A10   A(3,4,5)              120.5419         estimate D2E/DX2                !
 ! A11   A(3,4,13)             120.0404         estimate D2E/DX2                !
 ! A12   A(5,4,13)             119.4177         estimate D2E/DX2                !
 ! A13   A(4,5,6)              119.4629         estimate D2E/DX2                !
 ! A14   A(4,5,7)              120.2907         estimate D2E/DX2                !
 ! A15   A(6,5,7)              120.2464         estimate D2E/DX2                !
 ! A16   A(1,6,5)              120.3468         estimate D2E/DX2                !
 ! A17   A(1,6,14)             120.1572         estimate D2E/DX2                !
 ! A18   A(5,6,14)             119.496          estimate D2E/DX2                !
 ! A19   A(5,7,15)             121.5216         estimate D2E/DX2                !
 ! A20   A(5,7,16)             121.5488         estimate D2E/DX2                !
 ! A21   A(15,7,16)            116.9296         estimate D2E/DX2                !
 ! A22   A(2,8,9)              114.874          estimate D2E/DX2                !
 ! A23   A(2,8,10)             126.9018         estimate D2E/DX2                !
 ! A24   A(9,8,10)             118.2242         estimate D2E/DX2                !
 ! A25   A(8,9,17)             104.1501         estimate D2E/DX2                !
 ! D1    D(6,1,2,3)              0.0001         estimate D2E/DX2                !
 ! D2    D(6,1,2,8)           -179.9997         estimate D2E/DX2                !
 ! D3    D(11,1,2,3)          -179.9998         estimate D2E/DX2                !
 ! D4    D(11,1,2,8)             0.0004         estimate D2E/DX2                !
 ! D5    D(2,1,6,5)              0.0003         estimate D2E/DX2                !
 ! D6    D(2,1,6,14)          -179.9997         estimate D2E/DX2                !
 ! D7    D(11,1,6,5)          -179.9998         estimate D2E/DX2                !
 ! D8    D(11,1,6,14)            0.0002         estimate D2E/DX2                !
 ! D9    D(1,2,3,4)             -0.0004         estimate D2E/DX2                !
 ! D10   D(1,2,3,12)           179.9997         estimate D2E/DX2                !
 ! D11   D(8,2,3,4)            179.9994         estimate D2E/DX2                !
 ! D12   D(8,2,3,12)            -0.0005         estimate D2E/DX2                !
 ! D13   D(1,2,8,9)           -179.9994         estimate D2E/DX2                !
 ! D14   D(1,2,8,10)            -0.001          estimate D2E/DX2                !
 ! D15   D(3,2,8,9)              0.0008         estimate D2E/DX2                !
 ! D16   D(3,2,8,10)           179.9992         estimate D2E/DX2                !
 ! D17   D(2,3,4,5)              0.0004         estimate D2E/DX2                !
 ! D18   D(2,3,4,13)          -179.9996         estimate D2E/DX2                !
 ! D19   D(12,3,4,5)          -179.9998         estimate D2E/DX2                !
 ! D20   D(12,3,4,13)            0.0002         estimate D2E/DX2                !
 ! D21   D(3,4,5,6)              0.0            estimate D2E/DX2                !
 ! D22   D(3,4,5,7)            179.9999         estimate D2E/DX2                !
 ! D23   D(13,4,5,6)           180.0            estimate D2E/DX2                !
 ! D24   D(13,4,5,7)            -0.0001         estimate D2E/DX2                !
 ! D25   D(4,5,6,1)             -0.0003         estimate D2E/DX2                !
 ! D26   D(4,5,6,14)           179.9997         estimate D2E/DX2                !
 ! D27   D(7,5,6,1)            179.9998         estimate D2E/DX2                !
 ! D28   D(7,5,6,14)            -0.0003         estimate D2E/DX2                !
 ! D29   D(4,5,7,15)          -179.9998         estimate D2E/DX2                !
 ! D30   D(4,5,7,16)             0.0004         estimate D2E/DX2                !
 ! D31   D(6,5,7,15)             0.0001         estimate D2E/DX2                !
 ! D32   D(6,5,7,16)          -179.9997         estimate D2E/DX2                !
 ! D33   D(2,8,9,17)           179.9913         estimate D2E/DX2                !
 ! D34   D(10,8,9,17)           -0.0072         estimate D2E/DX2                !
 --------------------------------------------------------------------------------
 Trust Radius=3.00D-01 FncErr=1.00D-07 GrdErr=1.00D-06
 Number of steps in this run=     86 maximum allowed number of steps=    102.
 GradGradGradGradGradGradGradGradGradGradGradGradGradGradGradGradGradGrad

                          Input orientation:                          
 ---------------------------------------------------------------------
 Center     Atomic      Atomic             Coordinates (Angstroms)
 Number     Number       Type             X           Y           Z
 ---------------------------------------------------------------------
      1          6           0       -0.060168    1.264512   -0.000001
      2          6           0        0.667215    0.038700    0.000003
      3          6           0       -0.006463   -1.216902    0.000000
      4          6           0       -1.372344   -1.239434    0.000002
      5          6           0       -2.120136   -0.018528   -0.000001
      6          6           0       -1.424625    1.233625   -0.000006
      7          7           0       -3.455699   -0.046419   -0.000001
      8          7           0        2.031320    0.110101    0.000014
      9          8           0        2.673146   -1.103617    0.000004
     10          8           0        2.710147    1.120092    0.000004
     11          1           0        0.478867    2.204406   -0.000002
     12          1           0        0.558802   -2.139695   -0.000001
     13          1           0       -1.899830   -2.187322    0.000006
     14          1           0       -1.990692    2.159031   -0.000014
     15          1           0       -4.002258    0.804349   -0.000006
     16          1           0       -3.966668   -0.919003    0.000007
     17          1           0        3.625215   -0.871171   -0.000130
 ---------------------------------------------------------------------
                    Distance matrix (angstroms):
                    1          2          3          4          5
     1  C    0.000000
     2  C    1.425378   0.000000
     3  C    2.481995   1.424913   0.000000
     4  C    2.826933   2.406954   1.366067   0.000000
     5  C    2.426862   2.787938   2.429756   1.431714   0.000000
     6  C    1.364807   2.409075   2.831301   2.473612   1.432349
     7  N    3.639804   4.123793   3.642425   2.400761   1.335854
     8  N    2.388930   1.365972   2.431768   3.661444   4.153448
     9  O    3.616496   2.308386   2.682003   4.047769   4.914567
    10  O    2.774077   2.311489   3.583505   4.715304   4.962670
    11  H    1.083494   2.173881   3.455560   3.909861   3.419978
    12  H    3.460022   2.181091   1.082161   2.130679   3.417025
    13  H    3.911459   3.397778   2.127570   1.084773   2.179955
    14  H    2.127695   3.400040   3.915876   3.454261   2.181403
    15  H    3.968857   4.731828   4.477927   3.330690   2.054145
    16  H    4.475319   4.731814   3.971394   2.614038   2.054394
    17  H    4.259482   3.094775   3.648097   5.011109   5.808275
                    6          7          8          9         10
     6  C    0.000000
     7  N    2.400786   0.000000
     8  N    3.633987   5.489251   0.000000
     9  O    4.717460   6.219358   1.372972   0.000000
    10  O    4.136330   6.275221   1.216917   2.224017   0.000000
    11  H    2.136749   4.532882   2.606957   3.969619   2.480796
    12  H    3.913217   4.527474   2.688846   2.354551   3.905701
    13  H    3.453795   2.646544   4.553251   4.699630   5.673700
    14  H    1.084808   2.647689   4.513834   5.691771   4.814279
    15  H    2.613134   1.011204   6.073388   6.942719   6.719827
    16  H    3.331034   1.011184   6.085632   6.642380   6.981244
    17  H    5.470928   7.128784   1.871736   0.980034   2.191456
                   11         12         13         14         15
    11  H    0.000000
    12  H    4.344836   0.000000
    13  H    4.994544   2.459093   0.000000
    14  H    2.469976   4.997896   4.347303   0.000000
    15  H    4.694746   5.428689   3.656542   2.425193   0.000000
    16  H    5.433090   4.687213   2.424964   3.657701   1.723719
    17  H    4.399850   3.318440   5.679646   6.381264   7.809335
                   16         17
    16  H    0.000000
    17  H    7.592034   0.000000
 Stoichiometry    C6H7N2O2(1+)
 Framework group  C1[X(C6H7N2O2)]
 Deg. of freedom    45
 Full point group                 C1      NOp   1
 Largest Abelian subgroup         C1      NOp   1
 Largest concise Abelian subgroup C1      NOp   1
                         Standard orientation:                         
 ---------------------------------------------------------------------
 Center     Atomic      Atomic             Coordinates (Angstroms)
 Number     Number       Type             X           Y           Z
 ---------------------------------------------------------------------
      1          6           0        0.060168    1.264512    0.000001
      2          6           0       -0.667215    0.038700   -0.000003
      3          6           0        0.006463   -1.216902   -0.000000
      4          6           0        1.372344   -1.239434   -0.000002
      5          6           0        2.120136   -0.018528    0.000001
      6          6           0        1.424625    1.233625    0.000006
      7          7           0        3.455699   -0.046419    0.000001
      8          7           0       -2.031320    0.110101   -0.000014
      9          8           0       -2.673146   -1.103617   -0.000004
     10          8           0       -2.710147    1.120092   -0.000004
     11          1           0       -0.478867    2.204406    0.000002
     12          1           0       -0.558802   -2.139695    0.000001
     13          1           0        1.899830   -2.187322   -0.000006
     14          1           0        1.990692    2.159031    0.000014
     15          1           0        4.002258    0.804349    0.000006
     16          1           0        3.966668   -0.919003   -0.000007
     17          1           0       -3.625215   -0.871171    0.000130
 ---------------------------------------------------------------------
 Rotational constants (GHZ):      3.7518842      0.8202376      0.6730872
 Standard basis: 6-31+G(d,p) (6D, 7F)
 There are   225 symmetry adapted cartesian basis functions of A   symmetry.
 There are   225 symmetry adapted basis functions of A   symmetry.
   225 basis functions,   369 primitive gaussians,   225 cartesian basis functions
    36 alpha electrons       36 beta electrons
       nuclear repulsion energy       507.8608013708 Hartrees.
 NAtoms=   17 NActive=   17 NUniq=   17 SFac= 1.00D+00 NAtFMM=   60 NAOKFM=F Big=F
 Integral buffers will be    131072 words long.
 Raffenetti 2 integral format.
 Two-electron integral symmetry is turned on.
 R6APFD:  NTU= -4 IXU= 1 FactS= 1.050
 Nuclear repulsion after empirical dispersion term =      507.8516087273 Hartrees.
 One-electron integrals computed using PRISM.
 NBasis=   225 RedAO= T EigKep=  3.39D-06  NBF=   225
 NBsUse=   225 1.00D-06 EigRej= -1.00D+00 NBFU=   225
 ExpMin= 4.38D-02 ExpMax= 5.48D+03 ExpMxC= 8.25D+02 IAcc=2 IRadAn=         4 AccDes= 0.00D+00
 Harris functional with IExCor= 3731 and IRadAn=       4 diagonalized for initial guess.
 HarFok:  IExCor= 3731 AccDes= 0.00D+00 IRadAn=         4 IDoV= 1 UseB2=F ITyADJ=14
 ICtDFT=  3500011 ScaDFX=  1.000000  1.000000  1.000000  1.000000
 FoFCou: FMM=F IPFlag=           0 FMFlag=      100000 FMFlg1=           0
         NFxFlg=           0 DoJE=T BraDBF=F KetDBF=T FulRan=T
         wScrn=  0.000000 ICntrl=     500 IOpCl=  0 I1Cent=   200000004 NGrid=           0
         NMat0=    1 NMatS0=      1 NMatT0=    0 NMatD0=    1 NMtDS0=    0 NMtDT0=    0
 Petite list used in FoFCou.
 Keep R1 ints in memory in canonical form, NReq=329175655.
 Requested convergence on RMS density matrix=1.00D-08 within 128 cycles.
 Requested convergence on MAX density matrix=1.00D-06.
 Requested convergence on             energy=1.00D-06.
 No special actions if energy rises.
 SCF Done:  E(RAPFD) =  -492.100680005     A.U. after   18 cycles
            NFock= 18  Conv=0.65D-08     -V/T= 2.0090

 **********************************************************************

            Population analysis using the SCF density.

 **********************************************************************

 Orbital symmetries:
       Occupied  (A) (A) (A) (A) (A) (A) (A) (A) (A) (A) (A) (A)
                 (A) (A) (A) (A) (A) (A) (A) (A) (A) (A) (A) (A)
                 (A) (A) (A) (A) (A) (A) (A) (A) (A) (A) (A) (A)
       Virtual   (A) (A) (A) (A) (A) (A) (A) (A) (A) (A) (A) (A)
                 (A) (A) (A) (A) (A) (A) (A) (A) (A) (A) (A) (A)
                 (A) (A) (A) (A) (A) (A) (A) (A) (A) (A) (A) (A)
                 (A) (A) (A) (A) (A) (A) (A) (A) (A) (A) (A) (A)
                 (A) (A) (A) (A) (A) (A) (A) (A) (A) (A) (A) (A)
                 (A) (A) (A) (A) (A) (A) (A) (A) (A) (A) (A) (A)
                 (A) (A) (A) (A) (A) (A) (A) (A) (A) (A) (A) (A)
                 (A) (A) (A) (A) (A) (A) (A) (A) (A) (A) (A) (A)
                 (A) (A) (A) (A) (A) (A) (A) (A) (A) (A) (A) (A)
                 (A) (A) (A) (A) (A) (A) (A) (A) (A) (A) (A) (A)
                 (A) (A) (A) (A) (A) (A) (A) (A) (A) (A) (A) (A)
                 (A) (A) (A) (A) (A) (A) (A) (A) (A) (A) (A) (A)
                 (A) (A) (A) (A) (A) (A) (A) (A) (A) (A) (A) (A)
                 (A) (A) (A) (A) (A) (A) (A) (A) (A) (A) (A) (A)
                 (A) (A) (A) (A) (A) (A) (A) (A) (A) (A) (A) (A)
                 (A) (A) (A) (A) (A) (A) (A) (A) (A)
 The electronic state is 1-A.
 Alpha  occ. eigenvalues --  -19.46058 -19.42650 -14.79230 -14.59137 -10.47292
 Alpha  occ. eigenvalues --  -10.45487 -10.41932 -10.41763 -10.40399 -10.40389
 Alpha  occ. eigenvalues --   -1.43422  -1.27298  -1.15155  -1.09422  -1.01654
 Alpha  occ. eigenvalues --   -0.96280  -0.90185  -0.83868  -0.81370  -0.76676
 Alpha  occ. eigenvalues --   -0.74718  -0.73008  -0.72580  -0.71752  -0.65683
 Alpha  occ. eigenvalues --   -0.63418  -0.62660  -0.61878  -0.60086  -0.59269
 Alpha  occ. eigenvalues --   -0.54216  -0.53946  -0.52100  -0.50580  -0.45637
 Alpha  occ. eigenvalues --   -0.41330
 Alpha virt. eigenvalues --   -0.28831  -0.18642  -0.15980  -0.12740  -0.11893
 Alpha virt. eigenvalues --   -0.09789  -0.09080  -0.08475  -0.06666  -0.06498
 Alpha virt. eigenvalues --   -0.05986  -0.04452  -0.04309  -0.03282  -0.02595
 Alpha virt. eigenvalues --   -0.02165  -0.00826  -0.00209   0.00854   0.01347
 Alpha virt. eigenvalues --    0.01852   0.02334   0.02505   0.03383   0.03858
 Alpha virt. eigenvalues --    0.04906   0.05444   0.06409   0.06756   0.06800
 Alpha virt. eigenvalues --    0.07795   0.08242   0.08830   0.09297   0.10209
 Alpha virt. eigenvalues --    0.10266   0.10571   0.12441   0.12709   0.12787
 Alpha virt. eigenvalues --    0.13519   0.14488   0.14866   0.15647   0.15847
 Alpha virt. eigenvalues --    0.16739   0.18891   0.19010   0.19856   0.21022
 Alpha virt. eigenvalues --    0.21879   0.23015   0.24930   0.25451   0.27574
 Alpha virt. eigenvalues --    0.29197   0.30531   0.33714   0.38415   0.41313
 Alpha virt. eigenvalues --    0.44404   0.49189   0.49868   0.50244   0.53556
 Alpha virt. eigenvalues --    0.55667   0.56876   0.58510   0.60087   0.63443
 Alpha virt. eigenvalues --    0.64479   0.66443   0.68724   0.69800   0.72636
 Alpha virt. eigenvalues --    0.74606   0.75591   0.78567   0.80285   0.80959
 Alpha virt. eigenvalues --    0.82714   0.83364   0.86050   0.86760   0.89592
 Alpha virt. eigenvalues --    0.90641   0.90783   0.92975   0.95126   0.97662
 Alpha virt. eigenvalues --    1.00553   1.01295   1.02530   1.03603   1.05216
 Alpha virt. eigenvalues --    1.07908   1.10237   1.10494   1.12913   1.13280
 Alpha virt. eigenvalues --    1.15734   1.16623   1.16807   1.20255   1.20353
 Alpha virt. eigenvalues --    1.21808   1.22592   1.27339   1.28137   1.30793
 Alpha virt. eigenvalues --    1.34641   1.35933   1.38586   1.49886   1.53394
 Alpha virt. eigenvalues --    1.57089   1.58824   1.63399   1.64353   1.66591
 Alpha virt. eigenvalues --    1.67268   1.72389   1.73558   1.74407   1.76431
 Alpha virt. eigenvalues --    1.78487   1.79470   1.80126   1.80221   1.85922
 Alpha virt. eigenvalues --    1.88571   1.92034   1.93712   1.95588   1.97409
 Alpha virt. eigenvalues --    2.00605   2.01640   2.03698   2.13692   2.13841
 Alpha virt. eigenvalues --    2.21029   2.21340   2.23086   2.23145   2.24741
 Alpha virt. eigenvalues --    2.28088   2.28143   2.31582   2.33437   2.37762
 Alpha virt. eigenvalues --    2.39148   2.40340   2.41395   2.42232   2.43521
 Alpha virt. eigenvalues --    2.45560   2.50349   2.50855   2.53837   2.59008
 Alpha virt. eigenvalues --    2.59937   2.64115   2.67110   2.68476   2.81135
 Alpha virt. eigenvalues --    2.83373   2.86917   2.91311   2.94204   2.99151
 Alpha virt. eigenvalues --    3.03428   3.13833   3.18532   3.18883   3.25411
 Alpha virt. eigenvalues --    3.34298   3.37657   3.52133   3.67881   3.98532
 Alpha virt. eigenvalues --    4.06169   4.13646   4.15346   4.19018   4.31149
 Alpha virt. eigenvalues --    4.33162   4.37275   4.62966   4.70528
          Condensed to atoms (all electrons):
               1          2          3          4          5          6
     1  C    9.940534   0.469543  -2.593859  -1.742307   0.279636  -0.912924
     2  C    0.469543  12.659580  -2.301327  -1.471238  -1.205687  -0.484349
     3  C   -2.593859  -2.301327  11.857115  -1.067995   0.529081  -1.399421
     4  C   -1.742307  -1.471238  -1.067995  10.091211   0.210858  -0.301436
     5  C    0.279636  -1.205687   0.529081   0.210858   5.991416  -0.033505
     6  C   -0.912924  -0.484349  -1.399421  -0.301436  -0.033505   8.753694
     7  N    0.081280  -0.033064   0.072547  -0.075834   0.169526  -0.089386
     8  N    0.391861  -1.072482   0.047080   0.036897   0.045620   0.092709
     9  O    0.039943  -0.318114   0.121176   0.059076  -0.006008   0.034060
    10  O   -0.257532  -0.212740   0.331353   0.012464   0.015147   0.037212
    11  H    0.014987   0.270709   0.060823   0.004188  -0.043485   0.057953
    12  H    0.035623   0.318024  -0.055351   0.106611  -0.058416   0.017690
    13  H    0.009472   0.010315   0.146758   0.085368   0.087723   0.001944
    14  H    0.117936   0.007445   0.000247   0.006443   0.086205   0.123144
    15  H    0.021777   0.000755  -0.003431   0.043271  -0.014753  -0.059824
    16  H   -0.003766   0.000566   0.021507  -0.059986  -0.013438   0.042965
    17  H    0.040726   0.031574  -0.060322  -0.003896  -0.001281   0.004096
               7          8          9         10         11         12
     1  C    0.081280   0.391861   0.039943  -0.257532   0.014987   0.035623
     2  C   -0.033064  -1.072482  -0.318114  -0.212740   0.270709   0.318024
     3  C    0.072547   0.047080   0.121176   0.331353   0.060823  -0.055351
     4  C   -0.075834   0.036897   0.059076   0.012464   0.004188   0.106611
     5  C    0.169526   0.045620  -0.006008   0.015147  -0.043485  -0.058416
     6  C   -0.089386   0.092709   0.034060   0.037212   0.057953   0.017690
     7  N    6.782309   0.000931  -0.000123  -0.000461  -0.000213  -0.000073
     8  N    0.000931   7.155288   0.200020   0.437504  -0.055661  -0.056474
     9  O   -0.000123   0.200020   7.764195  -0.088910  -0.002153   0.017725
    10  O   -0.000461   0.437504  -0.088910   7.662346   0.020612  -0.002463
    11  H   -0.000213  -0.055661  -0.002153   0.020612   0.450384  -0.000078
    12  H   -0.000073  -0.056474   0.017725  -0.002463  -0.000078   0.455555
    13  H   -0.017698  -0.001089   0.000097   0.000020   0.000009  -0.004134
    14  H   -0.017182  -0.001012   0.000054  -0.000014  -0.003822   0.000009
    15  H    0.332851  -0.000007   0.000000   0.000001  -0.000008   0.000002
    16  H    0.332780  -0.000001   0.000001   0.000000   0.000002  -0.000008
    17  H    0.000004   0.034152   0.219555   0.008850   0.000004   0.000191
              13         14         15         16         17
     1  C    0.009472   0.117936   0.021777  -0.003766   0.040726
     2  C    0.010315   0.007445   0.000755   0.000566   0.031574
     3  C    0.146758   0.000247  -0.003431   0.021507  -0.060322
     4  C    0.085368   0.006443   0.043271  -0.059986  -0.003896
     5  C    0.087723   0.086205  -0.014753  -0.013438  -0.001281
     6  C    0.001944   0.123144  -0.059824   0.042965   0.004096
     7  N   -0.017698  -0.017182   0.332851   0.332780   0.000004
     8  N   -0.001089  -0.001012  -0.000007  -0.000001   0.034152
     9  O    0.000097   0.000054   0.000000   0.000001   0.219555
    10  O    0.000020  -0.000014   0.000001   0.000000   0.008850
    11  H    0.000009  -0.003822  -0.000008   0.000002   0.000004
    12  H   -0.004134   0.000009   0.000002  -0.000008   0.000191
    13  H    0.480984  -0.000087  -0.000041   0.004048  -0.000000
    14  H   -0.000087   0.478707   0.004053  -0.000043  -0.000000
    15  H   -0.000041   0.004053   0.334962  -0.018760   0.000000
    16  H    0.004048  -0.000043  -0.018760   0.335245  -0.000000
    17  H   -0.000000  -0.000000   0.000000  -0.000000   0.327036
 Mulliken charges:
               1
     1  C    0.067069
     2  C   -0.669511
     3  C    0.294019
     4  C    0.066308
     5  C   -0.038640
     6  C    0.115378
     7  N   -0.538194
     8  N   -0.255336
     9  O   -0.040594
    10  O    0.036609
    11  H    0.225748
    12  H    0.225567
    13  H    0.196311
    14  H    0.197916
    15  H    0.359152
    16  H    0.358887
    17  H    0.399310
 Sum of Mulliken charges =   1.00000
 Mulliken charges with hydrogens summed into heavy atoms:
               1
     1  C    0.292817
     2  C   -0.669511
     3  C    0.519586
     4  C    0.262619
     5  C   -0.038640
     6  C    0.313294
     7  N    0.179845
     8  N   -0.255336
     9  O    0.358716
    10  O    0.036609
 Electronic spatial extent (au):  <R**2>=           1554.6742
 Charge=              1.0000 electrons
 Dipole moment (field-independent basis, Debye):
    X=              3.7141    Y=             -1.0893    Z=              0.0002  Tot=              3.8705
 Quadrupole moment (field-independent basis, Debye-Ang):
   XX=             -7.5508   YY=            -44.1115   ZZ=            -58.5711
   XY=              4.6712   XZ=             -0.0010   YZ=             -0.0002
 Traceless Quadrupole moment (field-independent basis, Debye-Ang):
   XX=             29.1936   YY=             -7.3670   ZZ=            -21.8266
   XY=              4.6712   XZ=             -0.0010   YZ=             -0.0002
 Octapole moment (field-independent basis, Debye-Ang**2):
  XXX=             43.5155  YYY=             -0.9744  ZZZ=              0.0001  XYY=             13.2458
  XXY=            -21.6663  XXZ=              0.0039  XZZ=            -11.1137  YZZ=              0.3308
  YYZ=              0.0003  XYZ=              0.0012
 Hexadecapole moment (field-independent basis, Debye-Ang**3):
 XXXX=           -660.1646 YYYY=           -333.0334 ZZZZ=            -57.9064 XXXY=             80.9729
 XXXZ=             -0.0157 YYYX=              3.2385 YYYZ=             -0.0001 ZZZX=             -0.0005
 ZZZY=             -0.0002 XXYY=           -243.1106 XXZZ=           -264.5985 YYZZ=            -81.4284
 XXYZ=             -0.0032 YYXZ=             -0.0010 ZZXY=             -0.4806
 N-N= 5.078516087273D+02 E-N=-2.149756930904D+03  KE= 4.876938397203D+02
 R6APFD:  NTU= -4 IXU= 1 FactS= 1.050
 Calling FoFJK, ICntrl=      2127 FMM=F ISym2X=0 I1Cent= 0 IOpClX= 0 NMat=1 NMatS=1 NMatT=0.
 ***** Axes restored to original set *****
 -------------------------------------------------------------------
 Center     Atomic                   Forces (Hartrees/Bohr)
 Number     Number              X              Y              Z
 -------------------------------------------------------------------
      1        6          -0.000638113   -0.002828779    0.000000547
      2        6           0.002131658   -0.000061372    0.000001382
      3        6          -0.001112811    0.002835555    0.000000426
      4        6           0.000890557    0.002295180    0.000000011
      5        6          -0.002291718    0.000006052    0.000000014
      6        6           0.000884971   -0.002329619   -0.000000148
      7        7           0.004103132    0.000073026    0.000000046
      8        7           0.008313202    0.000668591   -0.000004333
      9        8          -0.003601878    0.008431901   -0.000000696
     10        8          -0.007865839   -0.008798414    0.000000749
     11        1           0.000626093    0.001119528    0.000000046
     12        1           0.000595356   -0.001193216    0.000000045
     13        1          -0.000248310   -0.000907347   -0.000000212
     14        1          -0.000287496    0.000893582    0.000000055
     15        1           0.000566918   -0.000917597    0.000000060
     16        1           0.000523516    0.000946835   -0.000000099
     17        1          -0.002589238   -0.000233906    0.000002108
 -------------------------------------------------------------------
 Cartesian Forces:  Max     0.008798414 RMS     0.002670803

 GradGradGradGradGradGradGradGradGradGradGradGradGradGradGradGradGradGrad
 Berny optimization.
 FormGI is forming the generalized inverse of G from B-inverse, IUseBI=4.
 GSVD:  received Info=                   1 from GESDD.
 Internal  Forces:  Max     0.011692428 RMS     0.002155831
 Search for a local minimum.
 Step number   1 out of a maximum of   86
 All quantities printed in internal units (Hartrees-Bohrs-Radians)
 Mixed Optimization -- RFO/linear search
 Second derivative matrix not updated -- first step.
 ITU=  0
     Eigenvalues ---    0.01652   0.01699   0.01815   0.01919   0.01989
     Eigenvalues ---    0.01999   0.02036   0.02130   0.02134   0.02142
     Eigenvalues ---    0.02259   0.02276   0.02540   0.02540   0.16000
     Eigenvalues ---    0.16000   0.16000   0.16000   0.16000   0.16000
     Eigenvalues ---    0.16000   0.22000   0.22949   0.24000   0.25000
     Eigenvalues ---    0.25000   0.25000   0.25000   0.35420   0.35424
     Eigenvalues ---    0.35575   0.35735   0.38065   0.39554   0.41257
     Eigenvalues ---    0.41341   0.45772   0.45775   0.48887   0.50410
     Eigenvalues ---    0.51378   0.51758   0.51868   0.58144   0.96762
 RFO step:  Lambda=-6.00650960D-04 EMin= 1.65233406D-02
 Linear search not attempted -- first point.
 Iteration  1 RMS(Cart)=  0.00905259 RMS(Int)=  0.00001100
 Iteration  2 RMS(Cart)=  0.00001467 RMS(Int)=  0.00000027
 Iteration  3 RMS(Cart)=  0.00000000 RMS(Int)=  0.00000027
 Variable       Old X    -DE/DX   Delta X   Delta X   Delta X     New X
                                 (Linear)    (Quad)   (Total)
    R1        2.69357  -0.00253   0.00000  -0.00613  -0.00613   2.68745
    R2        2.57911  -0.00205   0.00000  -0.00395  -0.00395   2.57516
    R3        2.04751   0.00128   0.00000   0.00360   0.00360   2.05111
    R4        2.69270  -0.00227   0.00000  -0.00549  -0.00549   2.68721
    R5        2.58131  -0.00573   0.00000  -0.01107  -0.01107   2.57025
    R6        2.58149  -0.00209   0.00000  -0.00403  -0.00403   2.57747
    R7        2.04499   0.00133   0.00000   0.00371   0.00371   2.04870
    R8        2.70555  -0.00186   0.00000  -0.00450  -0.00450   2.70105
    R9        2.04992   0.00091   0.00000   0.00257   0.00257   2.05250
   R10        2.70675  -0.00194   0.00000  -0.00472  -0.00472   2.70203
   R11        2.52440  -0.00519   0.00000  -0.00893  -0.00893   2.51547
   R12        2.04999   0.00091   0.00000   0.00257   0.00257   2.05256
   R13        1.91090  -0.00108   0.00000  -0.00235  -0.00235   1.90855
   R14        1.91086  -0.00108   0.00000  -0.00237  -0.00237   1.90849
   R15        2.59454  -0.01013   0.00000  -0.02008  -0.02008   2.57446
   R16        2.29964  -0.01169   0.00000  -0.01208  -0.01208   2.28756
   R17        1.85200  -0.00257   0.00000  -0.00500  -0.00500   1.84699
    A1        2.08371  -0.00032   0.00000  -0.00146  -0.00146   2.08225
    A2        2.08534   0.00017   0.00000   0.00080   0.00080   2.08614
    A3        2.11414   0.00015   0.00000   0.00066   0.00066   2.11480
    A4        2.11360   0.00089   0.00000   0.00348   0.00348   2.11708
    A5        2.05405  -0.00098   0.00000  -0.00387  -0.00387   2.05018
    A6        2.11554   0.00009   0.00000   0.00039   0.00039   2.11593
    A7        2.07974  -0.00039   0.00000  -0.00170  -0.00170   2.07804
    A8        2.09954   0.00032   0.00000   0.00161   0.00160   2.10115
    A9        2.10390   0.00007   0.00000   0.00010   0.00010   2.10400
   A10        2.10385  -0.00035   0.00000  -0.00132  -0.00132   2.10254
   A11        2.09510  -0.00005   0.00000  -0.00075  -0.00075   2.09435
   A12        2.08423   0.00040   0.00000   0.00207   0.00207   2.08630
   A13        2.08502   0.00053   0.00000   0.00241   0.00241   2.08743
   A14        2.09947  -0.00024   0.00000  -0.00112  -0.00112   2.09835
   A15        2.09870  -0.00029   0.00000  -0.00129  -0.00129   2.09741
   A16        2.10045  -0.00036   0.00000  -0.00141  -0.00141   2.09904
   A17        2.09714  -0.00005   0.00000  -0.00073  -0.00073   2.09641
   A18        2.08560   0.00041   0.00000   0.00214   0.00214   2.08773
   A19        2.12095   0.00000   0.00000   0.00001   0.00001   2.12096
   A20        2.12143   0.00003   0.00000   0.00017   0.00017   2.12160
   A21        2.04081  -0.00003   0.00000  -0.00018  -0.00018   2.04063
   A22        2.00493  -0.00114   0.00000  -0.00454  -0.00454   2.00040
   A23        2.21485  -0.00129   0.00000  -0.00515  -0.00515   2.20970
   A24        2.06340   0.00243   0.00000   0.00969   0.00969   2.07309
   A25        1.81776  -0.00071   0.00000  -0.00441  -0.00441   1.81335
    D1        0.00000  -0.00000   0.00000  -0.00001  -0.00001  -0.00001
    D2       -3.14159  -0.00000   0.00000  -0.00000  -0.00000  -3.14159
    D3       -3.14159  -0.00000   0.00000  -0.00001  -0.00001   3.14159
    D4        0.00001   0.00000   0.00000  -0.00000  -0.00000   0.00001
    D5        0.00001   0.00000   0.00000   0.00000   0.00000   0.00001
    D6       -3.14159   0.00000   0.00000   0.00000   0.00000  -3.14159
    D7       -3.14159  -0.00000   0.00000  -0.00000  -0.00000  -3.14159
    D8        0.00000  -0.00000   0.00000  -0.00000  -0.00000   0.00000
    D9       -0.00001   0.00000   0.00000   0.00001   0.00001   0.00001
   D10        3.14159   0.00000   0.00000   0.00000   0.00000   3.14159
   D11        3.14158   0.00000   0.00000   0.00001   0.00001   3.14159
   D12       -0.00001  -0.00000   0.00000  -0.00000  -0.00000  -0.00001
   D13       -3.14158  -0.00000   0.00000  -0.00007  -0.00007   3.14153
   D14       -0.00002   0.00000   0.00000   0.00004   0.00004   0.00002
   D15        0.00001  -0.00000   0.00000  -0.00007  -0.00007  -0.00005
   D16        3.14158   0.00000   0.00000   0.00005   0.00005  -3.14156
   D17        0.00001  -0.00000   0.00000  -0.00001  -0.00001  -0.00000
   D18       -3.14159  -0.00000   0.00000  -0.00001  -0.00001   3.14159
   D19       -3.14159  -0.00000   0.00000  -0.00000  -0.00000  -3.14159
   D20        0.00000  -0.00000   0.00000  -0.00000  -0.00000   0.00000
   D21       -0.00000   0.00000   0.00000   0.00000   0.00000   0.00000
   D22        3.14159   0.00000   0.00000   0.00000   0.00000   3.14159
   D23        3.14159   0.00000   0.00000   0.00000   0.00000  -3.14159
   D24       -0.00000   0.00000   0.00000   0.00000   0.00000   0.00000
   D25       -0.00001   0.00000   0.00000   0.00000   0.00000  -0.00000
   D26        3.14159   0.00000   0.00000   0.00000   0.00000   3.14159
   D27        3.14159   0.00000   0.00000   0.00000   0.00000   3.14159
   D28       -0.00000   0.00000   0.00000   0.00000   0.00000  -0.00000
   D29       -3.14159  -0.00000   0.00000  -0.00000  -0.00000  -3.14159
   D30        0.00001  -0.00000   0.00000  -0.00000  -0.00000   0.00000
   D31        0.00000  -0.00000   0.00000  -0.00000  -0.00000   0.00000
   D32       -3.14159  -0.00000   0.00000  -0.00000  -0.00000  -3.14159
   D33        3.14144   0.00000   0.00000   0.00014   0.00014   3.14158
   D34       -0.00013   0.00000   0.00000   0.00004   0.00004  -0.00008
         Item               Value     Threshold  Converged?
 Maximum Force            0.011692     0.000450     NO 
 RMS     Force            0.002156     0.000300     NO 
 Maximum Displacement     0.036947     0.001800     NO 
 RMS     Displacement     0.009047     0.001200     NO 
 Predicted change in Energy=-3.006829D-04
 GradGradGradGradGradGradGradGradGradGradGradGradGradGradGradGradGradGrad

                          Input orientation:                          
 ---------------------------------------------------------------------
 Center     Atomic      Atomic             Coordinates (Angstroms)
 Number     Number       Type             X           Y           Z
 ---------------------------------------------------------------------
      1          6           0       -0.057758    1.261031   -0.000016
      2          6           0        0.665110    0.036314   -0.000033
      3          6           0       -0.005763   -1.217495   -0.000026
      4          6           0       -1.369526   -1.239228   -0.000010
      5          6           0       -2.113786   -0.018952    0.000003
      6          6           0       -1.420151    1.231387   -0.000002
      7          7           0       -3.444648   -0.045739    0.000018
      8          7           0        2.023257    0.109486   -0.000042
      9          8           0        2.656492   -1.096747    0.000019
     10          8           0        2.691791    1.118663   -0.000018
     11          1           0        0.483672    2.201747   -0.000018
     12          1           0        0.560100   -2.142224   -0.000039
     13          1           0       -1.897491   -2.188408   -0.000008
     14          1           0       -1.985441    2.158862    0.000005
     15          1           0       -3.989901    0.804392    0.000026
     16          1           0       -3.955793   -0.916768    0.000024
     17          1           0        3.605664   -0.863596   -0.000004
 ---------------------------------------------------------------------
                    Distance matrix (angstroms):
                    1          2          3          4          5
     1  C    0.000000
     2  C    1.422136   0.000000
     3  C    2.479072   1.422008   0.000000
     4  C    2.823478   2.401405   1.363936   0.000000
     5  C    2.421902   2.779445   2.424927   1.429335   0.000000
     6  C    1.362716   2.403437   2.827989   2.471134   1.429852
     7  N    3.630244   4.110577   3.633035   2.393856   1.331131
     8  N    2.378377   1.360117   2.424417   3.651028   4.139036
     9  O    3.595313   2.291164   2.664992   4.028539   4.890522
    10  O    2.753233   2.297589   3.568533   4.696163   4.938395
    11  H    1.085399   2.173020   3.454093   3.908279   3.417352
    12  H    3.458887   2.181068   1.084124   2.130460   3.414375
    13  H    3.909380   3.393569   2.126337   1.086135   2.180212
    14  H    2.126514   3.395678   3.913939   3.453457   2.181593
    15  H    3.958569   4.717951   4.467816   3.323063   2.048829
    16  H    4.465142   4.718168   3.961461   2.606292   2.049161
    17  H    4.234938   3.075174   3.628725   4.989350   5.781482
                    6          7          8          9         10
     6  C    0.000000
     7  N    2.393666   0.000000
     8  N    3.621563   5.470108   0.000000
     9  O    4.694596   6.191004   1.362346   0.000000
    10  O    4.113487   6.245936   1.210527   2.215691   0.000000
    11  H    2.136853   4.525803   2.597667   3.949836   2.459443
    12  H    3.911860   4.520317   2.685335   2.342623   3.895830
    13  H    3.452948   2.642863   4.544511   4.683000   5.656697
    14  H    1.086169   2.643776   4.502177   5.669792   4.791505
    15  H    2.604983   1.009962   6.053177   6.912950   6.689079
    16  H    3.323259   1.009931   6.066484   6.614734   6.952219
    17  H    5.444976   7.097590   1.857660   0.977387   2.182776
                   11         12         13         14         15
    11  H    0.000000
    12  H    4.344643   0.000000
    13  H    4.994336   2.458025   0.000000
    14  H    2.469486   4.997912   4.348160   0.000000
    15  H    4.686732   5.420799   3.651716   2.419184   0.000000
    16  H    5.425310   4.679213   2.419437   3.652642   1.721498
    17  H    4.375289   3.303081   5.660374   6.355762   7.776553
                   16         17
    16  H    0.000000
    17  H    7.561644   0.000000
 Stoichiometry    C6H7N2O2(1+)
 Framework group  C1[X(C6H7N2O2)]
 Deg. of freedom    45
 Full point group                 C1      NOp   1
 Largest Abelian subgroup         C1      NOp   1
 Largest concise Abelian subgroup C1      NOp   1
                         Standard orientation:                         
 ---------------------------------------------------------------------
 Center     Atomic      Atomic             Coordinates (Angstroms)
 Number     Number       Type             X           Y           Z
 ---------------------------------------------------------------------
      1          6           0        0.054903    1.261148    0.000007
      2          6           0       -0.667239    0.036002    0.000023
      3          6           0        0.004375   -1.217409    0.000017
      4          6           0        1.368151   -1.238334    0.000001
      5          6           0        2.111689   -0.017618   -0.000012
      6          6           0        1.417313    1.232310   -0.000007
      7          7           0        3.442566   -0.043617   -0.000027
      8          7           0       -2.025430    0.108370    0.000033
      9          8           0       -2.657951   -1.098238   -0.000029
     10          8           0       -2.694562    1.117151    0.000009
     11          1           0       -0.487084    2.201542    0.000009
     12          1           0       -0.560940   -2.142473    0.000030
     13          1           0        1.896678   -2.187202   -0.000001
     14          1           0        1.982054    2.160120   -0.000014
     15          1           0        3.987315    0.806837   -0.000035
     16          1           0        3.954227   -0.914343   -0.000033
     17          1           0       -3.607260   -0.865649   -0.000005
 ---------------------------------------------------------------------
 Rotational constants (GHZ):      3.7651785      0.8275622      0.6784444
 Standard basis: 6-31+G(d,p) (6D, 7F)
 There are   225 symmetry adapted cartesian basis functions of A   symmetry.
 There are   225 symmetry adapted basis functions of A   symmetry.
   225 basis functions,   369 primitive gaussians,   225 cartesian basis functions
    36 alpha electrons       36 beta electrons
       nuclear repulsion energy       509.5879631043 Hartrees.
 NAtoms=   17 NActive=   17 NUniq=   17 SFac= 1.00D+00 NAtFMM=   60 NAOKFM=F Big=F
 Integral buffers will be    131072 words long.
 Raffenetti 2 integral format.
 Two-electron integral symmetry is turned on.
 R6APFD:  NTU= -4 IXU= 1 FactS= 1.050
 Nuclear repulsion after empirical dispersion term =      509.5787975913 Hartrees.
 One-electron integrals computed using PRISM.
 NBasis=   225 RedAO= T EigKep=  3.34D-06  NBF=   225
 NBsUse=   225 1.00D-06 EigRej= -1.00D+00 NBFU=   225
 Initial guess from the checkpoint file:  "APFDPNAyang.chk"
 B after Tr=     0.000000    0.000000    0.000000
         Rot=    1.000000   -0.000001   -0.000002   -0.000180 Ang=  -0.02 deg.
 ExpMin= 4.38D-02 ExpMax= 5.48D+03 ExpMxC= 8.25D+02 IAcc=2 IRadAn=         4 AccDes= 0.00D+00
 Harris functional with IExCor= 3731 and IRadAn=       4 diagonalized for initial guess.
 HarFok:  IExCor= 3731 AccDes= 0.00D+00 IRadAn=         4 IDoV= 1 UseB2=F ITyADJ=14
 ICtDFT=  3500011 ScaDFX=  1.000000  1.000000  1.000000  1.000000
 FoFCou: FMM=F IPFlag=           0 FMFlag=      100000 FMFlg1=           0
         NFxFlg=           0 DoJE=T BraDBF=F KetDBF=T FulRan=T
         wScrn=  0.000000 ICntrl=     500 IOpCl=  0 I1Cent=   200000004 NGrid=           0
         NMat0=    1 NMatS0=      1 NMatT0=    0 NMatD0=    1 NMtDS0=    0 NMtDT0=    0
 Petite list used in FoFCou.
 Keep R1 ints in memory in canonical form, NReq=329175655.
 Requested convergence on RMS density matrix=1.00D-08 within 128 cycles.
 Requested convergence on MAX density matrix=1.00D-06.
 Requested convergence on             energy=1.00D-06.
 No special actions if energy rises.
 SCF Done:  E(RAPFD) =  -492.100970830     A.U. after   12 cycles
            NFock= 12  Conv=0.47D-08     -V/T= 2.0088
 R6APFD:  NTU= -4 IXU= 1 FactS= 1.050
 Calling FoFJK, ICntrl=      2127 FMM=F ISym2X=0 I1Cent= 0 IOpClX= 0 NMat=1 NMatS=1 NMatT=0.
 ***** Axes restored to original set *****
 -------------------------------------------------------------------
 Center     Atomic                   Forces (Hartrees/Bohr)
 Number     Number              X              Y              Z
 -------------------------------------------------------------------
      1        6          -0.000185970    0.000023981   -0.000001301
      2        6          -0.000776227    0.000223658   -0.000001278
      3        6          -0.000052190    0.000038119   -0.000000955
      4        6          -0.000111240   -0.000187057    0.000000130
      5        6          -0.000376237    0.000051756   -0.000000195
      6        6          -0.000177378    0.000206217    0.000000062
      7        7          -0.000082797   -0.000028568    0.000000042
      8        7           0.001863866   -0.001774111    0.000010536
      9        8           0.000249411    0.003793225   -0.000003668
     10        8          -0.000102135   -0.001234980   -0.000004099
     11        1          -0.000096702   -0.000103255    0.000000018
     12        1          -0.000178660    0.000060567    0.000000030
     13        1          -0.000014959    0.000030345    0.000000124
     14        1          -0.000030764   -0.000039340    0.000000304
     15        1          -0.000150555   -0.000049487    0.000000019
     16        1          -0.000157647    0.000039732   -0.000000031
     17        1           0.000380187   -0.001050801    0.000000262
 -------------------------------------------------------------------
 Cartesian Forces:  Max     0.003793225 RMS     0.000699196

 GradGradGradGradGradGradGradGradGradGradGradGradGradGradGradGradGradGrad
 Berny optimization.
 Using GEDIIS/GDIIS optimizer.
 FormGI is forming the generalized inverse of G from B-inverse, IUseBI=4.
 GSVD:  received Info=                   1 from GESDD.
 Internal  Forces:  Max     0.002372067 RMS     0.000543020
 Search for a local minimum.
 Step number   2 out of a maximum of   86
 All quantities printed in internal units (Hartrees-Bohrs-Radians)
 Mixed Optimization -- En-DIIS/RFO-DIIS
 Update second derivatives using D2CorX and points    1    2
 DE= -2.91D-04 DEPred=-3.01D-04 R= 9.67D-01
 TightC=F SS=  1.41D+00  RLast= 3.45D-02 DXNew= 5.0454D-01 1.0340D-01
 Trust test= 9.67D-01 RLast= 3.45D-02 DXMaxT set to 3.00D-01
 ITU=  1  0
 Use linear search instead of GDIIS.
     Eigenvalues ---    0.01652   0.01699   0.01815   0.01918   0.01988
     Eigenvalues ---    0.01997   0.02035   0.02130   0.02134   0.02142
     Eigenvalues ---    0.02258   0.02276   0.02540   0.02540   0.15887
     Eigenvalues ---    0.16000   0.16000   0.16000   0.16000   0.16000
     Eigenvalues ---    0.16233   0.21997   0.22941   0.24145   0.24762
     Eigenvalues ---    0.25000   0.25000   0.26617   0.35411   0.35422
     Eigenvalues ---    0.35609   0.35797   0.38011   0.39556   0.41327
     Eigenvalues ---    0.41738   0.43298   0.45773   0.45877   0.48880
     Eigenvalues ---    0.51371   0.51849   0.56240   0.62010   0.93302
 RFO step:  Lambda=-6.67246742D-05 EMin= 1.65233381D-02
 Quartic linear search produced a step of -0.03673.
 Iteration  1 RMS(Cart)=  0.00310850 RMS(Int)=  0.00000679
 Iteration  2 RMS(Cart)=  0.00001028 RMS(Int)=  0.00000011
 Iteration  3 RMS(Cart)=  0.00000000 RMS(Int)=  0.00000011
 Variable       Old X    -DE/DX   Delta X   Delta X   Delta X     New X
                                 (Linear)    (Quad)   (Total)
    R1        2.68745   0.00052   0.00023   0.00032   0.00054   2.68799
    R2        2.57516   0.00055   0.00015   0.00044   0.00058   2.57574
    R3        2.05111  -0.00014  -0.00013   0.00016   0.00003   2.05114
    R4        2.68721   0.00042   0.00020   0.00016   0.00036   2.68757
    R5        2.57025   0.00237   0.00041   0.00277   0.00318   2.57342
    R6        2.57747   0.00055   0.00015   0.00042   0.00057   2.57803
    R7        2.04870  -0.00015  -0.00014   0.00016   0.00003   2.04872
    R8        2.70105   0.00022   0.00017  -0.00018  -0.00001   2.70104
    R9        2.05250  -0.00002  -0.00009   0.00033   0.00024   2.05273
   R10        2.70203   0.00015   0.00017  -0.00037  -0.00020   2.70183
   R11        2.51547   0.00039   0.00033  -0.00068  -0.00035   2.51512
   R12        2.05256  -0.00002  -0.00009   0.00034   0.00024   2.05280
   R13        1.90855   0.00004   0.00009  -0.00026  -0.00017   1.90838
   R14        1.90849   0.00004   0.00009  -0.00026  -0.00018   1.90832
   R15        2.57446  -0.00213   0.00074  -0.00705  -0.00632   2.56814
   R16        2.28756  -0.00109   0.00044  -0.00287  -0.00243   2.28513
   R17        1.84699   0.00012   0.00018  -0.00053  -0.00034   1.84665
    A1        2.08225   0.00046   0.00005   0.00170   0.00175   2.08400
    A2        2.08614  -0.00020  -0.00003  -0.00066  -0.00069   2.08545
    A3        2.11480  -0.00026  -0.00002  -0.00104  -0.00107   2.11373
    A4        2.11708  -0.00082  -0.00013  -0.00268  -0.00280   2.11428
    A5        2.05018   0.00030   0.00014   0.00061   0.00075   2.05093
    A6        2.11593   0.00052  -0.00001   0.00207   0.00206   2.11798
    A7        2.07804   0.00038   0.00006   0.00131   0.00137   2.07941
    A8        2.10115  -0.00006  -0.00006   0.00022   0.00016   2.10131
    A9        2.10400  -0.00032  -0.00000  -0.00153  -0.00153   2.10247
   A10        2.10254   0.00023   0.00005   0.00068   0.00073   2.10326
   A11        2.09435  -0.00008   0.00003  -0.00036  -0.00033   2.09401
   A12        2.08630  -0.00015  -0.00008  -0.00032  -0.00039   2.08591
   A13        2.08743  -0.00039  -0.00009  -0.00131  -0.00140   2.08603
   A14        2.09835   0.00018   0.00004   0.00061   0.00065   2.09900
   A15        2.09741   0.00021   0.00005   0.00070   0.00075   2.09816
   A16        2.09904   0.00015   0.00005   0.00029   0.00034   2.09938
   A17        2.09641  -0.00003   0.00003  -0.00009  -0.00007   2.09635
   A18        2.08773  -0.00012  -0.00008  -0.00020  -0.00028   2.08745
   A19        2.12096   0.00009  -0.00000   0.00054   0.00054   2.12150
   A20        2.12160   0.00011  -0.00001   0.00067   0.00066   2.12226
   A21        2.04063  -0.00020   0.00001  -0.00121  -0.00121   2.03942
   A22        2.00040   0.00130   0.00017   0.00434   0.00451   2.00490
   A23        2.20970   0.00003   0.00019  -0.00064  -0.00045   2.20925
   A24        2.07309  -0.00134  -0.00036  -0.00371  -0.00406   2.06903
   A25        1.81335   0.00206   0.00016   0.01174   0.01190   1.82525
    D1       -0.00001   0.00000   0.00000   0.00002   0.00002   0.00001
    D2       -3.14159   0.00000   0.00000   0.00000   0.00000  -3.14159
    D3        3.14159   0.00000   0.00000   0.00001   0.00001  -3.14159
    D4        0.00001  -0.00000   0.00000  -0.00001  -0.00001  -0.00000
    D5        0.00001  -0.00000  -0.00000  -0.00001  -0.00001  -0.00001
    D6       -3.14159  -0.00000  -0.00000  -0.00001  -0.00001   3.14158
    D7       -3.14159   0.00000   0.00000   0.00000   0.00000  -3.14159
    D8        0.00000  -0.00000   0.00000  -0.00000  -0.00000   0.00000
    D9        0.00001  -0.00000  -0.00000  -0.00002  -0.00002  -0.00001
   D10        3.14159  -0.00000  -0.00000  -0.00001  -0.00001   3.14158
   D11        3.14159   0.00000  -0.00000   0.00000   0.00000   3.14159
   D12       -0.00001   0.00000   0.00000   0.00001   0.00001  -0.00000
   D13        3.14153   0.00000   0.00000   0.00013   0.00013  -3.14153
   D14        0.00002  -0.00000  -0.00000  -0.00011  -0.00011  -0.00009
   D15       -0.00005   0.00000   0.00000   0.00011   0.00011   0.00006
   D16       -3.14156  -0.00000  -0.00000  -0.00013  -0.00013   3.14150
   D17       -0.00000   0.00000   0.00000   0.00001   0.00001   0.00000
   D18        3.14159   0.00000   0.00000   0.00001   0.00001  -3.14159
   D19       -3.14159  -0.00000   0.00000  -0.00000  -0.00000  -3.14159
   D20        0.00000   0.00000   0.00000   0.00000   0.00000   0.00000
   D21        0.00000   0.00000  -0.00000   0.00000   0.00000   0.00000
   D22        3.14159   0.00000  -0.00000   0.00000   0.00000  -3.14159
   D23       -3.14159  -0.00000  -0.00000   0.00000   0.00000  -3.14159
   D24        0.00000   0.00000  -0.00000   0.00000   0.00000   0.00000
   D25       -0.00000   0.00000  -0.00000   0.00000   0.00000  -0.00000
   D26        3.14159   0.00000  -0.00000   0.00000   0.00000  -3.14159
   D27        3.14159  -0.00000  -0.00000   0.00000   0.00000   3.14159
   D28       -0.00000   0.00000  -0.00000   0.00000   0.00000   0.00000
   D29       -3.14159  -0.00000   0.00000  -0.00000  -0.00000  -3.14159
   D30        0.00000  -0.00000   0.00000  -0.00000  -0.00000   0.00000
   D31        0.00000   0.00000   0.00000  -0.00000  -0.00000  -0.00000
   D32       -3.14159  -0.00000   0.00000  -0.00000  -0.00000  -3.14159
   D33        3.14158  -0.00000  -0.00001  -0.00008  -0.00009   3.14150
   D34       -0.00008   0.00000  -0.00000   0.00013   0.00013   0.00005
         Item               Value     Threshold  Converged?
 Maximum Force            0.002372     0.000450     NO 
 RMS     Force            0.000543     0.000300     NO 
 Maximum Displacement     0.015595     0.001800     NO 
 RMS     Displacement     0.003101     0.001200     NO 
 Predicted change in Energy=-3.379843D-05
 GradGradGradGradGradGradGradGradGradGradGradGradGradGradGradGradGradGrad

                          Input orientation:                          
 ---------------------------------------------------------------------
 Center     Atomic      Atomic             Coordinates (Angstroms)
 Number     Number       Type             X           Y           Z
 ---------------------------------------------------------------------
      1          6           0       -0.058342    1.259486    0.000008
      2          6           0        0.665997    0.035305    0.000022
      3          6           0       -0.007124   -1.217518    0.000013
      4          6           0       -1.371194   -1.238782    0.000003
      5          6           0       -2.115916   -0.018795   -0.000002
      6          6           0       -1.421062    1.230749   -0.000001
      7          7           0       -3.446599   -0.045220   -0.000009
      8          7           0        2.025798    0.109021    0.000034
      9          8           0        2.663299   -1.091179   -0.000035
     10          8           0        2.692834    1.117647   -0.000052
     11          1           0        0.482725    2.200430    0.000011
     12          1           0        0.557006   -2.143321    0.000015
     13          1           0       -1.899232   -2.188064    0.000000
     14          1           0       -1.985735    2.158749   -0.000004
     15          1           0       -3.992035    0.804684   -0.000013
     16          1           0       -3.958507   -0.915693   -0.000008
     17          1           0        3.613916   -0.864773   -0.000105
 ---------------------------------------------------------------------
                    Distance matrix (angstroms):
                    1          2          3          4          5
     1  C    0.000000
     2  C    1.422423   0.000000
     3  C    2.477533   1.422201   0.000000
     4  C    2.822220   2.402800   1.364236   0.000000
     5  C    2.422315   2.782439   2.425684   1.429329   0.000000
     6  C    1.363024   2.405183   2.827230   2.470035   1.429748
     7  N    3.630778   4.113385   3.633768   2.394138   1.330946
     8  N    2.380589   1.361797   2.427442   3.654604   4.143685
     9  O    3.596242   2.293073   2.673410   4.037192   4.898051
    10  O    2.754830   2.297723   3.569701   4.697774   4.941212
    11  H    1.085417   2.172869   3.452871   3.907070   3.417293
    12  H    3.457998   2.181350   1.084138   2.129823   3.414399
    13  H    3.908258   3.394668   2.126508   1.086260   2.180065
    14  H    2.126857   3.397161   3.913321   3.452663   2.181432
    15  H    3.959898   4.721145   4.468649   3.323336   2.048888
    16  H    4.465725   4.721275   3.962894   2.607408   2.049286
    17  H    4.242399   3.082266   3.638180   4.999120   5.791947
                    6          7          8          9         10
     6  C    0.000000
     7  N    2.393929   0.000000
     8  N    3.624792   5.474570   0.000000
     9  O    4.698229   6.198781   1.359003   0.000000
    10  O    4.115451   6.248592   1.209241   2.209023   0.000000
    11  H    2.136513   4.525763   2.599051   3.948367   2.461098
    12  H    3.911151   4.520053   2.688940   2.354458   3.898163
    13  H    3.452091   2.643128   4.547798   4.692532   5.658162
    14  H    1.086297   2.644165   4.504862   5.672350   4.793006
    15  H    2.606038   1.009870   6.057909   6.920100   6.692191
    16  H    3.323529   1.009838   6.071404   6.624132   6.955201
    17  H    5.453643   7.107921   1.862900   0.977206   2.185950
                   11         12         13         14         15
    11  H    0.000000
    12  H    4.344387   0.000000
    13  H    4.993256   2.456646   0.000000
    14  H    2.468812   4.997334   4.347674   0.000000
    15  H    4.687386   5.420748   3.651899   2.420482   0.000000
    16  H    5.425382   4.679416   2.420649   3.652948   1.720704
    17  H    4.381761   3.313516   5.669736   6.363787   7.787014
                   16         17
    16  H    0.000000
    17  H    7.572595   0.000000
 Stoichiometry    C6H7N2O2(1+)
 Framework group  C1[X(C6H7N2O2)]
 Deg. of freedom    45
 Full point group                 C1      NOp   1
 Largest Abelian subgroup         C1      NOp   1
 Largest concise Abelian subgroup C1      NOp   1
                         Standard orientation:                         
 ---------------------------------------------------------------------
 Center     Atomic      Atomic             Coordinates (Angstroms)
 Number     Number       Type             X           Y           Z
 ---------------------------------------------------------------------
      1          6           0        0.055759    1.259347   -0.000013
      2          6           0       -0.667724    0.034659   -0.000027
      3          6           0        0.006273   -1.217692   -0.000018
      4          6           0        1.370358   -1.238003   -0.000008
      5          6           0        2.114226   -0.017495   -0.000003
      6          6           0        1.418499    1.231563   -0.000004
      7          7           0        3.444928   -0.042990    0.000004
      8          7           0       -2.027575    0.107425   -0.000039
      9          8           0       -2.664238   -1.093221    0.000030
     10          8           0       -2.695317    1.115584    0.000047
     11          1           0       -0.485965    2.199913   -0.000016
     12          1           0       -0.557209   -2.143890   -0.000020
     13          1           0        1.899060   -2.186916   -0.000005
     14          1           0        1.982524    2.159958   -0.000001
     15          1           0        3.989770    0.807295    0.000008
     16          1           0        3.957445   -0.913105    0.000003
     17          1           0       -3.615012   -0.867479    0.000100
 ---------------------------------------------------------------------
 Rotational constants (GHZ):      3.7740716      0.8257940      0.6775428
 Standard basis: 6-31+G(d,p) (6D, 7F)
 There are   225 symmetry adapted cartesian basis functions of A   symmetry.
 There are   225 symmetry adapted basis functions of A   symmetry.
   225 basis functions,   369 primitive gaussians,   225 cartesian basis functions
    36 alpha electrons       36 beta electrons
       nuclear repulsion energy       509.4970864475 Hartrees.
 NAtoms=   17 NActive=   17 NUniq=   17 SFac= 1.00D+00 NAtFMM=   60 NAOKFM=F Big=F
 Integral buffers will be    131072 words long.
 Raffenetti 2 integral format.
 Two-electron integral symmetry is turned on.
 R6APFD:  NTU= -4 IXU= 1 FactS= 1.050
 Nuclear repulsion after empirical dispersion term =      509.4879423660 Hartrees.
 One-electron integrals computed using PRISM.
 NBasis=   225 RedAO= T EigKep=  3.34D-06  NBF=   225
 NBsUse=   225 1.00D-06 EigRej= -1.00D+00 NBFU=   225
 Initial guess from the checkpoint file:  "APFDPNAyang.chk"
 B after Tr=    -0.000000   -0.000000   -0.000000
         Rot=    1.000000    0.000000   -0.000000    0.000065 Ang=   0.01 deg.
 Keep R1 ints in memory in canonical form, NReq=329175655.
 Requested convergence on RMS density matrix=1.00D-08 within 128 cycles.
 Requested convergence on MAX density matrix=1.00D-06.
 Requested convergence on             energy=1.00D-06.
 No special actions if energy rises.
 SCF Done:  E(RAPFD) =  -492.100999990     A.U. after   11 cycles
            NFock= 11  Conv=0.34D-08     -V/T= 2.0088
 R6APFD:  NTU= -4 IXU= 1 FactS= 1.050
 Calling FoFJK, ICntrl=      2127 FMM=F ISym2X=0 I1Cent= 0 IOpClX= 0 NMat=1 NMatS=1 NMatT=0.
 ***** Axes restored to original set *****
 -------------------------------------------------------------------
 Center     Atomic                   Forces (Hartrees/Bohr)
 Number     Number              X              Y              Z
 -------------------------------------------------------------------
      1        6           0.000251335    0.000148044    0.000002067
      2        6          -0.000781219   -0.000127872    0.000003566
      3        6           0.000373062   -0.000061099    0.000001848
      4        6          -0.000092685   -0.000195195   -0.000000234
      5        6           0.000185086   -0.000000235    0.000000227
      6        6          -0.000070801    0.000177549   -0.000000193
      7        7          -0.000371832   -0.000023731    0.000000016
      8        7           0.001564109   -0.001571406   -0.000020428
      9        8          -0.001169322    0.000058300    0.000005332
     10        8           0.000281506    0.001372493    0.000007727
     11        1          -0.000095225   -0.000074890   -0.000000078
     12        1          -0.000028165    0.000055822    0.000000174
     13        1           0.000068432    0.000080783   -0.000000320
     14        1           0.000076744   -0.000081889   -0.000000383
     15        1          -0.000100736    0.000078083   -0.000000008
     16        1          -0.000096486   -0.000089249   -0.000000026
     17        1           0.000006198    0.000254493    0.000000712
 -------------------------------------------------------------------
 Cartesian Forces:  Max     0.001571406 RMS     0.000431633

 GradGradGradGradGradGradGradGradGradGradGradGradGradGradGradGradGradGrad
 Berny optimization.
 Using GEDIIS/GDIIS optimizer.
 FormGI is forming the generalized inverse of G from B-inverse, IUseBI=4.
 GSVD:  received Info=                   1 from GESDD.
 Internal  Forces:  Max     0.001297873 RMS     0.000268832
 Search for a local minimum.
 Step number   3 out of a maximum of   86
 All quantities printed in internal units (Hartrees-Bohrs-Radians)
 Mixed Optimization -- En-DIIS/RFO-DIIS
 Swapping is turned off.
 Update second derivatives using D2CorX and points    1    2    3
 DE= -2.92D-05 DEPred=-3.38D-05 R= 8.63D-01
 TightC=F SS=  1.41D+00  RLast= 1.62D-02 DXNew= 5.0454D-01 4.8726D-02
 Trust test= 8.63D-01 RLast= 1.62D-02 DXMaxT set to 3.00D-01
 ITU=  1  1  0
     Eigenvalues ---    0.01652   0.01699   0.01815   0.01919   0.01988
     Eigenvalues ---    0.01998   0.02036   0.02130   0.02134   0.02142
     Eigenvalues ---    0.02259   0.02276   0.02540   0.02540   0.15382
     Eigenvalues ---    0.16000   0.16000   0.16000   0.16000   0.16005
     Eigenvalues ---    0.16361   0.21995   0.22763   0.23194   0.24902
     Eigenvalues ---    0.25000   0.25082   0.34546   0.35193   0.35422
     Eigenvalues ---    0.35599   0.35753   0.36003   0.38967   0.39575
     Eigenvalues ---    0.41354   0.42207   0.45773   0.45873   0.48881
     Eigenvalues ---    0.51380   0.51863   0.56493   0.60731   1.02976
 En-DIIS/RFO-DIIS IScMMF=        0 using points:     3    2
 RFO step:  Lambda=-7.43695256D-06.
 DidBck=F Rises=F RFO-DIIS coefs:    0.88055    0.11945
 Iteration  1 RMS(Cart)=  0.00118792 RMS(Int)=  0.00000131
 Iteration  2 RMS(Cart)=  0.00000146 RMS(Int)=  0.00000006
 Iteration  3 RMS(Cart)=  0.00000000 RMS(Int)=  0.00000006
 Variable       Old X    -DE/DX   Delta X   Delta X   Delta X     New X
                                 (Linear)    (Quad)   (Total)
    R1        2.68799   0.00004  -0.00006   0.00018   0.00012   2.68811
    R2        2.57574   0.00020  -0.00007   0.00047   0.00040   2.57614
    R3        2.05114  -0.00011  -0.00000  -0.00025  -0.00026   2.05088
    R4        2.68757  -0.00007  -0.00004  -0.00009  -0.00013   2.68744
    R5        2.57342   0.00069  -0.00038   0.00196   0.00158   2.57500
    R6        2.57803   0.00021  -0.00007   0.00048   0.00041   2.57845
    R7        2.04872  -0.00006  -0.00000  -0.00013  -0.00014   2.04859
    R8        2.70104   0.00020   0.00000   0.00043   0.00043   2.70147
    R9        2.05273  -0.00010  -0.00003  -0.00018  -0.00021   2.05252
   R10        2.70183   0.00023   0.00002   0.00044   0.00047   2.70230
   R11        2.51512   0.00057   0.00004   0.00073   0.00077   2.51589
   R12        2.05280  -0.00011  -0.00003  -0.00020  -0.00023   2.05258
   R13        1.90838   0.00012   0.00002   0.00018   0.00020   1.90858
   R14        1.90832   0.00012   0.00002   0.00018   0.00020   1.90852
   R15        2.56814  -0.00082   0.00075  -0.00316  -0.00241   2.56574
   R16        2.28513   0.00130   0.00029   0.00048   0.00077   2.28591
   R17        1.84665   0.00006   0.00004  -0.00000   0.00004   1.84669
    A1        2.08400  -0.00003  -0.00021   0.00031   0.00010   2.08410
    A2        2.08545   0.00006   0.00008   0.00013   0.00022   2.08567
    A3        2.11373  -0.00003   0.00013  -0.00044  -0.00032   2.11342
    A4        2.11428   0.00006   0.00033  -0.00057  -0.00023   2.11405
    A5        2.05093   0.00021  -0.00009   0.00094   0.00085   2.05178
    A6        2.11798  -0.00027  -0.00025  -0.00038  -0.00062   2.11736
    A7        2.07941   0.00002  -0.00016   0.00038   0.00022   2.07963
    A8        2.10131  -0.00001  -0.00002   0.00002   0.00000   2.10131
    A9        2.10247  -0.00001   0.00018  -0.00040  -0.00022   2.10225
   A10        2.10326   0.00003  -0.00009   0.00034   0.00025   2.10352
   A11        2.09401  -0.00004   0.00004  -0.00026  -0.00022   2.09379
   A12        2.08591   0.00000   0.00005  -0.00007  -0.00003   2.08588
   A13        2.08603  -0.00014   0.00017  -0.00081  -0.00065   2.08539
   A14        2.09900   0.00006  -0.00008   0.00034   0.00027   2.09926
   A15        2.09816   0.00009  -0.00009   0.00047   0.00038   2.09854
   A16        2.09938   0.00006  -0.00004   0.00035   0.00031   2.09970
   A17        2.09635  -0.00006   0.00001  -0.00030  -0.00029   2.09605
   A18        2.08745  -0.00000   0.00003  -0.00005  -0.00002   2.08743
   A19        2.12150   0.00002  -0.00006   0.00028   0.00021   2.12172
   A20        2.12226   0.00003  -0.00008   0.00032   0.00024   2.12250
   A21        2.03942  -0.00005   0.00014  -0.00060  -0.00046   2.03897
   A22        2.00490  -0.00082  -0.00054  -0.00170  -0.00224   2.00267
   A23        2.20925  -0.00018   0.00005  -0.00077  -0.00072   2.20854
   A24        2.06903   0.00101   0.00049   0.00247   0.00295   2.07198
   A25        1.82525  -0.00045  -0.00142   0.00070  -0.00072   1.82453
    D1        0.00001  -0.00000  -0.00000  -0.00003  -0.00003  -0.00002
    D2       -3.14159  -0.00000  -0.00000  -0.00001  -0.00001   3.14159
    D3       -3.14159  -0.00000  -0.00000  -0.00001  -0.00001   3.14158
    D4       -0.00000   0.00000   0.00000   0.00001   0.00001   0.00001
    D5       -0.00001   0.00000   0.00000   0.00001   0.00001   0.00001
    D6        3.14158   0.00000   0.00000   0.00002   0.00002  -3.14158
    D7       -3.14159  -0.00000  -0.00000  -0.00000  -0.00000   3.14159
    D8        0.00000   0.00000   0.00000  -0.00000  -0.00000   0.00000
    D9       -0.00001   0.00000   0.00000   0.00003   0.00003   0.00002
   D10        3.14158   0.00000   0.00000   0.00002   0.00002  -3.14158
   D11        3.14159   0.00000  -0.00000   0.00000   0.00000  -3.14159
   D12       -0.00000  -0.00000  -0.00000  -0.00001  -0.00001  -0.00001
   D13       -3.14153  -0.00001  -0.00002  -0.00020  -0.00021   3.14145
   D14       -0.00009   0.00000   0.00001   0.00019   0.00020   0.00011
   D15        0.00006  -0.00000  -0.00001  -0.00017  -0.00019  -0.00013
   D16        3.14150   0.00001   0.00002   0.00021   0.00023  -3.14146
   D17        0.00000  -0.00000  -0.00000  -0.00001  -0.00001  -0.00001
   D18       -3.14159  -0.00000  -0.00000  -0.00002  -0.00002   3.14158
   D19       -3.14159  -0.00000   0.00000  -0.00000  -0.00000  -3.14159
   D20        0.00000  -0.00000  -0.00000  -0.00000  -0.00000  -0.00000
   D21        0.00000  -0.00000  -0.00000  -0.00000  -0.00000  -0.00000
   D22       -3.14159  -0.00000  -0.00000  -0.00000  -0.00000   3.14159
   D23       -3.14159   0.00000  -0.00000  -0.00000  -0.00000  -3.14159
   D24        0.00000   0.00000  -0.00000  -0.00000  -0.00000   0.00000
   D25       -0.00000   0.00000  -0.00000   0.00000   0.00000   0.00000
   D26       -3.14159  -0.00000  -0.00000  -0.00000  -0.00000   3.14159
   D27        3.14159   0.00000  -0.00000   0.00000   0.00000  -3.14159
   D28        0.00000  -0.00000  -0.00000  -0.00000  -0.00000  -0.00000
   D29       -3.14159   0.00000   0.00000  -0.00000  -0.00000  -3.14159
   D30        0.00000  -0.00000   0.00000  -0.00000  -0.00000   0.00000
   D31       -0.00000  -0.00000   0.00000   0.00000   0.00000   0.00000
   D32       -3.14159  -0.00000   0.00000  -0.00000  -0.00000  -3.14159
   D33        3.14150   0.00001   0.00001   0.00022   0.00023  -3.14146
   D34        0.00005  -0.00000  -0.00002  -0.00014  -0.00015  -0.00010
         Item               Value     Threshold  Converged?
 Maximum Force            0.001298     0.000450     NO 
 RMS     Force            0.000269     0.000300     YES
 Maximum Displacement     0.004583     0.001800     NO 
 RMS     Displacement     0.001187     0.001200     YES
 Predicted change in Energy=-5.422764D-06
 GradGradGradGradGradGradGradGradGradGradGradGradGradGradGradGradGradGrad

                          Input orientation:                          
 ---------------------------------------------------------------------
 Center     Atomic      Atomic             Coordinates (Angstroms)
 Number     Number       Type             X           Y           Z
 ---------------------------------------------------------------------
      1          6           0       -0.058180    1.260006   -0.000035
      2          6           0        0.666628    0.036029   -0.000074
      3          6           0       -0.006302   -1.216816   -0.000054
      4          6           0       -1.370584   -1.238550   -0.000021
      5          6           0       -2.116146   -0.018810    0.000007
      6          6           0       -1.421106    1.230912   -0.000001
      7          7           0       -3.447229   -0.045680    0.000039
      8          7           0        2.027300    0.109116   -0.000110
      9          8           0        2.660926   -1.091695    0.000034
     10          8           0        2.694338    1.118230   -0.000004
     11          1           0        0.482279    2.201143   -0.000043
     12          1           0        0.557902   -2.142490   -0.000076
     13          1           0       -1.898030   -2.188032   -0.000017
     14          1           0       -1.985687    2.158829    0.000020
     15          1           0       -3.993181    0.804019    0.000058
     16          1           0       -3.959117   -0.916287    0.000045
     17          1           0        3.612017   -0.867198    0.000111
 ---------------------------------------------------------------------
                    Distance matrix (angstroms):
                    1          2          3          4          5
     1  C    0.000000
     2  C    1.422486   0.000000
     3  C    2.477366   1.422131   0.000000
     4  C    2.822266   2.403077   1.364455   0.000000
     5  C    2.422931   2.783314   2.426244   1.429555   0.000000
     6  C    1.363237   2.405490   2.827197   2.469978   1.429995
     7  N    3.631868   4.114668   3.634768   2.394868   1.331354
     8  N    2.381968   1.362633   2.427681   3.655382   4.145420
     9  O    3.595001   2.291067   2.670161   4.034184   4.896070
    10  O    2.756167   2.298427   3.570140   4.698723   4.943037
    11  H    1.085280   2.172948   3.452702   3.906991   3.417602
    12  H    3.457823   2.181231   1.084066   2.129828   3.414754
    13  H    3.908198   3.394690   2.126475   1.086148   2.180160
    14  H    2.126774   3.397213   3.913176   3.452612   2.181543
    15  H    3.961333   4.722672   4.469786   3.324170   2.049466
    16  H    4.466941   4.722756   3.964223   2.608516   2.049880
    17  H    4.242092   3.080769   3.635171   4.996420   5.790648
                    6          7          8          9         10
     6  C    0.000000
     7  N    2.394756   0.000000
     8  N    3.626284   5.476717   0.000000
     9  O    4.696540   6.197072   1.357729   0.000000
    10  O    4.116987   6.250882   1.209649   2.210177   0.000000
    11  H    2.136404   4.526504   2.600705   3.948326   2.462906
    12  H    3.911051   4.520806   2.688654   2.350932   3.898289
    13  H    3.452048   2.643802   4.548088   4.688927   5.658729
    14  H    1.086177   2.644988   4.506150   5.670707   4.794318
    15  H    2.607261   1.009977   6.060453   6.918879   6.694897
    16  H    3.324449   1.009944   6.073602   6.622366   6.957566
    17  H    5.452925   7.106887   1.861321   0.977227   2.187249
                   11         12         13         14         15
    11  H    0.000000
    12  H    4.344291   0.000000
    13  H    4.993068   2.456354   0.000000
    14  H    2.468329   4.997118   4.347744   0.000000
    15  H    4.688465   5.421649   3.652674   2.421888   0.000000
    16  H    5.426266   4.680495   2.421862   3.653869   1.720644
    17  H    4.382918   3.309681   5.666147   6.363264   7.786656
                   16         17
    16  H    0.000000
    17  H    7.571293   0.000000
 Stoichiometry    C6H7N2O2(1+)
 Framework group  C1[X(C6H7N2O2)]
 Deg. of freedom    45
 Full point group                 C1      NOp   1
 Largest Abelian subgroup         C1      NOp   1
 Largest concise Abelian subgroup C1      NOp   1
                         Standard orientation:                         
 ---------------------------------------------------------------------
 Center     Atomic      Atomic             Coordinates (Angstroms)
 Number     Number       Type             X           Y           Z
 ---------------------------------------------------------------------
      1          6           0        0.055559    1.259738    0.000018
      2          6           0       -0.668237    0.035163    0.000057
[...]
 ! D28   D(7,5,6,14)             0.0002         -DE/DX =    0.0                 !
 ! D29   D(4,5,7,15)           180.0            -DE/DX =    0.0                 !
 ! D30   D(4,5,7,16)             0.0001         -DE/DX =    0.0                 !
 ! D31   D(6,5,7,15)             0.0            -DE/DX =    0.0                 !
 ! D32   D(6,5,7,16)          -180.0            -DE/DX =    0.0                 !
 ! D33   D(2,8,9,17)           179.9823         -DE/DX =    0.0                 !
 ! D34   D(10,8,9,17)            0.0128         -DE/DX =    0.0                 !
 --------------------------------------------------------------------------------
 GradGradGradGradGradGradGradGradGradGradGradGradGradGradGradGradGradGrad

 1\1\ WCSS.PL-BEM-QINLAB\Freq\RAPFD\6-31+G(d,p)\C6H7N2O2(1+)\PHZD\13-Ju
 n-2024\0\\#N Geom=AllCheck Guess=TCheck SCRF=Check GenChk RAPFD/6-31+G
 (d,p) Freq\\[No Title]\\1,1\C,-0.0579865445,1.2596548218,0.0000529437\
 C,0.6663547878,0.0356038718,0.0001240229\C,-0.0065450331,-1.217199409,
 0.0000863042\C,-1.3708474621,-1.2387195897,0.0000311699\C,-2.116132075
 7,-0.0188421235,-0.0000109862\C,-1.4209211327,1.2307587871,-0.00000046
 14\N,-3.4473177779,-0.0454696589,-0.0000600138\N,2.0273334588,0.108876
 6242,0.0001829139\O,2.6616754114,-1.0913268074,-0.000127745\O,2.693697
 02,1.1188226226,-0.0000879956\H,0.4825104779,2.2007414166,0.0000661677
 \H,0.5573134236,-2.1430195002,0.0001188051\H,-1.8983695125,-2.18811059
 92,0.0000224111\H,-1.9852421395,2.1587812811,-0.0000293486\H,-3.993093
 7933,0.8043839031,-0.0000904977\H,-3.9593286939,-0.9160433287,-0.00006
 77175\H,3.6127285856,-0.8661673117,-0.0003319727\\Version=ES64L-G09Rev
 E.01\State=1-A\HF=-492.1010061\RMSD=8.776e-09\RMSF=4.216e-05\ZeroPoint
 =0.1336232\Thermal=0.1420204\Dipole=-1.4016073,-0.4437939,-0.0000905\D
 ipoleDeriv=0.8377279,0.0150289,0.0000118,-0.466917,0.0290564,-0.000004
 3,0.0000135,0.0000005,-0.022978,-1.7967056,-0.1321717,0.0000406,0.0267
 768,-0.1007858,-0.0000039,0.0001195,-0.0000343,0.0533729,0.8538686,0.0
 775265,0.0000085,0.4815453,0.0818572,0.0000026,0.0000252,0.0000193,-0.
 0101808,-0.8484422,0.1016668,-0.0000072,0.7172328,-0.038049,0.000012,-
 0.0000716,-0.0000045,-0.154459,2.304302,0.0640679,0.0000419,0.0299405,
 0.3939506,-0.0000014,0.0000779,0.0000055,0.2484188,-0.8009091,-0.17449
 12,-0.0000037,-0.7237113,-0.1038911,-0.0000139,-0.0000496,-0.000009,-0
 .1506098,-2.0782498,-0.0630907,-0.0000289,-0.0350037,-0.2029849,-0.000
 0038,-0.0000595,-0.0000061,-0.4643249,3.5360945,0.0693122,-0.0000679,0
 .3423807,1.3853231,0.0001151,-0.0012085,0.000062,0.2364452,-1.1279972,
 0.4757071,0.0000556,1.0140173,-0.6982741,-0.0000239,0.0005241,-0.00019
 21,-0.2402758,-1.4839035,-0.3224939,-0.0000177,-1.2647228,-0.7494084,-
 0.0000897,0.0006635,0.0001501,-0.1504178,0.078586,-0.0154092,-0.000001
 3,0.0278752,0.1166133,0.000002,0.0000069,-0.0000014,0.1478909,0.091986
 ,0.0084282,-0.0000033,-0.0119077,0.1059677,-0.0000002,0.0000065,0.0000
 027,0.1482679,0.0416954,-0.0314936,-0.0000022,-0.0130495,0.0543878,-0.
 0000019,0.0000125,-0.0000033,0.1565198,0.0388753,0.0322176,-0.0000032,
 0.0108285,0.0582659,0.0000046,0.0000163,0.0000052,0.1572838,0.3519419,
 -0.0614678,-0.0000007,-0.2228709,0.202002,-0.0000023,0.0000038,-0.0000
 014,0.33201,0.3410014,0.0697911,-0.0000025,0.2272424,0.2198806,0.00000
 51,-0.0000007,0.0000048,0.3315534,0.6601282,-0.113128,-0.0000198,-0.13
 96565,0.2460888,0.0000039,-0.0000795,0.000002,0.3814833\Polar=192.9725
 66,5.4574039,87.1308767,-0.0000346,-0.0003314,44.2220726\PG=C01 [X(C6H
 7N2O2)]\NImag=0\\0.78896088,0.05582902,0.69921376,0.00002866,-0.000007
 07,0.13568865,-0.12081512,0.07948381,-0.00000227,0.67668370,0.05402235
 ,-0.26714635,0.00000907,0.00961484,0.72040982,-0.00000862,0.00000810,-
 0.05542408,-0.00000131,-0.00000526,0.12096621,0.03162422,-0.00492700,0
 .00000217,-0.11710284,-0.04995455,-0.00000704,0.78219310,0.00798330,-0
 .04547541,0.00000204,-0.07387347,-0.27614771,-0.00000311,-0.05479309,0
 .70238066,0.00000200,-0.00000066,0.00423948,0.00000011,-0.00000343,-0.
 05427033,0.00002898,-0.00000546,0.13610294,-0.02204538,0.01749085,-0.0
 0000185,-0.04401958,-0.04242351,-0.00000082,-0.44405783,0.01433997,-0.
 00001738,0.78871488,0.00689982,-0.00726546,0.00000053,-0.01843199,0.01
 335405,-0.00000274,-0.02995942,-0.12443656,-0.00000173,0.05721814,0.68
 470199,-0.00000108,0.00000140,-0.00010723,-0.00000372,-0.00000225,0.00
 534890,-0.00001565,0.00000155,-0.05439087,0.00002661,-0.00000200,0.121
 42827,-0.03767654,-0.03013447,-0.00000029,0.02378801,0.00045469,-0.000
 00005,-0.04099394,0.02741226,-0.00000132,-0.13809192,0.07856915,-0.000
 00347,0.80488365,-0.05259489,0.02540677,-0.00000353,0.00102991,-0.0296
 0751,-0.00000018,0.05072983,0.02849598,0.00000280,0.03736372,-0.258603
 72,0.00000213,0.00228735,0.66979785,0.00000057,-0.00000254,-0.00139790
 ,0.00000160,0.00000016,-0.00730131,-0.00000087,0.00000204,-0.00129192,
 -0.00000465,0.00000528,-0.06758368,0.00002448,-0.00000572,0.16899670,-
 0.44837768,-0.02570427,-0.00001703,-0.04649621,0.04043334,-0.00000171,
 -0.02114271,-0.01794963,-0.00000125,0.03963237,-0.00009649,0.00000190,
 -0.13305075,-0.03213829,-0.00000369,0.79604338,0.01742726,-0.12433802,
 0.00000304,0.01622766,0.01657594,0.00000270,-0.00774732,-0.00839149,-0
 .00000037,0.00302920,-0.03315939,0.00000037,-0.07334995,-0.26292300,-0
 .00000062,-0.05432344,0.68003741,-0.00001608,-0.00000031,-0.05343431,-
 0.00000427,0.00000168,0.00444857,-0.00000079,-0.00000123,-0.00012671,0
 .00000186,0.00000061,0.00443369,-0.00000159,0.00000250,-0.06743266,0.0
 0002739,-0.00001031,0.12123755,0.01728521,-0.00455465,0.00000024,-0.02
 509144,0.00028877,0.00000071,0.01733605,0.00534826,0.00000022,-0.05356
 195,0.02113787,-0.00000294,-0.44604976,-0.00604739,-0.00001520,-0.0509
 1067,-0.02309903,-0.00000220,0.87547536,0.00371530,-0.00983088,0.00000
 055,-0.00050020,0.00228203,0.00000013,-0.00286246,-0.00973509,-0.00000
 027,0.04748869,0.00431816,0.00000221,-0.00601310,-0.14214163,0.0000008
 5,-0.04958154,0.00153539,-0.00000205,0.00006540,0.87828019,0.00000011,
 0.00000023,0.00375033,-0.00000082,0.00000002,-0.00069858,0.00000021,0.
 00000008,0.00381613,-0.00000260,0.00000067,0.00967100,-0.00001484,0.00
 000088,-0.04593312,-0.00000132,-0.00000053,0.00968024,0.00003074,-0.00
 001037,0.04570546,-0.06657065,0.03345276,-0.00000704,-0.27597266,-0.01
 184634,-0.00001325,-0.05450459,-0.03220448,-0.00000876,0.02245212,-0.0
 1426802,0.00000269,-0.02741343,-0.00041237,-0.00000176,0.02184410,0.01
 503878,0.00000239,0.02600721,0.00042085,0.00000098,0.87272819,0.030224
 49,0.01351362,0.00000105,0.00728984,-0.12993651,0.00000009,-0.03725477
 ,0.00883581,-0.00000436,-0.00260993,-0.00985151,-0.00000013,-0.0028124
 4,-0.00536754,-0.00000012,0.00628594,-0.00581941,0.00000155,0.00266819
 ,0.00061220,0.00000004,0.15893121,0.76602843,0.00000297,-0.00000259,-0
 .00578132,0.00001145,0.00000107,-0.06377002,0.00000275,0.00000220,-0.0
 1026281,-0.00000103,0.00000331,0.00551402,0.00000594,0.00000164,-0.001
 69902,-0.00000191,-0.00000399,0.00521832,-0.00000642,-0.00000050,-0.00
 025680,-0.00010685,-0.00005462,0.19689047,-0.00046112,-0.00974795,0.00
 000256,-0.03764516,0.05292674,0.00001511,-0.00395428,0.00355596,0.0000
 0068,-0.00218033,0.00211732,-0.00000039,0.00569668,0.00376167,0.000000
 55,-0.00536841,-0.00041914,-0.00000122,-0.00548887,-0.00086570,-0.0000
 0024,-0.18982153,0.05949788,0.00002658,0.65153016,-0.00893618,0.005770
 54,-0.00000220,0.03218018,-0.00135907,-0.00000893,-0.00830500,-0.00609
 095,0.00000062,0.00432949,-0.00251102,0.00000078,-0.00676667,-0.001914
 74,-0.00000038,0.00455079,0.00492318,0.00000040,0.00670040,0.00074725,
 0.00000024,0.00364437,-0.18074258,0.00000200,0.05415878,0.36280942,-0.
 00000164,0.00000226,0.00458161,0.00000068,-0.00000548,0.00887577,-0.00
 000019,-0.00000148,0.00048795,0.00000092,-0.00000107,-0.00063618,-0.00
 000270,-0.00000149,0.00006135,0.00000145,0.00000160,0.00016684,0.00000
 286,0.00000044,0.00007951,0.00003225,-0.00003553,-0.05150826,-0.000129
 18,0.00000941,0.02303285,0.00452219,-0.00778217,-0.00000059,-0.0538751
 5,-0.05536957,0.00001622,0.00327290,0.01208399,0.00000427,-0.00779132,
 0.00254650,-0.00000131,0.00896656,-0.00385225,0.00000086,-0.00387491,-
 0.00416717,-0.00000026,-0.00872074,0.00064269,-0.00000042,-0.29523781,
 -0.22890675,0.00005879,0.04140366,0.00879268,-0.00000239,0.31136214,0.
 01523119,-0.00979770,-0.00000022,-0.05332279,-0.00845426,0.00001024,0.
 00914864,0.00761539,0.00000392,-0.00628981,0.00641659,-0.00000099,0.00
 987298,-0.00166356,0.00000052,-0.00583561,-0.00362405,-0.00000100,-0.0
 0940605,0.00060627,-0.00000032,-0.22289591,-0.46343939,0.00006732,-0.0
 1658569,-0.09946396,0.00000899,0.28490487,0.56935857,-0.00000278,0.000
 00238,-0.00093133,0.00000102,0.00000454,0.01527631,-0.00000148,-0.0000
 0247,0.00944392,0.00000122,-0.00000169,-0.00086403,-0.00000362,0.00000
 009,0.00024082,0.00000166,0.00000189,-0.00062280,0.00000370,-0.0000000
 5,0.00007888,0.00007823,0.00009219,-0.07213470,-0.00000449,-0.00001019
 ,0.02110566,-0.00007216,-0.00008994,0.03240441,-0.12841204,-0.12744520
 ,-0.00000289,0.01119012,0.01494573,0.00000052,-0.00222926,0.00340801,-
 0.00000016,-0.00061866,0.00039389,0.00000002,-0.00486971,0.00115648,-0
 .00000094,-0.00962829,-0.02629707,-0.00000062,-0.00033173,-0.00148720,
 0.00000011,0.00307917,0.00271701,-0.00000094,0.00013022,-0.00086982,0.
 00000016,-0.00406601,-0.00103145,0.00000077,0.13474202,-0.12667892,-0.
 28392295,-0.00000272,-0.01233309,-0.01735535,-0.00000063,0.00379255,-0
 .00210190,0.00000043,0.00011963,0.00058536,-0.00000002,0.00146068,0.00
 012430,0.00000025,0.00276083,0.00674943,0.00000025,0.00037332,0.000533
 64,0.,-0.00318865,-0.00346861,0.00000090,0.00005401,0.00035204,-0.0000
 0006,0.00017939,0.00308512,-0.00000070,0.13394298,0.29523173,-0.000003
 53,-0.00000215,-0.04064092,0.00000213,0.00000051,0.00378338,-0.0000006
 8,0.00000030,0.00323384,-0.00000004,-0.00000019,-0.00123259,-0.0000008
 0,0.,0.01059697,-0.00000032,-0.00000128,0.00657819,0.00000013,-0.00000
 005,-0.00062301,-0.00000097,0.,-0.00227726,0.,0.,-0.00032653,0.0000002
 8,0.00000032,0.00027495,0.00000358,0.00000252,0.02620394,-0.00200865,-
 0.00349224,-0.00000012,0.01113172,-0.01437534,0.00000103,-0.13617512,0
 .13297858,-0.00000598,-0.01052540,0.02598849,-0.00000120,-0.00500622,-
 0.00132975,-0.00000079,-0.00050948,-0.00033325,-0.00000001,-0.00024148
 ,0.00149007,0.00000005,0.00376871,-0.00100179,-0.00000135,-0.00612893,
 -0.00068855,0.00000130,-0.00047479,0.00042234,0.00000042,0.00067246,-0
 .00071979,-0.00000002,0.14519402,-0.00387369,-0.00224746,-0.00000036,0
 .01355861,-0.01676096,0.00000110,0.13185841,-0.27882078,0.00000803,-0.
 00322334,0.00728258,-0.00000036,-0.00167576,0.00005816,-0.00000005,-0.
 00009445,0.00061126,-0.00000003,-0.00029753,0.00054667,-0.00000001,0.0
 0291655,-0.00215434,-0.00000106,0.00002967,0.00124445,0.00000031,-0.00
 051500,0.00018329,0.00000031,0.00077742,-0.00062370,0.00000007,-0.1391
 9066,0.28902360,-0.00000053,-0.00000020,0.00340921,0.00000189,0.000000
 09,0.00300211,-0.00000654,0.00000680,-0.04000575,-0.00000025,0.0000012
 6,0.00663066,-0.00000086,0.00000043,0.01045045,-0.00000013,0.00000012,
 -0.00119990,0.00000017,0.,-0.00059221,-0.00000107,-0.00000019,-0.00242
 849,0.00000078,-0.00000014,0.00094929,0.00000016,0.00000014,0.00003498
 ,-0.00000008,-0.00000002,0.00106902,0.00000630,-0.00000816,0.02561610,
 -0.00064501,0.00049251,-0.00000009,-0.00440637,0.00193438,-0.00000087,
 -0.01196615,-0.02844669,-0.00000088,-0.12548382,-0.12252989,-0.0000016
 0,0.01029925,0.01687657,0.00000020,-0.00209715,0.00309745,-0.00000014,
 0.00209239,0.00059348,0.00000011,-0.00009012,-0.00198835,0.00000021,-0
 .00007156,-0.00000730,0.,-0.00071475,0.00009700,0.00000007,0.00004965,
 -0.00008245,0.00000001,0.00061555,-0.00019301,0.00000028,0.13245626,0.
 00094849,-0.00002190,0.00000008,0.00144584,0.00148584,0.00000023,0.001
 91347,0.00479786,0.00000019,-0.12314391,-0.28248157,-0.00000240,-0.014
 71396,-0.01825289,-0.00000050,0.00360306,-0.00221334,0.00000017,-0.001
 03770,0.00173127,-0.00000004,-0.00013263,0.00042988,0.00000020,-0.0000
 2536,-0.00006145,-0.00000002,0.00037883,0.00021334,-0.00000016,-0.0000
 6112,0.00001158,0.,0.00012447,0.00084966,-0.00000015,0.12950387,0.2947
 4466,-0.00000015,0.00000011,-0.00073963,-0.00000168,-0.00000044,0.0083
 3415,-0.00000038,-0.00000127,0.00364781,-0.00000151,-0.00000204,-0.035
 08711,-0.00000002,0.00000105,0.00314248,-0.00000032,0.00000032,0.00403
 352,0.00000037,0.00000001,-0.00205653,0.00000101,0.00000030,0.00219373
 ,0.00000010,-0.00000007,0.00006667,-0.00000047,-0.00000041,-0.00135146
 ,0.,-0.00000001,-0.00042948,0.00000033,0.00000003,-0.00568696,0.000002
 79,0.00000235,0.02376740,-0.01287050,0.02777662,-0.00000158,-0.0042618
 2,-0.00212301,-0.00000086,-0.00060139,-0.00051030,-0.00000006,-0.00181
 830,-0.00308994,-0.00000006,0.01031769,-0.01564462,0.00000057,-0.13542
 933,0.12833524,-0.00000448,0.00210835,-0.00057195,0.00000011,-0.000137
 96,0.00168102,0.00000024,-0.00084119,-0.00010294,0.00000008,0.00001624
 ,0.00009818,-0.00000007,0.00068215,0.00015817,0.00000025,0.00004335,0.
 00008217,0.,0.00064891,-0.00073203,0.00000002,0.14290226,-0.00252898,0
 .00585973,-0.00000027,-0.00170346,0.00135945,-0.00000018,-0.00095021,-
 0.00007462,-0.00000007,-0.00359117,-0.00243894,-0.00000004,0.01583126,
 -0.01823144,0.00000104,0.12890046,-0.27263499,0.00000765,0.00106336,0.
 00172427,-0.00000004,0.00023922,0.00051406,-0.00000019,-0.00040665,0.0
 0019739,0.00000014,-0.00001134,-0.00013272,0.00000005,-0.00012777,0.00
 082151,0.00000002,0.00005830,0.00001435,-0.00000002,0.00078542,-0.0007
 6495,0.00000005,-0.13562624,0.28431737,-0.00000036,0.00000110,0.003667
 85,-0.00000166,0.00000055,0.00859302,-0.00000016,-0.00000015,-0.000714
 75,-0.00000020,-0.00000017,0.00404005,-0.00000045,-0.00000049,0.003136
 98,-0.00000423,0.00000717,-0.03531259,0.00000036,-0.00000009,-0.002034
 41,0.00000063,0.00000019,0.00184619,-0.00000014,0.00000009,-0.00089118
 ,0.00000011,0.00000004,0.00014029,0.00000041,-0.00000015,-0.00575015,0
 .00000002,0.00000001,-0.00047645,0.,-0.00000002,-0.00007674,0.00000586
 ,-0.00000808,0.02385935,-0.00052252,0.00006032,-0.00000002,0.00132477,
 -0.00001967,-0.00000014,-0.00050677,0.00166662,-0.00000009,-0.00371102
 ,-0.00354425,-0.00000033,-0.01498785,0.03129152,-0.00000083,0.00199331
 ,0.00206812,0.00000025,-0.18269695,0.17417778,-0.00000851,-0.00156802,
 -0.00033100,0.00000077,0.00051778,-0.00057860,-0.00000030,0.00058285,0
 .00065764,-0.00000035,0.00005727,-0.00006865,-0.00000002,-0.00036946,-
 0.00011656,0.,0.00001093,0.00017233,0.,-0.00077723,-0.00176733,-0.0000
 0007,0.18586599,0.00166308,-0.00101851,0.00000009,-0.00249197,0.000165
 29,0.00000019,0.00140244,0.00077951,0.00000008,-0.00358587,0.00200746,
 -0.00000020,0.00156556,0.00830208,-0.00000011,-0.00408322,0.00127679,-
 0.00000026,0.17277766,-0.35895383,0.00001083,0.00308154,0.00048791,-0.
 00000120,-0.00058419,0.00082537,0.00000044,-0.00119352,-0.00146789,0.0
 0000065,-0.00010184,0.00005148,0.00000001,-0.00006800,-0.00003303,0.00
 000002,-0.00015915,0.00019709,0.,-0.00006138,-0.00077783,0.,-0.1866002
 6,0.36143967,0.00000012,-0.00000012,-0.00065301,0.00000012,0.00000029,
 0.00021335,-0.00000042,-0.00000021,0.00164274,0.00000012,-0.00000025,0
 .00655267,-0.00000045,0.00000109,-0.00220599,0.,-0.00000002,-0.0039804
 5,-0.00000850,0.00001094,-0.01022993,-0.00000018,-0.00000009,-0.000087
 13,0.00000002,0.,0.00011039,0.00000008,0.00000004,0.00000278,-0.000000
 05,0.,0.00043016,0.00000009,0.,-0.00092985,0.00000002,0.00000004,-0.00
 046794,-0.00000008,-0.00000002,0.00070495,0.00000878,-0.00001125,0.010
 46366,-0.00039181,-0.00171914,-0.00000005,0.00123577,0.00000229,-0.000
 00008,-0.00049890,-0.00004238,-0.00000003,0.00190351,-0.00203525,0.000
 00030,-0.01370174,-0.03222023,-0.00000003,-0.00396668,0.00330975,-0.00
 000041,-0.16930609,-0.16678571,-0.00000371,-0.00147838,-0.00020265,0.0
 0000063,0.00032353,-0.00038686,-0.00000019,0.00072045,0.00083031,-0.00
 000036,-0.00036170,0.00010508,0.00000001,0.00004896,0.00006219,-0.0000
 0003,-0.00074162,0.00178671,-0.00000010,0.00001233,-0.00017997,0.,0.01
 496435,0.01817744,0.00000037,0.17140433,-0.00142320,0.00067971,-0.0000
 0004,0.00252920,0.00007240,-0.00000021,-0.00164484,-0.00104475,-0.0000
 0008,0.00407509,0.00131076,0.00000015,-0.00240679,0.00695503,-0.000000
 15,0.00334006,0.00226168,0.00000027,-0.16538992,-0.37238142,-0.0000016
 5,-0.00313765,-0.00050080,0.00000127,0.00074493,-0.00097899,-0.0000004
 9,0.00110033,0.00133297,-0.00000063,0.00006956,-0.00004053,-0.00000004
 ,0.00007915,0.00004201,0.,0.00003805,-0.00069023,0.00000001,0.00015597
 ,0.00019913,-0.00000002,-0.01708704,-0.01320281,-0.00000045,0.17923428
 ,0.37591370,-0.00000040,0.00000021,0.00158877,0.00000008,-0.00000029,0
 .00034757,0.00000015,0.00000014,-0.00069501,-0.00000008,-0.00000012,-0
 .00395894,-0.00000048,-0.00000140,-0.00218994,0.00000006,0.00000040,0.
 00658981,-0.00000368,-0.00000173,-0.01023352,-0.00000006,0.00000005,0.
 00000242,0.,-0.00000002,-0.00014091,-0.00000004,0.00000002,-0.00000246
 ,0.00000010,-0.00000001,-0.00095905,-0.00000005,0.,0.00042118,-0.00000
 008,0.00000004,0.00071029,0.00000002,-0.00000006,-0.00046207,0.0000008
 1,0.00000077,-0.00151079,0.00000365,0.00000200,0.01042064,-0.00159548,
 0.00092119,0.00000021,0.00433226,0.00148888,0.00000114,-0.00069250,-0.
 00095690,-0.00000034,0.00120265,-0.00091595,0.00000025,-0.00210999,-0.
 00025726,-0.00000009,0.00133911,0.00120291,0.00000021,0.00209510,0.000
 07362,0.00000005,-0.03708435,0.00581210,0.00000817,-0.44764065,-0.0877
 1476,0.00009689,0.00390851,-0.00589584,-0.00000181,-0.00008565,0.00012
 490,-0.00000001,-0.00003523,-0.00010502,-0.00000011,0.00004360,-0.0000
 3036,-0.00000002,0.00000643,0.00001510,-0.00000012,-0.00017743,0.00026
 168,-0.00000002,-0.00016631,-0.00027719,0.,0.47665993,0.00209155,0.000
 62050,-0.00000005,-0.00070293,-0.00893710,-0.00000153,-0.00044666,-0.0
 0058593,0.00000034,-0.00058722,0.00077121,-0.00000021,0.00041923,-0.00
 043415,0.00000006,-0.00006751,-0.00086740,0.00000012,-0.00059096,0.000
 12552,-0.00000002,0.07036079,0.01085878,-0.00001576,-0.14821226,-0.083
 74687,0.00002204,-0.00883152,-0.00076801,0.00000375,0.00001038,-0.0000
 3315,-0.00000004,0.00005795,0.00078425,0.00000002,-0.00001191,0.000025
 15,0.00000002,0.00017505,0.00004821,0.00000001,0.00001903,-0.00007878,
 0.,0.00006411,0.00007215,0.,0.08625288,0.08214562,0.00000074,-0.000000
 15,0.00218383,-0.00000335,-0.00000081,0.00227498,-0.00000006,0.0000002
 3,-0.00085664,-0.00000033,0.00000034,0.00024136,0.00000051,0.00000017,
 0.00040981,-0.00000055,-0.00000050,-0.00027731,-0.00000057,-0.00000002
 ,-0.00012345,0.00002177,-0.00000040,-0.00145935,0.00008929,0.00000840,
 -0.00601485,-0.00000312,0.00000133,-0.00309623,0.00000002,-0.00000001,
 0.00006854,-0.00000003,0.00000016,-0.00026338,-0.00000001,0.,-0.000000
 20,0.00000003,0.00000001,-0.00027035,0.00000003,-0.00000008,-0.0000556
 1,0.00000003,0.00000007,0.00007199,-0.00010440,-0.00000874,0.00716686\
 \-0.00004968,-0.00000045,-0.00000804,0.00006951,-0.00002480,-0.0000127
 1,-0.00007259,-0.00001774,-0.00000698,0.00003406,-0.00001346,0.0000008
 9,-0.00004488,-0.00000467,-0.00000089,0.00004614,0.00002353,0.00000069
 ,0.00003073,0.00000313,0.,0.00012188,0.00016091,0.00007577,0.00001221,
 -0.00005602,-0.00002031,-0.00010461,-0.00008209,-0.00002854,0.00000908
 ,0.00000067,0.00000019,-0.00000975,0.00000590,-0.00000037,-0.00000051,
 0.00000500,0.00000121,0.00000677,-0.00000177,0.00000148,-0.00001334,0.
 00000627,0.00000002,-0.00001497,0.00000126,0.00000004,-0.00002003,-0.0
 0000566,-0.00000244\\\@


 CHEMISTRY BEGAN BY SAYING IT WOULD CHANGE THE BASER
 METALS INTO GOLD.  BY NOT DOING THAT IT HAS DONE MUCH
 GREATER THINGS.  --  RALPH WALDO EMERSON
 Job cpu time:       0 days  0 hours 21 minutes 19.0 seconds.
 File lengths (MBytes):  RWF=     93 Int=      0 D2E=      0 Chk=      5 Scr=      1
 Normal termination of Gaussian 09 at Thu Jun 13 22:37:49 2024.
