 Entering Gaussian System, Link 0=g09
 Input=B2PLYPPNAyang.gjf
 Output=B2PLYPPNAyang.log
 Initial command:
 /home/c612/g09E/g09/l1.exe "/mnt/ja_sm883/scratch/Gau-556434.inp" -scrdir="/mnt/ja_sm883/scratch/"
 Default is to use a total of  18 processors:
                               18 via shared-memory
                                1 via Linda
 Entering Link 1 = /home/c612/g09E/g09/l1.exe PID=    556436.
  
 Copyright (c) 1988,1990,1992,1993,1995,1998,2003,2009,2015,
            Gaussian, Inc.  All Rights Reserved.
  
 This is part of the Gaussian(R) 09 program.  It is based on
 the Gaussian(R) 03 system (copyright 2003, Gaussian, Inc.),
 the Gaussian(R) 98 system (copyright 1998, Gaussian, Inc.),
 the Gaussian(R) 94 system (copyright 1995, Gaussian, Inc.),
 the Gaussian 92(TM) system (copyright 1992, Gaussian, Inc.),
 the Gaussian 90(TM) system (copyright 1990, Gaussian, Inc.),
 the Gaussian 88(TM) system (copyright 1988, Gaussian, Inc.),
 the Gaussian 86(TM) system (copyright 1986, Carnegie Mellon
 University), and the Gaussian 82(TM) system (copyright 1983,
 Carnegie Mellon University). Gaussian is a federally registered
 trademark of Gaussian, Inc.
  
 This software contains proprietary and confidential information,
 including trade secrets, belonging to Gaussian, Inc.
  
 This software is provided under written license and may be
 used, copied, transmitted, or stored only in accord with that
 written license.
  
 The following legend is applicable only to US Government
 contracts under FAR:
  
                    RESTRICTED RIGHTS LEGEND
  
 Use, reproduction and disclosure by the US Government is
 subject to restrictions as set forth in subparagraphs (a)
 and (c) of the Commercial Computer Software - Restricted
 Rights clause in FAR 52.227-19.
  
 Gaussian, Inc.
 340 Quinnipiac St., Bldg. 40, Wallingford CT 06492
  
  
 ---------------------------------------------------------------
 Warning -- This program may not be used in any manner that
 competes with the business of Gaussian, Inc. or will provide
 assistance to any competitor of Gaussian, Inc.  The licensee
 of this program is prohibited from giving any competitor of
 Gaussian, Inc. access to this program.  By using this program,
 the user acknowledges that Gaussian, Inc. is engaged in the
 business of creating and licensing software in the field of
 computational chemistry and represents and warrants to the
 licensee that it is not a competitor of Gaussian, Inc. and that
 it will not use this program in any manner prohibited above.
 ---------------------------------------------------------------
  

 Cite this work as:
 Gaussian 09, Revision E.01,
 M. J. Frisch, G. W. Trucks, H. B. Schlegel, G. E. Scuseria, 
 M. A. Robb, J. R. Cheeseman, G. Scalmani, V. Barone, B. Mennucci, 
 G. A. Petersson, H. Nakatsuji, M. Caricato, X. Li, H. P. Hratchian, 
 A. F. Izmaylov, J. Bloino, G. Zheng, J. L. Sonnenberg, M. Hada, 
 M. Ehara, K. Toyota, R. Fukuda, J. Hasegawa, M. Ishida, T. Nakajima, 
 Y. Honda, O. Kitao, H. Nakai, T. Vreven, J. A. Montgomery, Jr., 
 J. E. Peralta, F. Ogliaro, M. Bearpark, J. J. Heyd, E. Brothers, 
 K. N. Kudin, V. N. Staroverov, T. Keith, R. Kobayashi, J. Normand, 
 K. Raghavachari, A. Rendell, J. C. Burant, S. S. Iyengar, J. Tomasi, 
 M. Cossi, N. Rega, J. M. Millam, M. Klene, J. E. Knox, J. B. Cross, 
 V. Bakken, C. Adamo, J. Jaramillo, R. Gomperts, R. E. Stratmann, 
 O. Yazyev, A. J. Austin, R. Cammi, C. Pomelli, J. W. Ochterski, 
 R. L. Martin, K. Morokuma, V. G. Zakrzewski, G. A. Voth, 
 P. Salvador, J. J. Dannenberg, S. Dapprich, A. D. Daniels, 
 O. Farkas, J. B. Foresman, J. V. Ortiz, J. Cioslowski, 
 and D. J. Fox, Gaussian, Inc., Wallingford CT, 2013.
 
 ******************************************
 Gaussian 09:  ES64L-G09RevE.01 30-Nov-2015
                15-Dec-2024 
 ******************************************
 %chk=B2PLYPPNAyang.chk
 -----------------------------
 # opt freq B2PLYP/6-31+g(d,p)
 -----------------------------
 1/18=20,19=15,38=1/1,3;
 2/9=110,12=2,17=6,18=5,40=1/2;
 3/5=1,6=6,7=111,11=9,16=1,25=1,30=1,71=1,74=-47/1,2,3;
 4//1;
 5/5=2,38=5/2;
 8/6=4,10=2/1;
 9/15=2,16=-3/6;
 10/5=1/2;
 6/7=2,8=2,9=2,10=2/1;
 7/12=2/1,2,3,16;
 1/18=20,19=15/3(2);
 2/9=110/2;
 99//99;
 2/9=110/2;
 3/5=1,6=6,7=111,11=9,16=1,25=1,30=1,71=1,74=-47/1,2,3;
 4/5=5,16=3,69=1/1;
 5/5=2,38=5/2;
 8/6=4,10=2/1;
 9/15=2,16=-3/6;
 10/5=1/2;
 7/12=2/1,2,3,16;
 1/18=20,19=15/3(-8);
 2/9=110/2;
 6/7=2,8=2,9=2,10=2/1;
 99//99;
 ----------
 [No Title]
 ----------
 Symbolic Z-matrix:
 Charge =  1 Multiplicity = 1
 C                     0.05685   1.26308   0.00013 
 C                    -0.66468   0.03637   0.00035 
 C                     0.00536  -1.21888   0.00024 
 C                     1.36723  -1.24032   0.00005 
 C                     2.11194  -0.01772  -0.00009 
 C                     1.41752   1.2345   -0.00005 
 N                     3.44091  -0.04413  -0.00026 
 N                    -2.02546   0.10505   0.00054 
 O                    -2.65896  -1.08471  -0.00035 
 O                    -2.69539   1.10601  -0.00022 
 H                    -0.48629   2.20206   0.00018 
 H                    -0.56145  -2.14219   0.00035 
 H                     1.89828  -2.18629   0.00002 
 H                     1.98517   2.15893  -0.00015 
 H                     3.98548   0.80753  -0.00036 
 H                     3.95201  -0.91623  -0.00029 
 H                    -3.61184  -0.86273  -0.00089 
 

 GradGradGradGradGradGradGradGradGradGradGradGradGradGradGradGradGradGrad
 Berny optimization.
 Initialization pass.
                           ----------------------------
                           !    Initial Parameters    !
                           ! (Angstroms and Degrees)  !
 --------------------------                            --------------------------
 ! Name  Definition              Value          Derivative Info.                !
 --------------------------------------------------------------------------------
 ! R1    R(1,2)                  1.4232         estimate D2E/DX2                !
 ! R2    R(1,6)                  1.361          estimate D2E/DX2                !
 ! R3    R(1,11)                 1.0847         estimate D2E/DX2                !
 ! R4    R(2,3)                  1.4229         estimate D2E/DX2                !
 ! R5    R(2,8)                  1.3625         estimate D2E/DX2                !
 ! R6    R(3,4)                  1.362          estimate D2E/DX2                !
 ! R7    R(3,12)                 1.0834         estimate D2E/DX2                !
 ! R8    R(4,5)                  1.4316         estimate D2E/DX2                !
 ! R9    R(4,13)                 1.0848         estimate D2E/DX2                !
 ! R10   R(5,6)                  1.4319         estimate D2E/DX2                !
 ! R11   R(5,7)                  1.3292         estimate D2E/DX2                !
 ! R12   R(6,14)                 1.0848         estimate D2E/DX2                !
 ! R13   R(7,15)                 1.0109         estimate D2E/DX2                !
 ! R14   R(7,16)                 1.0108         estimate D2E/DX2                !
 ! R15   R(8,9)                  1.3479         estimate D2E/DX2                !
 ! R16   R(8,10)                 1.2045         estimate D2E/DX2                !
 ! R17   R(9,17)                 0.9784         estimate D2E/DX2                !
 ! A1    A(2,1,6)              119.2597         estimate D2E/DX2                !
 ! A2    A(2,1,11)             119.4899         estimate D2E/DX2                !
 ! A3    A(6,1,11)             121.2504         estimate D2E/DX2                !
 ! A4    A(1,2,3)              121.4443         estimate D2E/DX2                !
 ! A5    A(1,2,8)              117.5742         estimate D2E/DX2                !
 ! A6    A(3,2,8)              120.9815         estimate D2E/DX2                !
 ! A7    A(2,3,4)              118.9944         estimate D2E/DX2                !
 ! A8    A(2,3,12)             120.362          estimate D2E/DX2                !
 ! A9    A(4,3,12)             120.6435         estimate D2E/DX2                !
 ! A10   A(3,4,5)              120.4442         estimate D2E/DX2                !
 ! A11   A(3,4,13)             120.2108         estimate D2E/DX2                !
 ! A12   A(5,4,13)             119.3451         estimate D2E/DX2                !
 ! A13   A(4,5,6)              119.6433         estimate D2E/DX2                !
 ! A14   A(4,5,7)              120.2075         estimate D2E/DX2                !
 ! A15   A(6,5,7)              120.1492         estimate D2E/DX2                !
 ! A16   A(1,6,5)              120.2141         estimate D2E/DX2                !
 ! A17   A(1,6,14)             120.3489         estimate D2E/DX2                !
 ! A18   A(5,6,14)             119.437          estimate D2E/DX2                !
 ! A19   A(5,7,15)             121.457          estimate D2E/DX2                !
 ! A20   A(5,7,16)             121.5114         estimate D2E/DX2                !
 ! A21   A(15,7,16)            117.0316         estimate D2E/DX2                !
 ! A22   A(2,8,9)              115.1445         estimate D2E/DX2                !
 ! A23   A(2,8,10)             126.683          estimate D2E/DX2                !
 ! A24   A(9,8,10)             118.1724         estimate D2E/DX2                !
 ! A25   A(8,9,17)             104.92           estimate D2E/DX2                !
 ! D1    D(6,1,2,3)             -0.0065         estimate D2E/DX2                !
 ! D2    D(6,1,2,8)            179.999          estimate D2E/DX2                !
 ! D3    D(11,1,2,3)           179.9973         estimate D2E/DX2                !
 ! D4    D(11,1,2,8)             0.0027         estimate D2E/DX2                !
 ! D5    D(2,1,6,5)              0.003          estimate D2E/DX2                !
 ! D6    D(2,1,6,14)          -179.9962         estimate D2E/DX2                !
 ! D7    D(11,1,6,5)           179.9992         estimate D2E/DX2                !
 ! D8    D(11,1,6,14)            0.0001         estimate D2E/DX2                !
 ! D9    D(1,2,3,4)              0.0063         estimate D2E/DX2                !
 ! D10   D(1,2,3,12)          -179.9966         estimate D2E/DX2                !
 ! D11   D(8,2,3,4)           -179.9993         estimate D2E/DX2                !
 ! D12   D(8,2,3,12)            -0.0022         estimate D2E/DX2                !
 ! D13   D(1,2,8,9)            179.9487         estimate D2E/DX2                !
 ! D14   D(1,2,8,10)             0.0465         estimate D2E/DX2                !
 ! D15   D(3,2,8,9)             -0.0459         estimate D2E/DX2                !
 ! D16   D(3,2,8,10)          -179.9481         estimate D2E/DX2                !
 ! D17   D(2,3,4,5)             -0.0027         estimate D2E/DX2                !
 ! D18   D(2,3,4,13)           179.9967         estimate D2E/DX2                !
 ! D19   D(12,3,4,5)          -179.9998         estimate D2E/DX2                !
 ! D20   D(12,3,4,13)           -0.0005         estimate D2E/DX2                !
 ! D21   D(3,4,5,6)             -0.0006         estimate D2E/DX2                !
 ! D22   D(3,4,5,7)            179.9995         estimate D2E/DX2                !
 ! D23   D(13,4,5,6)          -180.0            estimate D2E/DX2                !
 ! D24   D(13,4,5,7)             0.0001         estimate D2E/DX2                !
 ! D25   D(4,5,6,1)              0.0004         estimate D2E/DX2                !
 ! D26   D(4,5,6,14)           179.9996         estimate D2E/DX2                !
 ! D27   D(7,5,6,1)           -179.9997         estimate D2E/DX2                !
 ! D28   D(7,5,6,14)            -0.0005         estimate D2E/DX2                !
 ! D29   D(4,5,7,15)           180.0            estimate D2E/DX2                !
 ! D30   D(4,5,7,16)             0.0            estimate D2E/DX2                !
 ! D31   D(6,5,7,15)             0.0001         estimate D2E/DX2                !
 ! D32   D(6,5,7,16)          -179.9999         estimate D2E/DX2                !
 ! D33   D(2,8,9,17)          -179.9506         estimate D2E/DX2                !
 ! D34   D(10,8,9,17)           -0.0395         estimate D2E/DX2                !
 --------------------------------------------------------------------------------
 Trust Radius=3.00D-01 FncErr=1.00D-07 GrdErr=1.00D-07
 Number of steps in this run=     86 maximum allowed number of steps=    102.
 GradGradGradGradGradGradGradGradGradGradGradGradGradGradGradGradGradGrad

                          Input orientation:                          
 ---------------------------------------------------------------------
 Center     Atomic      Atomic             Coordinates (Angstroms)
 Number     Number       Type             X           Y           Z
 ---------------------------------------------------------------------
      1          6           0        0.056849    1.263083    0.000132
      2          6           0       -0.664677    0.036374    0.000345
      3          6           0        0.005357   -1.218884    0.000236
      4          6           0        1.367234   -1.240324    0.000051
      5          6           0        2.111936   -0.017721   -0.000090
      6          6           0        1.417516    1.234499   -0.000049
      7          7           0        3.440914   -0.044134   -0.000260
      8          7           0       -2.025461    0.105047    0.000544
      9          8           0       -2.658960   -1.084710   -0.000351
     10          8           0       -2.695392    1.106005   -0.000224
     11          1           0       -0.486292    2.202055    0.000178
     12          1           0       -0.561451   -2.142185    0.000346
     13          1           0        1.898276   -2.186287    0.000020
     14          1           0        1.985172    2.158932   -0.000150
     15          1           0        3.985484    0.807530   -0.000362
     16          1           0        3.952012   -0.916227   -0.000293
     17          1           0       -3.611842   -0.862729   -0.000887
 ---------------------------------------------------------------------
                    Distance matrix (angstroms):
                    1          2          3          4          5
     1  C    0.000000
     2  C    1.423171   0.000000
     3  C    2.482501   1.422891   0.000000
     4  C    2.825625   2.399713   1.362046   0.000000
     5  C    2.421537   2.777140   2.424968   1.431551   0.000000
     6  C    1.360967   2.402297   2.830774   2.475334   1.431878
     7  N    3.627770   4.106380   3.630852   2.393955   1.329240
     8  N    2.382659   1.362516   2.424256   3.649713   4.139218
     9  O    3.589951   2.287792   2.667693   4.029200   4.888754
    10  O    2.756720   2.295194   3.563587   4.691502   4.936918
    11  H    1.084744   2.173015   3.456088   3.909672   3.417337
    12  H    3.460946   2.181003   1.083400   2.129126   3.414725
    13  H    3.910116   3.392484   2.125797   1.084828   2.179066
    14  H    2.126258   3.395137   3.915266   3.454966   2.180341
    15  H    3.954959   4.713669   4.466292   3.323994   2.047247
    16  H    4.463372   4.713944   3.958243   2.605018   2.047729
    17  H    4.240091   3.081261   3.634691   4.993373   5.785817
                    6          7          8          9         10
     6  C    0.000000
     7  N    2.393542   0.000000
     8  N    3.623500   5.468410   0.000000
     9  O    4.690031   6.187993   1.347903   0.000000
    10  O    4.114915   6.243162   1.204460   2.191018   0.000000
    11  H    2.135568   4.524192   2.601247   3.939963   2.466059
    12  H    3.913861   4.518932   2.682047   2.348999   3.886443
    13  H    3.454404   2.639801   4.543779   4.688483   5.651634
    14  H    1.084809   2.640584   4.505954   5.664731   4.797534
    15  H    2.603222   1.010885   6.051855   6.908633   6.687540
    16  H    3.324048   1.010825   6.064090   6.613119   6.948194
    17  H    5.449111   7.100103   1.858278   0.978397   2.171588
                   11         12         13         14         15
    11  H    0.000000
    12  H    4.344890   0.000000
    13  H    4.994368   2.460122   0.000000
    14  H    2.471840   4.998489   4.346088   0.000000
    15  H    4.684173   5.419911   3.649572   2.414029   0.000000
    16  H    5.424226   4.676999   2.414722   3.650351   1.724082
    17  H    4.377438   3.307853   5.666852   6.360582   7.778761
                   16         17
    16  H    0.000000
    17  H    7.564043   0.000000
 Stoichiometry    C6H7N2O2(1+)
 Framework group  C1[X(C6H7N2O2)]
 Deg. of freedom    45
 Full point group                 C1      NOp   1
 Largest Abelian subgroup         C1      NOp   1
 Largest concise Abelian subgroup C1      NOp   1
                         Standard orientation:                         
 ---------------------------------------------------------------------
 Center     Atomic      Atomic             Coordinates (Angstroms)
 Number     Number       Type             X           Y           Z
 ---------------------------------------------------------------------
      1          6           0       -0.056849    1.263083   -0.000132
      2          6           0        0.664677    0.036374   -0.000345
      3          6           0       -0.005357   -1.218884   -0.000236
      4          6           0       -1.367234   -1.240324   -0.000051
      5          6           0       -2.111936   -0.017721    0.000090
      6          6           0       -1.417516    1.234499    0.000049
      7          7           0       -3.440914   -0.044134    0.000260
      8          7           0        2.025461    0.105047   -0.000544
      9          8           0        2.658960   -1.084710    0.000351
     10          8           0        2.695392    1.106005    0.000224
     11          1           0        0.486292    2.202055   -0.000178
     12          1           0        0.561451   -2.142185   -0.000346
     13          1           0       -1.898276   -2.186287   -0.000020
     14          1           0       -1.985172    2.158932    0.000150
     15          1           0       -3.985484    0.807530    0.000362
     16          1           0       -3.952012   -0.916227    0.000293
     17          1           0        3.611842   -0.862729    0.000887
 ---------------------------------------------------------------------
 Rotational constants (GHZ):      3.7837951      0.8276019      0.6790732
 Standard basis: 6-31+G(d,p) (6D, 7F)
 There are   225 symmetry adapted cartesian basis functions of A   symmetry.
 There are   225 symmetry adapted basis functions of A   symmetry.
   225 basis functions,   369 primitive gaussians,   225 cartesian basis functions
    36 alpha electrons       36 beta electrons
       nuclear repulsion energy       510.1219227400 Hartrees.
 NAtoms=   17 NActive=   17 NUniq=   17 SFac= 1.00D+00 NAtFMM=   60 NAOKFM=F Big=F
 Integral buffers will be    131072 words long.
 Regular integral format.
 Two-electron integral symmetry is turned on.
 One-electron integrals computed using PRISM.
 NBasis=   225 RedAO= T EigKep=  3.36D-06  NBF=   225
 NBsUse=   225 1.00D-06 EigRej= -1.00D+00 NBFU=   225
 ExpMin= 4.38D-02 ExpMax= 5.48D+03 ExpMxC= 8.25D+02 IAcc=2 IRadAn=         4 AccDes= 0.00D+00
 Harris functional with IExCor=  419 and IRadAn=       4 diagonalized for initial guess.
 HarFok:  IExCor=  419 AccDes= 0.00D+00 IRadAn=         4 IDoV= 1 UseB2=F ITyADJ=14
 ICtDFT=  3500011 ScaDFX=  1.000000  1.000000  1.000000  1.000000
 FoFCou: FMM=F IPFlag=           0 FMFlag=      100000 FMFlg1=           0
         NFxFlg=           0 DoJE=T BraDBF=F KetDBF=T FulRan=T
         wScrn=  0.000000 ICntrl=     500 IOpCl=  0 I1Cent=   200000004 NGrid=           0
         NMat0=    1 NMatS0=      1 NMatT0=    0 NMatD0=    1 NMtDS0=    0 NMtDT0=    0
 Petite list used in FoFCou.
 Keep R1 ints in memory in canonical form, NReq=329175655.
 Requested convergence on RMS density matrix=1.00D-08 within 128 cycles.
 Requested convergence on MAX density matrix=1.00D-06.
 Requested convergence on             energy=1.00D-06.
 No special actions if energy rises.
 SCF Done:  E(RB2PLYP) =  -491.510258322     A.U. after   16 cycles
            NFock= 16  Conv=0.35D-08     -V/T= 2.0067
 DoSCS=T DFT=T ScalE2(SS,OS)=  0.270000  0.270000
 ExpMin= 4.38D-02 ExpMax= 5.48D+03 ExpMxC= 8.25D+02 IAcc=3 IRadAn=         5 AccDes= 0.00D+00
 HarFok:  IExCor=  205 AccDes= 0.00D+00 IRadAn=         5 IDoV=-2 UseB2=F ITyADJ=14
 ICtDFT= 12500011 ScaDFX=  1.000000  1.000000  1.000000  1.000000
 Range of M.O.s used for correlation:    11   225
 NBasis=   225 NAE=    36 NBE=    36 NFC=    10 NFV=     0
 NROrb=    215 NOA=    26 NOB=    26 NVA=   189 NVB=   189

 **** Warning!!: The largest alpha MO coefficient is  0.13074727D+03

 DoSCS=T DFT=T ScalE2(SS,OS)=  0.270000  0.270000
 Fully direct method using O(ONN) memory.
 JobTyp=1 Pass  1:  I=  11 to  18 NPSUse= 18 ParTrn=T ParDer=T DoDerP=T.
 JobTyp=1 Pass  2:  I=  19 to  26 NPSUse= 18 ParTrn=T ParDer=T DoDerP=T.
 JobTyp=1 Pass  3:  I=  27 to  34 NPSUse= 18 ParTrn=T ParDer=T DoDerP=T.
 JobTyp=1 Pass  4:  I=  35 to  36 NPSUse= 18 ParTrn=T ParDer=T DoDerP=T.
 Spin components of T(2) and E(2):
     alpha-alpha T2 =       0.1128390142D+00 E2=     -0.6858182045D-01
     alpha-beta  T2 =       0.6109368220D+00 E2=     -0.3680081946D+00
     beta-beta   T2 =       0.1128390142D+00 E2=     -0.6858182045D-01
 E2(B2PLYP) =    -0.5051718355D+00 E(B2PLYP) =    -0.49201543015798D+03
          IDoAtm=11111111111111111
          Differentiating once with respect to electric field.
                with respect to dipole field.
          Differentiating once with respect to nuclear coordinates.
 Keep R1 ints in memory in canonical form, NReq=329001650.
          There are     1 degrees of freedom in the 1st order CPHF.  IDoFFX=0 NUNeed=     1.
 LinEq1:  Iter=  0 NonCon=     1 RMS=2.42D-03 Max=1.08D-01 NDo=     1
 AX will form     1 AO Fock derivatives at one time.
 LinEq1:  Iter=  1 NonCon=     1 RMS=1.12D-03 Max=3.98D-02 NDo=     1
 LinEq1:  Iter=  2 NonCon=     1 RMS=4.89D-04 Max=8.64D-03 NDo=     1
 LinEq1:  Iter=  3 NonCon=     1 RMS=4.11D-04 Max=1.51D-02 NDo=     1
 LinEq1:  Iter=  4 NonCon=     1 RMS=1.82D-04 Max=6.60D-03 NDo=     1
 LinEq1:  Iter=  5 NonCon=     1 RMS=9.10D-05 Max=4.13D-03 NDo=     1
 LinEq1:  Iter=  6 NonCon=     1 RMS=6.48D-05 Max=2.90D-03 NDo=     1
 LinEq1:  Iter=  7 NonCon=     1 RMS=2.43D-05 Max=8.22D-04 NDo=     1
 LinEq1:  Iter=  8 NonCon=     1 RMS=9.09D-06 Max=1.76D-04 NDo=     1
 LinEq1:  Iter=  9 NonCon=     1 RMS=3.94D-06 Max=9.03D-05 NDo=     1
 LinEq1:  Iter= 10 NonCon=     1 RMS=1.87D-06 Max=4.19D-05 NDo=     1
 LinEq1:  Iter= 11 NonCon=     1 RMS=7.05D-07 Max=1.28D-05 NDo=     1
 LinEq1:  Iter= 12 NonCon=     1 RMS=2.63D-07 Max=5.85D-06 NDo=     1
 LinEq1:  Iter= 13 NonCon=     1 RMS=1.44D-07 Max=3.29D-06 NDo=     1
 LinEq1:  Iter= 14 NonCon=     1 RMS=4.98D-08 Max=7.55D-07 NDo=     1
 LinEq1:  Iter= 15 NonCon=     1 RMS=2.38D-08 Max=4.58D-07 NDo=     1
 LinEq1:  Iter= 16 NonCon=     1 RMS=1.01D-08 Max=2.15D-07 NDo=     1
 LinEq1:  Iter= 17 NonCon=     1 RMS=2.95D-09 Max=5.90D-08 NDo=     1
 LinEq1:  Iter= 18 NonCon=     1 RMS=1.50D-09 Max=2.81D-08 NDo=     1
 LinEq1:  Iter= 19 NonCon=     1 RMS=3.93D-10 Max=1.31D-08 NDo=     1
 LinEq1:  Iter= 20 NonCon=     1 RMS=1.25D-10 Max=4.44D-09 NDo=     1
 LinEq1:  Iter= 21 NonCon=     1 RMS=6.79D-11 Max=2.25D-09 NDo=     1
 LinEq1:  Iter= 22 NonCon=     0 RMS=2.80D-11 Max=7.59D-10 NDo=     1
 Linear equations converged to 1.000D-10 1.000D-09 after    22 iterations.
 End of Minotr F.D. properties file   721 does not exist.
 End of Minotr F.D. properties file   722 does not exist.
 End of Minotr F.D. properties file   788 does not exist.

 **********************************************************************

            Population analysis using the SCF density.

 **********************************************************************

 Orbital symmetries:
       Occupied  (A) (A) (A) (A) (A) (A) (A) (A) (A) (A) (A) (A)
                 (A) (A) (A) (A) (A) (A) (A) (A) (A) (A) (A) (A)
                 (A) (A) (A) (A) (A) (A) (A) (A) (A) (A) (A) (A)
       Virtual   (A) (A) (A) (A) (A) (A) (A) (A) (A) (A) (A) (A)
                 (A) (A) (A) (A) (A) (A) (A) (A) (A) (A) (A) (A)
                 (A) (A) (A) (A) (A) (A) (A) (A) (A) (A) (A) (A)
                 (A) (A) (A) (A) (A) (A) (A) (A) (A) (A) (A) (A)
                 (A) (A) (A) (A) (A) (A) (A) (A) (A) (A) (A) (A)
                 (A) (A) (A) (A) (A) (A) (A) (A) (A) (A) (A) (A)
                 (A) (A) (A) (A) (A) (A) (A) (A) (A) (A) (A) (A)
                 (A) (A) (A) (A) (A) (A) (A) (A) (A) (A) (A) (A)
                 (A) (A) (A) (A) (A) (A) (A) (A) (A) (A) (A) (A)
                 (A) (A) (A) (A) (A) (A) (A) (A) (A) (A) (A) (A)
                 (A) (A) (A) (A) (A) (A) (A) (A) (A) (A) (A) (A)
                 (A) (A) (A) (A) (A) (A) (A) (A) (A) (A) (A) (A)
                 (A) (A) (A) (A) (A) (A) (A) (A) (A) (A) (A) (A)
                 (A) (A) (A) (A) (A) (A) (A) (A) (A) (A) (A) (A)
                 (A) (A) (A) (A) (A) (A) (A) (A) (A) (A) (A) (A)
                 (A) (A) (A) (A) (A) (A) (A) (A) (A)
 The electronic state is 1-A.
 Alpha  occ. eigenvalues --  -20.02126 -19.98304 -15.29724 -15.06941 -10.89227
 Alpha  occ. eigenvalues --  -10.86569 -10.83637 -10.83415 -10.81403 -10.81375
 Alpha  occ. eigenvalues --   -1.58381  -1.40703  -1.26381  -1.20408  -1.11758
 Alpha  occ. eigenvalues --   -1.06239  -0.99075  -0.92059  -0.89456  -0.84202
 Alpha  occ. eigenvalues --   -0.82785  -0.80530  -0.79969  -0.78532  -0.73102
 Alpha  occ. eigenvalues --   -0.69593  -0.69130  -0.68314  -0.66282  -0.64473
 Alpha  occ. eigenvalues --   -0.61168  -0.59585  -0.57501  -0.56511  -0.48797
 Alpha  occ. eigenvalues --   -0.43776
 Alpha virt. eigenvalues --   -0.23972  -0.12907  -0.10165  -0.09922  -0.08968
 Alpha virt. eigenvalues --   -0.07551  -0.06457  -0.05603  -0.04499  -0.03986
 Alpha virt. eigenvalues --   -0.02485  -0.01492  -0.00954  -0.00953   0.00316
 Alpha virt. eigenvalues --    0.01002   0.02759   0.03240   0.03357   0.04374
 Alpha virt. eigenvalues --    0.04457   0.04805   0.05648   0.07125   0.07346
 Alpha virt. eigenvalues --    0.07624   0.08371   0.08874   0.09540   0.09937
 Alpha virt. eigenvalues --    0.10588   0.11869   0.12306   0.12544   0.12860
 Alpha virt. eigenvalues --    0.13484   0.14339   0.14802   0.15579   0.16175
 Alpha virt. eigenvalues --    0.16621   0.17488   0.19342   0.19994   0.20301
 Alpha virt. eigenvalues --    0.21044   0.21613   0.23142   0.23822   0.25133
 Alpha virt. eigenvalues --    0.26127   0.29245   0.30293   0.30708   0.32624
 Alpha virt. eigenvalues --    0.35698   0.36651   0.38370   0.41983   0.50566
 Alpha virt. eigenvalues --    0.52779   0.56727   0.57582   0.58552   0.61501
 Alpha virt. eigenvalues --    0.63219   0.64584   0.66618   0.67943   0.72356
 Alpha virt. eigenvalues --    0.73434   0.74403   0.76749   0.77519   0.80388
 Alpha virt. eigenvalues --    0.82827   0.83811   0.87418   0.88326   0.89066
 Alpha virt. eigenvalues --    0.90921   0.91349   0.94186   0.95105   0.97662
 Alpha virt. eigenvalues --    0.99110   0.99226   1.01257   1.02897   1.07587
 Alpha virt. eigenvalues --    1.08446   1.10394   1.13110   1.13891   1.13902
 Alpha virt. eigenvalues --    1.16567   1.19040   1.20723   1.21883   1.23720
 Alpha virt. eigenvalues --    1.24518   1.26207   1.27206   1.31225   1.31424
 Alpha virt. eigenvalues --    1.31769   1.32635   1.35940   1.39712   1.40250
 Alpha virt. eigenvalues --    1.43736   1.45499   1.49556   1.60229   1.63740
 Alpha virt. eigenvalues --    1.68615   1.70674   1.74548   1.76414   1.78495
 Alpha virt. eigenvalues --    1.78873   1.83659   1.85537   1.85915   1.89328
 Alpha virt. eigenvalues --    1.90687   1.91883   1.92193   1.92502   1.98993
 Alpha virt. eigenvalues --    2.02121   2.04358   2.06620   2.08023   2.09704
 Alpha virt. eigenvalues --    2.13731   2.14649   2.16511   2.27008   2.27320
 Alpha virt. eigenvalues --    2.33780   2.34794   2.35627   2.36129   2.36875
 Alpha virt. eigenvalues --    2.41204   2.41697   2.44468   2.45809   2.49979
 Alpha virt. eigenvalues --    2.52042   2.52869   2.55132   2.55178   2.56691
 Alpha virt. eigenvalues --    2.58644   2.64223   2.64311   2.68123   2.72730
 Alpha virt. eigenvalues --    2.73173   2.77390   2.80214   2.82491   2.94035
 Alpha virt. eigenvalues --    2.97457   3.01467   3.05204   3.09279   3.13331
 Alpha virt. eigenvalues --    3.18030   3.26767   3.32241   3.33394   3.39456
 Alpha virt. eigenvalues --    3.48651   3.51545   3.67651   3.83136   4.13869
 Alpha virt. eigenvalues --    4.21445   4.28959   4.30226   4.34680   4.46153
 Alpha virt. eigenvalues --    4.48343   4.53100   4.79345   4.86369
          Condensed to atoms (all electrons):
               1          2          3          4          5          6
     1  C    9.402438   0.476103  -2.315587  -1.752069   0.237679  -0.660212
     2  C    0.476103  12.011385  -1.905079  -1.452695  -1.165020  -0.524077
     3  C   -2.315587  -1.905079  11.205746  -0.965111   0.473860  -1.385688
     4  C   -1.752069  -1.452695  -0.965111   9.582157   0.328022   0.016781
     5  C    0.237679  -1.165020   0.473860   0.328022   5.706092   0.112328
     6  C   -0.660212  -0.524077  -1.385688   0.016781   0.112328   8.090883
     7  N    0.079368  -0.029678   0.070233  -0.097082   0.223277  -0.108709
     8  N    0.361375  -0.834353  -0.005163   0.007207   0.047158   0.082027
     9  O    0.043563  -0.363964   0.147307   0.063315  -0.001329   0.031559
    10  O   -0.193841  -0.265961   0.287481   0.016751   0.015363   0.047980
    11  H    0.041103   0.257302   0.060074   0.006200  -0.037943   0.043230
    12  H    0.034128   0.292005  -0.019210   0.095383  -0.050201   0.017554
    13  H    0.010824   0.012926   0.135878   0.124464   0.067126  -0.003577
    14  H    0.112085   0.009242   0.002764   0.000033   0.066436   0.156912
    15  H    0.018763   0.001294  -0.003965   0.033962  -0.023290  -0.041689
    16  H   -0.003990   0.001183   0.018660  -0.041515  -0.022491   0.033259
    17  H    0.035279   0.027029  -0.053746  -0.002413  -0.001411   0.004139
               7          8          9         10         11         12
     1  C    0.079368   0.361375   0.043563  -0.193841   0.041103   0.034128
     2  C   -0.029678  -0.834353  -0.363964  -0.265961   0.257302   0.292005
     3  C    0.070233  -0.005163   0.147307   0.287481   0.060074  -0.019210
     4  C   -0.097082   0.007207   0.063315   0.016751   0.006200   0.095383
     5  C    0.223277   0.047158  -0.001329   0.015363  -0.037943  -0.050201
     6  C   -0.108709   0.082027   0.031559   0.047980   0.043230   0.017554
     7  N    6.780865   0.000700  -0.000117  -0.000427  -0.000235  -0.000119
     8  N    0.000700   6.925682   0.219375   0.457743  -0.050433  -0.052189
     9  O   -0.000117   0.219375   7.779733  -0.084734  -0.002248   0.015279
    10  O   -0.000427   0.457743  -0.084734   7.715541   0.017538  -0.002396
    11  H   -0.000235  -0.050433  -0.002248   0.017538   0.447810  -0.000075
    12  H   -0.000119  -0.052189   0.015279  -0.002396  -0.000075   0.454587
    13  H   -0.014283  -0.000988   0.000100   0.000017   0.000008  -0.003275
    14  H   -0.013878  -0.000832   0.000050  -0.000013  -0.002984   0.000008
    15  H    0.341144  -0.000006   0.000000   0.000001  -0.000006   0.000002
    16  H    0.341135  -0.000001   0.000001  -0.000000   0.000002  -0.000006
    17  H    0.000005   0.026632   0.234272   0.008807   0.000005   0.000183
              13         14         15         16         17
     1  C    0.010824   0.112085   0.018763  -0.003990   0.035279
     2  C    0.012926   0.009242   0.001294   0.001183   0.027029
     3  C    0.135878   0.002764  -0.003965   0.018660  -0.053746
     4  C    0.124464   0.000033   0.033962  -0.041515  -0.002413
     5  C    0.067126   0.066436  -0.023290  -0.022491  -0.001411
     6  C   -0.003577   0.156912  -0.041689   0.033259   0.004139
     7  N   -0.014283  -0.013878   0.341144   0.341135   0.000005
     8  N   -0.000988  -0.000832  -0.000006  -0.000001   0.026632
     9  O    0.000100   0.000050   0.000000   0.000001   0.234272
    10  O    0.000017  -0.000013   0.000001  -0.000000   0.008807
    11  H    0.000008  -0.002984  -0.000006   0.000002   0.000005
    12  H   -0.003275   0.000008   0.000002  -0.000006   0.000183
    13  H    0.481860  -0.000080  -0.000029   0.003464   0.000000
    14  H   -0.000080   0.479593   0.003473  -0.000031  -0.000000
    15  H   -0.000029   0.003473   0.332464  -0.017444   0.000000
    16  H    0.003464  -0.000031  -0.017444   0.332760  -0.000000
    17  H    0.000000  -0.000000   0.000000  -0.000000   0.310347
 Mulliken charges:
               1
     1  C    0.072992
     2  C   -0.547641
     3  C    0.251546
     4  C    0.036610
     5  C    0.024345
     6  C    0.087300
     7  N   -0.572200
     8  N   -0.183935
     9  O   -0.082163
    10  O   -0.019848
    11  H    0.220652
    12  H    0.218343
    13  H    0.185564
    14  H    0.187223
    15  H    0.355326
    16  H    0.355012
    17  H    0.410873
 Sum of Mulliken charges =   1.00000
 Mulliken charges with hydrogens summed into heavy atoms:
               1
     1  C    0.293644
     2  C   -0.547641
     3  C    0.469889
     4  C    0.222174
     5  C    0.024345
     6  C    0.274523
     7  N    0.138139
     8  N   -0.183935
     9  O    0.328710
    10  O   -0.019848
 Electronic spatial extent (au):  <R**2>=           1544.3245
 Charge=              1.0000 electrons
 Dipole moment (field-independent basis, Debye):
    X=             -3.3816    Y=             -1.1765    Z=              0.0005  Tot=              3.5804
 Quadrupole moment (field-independent basis, Debye-Ang):
   XX=             -9.2475   YY=            -44.8596   ZZ=            -59.0263
   XY=             -4.9975   XZ=              0.0002   YZ=             -0.0007
 Traceless Quadrupole moment (field-independent basis, Debye-Ang):
   XX=             28.4636   YY=             -7.1484   ZZ=            -21.3152
   XY=             -4.9975   XZ=              0.0002   YZ=             -0.0007
 Octapole moment (field-independent basis, Debye-Ang**2):
  XXX=            -37.5539  YYY=             -1.1553  ZZZ=              0.0030  XYY=            -12.7249
  XXY=            -22.4673  XXZ=              0.0295  XZZ=             11.7697  YZZ=              0.2770
  YYZ=              0.0023  XYZ=             -0.0064
 Hexadecapole moment (field-independent basis, Debye-Ang**3):
 XXXX=           -680.9005 YYYY=           -335.2282 ZZZZ=            -59.7173 XXXY=            -84.0746
 XXXZ=              0.0476 YYYX=             -4.0269 YYYZ=              0.0008 ZZZX=              0.0163
 ZZZY=             -0.0007 XXYY=           -245.2702 XXZZ=           -264.7663 YYZZ=            -82.2370
 XXYZ=             -0.0205 YYXZ=              0.0064 ZZXY=              0.2670
 N-N= 5.101219227400D+02 E-N=-2.154221639993D+03  KE= 4.882544966748D+02
 Calling FoFJK, ICntrl=  10002127 FMM=F ISym2X=0 I1Cent= 0 IOpClX= 0 NMat=1 NMatS=1 NMatT=0.
 ***** Axes restored to original set *****
 -------------------------------------------------------------------
 Center     Atomic                   Forces (Hartrees/Bohr)
 Number     Number              X              Y              Z
 -------------------------------------------------------------------
      1        6          -0.006027148    0.002215436    0.000021683
      2        6           0.005534483   -0.001399826    0.000034386
      3        6          -0.006011450   -0.001843944    0.000019847
      4        6           0.006350673   -0.000492433   -0.000002117
      5        6          -0.005669571   -0.000237674    0.000002437
      6        6           0.005726533    0.000391830   -0.000001477
      7        7           0.008036917   -0.000109755   -0.000001173
      8        7           0.015639370   -0.006554988   -0.000178198
      9        8          -0.006765041   -0.020009712    0.000043511
     10        8          -0.016578519    0.027059230    0.000061075
     11        1           0.000947753   -0.001450789   -0.000000474
     12        1           0.001011998    0.001478180    0.000001122
     13        1          -0.000599260    0.000843529   -0.000003575
     14        1          -0.000647765   -0.000777312   -0.000004069
     15        1          -0.000094380   -0.000850823    0.000000011
     16        1          -0.000074081    0.000814334   -0.000000077
     17        1          -0.000780511    0.000924718    0.000007087
 -------------------------------------------------------------------
 Cartesian Forces:  Max     0.027059230 RMS     0.006317825

 GradGradGradGradGradGradGradGradGradGradGradGradGradGradGradGradGradGrad
 Berny optimization.
 FormGI is forming the generalized inverse of G from B-inverse, IUseBI=4.
 GSVD:  received Info=                   1 from GESDD.
 Internal  Forces:  Max     0.031708810 RMS     0.004695606
 Search for a local minimum.
 Step number   1 out of a maximum of   86
 All quantities printed in internal units (Hartrees-Bohrs-Radians)
 Mixed Optimization -- RFO/linear search
 Second derivative matrix not updated -- first step.
 ITU=  0
     Eigenvalues ---    0.01709   0.01843   0.01950   0.01984   0.02016
     Eigenvalues ---    0.02067   0.02128   0.02166   0.02170   0.02188
     Eigenvalues ---    0.02298   0.02318   0.02628   0.02628   0.16000
     Eigenvalues ---    0.16000   0.16000   0.16000   0.16000   0.16000
     Eigenvalues ---    0.16000   0.22000   0.22950   0.24000   0.25000
     Eigenvalues ---    0.25000   0.25000   0.25000   0.35417   0.35420
     Eigenvalues ---    0.35427   0.35587   0.38152   0.39667   0.41471
     Eigenvalues ---    0.41595   0.45825   0.45835   0.49569   0.51697
     Eigenvalues ---    0.52442   0.52648   0.55470   0.59685   1.02613
 RFO step:  Lambda=-2.25277886D-03 EMin= 1.70943082D-02
 Linear search not attempted -- first point.
 Iteration  1 RMS(Cart)=  0.01190730 RMS(Int)=  0.00002555
 Iteration  2 RMS(Cart)=  0.00004110 RMS(Int)=  0.00000202
 Iteration  3 RMS(Cart)=  0.00000000 RMS(Int)=  0.00000202
 Variable       Old X    -DE/DX   Delta X   Delta X   Delta X     New X
                                 (Linear)    (Quad)   (Total)
    R1        2.68940   0.00098   0.00000   0.00238   0.00239   2.69179
    R2        2.57186   0.00635   0.00000   0.01197   0.01197   2.58383
    R3        2.04987  -0.00173   0.00000  -0.00485  -0.00485   2.04502
    R4        2.68887   0.00116   0.00000   0.00282   0.00283   2.69170
    R5        2.57478   0.00855   0.00000   0.01623   0.01623   2.59101
    R6        2.57389   0.00669   0.00000   0.01269   0.01269   2.58658
    R7        2.04733  -0.00179   0.00000  -0.00500  -0.00500   2.04233
    R8        2.70524   0.00015   0.00000   0.00029   0.00029   2.70553
    R9        2.05003  -0.00103   0.00000  -0.00289  -0.00289   2.04714
   R10        2.70586   0.00060   0.00000   0.00139   0.00138   2.70724
   R11        2.51190   0.00787   0.00000   0.01314   0.01314   2.52504
   R12        2.04999  -0.00100   0.00000  -0.00281  -0.00281   2.04718
   R13        1.91030  -0.00077   0.00000  -0.00167  -0.00167   1.90863
   R14        1.91018  -0.00074   0.00000  -0.00161  -0.00161   1.90858
   R15        2.54717   0.02039   0.00000   0.03661   0.03661   2.58378
   R16        2.27610   0.03171   0.00000   0.03083   0.03083   2.30693
   R17        1.84890   0.00097   0.00000   0.00187   0.00187   1.85077
    A1        2.08148   0.00050   0.00000   0.00209   0.00210   2.08357
    A2        2.08549  -0.00015   0.00000  -0.00045  -0.00045   2.08504
    A3        2.11622  -0.00035   0.00000  -0.00164  -0.00164   2.11457
    A4        2.11960  -0.00146   0.00000  -0.00578  -0.00578   2.11382
    A5        2.05206   0.00028   0.00000   0.00108   0.00108   2.05314
    A6        2.11153   0.00119   0.00000   0.00470   0.00470   2.11622
    A7        2.07684   0.00061   0.00000   0.00268   0.00268   2.07952
    A8        2.10071  -0.00021   0.00000  -0.00078  -0.00078   2.09993
    A9        2.10563  -0.00039   0.00000  -0.00190  -0.00190   2.10373
   A10        2.10215   0.00069   0.00000   0.00277   0.00277   2.10492
   A11        2.09807  -0.00046   0.00000  -0.00208  -0.00208   2.09599
   A12        2.08296  -0.00023   0.00000  -0.00069  -0.00069   2.08227
   A13        2.08817  -0.00121   0.00000  -0.00528  -0.00528   2.08289
   A14        2.09802   0.00059   0.00000   0.00256   0.00256   2.10058
   A15        2.09700   0.00063   0.00000   0.00272   0.00272   2.09972
   A16        2.09813   0.00088   0.00000   0.00351   0.00351   2.10164
   A17        2.10048  -0.00059   0.00000  -0.00267  -0.00267   2.09781
   A18        2.08457  -0.00029   0.00000  -0.00084  -0.00084   2.08373
   A19        2.11983   0.00026   0.00000   0.00161   0.00161   2.12144
   A20        2.12077   0.00020   0.00000   0.00124   0.00124   2.12201
   A21        2.04259  -0.00046   0.00000  -0.00285  -0.00285   2.03973
   A22        2.00965  -0.00206   0.00000  -0.00817  -0.00817   2.00148
   A23        2.21104  -0.00042   0.00000  -0.00166  -0.00166   2.20937
   A24        2.06250   0.00248   0.00000   0.00983   0.00983   2.07233
   A25        1.83120  -0.00134   0.00000  -0.00825  -0.00825   1.82295
    D1       -0.00011   0.00001   0.00000   0.00035   0.00035   0.00024
    D2        3.14157   0.00000   0.00000   0.00003   0.00003  -3.14158
    D3        3.14154   0.00000   0.00000   0.00016   0.00016  -3.14148
    D4        0.00005  -0.00000   0.00000  -0.00016  -0.00016  -0.00011
    D5        0.00005  -0.00000   0.00000  -0.00015  -0.00015  -0.00010
    D6       -3.14153  -0.00001   0.00000  -0.00021  -0.00021   3.14145
    D7        3.14158   0.00000   0.00000   0.00004   0.00004  -3.14156
    D8        0.00000  -0.00000   0.00000  -0.00002  -0.00002  -0.00002
    D9        0.00011  -0.00001   0.00000  -0.00035  -0.00034  -0.00024
   D10       -3.14153  -0.00000   0.00000  -0.00020  -0.00020   3.14146
   D11       -3.14158  -0.00000   0.00000  -0.00002  -0.00002   3.14159
   D12       -0.00004   0.00000   0.00000   0.00013   0.00013   0.00009
   D13        3.14070   0.00006   0.00000   0.00240   0.00239  -3.14010
   D14        0.00081  -0.00005   0.00000  -0.00214  -0.00214  -0.00133
   D15       -0.00080   0.00005   0.00000   0.00208   0.00208   0.00128
   D16       -3.14069  -0.00006   0.00000  -0.00246  -0.00245   3.14005
   D17       -0.00005   0.00000   0.00000   0.00014   0.00015   0.00010
   D18        3.14153   0.00000   0.00000   0.00019   0.00019  -3.14146
   D19       -3.14159  -0.00000   0.00000  -0.00000  -0.00000   3.14159
   D20       -0.00001   0.00000   0.00000   0.00004   0.00004   0.00003
   D21       -0.00001   0.00000   0.00000   0.00004   0.00004   0.00003
   D22        3.14158   0.00000   0.00000   0.00004   0.00004  -3.14156
   D23       -3.14159  -0.00000   0.00000   0.00000   0.00000  -3.14159
   D24        0.00000  -0.00000   0.00000  -0.00000  -0.00000  -0.00000
   D25        0.00001  -0.00000   0.00000  -0.00004  -0.00004  -0.00003
   D26        3.14159   0.00000   0.00000   0.00002   0.00002  -3.14158
   D27       -3.14159  -0.00000   0.00000  -0.00003  -0.00003   3.14157
   D28       -0.00001   0.00000   0.00000   0.00003   0.00003   0.00002
   D29        3.14159  -0.00000   0.00000   0.00000   0.00000  -3.14159
   D30       -0.00000  -0.00000   0.00000   0.00000   0.00000   0.00000
   D31        0.00000   0.00000   0.00000  -0.00000  -0.00000  -0.00000
   D32       -3.14159   0.00000   0.00000  -0.00000  -0.00000   3.14159
   D33       -3.14073  -0.00005   0.00000  -0.00235  -0.00236   3.14010
   D34       -0.00069   0.00004   0.00000   0.00177   0.00178   0.00109
         Item               Value     Threshold  Converged?
 Maximum Force            0.031709     0.000450     NO 
 RMS     Force            0.004696     0.000300     NO 
 Maximum Displacement     0.039668     0.001800     NO 
 RMS     Displacement     0.011892     0.001200     NO 
 Predicted change in Energy=-1.130384D-03
 GradGradGradGradGradGradGradGradGradGradGradGradGradGradGradGradGradGrad

                          Input orientation:                          
 ---------------------------------------------------------------------
 Center     Atomic      Atomic             Coordinates (Angstroms)
 Number     Number       Type             X           Y           Z
 ---------------------------------------------------------------------
      1          6           0        0.055628    1.263409   -0.000342
      2          6           0       -0.670457    0.037925   -0.000723
      3          6           0        0.003527   -1.216914   -0.000511
      4          6           0        1.372114   -1.238586   -0.000214
      5          6           0        2.120393   -0.017990    0.000006
      6          6           0        1.422596    1.233189   -0.000047
      7          7           0        3.456313   -0.044949    0.000263
      8          7           0       -2.039667    0.109924   -0.001030
      9          8           0       -2.674948   -1.100804    0.000474
     10          8           0       -2.714840    1.126996    0.000287
     11          1           0       -0.483656    2.201640   -0.000412
     12          1           0       -0.560234   -2.138982   -0.000677
     13          1           0        1.900354   -2.184367   -0.000171
     14          1           0        1.988022    2.157245    0.000107
     15          1           0        4.002039    0.804926    0.000422
     16          1           0        3.967794   -0.915832    0.000305
     17          1           0       -3.628303   -0.876506    0.001449
 ---------------------------------------------------------------------
                    Distance matrix (angstroms):
                    1          2          3          4          5
     1  C    0.000000
     2  C    1.424433   0.000000
     3  C    2.480870   1.424386   0.000000
     4  C    2.827209   2.408646   1.368758   0.000000
     5  C    2.430070   2.791410   2.432805   1.431704   0.000000
     6  C    1.367302   2.410296   2.831389   2.472291   1.432610
     7  N    3.643688   4.127602   3.646263   2.401803   1.336192
     8  N    2.391817   1.371102   2.436215   3.668614   4.162027
     9  O    3.611862   2.305361   2.680991   4.049407   4.916074
    10  O    2.773824   2.316372   3.589351   4.722200   4.968951
    11  H    1.082176   2.171764   3.453095   3.908841   3.421671
    12  H    3.457679   2.179696   1.080756   2.131826   3.418240
    13  H    3.910265   3.398183   2.129300   1.083300   2.177523
    14  H    2.129106   3.399858   3.914483   3.451234   2.179260
    15  H    3.972955   4.735030   4.480618   3.330533   2.053724
    16  H    4.478185   4.735296   3.975684   2.615669   2.054023
    17  H    4.260350   3.095972   3.647749   5.013509   5.812449
                    6          7          8          9         10
     6  C    0.000000
     7  N    2.402008   0.000000
     8  N    3.639917   5.498162   0.000000
     9  O    4.715654   6.221511   1.367278   0.000000
    10  O    4.138799   6.281448   1.220777   2.228158   0.000000
    11  H    2.138152   4.535473   2.607000   3.963320   2.476498
    12  H    3.911924   4.529638   2.691896   2.355808   3.912665
    13  H    3.450789   2.645396   4.559335   4.701861   5.680241
    14  H    1.083322   2.646797   4.518164   5.688425   4.814388
    15  H    2.614754   1.010002   6.081550   6.943628   6.724596
    16  H    3.331115   1.009975   6.094405   6.645317   6.987900
    17  H    5.473792   7.133251   1.869977   0.979385   2.201917
                   11         12         13         14         15
    11  H    0.000000
    12  H    4.341298   0.000000
    13  H    4.992050   2.461006   0.000000
    14  H    2.472077   4.995115   4.342498   0.000000
    15  H    4.698114   5.429634   3.654170   2.425909   0.000000
    16  H    5.434523   4.690323   2.425591   3.655585   1.721099
    17  H    4.400431   3.317665   5.681245   6.383319   7.813408
                   16         17
    16  H    0.000000
    17  H    7.596199   0.000000
 Stoichiometry    C6H7N2O2(1+)
 Framework group  C1[X(C6H7N2O2)]
 Deg. of freedom    45
 Full point group                 C1      NOp   1
 Largest Abelian subgroup         C1      NOp   1
 Largest concise Abelian subgroup C1      NOp   1
                         Standard orientation:                         
 ---------------------------------------------------------------------
 Center     Atomic      Atomic             Coordinates (Angstroms)
 Number     Number       Type             X           Y           Z
 ---------------------------------------------------------------------
      1          6           0       -0.057316    1.262375    0.000215
      2          6           0        0.667841    0.036342    0.000596
      3          6           0       -0.007091   -1.217987    0.000385
      4          6           0       -1.375694   -1.238624    0.000087
      5          6           0       -2.123050   -0.017463   -0.000132
      6          6           0       -1.424307    1.233189   -0.000080
      7          7           0       -3.458990   -0.043411   -0.000390
      8          7           0        2.037106    0.107306    0.000903
      9          8           0        2.671471   -1.103902   -0.000600
     10          8           0        2.713047    1.123868   -0.000413
     11          1           0        0.482676    2.200198    0.000285
     12          1           0        0.555972   -2.140481    0.000551
     13          1           0       -1.904649   -2.184005    0.000045
     14          1           0       -1.989035    2.157672   -0.000233
     15          1           0       -4.004074    0.806876   -0.000549
     16          1           0       -3.971130   -0.913907   -0.000432
     17          1           0        3.624995   -0.880325   -0.001576
 ---------------------------------------------------------------------
 Rotational constants (GHZ):      3.7509041      0.8188137      0.6720967
 Standard basis: 6-31+G(d,p) (6D, 7F)
 There are   225 symmetry adapted cartesian basis functions of A   symmetry.
 There are   225 symmetry adapted basis functions of A   symmetry.
   225 basis functions,   369 primitive gaussians,   225 cartesian basis functions
    36 alpha electrons       36 beta electrons
       nuclear repulsion energy       507.5918212812 Hartrees.
 NAtoms=   17 NActive=   17 NUniq=   17 SFac= 1.00D+00 NAtFMM=   60 NAOKFM=F Big=F
 Integral buffers will be    131072 words long.
 Regular integral format.
 Two-electron integral symmetry is turned on.
 One-electron integrals computed using PRISM.
 NBasis=   225 RedAO= T EigKep=  3.41D-06  NBF=   225
 NBsUse=   225 1.00D-06 EigRej= -1.00D+00 NBFU=   225
 Initial guess from the checkpoint file:  "B2PLYPPNAyang.chk"
 B after Tr=    -0.000000    0.000000   -0.000000
         Rot=    1.000000   -0.000003    0.000011    0.000210 Ang=  -0.02 deg.
 ExpMin= 4.38D-02 ExpMax= 5.48D+03 ExpMxC= 8.25D+02 IAcc=2 IRadAn=         4 AccDes= 0.00D+00
 Harris functional with IExCor=  419 and IRadAn=       4 diagonalized for initial guess.
 HarFok:  IExCor=  419 AccDes= 0.00D+00 IRadAn=         4 IDoV= 1 UseB2=F ITyADJ=14
 ICtDFT=  3500011 ScaDFX=  1.000000  1.000000  1.000000  1.000000
 FoFCou: FMM=F IPFlag=           0 FMFlag=      100000 FMFlg1=           0
         NFxFlg=           0 DoJE=T BraDBF=F KetDBF=T FulRan=T
         wScrn=  0.000000 ICntrl=     500 IOpCl=  0 I1Cent=   200000004 NGrid=           0
         NMat0=    1 NMatS0=      1 NMatT0=    0 NMatD0=    1 NMtDS0=    0 NMtDT0=    0
 Petite list used in FoFCou.
 Keep R1 ints in memory in canonical form, NReq=329175655.
 Requested convergence on RMS density matrix=1.00D-08 within 128 cycles.
 Requested convergence on MAX density matrix=1.00D-06.
 Requested convergence on             energy=1.00D-06.
 No special actions if energy rises.
 SCF Done:  E(RB2PLYP) =  -491.508611074     A.U. after   13 cycles
            NFock= 13  Conv=0.65D-08     -V/T= 2.0070
 DoSCS=T DFT=T ScalE2(SS,OS)=  0.270000  0.270000
 ExpMin= 4.38D-02 ExpMax= 5.48D+03 ExpMxC= 8.25D+02 IAcc=3 IRadAn=         5 AccDes= 0.00D+00
 HarFok:  IExCor=  205 AccDes= 0.00D+00 IRadAn=         5 IDoV=-2 UseB2=F ITyADJ=14
 ICtDFT= 12500011 ScaDFX=  1.000000  1.000000  1.000000  1.000000
 Range of M.O.s used for correlation:    11   225
 NBasis=   225 NAE=    36 NBE=    36 NFC=    10 NFV=     0
 NROrb=    215 NOA=    26 NOB=    26 NVA=   189 NVB=   189

 **** Warning!!: The largest alpha MO coefficient is  0.11909350D+03

 DoSCS=T DFT=T ScalE2(SS,OS)=  0.270000  0.270000
 Fully direct method using O(ONN) memory.
 JobTyp=1 Pass  1:  I=  11 to  18 NPSUse= 18 ParTrn=T ParDer=T DoDerP=T.
 JobTyp=1 Pass  2:  I=  19 to  26 NPSUse= 18 ParTrn=T ParDer=T DoDerP=T.
 JobTyp=1 Pass  3:  I=  27 to  34 NPSUse= 18 ParTrn=T ParDer=T DoDerP=T.
 JobTyp=1 Pass  4:  I=  35 to  36 NPSUse= 18 ParTrn=T ParDer=T DoDerP=T.
 Spin components of T(2) and E(2):
     alpha-alpha T2 =       0.1145695023D+00 E2=     -0.6893896890D-01
     alpha-beta  T2 =       0.6223014306D+00 E2=     -0.3701807232D+00
     beta-beta   T2 =       0.1145695023D+00 E2=     -0.6893896890D-01
 E2(B2PLYP) =    -0.5080586610D+00 E(B2PLYP) =    -0.49201666973507D+03
          IDoAtm=11111111111111111
          Differentiating once with respect to electric field.
                with respect to dipole field.
          Differentiating once with respect to nuclear coordinates.
 Keep R1 ints in memory in canonical form, NReq=329001650.
          There are     1 degrees of freedom in the 1st order CPHF.  IDoFFX=0 NUNeed=     1.
 LinEq1:  Iter=  0 NonCon=     1 RMS=2.50D-03 Max=1.13D-01 NDo=     1
 AX will form     1 AO Fock derivatives at one time.
 LinEq1:  Iter=  1 NonCon=     1 RMS=1.19D-03 Max=4.16D-02 NDo=     1
 LinEq1:  Iter=  2 NonCon=     1 RMS=5.32D-04 Max=9.70D-03 NDo=     1
 LinEq1:  Iter=  3 NonCon=     1 RMS=4.50D-04 Max=1.64D-02 NDo=     1
 LinEq1:  Iter=  4 NonCon=     1 RMS=2.06D-04 Max=7.63D-03 NDo=     1
 LinEq1:  Iter=  5 NonCon=     1 RMS=1.04D-04 Max=4.65D-03 NDo=     1
 LinEq1:  Iter=  6 NonCon=     1 RMS=7.46D-05 Max=3.11D-03 NDo=     1
 LinEq1:  Iter=  7 NonCon=     1 RMS=2.72D-05 Max=9.03D-04 NDo=     1
 LinEq1:  Iter=  8 NonCon=     1 RMS=1.05D-05 Max=1.94D-04 NDo=     1
 LinEq1:  Iter=  9 NonCon=     1 RMS=4.47D-06 Max=1.11D-04 NDo=     1
 LinEq1:  Iter= 10 NonCon=     1 RMS=2.12D-06 Max=4.50D-05 NDo=     1
 LinEq1:  Iter= 11 NonCon=     1 RMS=7.60D-07 Max=1.21D-05 NDo=     1
 LinEq1:  Iter= 12 NonCon=     1 RMS=2.77D-07 Max=6.56D-06 NDo=     1
 LinEq1:  Iter= 13 NonCon=     1 RMS=1.47D-07 Max=3.08D-06 NDo=     1
 LinEq1:  Iter= 14 NonCon=     1 RMS=5.28D-08 Max=7.24D-07 NDo=     1
 LinEq1:  Iter= 15 NonCon=     1 RMS=2.94D-08 Max=6.89D-07 NDo=     1
 LinEq1:  Iter= 16 NonCon=     1 RMS=1.15D-08 Max=2.41D-07 NDo=     1
 LinEq1:  Iter= 17 NonCon=     1 RMS=3.91D-09 Max=9.21D-08 NDo=     1
 LinEq1:  Iter= 18 NonCon=     1 RMS=2.02D-09 Max=6.43D-08 NDo=     1
 LinEq1:  Iter= 19 NonCon=     1 RMS=5.68D-10 Max=2.19D-08 NDo=     1
 LinEq1:  Iter= 20 NonCon=     1 RMS=1.90D-10 Max=5.96D-09 NDo=     1
 LinEq1:  Iter= 21 NonCon=     1 RMS=1.00D-10 Max=2.34D-09 NDo=     1
 LinEq1:  Iter= 22 NonCon=     0 RMS=3.56D-11 Max=5.81D-10 NDo=     1
 Linear equations converged to 1.000D-10 1.000D-09 after    22 iterations.
 End of Minotr F.D. properties file   721 does not exist.
 End of Minotr F.D. properties file   722 does not exist.
 End of Minotr F.D. properties file   788 does not exist.
 Calling FoFJK, ICntrl=  10002127 FMM=F ISym2X=0 I1Cent= 0 IOpClX= 0 NMat=1 NMatS=1 NMatT=0.
 ***** Axes restored to original set *****
 -------------------------------------------------------------------
 Center     Atomic                   Forces (Hartrees/Bohr)
 Number     Number              X              Y              Z
 -------------------------------------------------------------------
      1        6          -0.000415206    0.000084219   -0.000036944
      2        6           0.000451035   -0.000370524   -0.000047584
      3        6          -0.000629699    0.000052133   -0.000033178
      4        6           0.000598487    0.000582557    0.000001167
      5        6          -0.001495034   -0.000014570   -0.000002563
      6        6           0.000530533   -0.000469009   -0.000000352
      7        7           0.000178113    0.000034917    0.000000200
      8        7           0.007457535    0.001558137    0.000315294
      9        8          -0.002545297   -0.005243385   -0.000078401
     10        8          -0.003393574    0.003080352   -0.000118023
     11        1           0.000178228    0.000199051    0.000000623
     12        1           0.000119404   -0.000200603   -0.000002428
     13        1          -0.000338429   -0.000213166    0.000006810
     14        1          -0.000278771    0.000214064    0.000007961
     15        1          -0.000118038    0.000141739    0.000000065
     16        1          -0.000129483   -0.000140565    0.000000084
     17        1          -0.000169802    0.000704651   -0.000012731
 -------------------------------------------------------------------
 Cartesian Forces:  Max     0.007457535 RMS     0.001524542

 GradGradGradGradGradGradGradGradGradGradGradGradGradGradGradGradGradGrad
 Berny optimization.
 Using GEDIIS/GDIIS optimizer.
 FormGI is forming the generalized inverse of G from B-inverse, IUseBI=4.
 GSVD:  received Info=                   1 from GESDD.
 Internal  Forces:  Max     0.005279811 RMS     0.000884385
 Search for a local minimum.
 Step number   2 out of a maximum of   86
 All quantities printed in internal units (Hartrees-Bohrs-Radians)
 Mixed Optimization -- En-DIIS/RFO-DIIS
 Update second derivatives using D2CorX and points    1    2
 DE= -1.24D-03 DEPred=-1.13D-03 R= 1.10D+00
 TightC=F SS=  1.41D+00  RLast= 5.96D-02 DXNew= 5.0454D-01 1.7866D-01
 Trust test= 1.10D+00 RLast= 5.96D-02 DXMaxT set to 3.00D-01
 ITU=  1  0
 Use linear search instead of GDIIS.
     Eigenvalues ---    0.01710   0.01844   0.01952   0.01984   0.02016
     Eigenvalues ---    0.02069   0.02130   0.02165   0.02170   0.02188
     Eigenvalues ---    0.02300   0.02318   0.02628   0.02628   0.15771
     Eigenvalues ---    0.16000   0.16000   0.16000   0.16000   0.16000
     Eigenvalues ---    0.16023   0.22001   0.22942   0.24238   0.24931
     Eigenvalues ---    0.25000   0.25000   0.25688   0.35418   0.35421
     Eigenvalues ---    0.35462   0.35636   0.38166   0.39651   0.41509
     Eigenvalues ---    0.41595   0.45828   0.45842   0.47449   0.49575
     Eigenvalues ---    0.51720   0.52572   0.55290   0.60621   0.96961
 RFO step:  Lambda=-1.11516101D-04 EMin= 1.70957103D-02
 Quartic linear search produced a step of  0.14027.
 Iteration  1 RMS(Cart)=  0.00273475 RMS(Int)=  0.00001682
 Iteration  2 RMS(Cart)=  0.00001523 RMS(Int)=  0.00000402
 Iteration  3 RMS(Cart)=  0.00000000 RMS(Int)=  0.00000402
 Variable       Old X    -DE/DX   Delta X   Delta X   Delta X     New X
                                 (Linear)    (Quad)   (Total)
    R1        2.69179  -0.00027   0.00033  -0.00089  -0.00056   2.69123
    R2        2.58383  -0.00055   0.00168  -0.00217  -0.00049   2.58334
    R3        2.04502   0.00008  -0.00068   0.00065  -0.00003   2.04498
    R4        2.69170  -0.00057   0.00040  -0.00177  -0.00137   2.69033
    R5        2.59101  -0.00134   0.00228  -0.00425  -0.00197   2.58903
    R6        2.58658  -0.00050   0.00178  -0.00214  -0.00036   2.58622
    R7        2.04233   0.00011  -0.00070   0.00074   0.00004   2.04237
    R8        2.70553  -0.00049   0.00004  -0.00142  -0.00138   2.70415
    R9        2.04714   0.00002  -0.00040   0.00029  -0.00011   2.04703
   R10        2.70724  -0.00051   0.00019  -0.00155  -0.00135   2.70589
   R11        2.52504  -0.00007   0.00184  -0.00123   0.00062   2.52565
   R12        2.04718   0.00004  -0.00039   0.00034  -0.00006   2.04713
   R13        1.90863   0.00006  -0.00023   0.00027   0.00004   1.90867
   R14        1.90858   0.00006  -0.00023   0.00027   0.00004   1.90862
   R15        2.58378   0.00528   0.00514   0.00783   0.01296   2.59674
   R16        2.30693   0.00444   0.00433   0.00228   0.00660   2.31354
   R17        1.85077   0.00033   0.00026   0.00057   0.00083   1.85160
    A1        2.08357  -0.00045   0.00029  -0.00227  -0.00198   2.08159
    A2        2.08504   0.00048  -0.00006   0.00295   0.00289   2.08793
    A3        2.11457  -0.00003  -0.00023  -0.00068  -0.00091   2.11367
    A4        2.11382   0.00081  -0.00081   0.00429   0.00348   2.11730
    A5        2.05314  -0.00031   0.00015  -0.00160  -0.00144   2.05169
    A6        2.11622  -0.00049   0.00066  -0.00269  -0.00203   2.11419
    A7        2.07952  -0.00049   0.00038  -0.00258  -0.00221   2.07731
    A8        2.09993   0.00046  -0.00011   0.00276   0.00265   2.10258
    A9        2.10373   0.00004  -0.00027  -0.00017  -0.00044   2.10329
   A10        2.10492  -0.00020   0.00039  -0.00111  -0.00073   2.10419
   A11        2.09599  -0.00031  -0.00029  -0.00231  -0.00261   2.09339
   A12        2.08227   0.00051  -0.00010   0.00343   0.00333   2.08560
   A13        2.08289   0.00061  -0.00074   0.00325   0.00251   2.08540
   A14        2.10058  -0.00027   0.00036  -0.00146  -0.00110   2.09947
   A15        2.09972  -0.00034   0.00038  -0.00179  -0.00141   2.09831
   A16        2.10164  -0.00028   0.00049  -0.00157  -0.00107   2.10057
   A17        2.09781  -0.00022  -0.00037  -0.00171  -0.00208   2.09573
   A18        2.08373   0.00050  -0.00012   0.00327   0.00315   2.08688
   A19        2.12144  -0.00011   0.00023  -0.00086  -0.00064   2.12080
   A20        2.12201  -0.00012   0.00017  -0.00094  -0.00077   2.12124
   A21        2.03973   0.00023  -0.00040   0.00180   0.00140   2.04114
   A22        2.00148   0.00045  -0.00115   0.00263   0.00147   2.00295
   A23        2.20937   0.00107  -0.00023   0.00502   0.00478   2.21415
   A24        2.07233  -0.00152   0.00138  -0.00763  -0.00626   2.06607
   A25        1.82295  -0.00120  -0.00116  -0.00802  -0.00918   1.81377
    D1        0.00024  -0.00001   0.00005  -0.00073  -0.00068  -0.00044
    D2       -3.14158  -0.00000   0.00000  -0.00006  -0.00006   3.14155
    D3       -3.14148  -0.00001   0.00002  -0.00033  -0.00031   3.14139
    D4       -0.00011   0.00001  -0.00002   0.00034   0.00032   0.00020
    D5       -0.00010   0.00001  -0.00002   0.00031   0.00029   0.00019
    D6        3.14145   0.00001  -0.00003   0.00046   0.00043  -3.14131
    D7       -3.14156  -0.00000   0.00001  -0.00009  -0.00009   3.14153
    D8       -0.00002   0.00000  -0.00000   0.00006   0.00005   0.00004
    D9       -0.00024   0.00001  -0.00005   0.00072   0.00067   0.00044
   D10        3.14146   0.00001  -0.00003   0.00041   0.00039  -3.14134
   D11        3.14159   0.00000  -0.00000   0.00003   0.00003  -3.14157
   D12        0.00009  -0.00001   0.00002  -0.00028  -0.00026  -0.00017
   D13       -3.14010  -0.00009   0.00034  -0.00447  -0.00414   3.13895
   D14       -0.00133   0.00008  -0.00030   0.00389   0.00360   0.00228
   D15        0.00128  -0.00008   0.00029  -0.00380  -0.00352  -0.00224
   D16        3.14005   0.00009  -0.00034   0.00456   0.00423  -3.13891
   D17        0.00010  -0.00001   0.00002  -0.00030  -0.00028  -0.00018
   D18       -3.14146  -0.00001   0.00003  -0.00041  -0.00038   3.14134
   D19        3.14159   0.00000  -0.00000   0.00001   0.00001  -3.14158
   D20        0.00003  -0.00000   0.00001  -0.00010  -0.00009  -0.00006
   D21        0.00003  -0.00000   0.00001  -0.00010  -0.00010  -0.00007
   D22       -3.14156  -0.00000   0.00001  -0.00009  -0.00008   3.14154
   D23       -3.14159   0.00000   0.00000   0.00000   0.00000  -3.14159
   D24       -0.00000   0.00000  -0.00000   0.00002   0.00002   0.00002
   D25       -0.00003   0.00000  -0.00001   0.00010   0.00009   0.00006
   D26       -3.14158  -0.00000   0.00000  -0.00005  -0.00005   3.14156
   D27        3.14157   0.00000  -0.00000   0.00008   0.00008  -3.14154
   D28        0.00002  -0.00000   0.00000  -0.00007  -0.00006  -0.00005
   D29       -3.14159   0.00000   0.00000  -0.00001  -0.00001   3.14159
   D30        0.00000  -0.00000   0.00000  -0.00001  -0.00001  -0.00001
   D31       -0.00000   0.00000  -0.00000   0.00001   0.00001   0.00001
   D32        3.14159  -0.00000  -0.00000   0.00000   0.00000  -3.14159
   D33        3.14010   0.00009  -0.00033   0.00444   0.00409  -3.13900
   D34        0.00109  -0.00007   0.00025  -0.00324  -0.00297  -0.00188
         Item               Value     Threshold  Converged?
 Maximum Force            0.005280     0.000450     NO 
 RMS     Force            0.000884     0.000300     NO 
 Maximum Displacement     0.010436     0.001800     NO 
 RMS     Displacement     0.002736     0.001200     NO 
 Predicted change in Energy=-7.290666D-05
 GradGradGradGradGradGradGradGradGradGradGradGradGradGradGradGradGradGrad

                          Input orientation:                          
 ---------------------------------------------------------------------
 Center     Atomic      Atomic             Coordinates (Angstroms)
 Number     Number       Type             X           Y           Z
 ---------------------------------------------------------------------
      1          6           0        0.056469    1.264369    0.000448
      2          6           0       -0.667469    0.037958    0.001144
      3          6           0        0.003854   -1.217485    0.000760
      4          6           0        1.372260   -1.238658    0.000226
      5          6           0        2.118832   -0.017872   -0.000167
      6          6           0        1.423166    1.233675   -0.000079
      7          7           0        3.455077   -0.044856   -0.000626
      8          7           0       -2.035650    0.109650    0.001706
      9          8           0       -2.675688   -1.106327   -0.000938
     10          8           0       -2.717810    1.126257   -0.000554
     11          1           0       -0.481625    2.203263    0.000574
     12          1           0       -0.559178   -2.140020    0.001065
     13          1           0        1.898349   -2.185570    0.000164
     14          1           0        1.986980    2.158682   -0.000344
     15          1           0        4.000286    0.805374   -0.000911
     16          1           0        3.965888   -0.916159   -0.000699
     17          1           0       -3.627068   -0.871957   -0.002583
 ---------------------------------------------------------------------
                    Distance matrix (angstroms):
                    1          2          3          4          5
     1  C    0.000000
     2  C    1.424138   0.000000
     3  C    2.482412   1.423661   0.000000
     4  C    2.827800   2.406293   1.368570   0.000000
     5  C    2.428473   2.786860   2.431502   1.430975   0.000000
     6  C    1.367042   2.408422   2.832425   2.472858   1.431894
     7  N    3.642061   4.123378   3.644997   2.400685   1.336518
     8  N    2.389632   1.370058   2.433282   3.664940   4.156439
     9  O    3.617303   2.311350   2.681847   4.050111   4.916518
    10  O    2.777715   2.321270   3.591738   4.724563   4.970124
    11  H    1.082159   2.173265   3.455026   3.909439   3.419915
    12  H    3.459608   2.180669   1.080777   2.131410   3.416907
    13  H    3.910832   3.395217   2.127510   1.083241   2.178883
    14  H    2.127597   3.397582   3.915519   3.452506   2.180544
    15  H    3.970438   4.730420   4.479222   3.329353   2.053681
    16  H    4.476412   4.730575   3.973476   2.613602   2.053908
    17  H    4.258209   3.096318   3.647327   5.012760   5.809030
                    6          7          8          9         10
     6  C    0.000000
     7  N    2.400688   0.000000
     8  N    3.636873   5.492901   0.000000
     9  O    4.719769   6.221977   1.374138   0.000000
    10  O    4.142369   6.282996   1.224271   2.232982   0.000000
    11  H    2.137366   4.533395   2.607338   3.970806   2.482028
    12  H    3.912993   4.528130   2.690907   2.355448   3.915132
    13  H    3.452106   2.646897   4.554600   4.699636   5.681296
    14  H    1.083292   2.647809   4.514431   5.692166   4.816736
    15  H    2.612468   1.010022   6.075900   6.944295   6.725755
    16  H    3.329748   1.009999   6.088575   6.644298   6.988797
    17  H    5.471614   7.130279   1.869808   0.979825   2.195362
                   11         12         13         14         15
    11  H    0.000000
    12  H    4.343976   0.000000
    13  H    4.992608   2.457949   0.000000
    14  H    2.469008   4.996175   4.345156   0.000000
    15  H    4.694851   5.428082   3.655666   2.425870   0.000000
    16  H    5.432419   4.687651   2.426134   3.656601   1.721877
    17  H    4.398954   3.319630   5.679420   6.379836   7.809608
                   16         17
    16  H    0.000000
    17  H    7.593085   0.000000
 Stoichiometry    C6H7N2O2(1+)
 Framework group  C1[X(C6H7N2O2)]
 Deg. of freedom    45
 Full point group                 C1      NOp   1
 Largest Abelian subgroup         C1      NOp   1
 Largest concise Abelian subgroup C1      NOp   1
                         Standard orientation:                         
 ---------------------------------------------------------------------
 Center     Atomic      Atomic             Coordinates (Angstroms)
 Number     Number       Type             X           Y           Z
 ---------------------------------------------------------------------
      1          6           0       -0.058669    1.263857   -0.000353
      2          6           0        0.664935    0.037250   -0.001050
      3          6           0       -0.006729   -1.218011   -0.000666
      4          6           0       -1.375140   -1.238813   -0.000132
      5          6           0       -2.121380   -0.017823    0.000261
      6          6           0       -1.425375    1.233535    0.000174
      7          7           0       -3.457633   -0.044445    0.000720
      8          7           0        2.033136    0.108570   -0.001611
      9          8           0        2.672844   -1.107581    0.001032
     10          8           0        2.715572    1.124992    0.000648
     11          1           0        0.479680    2.202605   -0.000480
     12          1           0        0.556054   -2.140699   -0.000971
     13          1           0       -1.901486   -2.185582   -0.000070
     14          1           0       -1.988937    2.158694    0.000438
     15          1           0       -4.002611    0.805933    0.001006
     16          1           0       -3.968681   -0.915610    0.000793
     17          1           0        3.624287   -0.873469    0.002677
 ---------------------------------------------------------------------
 Rotational constants (GHZ):      3.7439295      0.8190584      0.6720372
 Standard basis: 6-31+G(d,p) (6D, 7F)
 There are   225 symmetry adapted cartesian basis functions of A   symmetry.
 There are   225 symmetry adapted basis functions of A   symmetry.
   225 basis functions,   369 primitive gaussians,   225 cartesian basis functions
    36 alpha electrons       36 beta electrons
       nuclear repulsion energy       507.4098849877 Hartrees.
 NAtoms=   17 NActive=   17 NUniq=   17 SFac= 1.00D+00 NAtFMM=   60 NAOKFM=F Big=F
 Integral buffers will be    131072 words long.
 Regular integral format.
 Two-electron integral symmetry is turned on.
 One-electron integrals computed using PRISM.
 NBasis=   225 RedAO= T EigKep=  3.40D-06  NBF=   225
 NBsUse=   225 1.00D-06 EigRej= -1.00D+00 NBFU=   225
 Initial guess from the checkpoint file:  "B2PLYPPNAyang.chk"
 B after Tr=     0.000000    0.000000    0.000000
         Rot=    1.000000    0.000006   -0.000022   -0.000079 Ang=   0.01 deg.
 Keep R1 ints in memory in canonical form, NReq=329175655.
 Requested convergence on RMS density matrix=1.00D-08 within 128 cycles.
 Requested convergence on MAX density matrix=1.00D-06.
 Requested convergence on             energy=1.00D-06.
 No special actions if energy rises.
 SCF Done:  E(RB2PLYP) =  -491.508166707     A.U. after   12 cycles
            NFock= 12  Conv=0.55D-08     -V/T= 2.0071
 DoSCS=T DFT=T ScalE2(SS,OS)=  0.270000  0.270000
 ExpMin= 4.38D-02 ExpMax= 5.48D+03 ExpMxC= 8.25D+02 IAcc=3 IRadAn=         5 AccDes= 0.00D+00
 HarFok:  IExCor=  205 AccDes= 0.00D+00 IRadAn=         5 IDoV=-2 UseB2=F ITyADJ=14
 ICtDFT= 12500011 ScaDFX=  1.000000  1.000000  1.000000  1.000000
 Range of M.O.s used for correlation:    11   225
 NBasis=   225 NAE=    36 NBE=    36 NFC=    10 NFV=     0
 NROrb=    215 NOA=    26 NOB=    26 NVA=   189 NVB=   189

 **** Warning!!: The largest alpha MO coefficient is  0.11760302D+03

 DoSCS=T DFT=T ScalE2(SS,OS)=  0.270000  0.270000
 Fully direct method using O(ONN) memory.
 JobTyp=1 Pass  1:  I=  11 to  18 NPSUse= 18 ParTrn=T ParDer=T DoDerP=T.
 JobTyp=1 Pass  2:  I=  19 to  26 NPSUse= 18 ParTrn=T ParDer=T DoDerP=T.
 JobTyp=1 Pass  3:  I=  27 to  34 NPSUse= 18 ParTrn=T ParDer=T DoDerP=T.
 JobTyp=1 Pass  4:  I=  35 to  36 NPSUse= 18 ParTrn=T ParDer=T DoDerP=T.
 Spin components of T(2) and E(2):
     alpha-alpha T2 =       0.1148348884D+00 E2=     -0.6900477562D-01
     alpha-beta  T2 =       0.6241959382D+00 E2=     -0.3705771803D+00
     beta-beta   T2 =       0.1148348884D+00 E2=     -0.6900477562D-01
 E2(B2PLYP) =    -0.5085867315D+00 E(B2PLYP) =    -0.49201675343884D+03
          IDoAtm=11111111111111111
          Differentiating once with respect to electric field.
                with respect to dipole field.
          Differentiating once with respect to nuclear coordinates.
 Keep R1 ints in memory in canonical form, NReq=329001650.
          There are     1 degrees of freedom in the 1st order CPHF.  IDoFFX=0 NUNeed=     1.
 LinEq1:  Iter=  0 NonCon=     1 RMS=2.52D-03 Max=1.15D-01 NDo=     1
 AX will form     1 AO Fock derivatives at one time.
 LinEq1:  Iter=  1 NonCon=     1 RMS=1.21D-03 Max=4.14D-02 NDo=     1
 LinEq1:  Iter=  2 NonCon=     1 RMS=5.43D-04 Max=1.02D-02 NDo=     1
 LinEq1:  Iter=  3 NonCon=     1 RMS=4.58D-04 Max=1.67D-02 NDo=     1
 LinEq1:  Iter=  4 NonCon=     1 RMS=2.12D-04 Max=7.91D-03 NDo=     1
 LinEq1:  Iter=  5 NonCon=     1 RMS=1.07D-04 Max=4.75D-03 NDo=     1
 LinEq1:  Iter=  6 NonCon=     1 RMS=7.68D-05 Max=3.16D-03 NDo=     1
 LinEq1:  Iter=  7 NonCon=     1 RMS=2.77D-05 Max=9.14D-04 NDo=     1
 LinEq1:  Iter=  8 NonCon=     1 RMS=1.08D-05 Max=1.98D-04 NDo=     1
 LinEq1:  Iter=  9 NonCon=     1 RMS=4.61D-06 Max=1.15D-04 NDo=     1
 LinEq1:  Iter= 10 NonCon=     1 RMS=2.16D-06 Max=4.44D-05 NDo=     1
 LinEq1:  Iter= 11 NonCon=     1 RMS=7.70D-07 Max=1.14D-05 NDo=     1
 LinEq1:  Iter= 12 NonCon=     1 RMS=2.71D-07 Max=6.47D-06 NDo=     1
 LinEq1:  Iter= 13 NonCon=     1 RMS=1.41D-07 Max=2.89D-06 NDo=     1
 LinEq1:  Iter= 14 NonCon=     1 RMS=5.35D-08 Max=1.12D-06 NDo=     1
 LinEq1:  Iter= 15 NonCon=     1 RMS=3.05D-08 Max=7.08D-07 NDo=     1
 LinEq1:  Iter= 16 NonCon=     1 RMS=1.26D-08 Max=4.15D-07 NDo=     1
 LinEq1:  Iter= 17 NonCon=     1 RMS=4.35D-09 Max=1.11D-07 NDo=     1
 LinEq1:  Iter= 18 NonCon=     1 RMS=2.38D-09 Max=8.02D-08 NDo=     1
 LinEq1:  Iter= 19 NonCon=     1 RMS=6.60D-10 Max=1.97D-08 NDo=     1
 LinEq1:  Iter= 20 NonCon=     1 RMS=2.12D-10 Max=7.27D-09 NDo=     1
 LinEq1:  Iter= 21 NonCon=     1 RMS=1.08D-10 Max=2.59D-09 NDo=     1
 LinEq1:  Iter= 22 NonCon=     0 RMS=3.67D-11 Max=5.92D-10 NDo=     1
 Linear equations converged to 1.000D-10 1.000D-09 after    22 iterations.
 End of Minotr F.D. properties file   721 does not exist.
 End of Minotr F.D. properties file   722 does not exist.
 End of Minotr F.D. properties file   788 does not exist.
 Calling FoFJK, ICntrl=  10002127 FMM=F ISym2X=0 I1Cent= 0 IOpClX= 0 NMat=1 NMatS=1 NMatT=0.
 ***** Axes restored to original set *****
 -------------------------------------------------------------------
 Center     Atomic                   Forces (Hartrees/Bohr)
 Number     Number              X              Y              Z
 -------------------------------------------------------------------
      1        6           0.000185144    0.000118418    0.000066016
      2        6          -0.001292874    0.000062051    0.000078489
      3        6           0.000077076   -0.000106743    0.000058134
      4        6          -0.000038341    0.000046257   -0.000000900
      5        6           0.000184940   -0.000038461    0.000003119
      6        6          -0.000078444    0.000008367    0.000001700
      7        7          -0.000208924   -0.000000206   -0.000000059
      8        7           0.001836123    0.001819766   -0.000556860
      9        8          -0.000776667   -0.001448506    0.000141651
     10        8           0.000190061   -0.000575420    0.000211875
     11        1          -0.000084013    0.000024252   -0.000001182
     12        1          -0.000077983   -0.000012131    0.000004233
     13        1           0.000031589   -0.000040204   -0.000012696
     14        1           0.000032602    0.000030295   -0.000014924
     15        1          -0.000018098    0.000060844   -0.000000155
     16        1          -0.000015654   -0.000060383   -0.000000168
     17        1           0.000053462    0.000111803    0.000021725
 -------------------------------------------------------------------
 Cartesian Forces:  Max     0.001836123 RMS     0.000485339

 GradGradGradGradGradGradGradGradGradGradGradGradGradGradGradGradGradGrad
 Berny optimization.
 Using GEDIIS/GDIIS optimizer.
 FormGI is forming the generalized inverse of G from B-inverse, IUseBI=4.
 GSVD:  received Info=                   1 from GESDD.
 Internal  Forces:  Max     0.001518843 RMS     0.000250280
 Search for a local minimum.
 Step number   3 out of a maximum of   86
 All quantities printed in internal units (Hartrees-Bohrs-Radians)
 Mixed Optimization -- En-DIIS/RFO-DIIS
 Swapping is turned off.
 Update second derivatives using D2CorX and points    1    2    3
 DE= -8.37D-05 DEPred=-7.29D-05 R= 1.15D+00
 TightC=F SS=  1.41D+00  RLast= 2.34D-02 DXNew= 5.0454D-01 7.0284D-02
 Trust test= 1.15D+00 RLast= 2.34D-02 DXMaxT set to 3.00D-01
 ITU=  1  1  0
     Eigenvalues ---    0.01710   0.01843   0.01952   0.01984   0.02015
     Eigenvalues ---    0.02068   0.02164   0.02168   0.02188   0.02229
     Eigenvalues ---    0.02299   0.02317   0.02628   0.02628   0.15110
     Eigenvalues ---    0.16000   0.16000   0.16000   0.16000   0.16008
     Eigenvalues ---    0.16172   0.22002   0.22911   0.24131   0.24533
     Eigenvalues ---    0.25000   0.25014   0.25296   0.35418   0.35422
     Eigenvalues ---    0.35466   0.35639   0.37413   0.38498   0.39701
     Eigenvalues ---    0.41592   0.42008   0.45828   0.45844   0.49572
     Eigenvalues ---    0.51719   0.53291   0.55421   0.60697   1.05405
 En-DIIS/RFO-DIIS IScMMF=        0 using points:     3    2
 RFO step:  Lambda=-8.16041606D-06.
 DidBck=F Rises=F RFO-DIIS coefs:    1.15443   -0.15443
 Iteration  1 RMS(Cart)=  0.00274345 RMS(Int)=  0.00001184
 Iteration  2 RMS(Cart)=  0.00001411 RMS(Int)=  0.00000631
 Iteration  3 RMS(Cart)=  0.00000000 RMS(Int)=  0.00000631
 Variable       Old X    -DE/DX   Delta X   Delta X   Delta X     New X
                                 (Linear)    (Quad)   (Total)
    R1        2.69123   0.00011  -0.00009   0.00038   0.00029   2.69152
    R2        2.58334  -0.00006  -0.00008   0.00007  -0.00000   2.58333
    R3        2.04498   0.00006  -0.00001   0.00013   0.00012   2.04510
    R4        2.69033   0.00005  -0.00021   0.00024   0.00003   2.69036
    R5        2.58903  -0.00131  -0.00030  -0.00250  -0.00281   2.58623
    R6        2.58622  -0.00005  -0.00006   0.00011   0.00005   2.58628
[...]
 ! D20   D(12,3,4,13)           -0.0001         -DE/DX =    0.0                 !
 ! D21   D(3,4,5,6)              0.0            -DE/DX =    0.0                 !
 ! D22   D(3,4,5,7)           -180.0            -DE/DX =    0.0                 !
 ! D23   D(13,4,5,6)          -180.0            -DE/DX =    0.0                 !
 ! D24   D(13,4,5,7)            -0.0001         -DE/DX =    0.0                 !
 ! D25   D(4,5,6,1)              0.0            -DE/DX =    0.0                 !
 ! D26   D(4,5,6,14)           180.0            -DE/DX =    0.0                 !
 ! D27   D(7,5,6,1)            180.0            -DE/DX =    0.0                 !
 ! D28   D(7,5,6,14)             0.0            -DE/DX =    0.0                 !
 ! D29   D(4,5,7,15)           180.0            -DE/DX =    0.0                 !
 ! D30   D(4,5,7,16)             0.0            -DE/DX =    0.0                 !
 ! D31   D(6,5,7,15)             0.0            -DE/DX =    0.0                 !
 ! D32   D(6,5,7,16)          -180.0            -DE/DX =    0.0                 !
 ! D33   D(2,8,9,17)           180.0029         -DE/DX =    0.0                 !
 ! D34   D(10,8,9,17)           -0.0021         -DE/DX =    0.0                 !
 --------------------------------------------------------------------------------
 GradGradGradGradGradGradGradGradGradGradGradGradGradGradGradGradGradGrad

 1\1\ WCSS.PL-BEM-JP\Freq\RB2PLYP-FC\6-31+G(d,p)\C6H7N2O2(1+)\C612\15-D
 ec-2024\0\\#N Geom=AllCheck Guess=TCheck SCRF=Check GenChk RB2PLYP(FC)
 /6-31+G(d,p) Freq\\[No Title]\\1,1\C,0.056819181,1.2652821296,-0.00003
 69536\C,-0.6676430271,0.0386632263,-0.0000181334\C,0.0035985456,-1.217
 2135602,-0.0000262421\C,1.3718560169,-1.2386280679,-0.0000439599\C,2.1
 18516568,-0.0178467433,-0.0000583753\C,1.4233176653,1.2341495139,-0.00
 00543286\N,3.4544487662,-0.0450975444,-0.0000747728\N,-2.0338067626,0.
 1101696921,-0.0000020201\O,-2.6752361988,-1.1089084577,-0.0000491326\O
 ,-2.7176116491,1.1250863303,-0.0000465616\H,-0.4817001073,2.2040342336
 ,-0.0000341249\H,-0.5602799096,-2.1392816064,-0.0000164647\H,1.8980187
 541,-2.1855861722,-0.0000474097\H,1.9876934567,2.158890277,-0.00006501
 15\H,3.9996752747,0.8051943762,-0.0000847506\H,3.9649255511,-0.9166712
 572,-0.0000775029\H,-3.625917125,-0.8719123697,-0.0000782556\\Version=
 ES64L-G09RevE.01\State=1-A\HF=-491.5081255\MP2=-492.0167631\RMSD=3.048
 e-09\RMSF=3.805e-05\ZeroPoint=0.13218\Thermal=0.1408599\Dipole=1.52147
 83,-0.4025227,-0.0000244\DipoleDeriv=0.7631337,-0.0149745,-0.0000064,0
 .4317488,0.0422019,-0.0000028,-0.0000076,-0.0000001,-0.0256612,-1.6170
 722,0.1001439,0.0000028,-0.0473318,-0.1011115,-0.0000007,-0.0000203,-0
 .0000058,0.0700259,0.7816059,-0.0591682,-0.0000059,-0.4400863,0.079737
 3,0.0000034,-0.0000082,0.0000032,-0.0113696,-0.7740797,-0.1072389,0.00
 00045,-0.7295386,-0.026243,0.0000059,0.000017,0.,-0.1412029,2.3067005,
 -0.0582397,-0.0000189,-0.0325248,0.3819698,-0.0000002,-0.0000257,0.000
 0009,0.2391961,-0.7246225,0.1653989,0.0000033,0.7327773,-0.087798,-0.0
 000071,0.0000103,-0.0000026,-0.136002,-2.1091865,0.0604933,0.0000144,0
 .0372171,-0.1991669,-0.0000013,0.0000206,-0.0000018,-0.4598656,3.27481
 58,0.0060262,-0.0000063,-0.1572306,1.3040833,0.0000194,0.0002027,0.000
 0113,0.2099062,-1.1288805,-0.4761385,-0.0000036,-1.0358737,-0.7045409,
 0.0000026,-0.0000865,-0.0000288,-0.2484738,-1.3770371,0.2702366,0.0000
 104,1.123521,-0.6604353,-0.0000215,-0.0001076,0.0000217,-0.1397944,0.0
 744703,0.0149464,0.0000006,-0.0279532,0.1105979,0.0000005,-0.0000006,-
 0.0000001,0.1468722,0.0892687,-0.0076661,0.000001,0.0134858,0.1026442,
 0.,-0.0000008,0.0000005,0.1471592,0.0388936,0.0322875,0.000001,0.00947
 27,0.0496952,-0.0000001,-0.0000014,-0.0000006,0.1533364,0.0359799,-0.0
 329236,0.0000013,-0.0069531,0.0534563,0.000001,-0.000002,0.0000013,0.1
 539098,0.3580727,0.0622798,-0.0000001,0.2493649,0.1989748,-0.0000016,-
 0.0000015,-0.0000003,0.3312492,0.345514,-0.071159,0.0000005,-0.2543801
 ,0.2186654,0.0000026,0.0000004,0.0000014,0.3307245,0.6624236,0.115696,
 0.0000014,0.1342845,0.2372694,0.,0.0000111,-0.0000002,0.37999\Polar=20
 2.8736266,-5.7027294,88.38479,-0.0008675,-0.0001049,45.139982\PG=C01 [
 X(C6H7N2O2)]\NImag=0\\0.77709047,-0.05953470,0.70037791,-0.00000863,-0
 .00000233,0.11501286,-0.12360465,-0.07831367,0.00000115,0.66573618,-0.
 05126561,-0.26322431,0.00000229,-0.00826283,0.70912506,0.00000208,0.00
 000229,-0.03803065,-0.00000310,-0.00000189,0.09195477,0.02999252,0.004
 20290,-0.00000056,-0.12069573,0.04734292,0.00000153,0.77060791,-0.0069
 4978,-0.04545095,0.00000051,0.07301562,-0.27279214,-0.00000067,0.05899
 722,0.70385320,-0.00000056,-0.00000017,-0.00491239,0.00000055,-0.00000
 036,-0.03627582,-0.00000889,-0.00000220,0.11463355,-0.01959232,-0.0168
 9527,0.00000053,-0.04029668,0.04133142,0.00000026,-0.43291123,-0.01348
 882,0.00000540,0.77947674,-0.00680210,-0.00738818,0.00000015,0.0205404
 7,0.01342591,-0.00000055,0.02801572,-0.12612565,-0.00000027,-0.0591869
 8,0.68768870,0.00000039,0.00000045,0.00745437,0.00000063,-0.00000065,-
 0.00586466,0.00000506,0.00000045,-0.03735219,-0.00000876,-0.00000103,0
 .10088181,-0.03526172,0.03128621,0.,0.02111121,-0.00021039,0.,-0.03857
 653,-0.02867091,0.00000030,-0.14072615,-0.07706480,0.00000154,0.795376
 82,0.04892712,0.02526759,-0.00000094,-0.00153750,-0.02885715,0.,-0.047
 22889,0.02807017,0.00000061,-0.03799665,-0.25724854,0.00000109,-0.0018
 4429,0.66753793,-0.00000014,-0.00000079,-0.01246164,-0.00000025,0.0000
 0012,0.00350345,0.00000031,0.00000045,-0.01275235,0.00000164,0.0000018
 5,-0.04916448,-0.00000844,-0.00000200,0.14021951,-0.43800906,0.0249580
 7,0.00000528,-0.04351978,-0.03943018,0.00000057,-0.01877359,0.01700472
 ,0.00000036,0.03699659,-0.00076389,-0.00000063,-0.13548936,0.03251980,
 0.00000129,0.78782050,-0.01552632,-0.12610686,0.00000088,-0.01790918,0
 .01711654,0.00000054,0.00755176,-0.00833975,-0.00000002,-0.00207725,-0
 .03355295,0.00000008,0.07157849,-0.26094024,-0.00000013,0.05686196,0.6
 8172455,0.00000525,0.00000018,-0.03715661,0.00000085,0.00000039,-0.006
 42844,0.00000029,-0.00000029,0.00741878,-0.00000065,0.00000015,-0.0054
 7723,0.00000092,0.00000057,-0.04937139,-0.00000917,-0.00000340,0.10153
 849,0.01540105,0.00376708,-0.00000011,-0.02282183,-0.00057286,-0.00000
 005,0.01556839,-0.00449388,-0.00000009,-0.05093944,-0.01963597,0.00000
 083,-0.43569337,0.00605792,0.00000504,-0.04805206,0.02141526,0.0000006
 1,0.86288382,-0.00341414,-0.00996807,0.00000014,0.00054700,0.00204127,
 0.00000003,0.00262698,-0.00985401,-0.00000004,-0.04744387,0.00476761,0
 .00000067,0.00587781,-0.14332600,0.00000032,0.04945841,0.00194456,-0.0
 0000065,0.00033285,0.87833682,-0.00000006,0.00000003,0.00455269,0.0000
 0024,0.00000002,-0.00179523,-0.00000010,0.00000005,0.00464567,0.000000
 87,0.00000023,0.00606803,0.00000492,0.00000032,-0.03560672,0.00000045,
 -0.00000021,0.00602127,-0.00001020,-0.00000332,0.03658378,-0.06113469,
 -0.02852989,0.00000167,-0.28088250,0.01128308,0.00000307,-0.04813811,0
 .02713402,0.00000159,0.01714647,0.01223210,-0.00000048,-0.02316856,0.0
 0122910,0.00000040,0.01771524,-0.01359786,-0.00000044,0.02277980,-0.00
 050098,-0.00000028,0.84273021,-0.03380740,0.01086331,0.00000031,0.0025
 4533,-0.12785657,0.,0.03476997,0.01146336,-0.00000090,0.00461950,-0.00
 842911,-0.00000006,-0.00008055,-0.00546529,0.,-0.00367930,-0.00715695,
 0.00000030,-0.00039214,0.00067756,0.,-0.15350065,0.69060504,0.00000010
 ,-0.00000011,-0.00870160,-0.00000144,0.00000019,-0.04908486,0.,0.00000
 006,-0.01343723,-0.00000013,0.00000045,0.00624254,-0.00000081,0.000000
 37,-0.00288562,0.00000007,-0.00000062,0.00593847,0.00000101,-0.0000001
 1,0.00007379,0.00001365,-0.00000827,0.16876574,-0.00073663,0.00941103,
 -0.00000048,-0.03398380,-0.05073701,-0.00000197,-0.00234131,-0.0029111
 1,-0.00000016,-0.00196796,-0.00217457,0.00000011,0.00553695,-0.0038188
 8,-0.00000014,-0.00489736,0.00038762,0.00000026,-0.00542563,0.00087995
 ,0.00000007,-0.17474138,-0.05049851,-0.00000323,0.62501034,0.00808968,
 0.00505975,-0.00000041,-0.02573454,-0.00134972,-0.00000118,0.00689960,
 -0.00528250,0.00000003,-0.00359864,-0.00238466,0.00000017,0.00656854,-
 0.00216172,-0.00000011,-0.00395729,0.00483481,0.00000006,-0.00668662,0
 .00080391,0.00000009,0.00412755,-0.15402547,0.00000120,-0.06872530,0.3
 2604321,0.00000024,0.00000036,0.00425694,0.00000028,-0.00000065,0.0062
 1329,0.00000002,-0.00000011,0.00130614,-0.00000015,-0.00000023,-0.0010
 5039,0.00000046,-0.00000021,0.00021985,-0.00000019,0.00000023,0.000351
 95,-0.00000047,0.00000008,0.00004344,-0.00000413,-0.00000485,-0.042590
 21,0.00001741,0.00000052,0.01844744,0.00420798,0.00550721,-0.00000008,
 -0.04198519,0.05242346,-0.00000232,0.00064424,-0.01000603,-0.00000065,
 -0.00547807,-0.00163915,0.00000024,0.00710324,0.00352486,-0.00000020,-
 0.00243226,0.00356641,0.00000009,-0.00741630,-0.00062563,0.00000011,-0
 .27927019,0.20469536,-0.00000809,0.03695943,-0.00857411,0.00000021,0.2
 8697089,-0.01155032,-0.00673042,0.00000013,0.03614221,-0.00678727,0.00
 000146,-0.00500500,0.00427502,0.00000064,0.00295898,0.00481299,-0.0000
 0015,-0.00705022,-0.00092447,0.00000013,0.00358494,-0.00265621,-0.0000
 0018,0.00739972,0.00051409,-0.00000009,0.20841244,-0.41602028,0.000009
 05,0.01793282,-0.08854510,0.00000174,-0.25730927,0.50894258,0.00000029
 ,0.00000026,-0.00040300,0.00000068,0.00000045,0.01182202,0.00000009,-0
 .00000020,0.00925587,-0.00000002,-0.00000023,-0.00056203,0.00000048,-0
 .00000005,0.00030191,-0.00000015,0.00000027,-0.00073849,-0.00000055,0.
 ,0.00002275,-0.00001185,0.00001343,-0.06239804,0.00000056,-0.00000141,
 0.01778478,0.00001023,-0.00001297,0.02862948,-0.13037716,0.12856533,0.
 00000071,0.01183533,-0.01553504,-0.00000011,-0.00238227,-0.00339148,0.
 00000006,-0.00064755,-0.00037686,0.,-0.00502106,-0.00113356,0.00000025
 ,-0.00973529,0.02679433,0.00000012,-0.00027064,0.00153022,-0.00000002,
 0.00263897,-0.00199256,0.00000014,0.00007867,0.00070468,-0.00000004,-0
 .00336754,0.00083733,-0.00000009,0.13572603,0.12786444,-0.28709868,-0.
 00000057,0.01266880,-0.01752228,-0.00000012,-0.00384482,-0.00207944,0.
 00000010,-0.00009564,0.00057881,0.,-0.00154390,-0.00001656,0.00000008,
 -0.00309969,0.00702213,0.00000007,-0.00034252,0.00057407,0.,0.00303952
 ,-0.00285327,0.00000012,-0.00005901,0.00039460,0.,0.00026137,0.0028725
 1,-0.00000011,-0.13537619,0.29791531,0.00000081,-0.00000047,-0.0374835
 8,-0.00000044,0.00000025,0.00189821,0.00000016,0.00000007,0.00360963,0
 .,-0.00000004,-0.00156030,0.00000024,0.00000004,0.01136348,0.00000017,
 -0.00000039,0.00451649,-0.00000002,-0.00000002,-0.00060681,0.00000012,
 0.00000003,-0.00184798,0.,0.,-0.00027904,-0.00000004,0.00000002,0.0002
 2511,-0.00000091,0.00000051,0.02540470,-0.00210864,0.00353809,0.000000
 03,0.01165671,0.01489876,-0.00000024,-0.13897989,-0.13497393,0.0000017
 8,-0.01072226,-0.02636641,0.00000034,-0.00511434,0.00127742,0.00000021
 ,-0.00056990,0.00034726,0.00000001,-0.00020940,-0.00151683,0.,0.003627
 24,0.00083020,0.00000020,-0.00595619,0.00034921,-0.00000020,-0.0004595
 8,-0.00035123,-0.00000007,0.00069193,0.00073350,0.,0.14732446,0.003860
 21,-0.00224685,-0.00000005,-0.01390878,-0.01692889,0.00000026,-0.13356
 462,-0.28174458,0.00000249,0.00362798,0.00766624,-0.00000012,0.0017591
 7,-0.00007332,0.,0.00010872,0.00058665,-0.00000002,0.00029158,0.000595
 41,0.,-0.00275774,-0.00193453,-0.00000014,-0.00060707,0.00132981,0.000
 00004,0.00042703,0.00024979,0.00000004,-0.00078302,-0.00062565,0.00000
 002,0.14136707,0.29141172,0.00000012,-0.00000004,0.00386411,-0.0000003
 7,-0.00000007,0.00111581,0.00000187,0.00000224,-0.03696070,0.00000015,
 0.00000037,0.00461665,0.00000024,0.00000007,0.01119977,0.00000002,0.00
 000002,-0.00154930,-0.00000003,0.00000001,-0.00058802,0.00000016,-0.00
 000004,-0.00210104,-0.00000012,-0.00000002,0.00111613,-0.00000003,0.00
 000003,0.00006321,0.00000002,0.,0.00110485,-0.00000196,-0.00000255,0.0
 2480420,-0.00067526,-0.00055027,0.00000001,-0.00460764,-0.00183837,0.0
 0000023,-0.01192422,0.02890598,0.00000018,-0.12748075,0.12374867,0.000
 00074,0.01041342,-0.01741124,-0.00000008,-0.00220168,-0.00313873,0.000
 00008,0.00227829,-0.00034344,-0.00000004,-0.00010098,0.00204426,-0.000
 00003,-0.00007631,0.00002683,0.,-0.00068620,-0.00014058,-0.00000001,0.
 00006628,0.00008608,0.,0.00110910,0.00013585,-0.00000009,0.13356654,-0
 .00087229,-0.00001830,0.00000002,-0.00132253,0.00124974,0.00000005,-0.
 00252882,0.00510753,0.00000006,0.12451429,-0.28531862,-0.00000084,0.01
 490379,-0.01830141,-0.00000014,-0.00365888,-0.00223368,0.00000006,0.00
 113987,0.00195229,-0.00000002,0.00007648,0.00038729,0.00000005,0.00004
 094,-0.00005957,0.,-0.00041523,0.00026547,-0.00000003,0.00005968,0.000
 02900,0.,-0.00008941,0.00086642,-0.00000004,-0.13096943,0.29712020,0.0
 0000002,0.00000003,-0.00109345,0.00000038,-0.00000006,0.00897251,0.000
 00014,-0.00000040,0.00179636,0.00000071,-0.00000078,-0.03224506,-0.000
 00009,0.00000034,0.00118520,0.00000010,0.00000008,0.00462479,-0.000000
 09,0.,-0.00165699,-0.00000016,0.00000004,0.00223607,-0.00000001,-0.000
 00002,0.00001838,0.00000008,-0.00000007,-0.00138399,0.,0.,-0.00039663,
 -0.00000010,0.,-0.00533122,-0.00000100,0.00000083,0.02309823,-0.012858
 90,-0.02819723,0.00000043,-0.00446448,0.00205203,0.00000022,-0.0006332
 8,0.00056854,0.,-0.00191023,0.00313558,0.00000005,0.01046133,0.0161437
 5,-0.00000019,-0.13796426,-0.12976937,0.00000177,0.00226401,0.00032657
 ,-0.00000005,-0.00015429,-0.00169980,-0.00000004,-0.00082945,0.0001193
 9,0.,0.00003444,-0.00013571,0.00000002,0.00114910,-0.00012659,-0.00000
 008,0.00005524,-0.00008373,0.,0.00068158,0.00074786,0.,0.14458151,0.00
 318558,0.00619065,-0.00000011,0.00159924,0.00112576,0.,0.00088512,-0.0
 0006775,-0.00000003,0.00364731,-0.00247930,0.,-0.01607233,-0.01826889,
 0.00000030,-0.13051443,-0.27488350,0.00000275,-0.00115075,0.00196939,0
 .,-0.00020680,0.00053237,-0.00000004,0.00042245,0.00023141,0.00000002,
 0.00003544,-0.00018063,0.00000002,0.00007860,0.00084746,0.,-0.00005502
 ,0.00003065,0.,-0.00080419,-0.00075822,0.00000001,0.13732391,0.2860404
 0,0.00000013,0.00000034,0.00185879,0.00000038,0.00000010,0.00927967,0.
 00000002,-0.00000003,-0.00105763,0.00000008,-0.00000002,0.00458010,0.0
 0000004,-0.00000016,0.00121300,0.00000175,0.00000266,-0.03253717,-0.00
 000008,-0.00000002,-0.00162858,-0.00000011,0.00000005,0.00186153,0.000
 00002,0.00000001,-0.00093244,0.,0.,0.00010453,-0.00000011,-0.00000004,
 -0.00542314,0.,0.,-0.00043493,0.,0.,-0.00004585,-0.00000211,-0.0000028
 8,0.02320476,-0.00036974,-0.00003304,0.,0.00116558,0.00000731,0.000000
 02,-0.00042513,-0.00173259,0.00000004,-0.00395511,0.00349792,0.0000001
 1,-0.01505958,-0.03194051,0.00000026,0.00198383,-0.00194254,-0.0000000
 7,-0.18310749,-0.17283586,0.00000282,-0.00147325,0.00030273,-0.0000001
 5,0.00051673,0.00061784,0.00000005,0.00058236,-0.00068861,0.00000007,0
 .00005611,0.00007009,0.,-0.00037065,0.00012743,0.,0.00002249,-0.000148
 09,0.,-0.00044126,0.00148458,0.00000001,0.18592778,-0.00151258,-0.0009
 5135,0.00000003,0.00234567,0.00021011,0.00000003,-0.00125901,0.0007515
 1,0.00000002,0.00341642,0.00186388,-0.00000005,-0.00070378,0.00825993,
 -0.00000004,0.00379851,0.00136120,-0.00000008,-0.17174669,-0.35879129,
 0.00000350,-0.00302827,0.00038041,-0.00000022,0.00062623,0.00090502,0.
 00000008,0.00121113,-0.00146802,0.00000012,0.00010530,0.00004393,0.,0.
 00007325,-0.00003428,0.,0.00014095,0.00023898,0.,-0.00008855,-0.000622
 74,0.,0.18563948,0.36122627,-0.00000002,-0.00000002,-0.00076052,-0.000
 00003,0.00000005,0.00019534,0.00000009,-0.00000002,0.00196217,0.000000
 05,-0.00000005,0.00647233,0.00000013,0.00000036,-0.00366146,-0.0000000
 4,0.,-0.00348878,0.00000282,0.00000352,-0.00797345,0.00000004,-0.00000
 002,-0.00010838,0.,0.,0.00008841,-0.00000002,0.00000002,0.00002447,0.0
 0000001,0.,0.00042428,-0.00000002,0.,-0.00096190,0.,0.,-0.00048192,0.0
 0000002,0.,0.00068913,-0.00000289,-0.00000365,0.00967782,-0.00030914,0
 .00177880,0.00000003,0.00106291,0.00003553,0.00000002,-0.00035374,0.00
 000612,0.,0.00190910,0.00190966,-0.00000009,-0.01371693,0.03287547,0.,
 -0.00420928,-0.00324253,0.00000013,-0.16942995,0.16519420,0.00000130,-
 0.00135223,0.00016397,-0.00000012,0.00032450,0.00041917,0.00000004,0.0
 0070172,-0.00082106,0.00000007,-0.00036695,-0.00011557,0.,0.00004696,-
 0.00006551,0.,-0.00042739,-0.00150397,0.00000002,0.00002315,0.00015677
 ,0.,0.01513370,-0.01872835,-0.00000013,0.17113331,0.00126875,0.0006645
 9,-0.00000001,-0.00238931,0.00004649,-0.00000004,0.00150251,-0.0009655
 5,-0.00000002,-0.00380790,0.00137191,0.00000004,0.00158383,0.00690966,
 -0.00000005,-0.00314579,0.00210275,0.00000007,0.16409990,-0.37237096,-
 0.00000057,0.00309931,-0.00040524,0.00000024,-0.00078857,-0.00106540,-
 0.00000009,-0.00112455,0.00135037,-0.00000012,-0.00007565,-0.00004122,
 0.,-0.00008371,0.00003508,0.,0.00009943,-0.00055217,0.,-0.00013695,0.0
 0024095,0.,0.01759031,-0.01329500,-0.00000016,-0.17799933,0.37590360,0
 .00000008,0.00000003,0.00185538,-0.00000001,-0.00000006,0.00036232,-0.
 00000003,0.00000003,-0.00083023,-0.00000002,-0.00000005,-0.00345172,0.
 00000013,-0.00000046,-0.00364414,0.00000006,0.00000009,0.00654989,0.00
 000131,-0.00000059,-0.00802566,0.,0.,-0.00002401,0.,0.,-0.00011919,0.,
 0.,-0.00001424,-0.00000002,0.,-0.00098888,0.,0.,0.00041768,0.00000002,
 0.00000001,0.00069263,0.,-0.00000001,-0.00047124,-0.00000028,0.0000002
 7,-0.00204482,-0.00000126,0.00000072,0.00966533,-0.00165412,-0.0009606
 5,0.,0.00429438,-0.00152221,-0.00000021,-0.00067803,0.00098632,0.00000
 006,0.00109884,0.00093061,-0.00000006,-0.00217538,0.00035609,0.0000000
 4,0.00133768,-0.00129933,-0.00000005,0.00219075,-0.00009325,-0.0000000
 2,-0.03622175,-0.00432042,-0.00000113,-0.43747060,0.08935402,-0.000013
 52,0.00389104,0.00578356,0.00000026,-0.00007398,-0.00011987,0.,-0.0000
 2079,0.00006541,0.00000002,0.00004274,0.00002577,0.,0.00000578,-0.0000
 1549,0.00000002,-0.00018636,-0.00028970,0.,-0.00016974,0.00030770,0.,0
 .46578953,-0.00196053,0.00076014,-0.00000002,-0.00002601,-0.00902256,-
 0.00000022,0.00063647,-0.00081847,0.00000005,0.00047514,0.00075097,-0.
 00000004,-0.00031667,-0.00046167,0.00000001,-0.00004570,-0.00082306,0.
 00000003,0.00051724,0.00013335,0.,-0.06851140,0.00923737,-0.00000221,0
 .15061898,-0.08472837,0.00000307,0.00804169,0.00002958,0.00000052,-0.0
 0001112,-0.00004072,0.,0.00002181,0.00081633,0.,0.00000820,0.00002503,
 0.,-0.00017971,0.00005200,0.,-0.00001645,-0.00007854,0.,-0.00006339,0.
 00007016,0.,-0.08918856,0.08409846,-0.00000010,-0.00000002,0.00214832,
 0.00000051,-0.00000012,0.00216226,0.00000001,0.00000004,-0.00104961,0.
 00000004,0.00000005,0.00041224,-0.00000007,0.00000004,0.00034164,0.000
 00008,-0.00000008,-0.00021271,0.00000008,0.,-0.00012996,-0.00000327,-0
 .00000004,-0.00193916,-0.00001231,0.00000109,-0.00487546,0.00000046,0.
 00000024,-0.00273435,0.,0.,0.00003962,0.00000001,0.00000002,-0.0003753
 1,0.,0.,0.00001095,0.,0.,-0.00026053,0.,-0.00000001,-0.00005271,0.,0.0
 0000001,0.00007092,0.00001456,-0.00000121,0.00644386\\-0.00000054,0.00
 001379,-0.00000118,-0.00002790,0.00003961,-0.00000162,-0.00000893,-0.0
 0001460,-0.00000104,0.00002035,0.00000501,0.00000010,-0.00002937,-0.00
 000449,-0.00000020,0.00001235,-0.00001245,0.00000005,0.00001417,-0.000
 00046,0.00000002,0.00014418,-0.00016665,0.00001100,-0.00001988,0.00004
 980,-0.00000284,-0.00009693,0.00008948,-0.00000419,0.00000241,-0.00000
 468,-0.00000001,0.00000628,0.00000256,-0.00000012,-0.00000040,-0.00000
 240,0.00000020,-0.00000189,0.00000277,0.00000024,-0.00000488,0.0000033
 2,0.,-0.00000630,-0.00000303,0.00000001,-0.00000271,0.00000243,-0.0000
 0042\\\@


 A HARD FALL SHOULD MEAN A HIGH BOUNCE 
 IF ONE IS MADE OF THE RIGHT MATERIAL.

                -- THE CHEMIST ANALYST, MARCH 1950
 Job cpu time:       0 days  2 hours 25 minutes  2.1 seconds.
 File lengths (MBytes):  RWF=  13485 Int=      0 D2E=      0 Chk=      6 Scr=      1
 Normal termination of Gaussian 09 at Sun Dec 15 19:25:19 2024.
