 Entering Gaussian System, Link 0=g09
 Input=B3PW91PNAyang.gjf
 Output=B3PW91PNAyang.log
 Initial command:
 /home/c612/g09E/g09/l1.exe "/mnt/ja_sm883/scratch/Gau-636775.inp" -scrdir="/mnt/ja_sm883/scratch/"
 Default is to use a total of  18 processors:
                               18 via shared-memory
                                1 via Linda
 Entering Link 1 = /home/c612/g09E/g09/l1.exe PID=    636777.
  
 Copyright (c) 1988,1990,1992,1993,1995,1998,2003,2009,2015,
            Gaussian, Inc.  All Rights Reserved.
  
 This is part of the Gaussian(R) 09 program.  It is based on
 the Gaussian(R) 03 system (copyright 2003, Gaussian, Inc.),
 the Gaussian(R) 98 system (copyright 1998, Gaussian, Inc.),
 the Gaussian(R) 94 system (copyright 1995, Gaussian, Inc.),
 the Gaussian 92(TM) system (copyright 1992, Gaussian, Inc.),
 the Gaussian 90(TM) system (copyright 1990, Gaussian, Inc.),
 the Gaussian 88(TM) system (copyright 1988, Gaussian, Inc.),
 the Gaussian 86(TM) system (copyright 1986, Carnegie Mellon
 University), and the Gaussian 82(TM) system (copyright 1983,
 Carnegie Mellon University). Gaussian is a federally registered
 trademark of Gaussian, Inc.
  
 This software contains proprietary and confidential information,
 including trade secrets, belonging to Gaussian, Inc.
  
 This software is provided under written license and may be
 used, copied, transmitted, or stored only in accord with that
 written license.
  
 The following legend is applicable only to US Government
 contracts under FAR:
  
                    RESTRICTED RIGHTS LEGEND
  
 Use, reproduction and disclosure by the US Government is
 subject to restrictions as set forth in subparagraphs (a)
 and (c) of the Commercial Computer Software - Restricted
 Rights clause in FAR 52.227-19.
  
 Gaussian, Inc.
 340 Quinnipiac St., Bldg. 40, Wallingford CT 06492
  
  
 ---------------------------------------------------------------
 Warning -- This program may not be used in any manner that
 competes with the business of Gaussian, Inc. or will provide
 assistance to any competitor of Gaussian, Inc.  The licensee
 of this program is prohibited from giving any competitor of
 Gaussian, Inc. access to this program.  By using this program,
 the user acknowledges that Gaussian, Inc. is engaged in the
 business of creating and licensing software in the field of
 computational chemistry and represents and warrants to the
 licensee that it is not a competitor of Gaussian, Inc. and that
 it will not use this program in any manner prohibited above.
 ---------------------------------------------------------------
  

 Cite this work as:
 Gaussian 09, Revision E.01,
 M. J. Frisch, G. W. Trucks, H. B. Schlegel, G. E. Scuseria, 
 M. A. Robb, J. R. Cheeseman, G. Scalmani, V. Barone, B. Mennucci, 
 G. A. Petersson, H. Nakatsuji, M. Caricato, X. Li, H. P. Hratchian, 
 A. F. Izmaylov, J. Bloino, G. Zheng, J. L. Sonnenberg, M. Hada, 
 M. Ehara, K. Toyota, R. Fukuda, J. Hasegawa, M. Ishida, T. Nakajima, 
 Y. Honda, O. Kitao, H. Nakai, T. Vreven, J. A. Montgomery, Jr., 
 J. E. Peralta, F. Ogliaro, M. Bearpark, J. J. Heyd, E. Brothers, 
 K. N. Kudin, V. N. Staroverov, T. Keith, R. Kobayashi, J. Normand, 
 K. Raghavachari, A. Rendell, J. C. Burant, S. S. Iyengar, J. Tomasi, 
 M. Cossi, N. Rega, J. M. Millam, M. Klene, J. E. Knox, J. B. Cross, 
 V. Bakken, C. Adamo, J. Jaramillo, R. Gomperts, R. E. Stratmann, 
 O. Yazyev, A. J. Austin, R. Cammi, C. Pomelli, J. W. Ochterski, 
 R. L. Martin, K. Morokuma, V. G. Zakrzewski, G. A. Voth, 
 P. Salvador, J. J. Dannenberg, S. Dapprich, A. D. Daniels, 
 O. Farkas, J. B. Foresman, J. V. Ortiz, J. Cioslowski, 
 and D. J. Fox, Gaussian, Inc., Wallingford CT, 2013.
 
 ******************************************
 Gaussian 09:  ES64L-G09RevE.01 30-Nov-2015
                15-Dec-2024 
 ******************************************
 %chk=B3PW91PNAyang.chk
 -----------------------------
 # opt freq b3pw91/6-31+g(d,p)
 -----------------------------
 1/14=-1,18=20,19=15,26=3,38=1/1,3;
 2/9=110,12=2,17=6,18=5,40=1/2;
 3/5=1,6=6,7=111,11=2,16=1,25=1,30=1,71=1,74=-6/1,2,3;
 4//1;
 5/5=2,38=5/2;
 6/7=2,8=2,9=2,10=2,28=1/1;
 7//1,2,3,16;
 1/14=-1,18=20,19=15,26=3/3(2);
 2/9=110/2;
 99//99;
 2/9=110/2;
 3/5=1,6=6,7=111,11=2,16=1,25=1,30=1,71=1,74=-6/1,2,3;
 4/5=5,16=3,69=1/1;
 5/5=2,38=5/2;
 7//1,2,3,16;
 1/14=-1,18=20,19=15,26=3/3(-5);
 2/9=110/2;
 6/7=2,8=2,9=2,10=2,19=2,28=1/1;
 99/9=1/99;
 ----------
 [No Title]
 ----------
 Symbolic Z-matrix:
 Charge =  1 Multiplicity = 1
 C                     0.05685   1.26308   0.00013 
 C                    -0.66468   0.03637   0.00035 
 C                     0.00536  -1.21888   0.00024 
 C                     1.36723  -1.24032   0.00005 
 C                     2.11194  -0.01772  -0.00009 
 C                     1.41752   1.2345   -0.00005 
 N                     3.44091  -0.04413  -0.00026 
 N                    -2.02546   0.10505   0.00054 
 O                    -2.65896  -1.08471  -0.00035 
 O                    -2.69539   1.10601  -0.00022 
 H                    -0.48629   2.20206   0.00018 
 H                    -0.56145  -2.14219   0.00035 
 H                     1.89828  -2.18629   0.00002 
 H                     1.98517   2.15893  -0.00015 
 H                     3.98548   0.80753  -0.00036 
 H                     3.95201  -0.91623  -0.00029 
 H                    -3.61184  -0.86273  -0.00089 
 

 GradGradGradGradGradGradGradGradGradGradGradGradGradGradGradGradGradGrad
 Berny optimization.
 Initialization pass.
                           ----------------------------
                           !    Initial Parameters    !
                           ! (Angstroms and Degrees)  !
 --------------------------                            --------------------------
 ! Name  Definition              Value          Derivative Info.                !
 --------------------------------------------------------------------------------
 ! R1    R(1,2)                  1.4232         estimate D2E/DX2                !
 ! R2    R(1,6)                  1.361          estimate D2E/DX2                !
 ! R3    R(1,11)                 1.0847         estimate D2E/DX2                !
 ! R4    R(2,3)                  1.4229         estimate D2E/DX2                !
 ! R5    R(2,8)                  1.3625         estimate D2E/DX2                !
 ! R6    R(3,4)                  1.362          estimate D2E/DX2                !
 ! R7    R(3,12)                 1.0834         estimate D2E/DX2                !
 ! R8    R(4,5)                  1.4316         estimate D2E/DX2                !
 ! R9    R(4,13)                 1.0848         estimate D2E/DX2                !
 ! R10   R(5,6)                  1.4319         estimate D2E/DX2                !
 ! R11   R(5,7)                  1.3292         estimate D2E/DX2                !
 ! R12   R(6,14)                 1.0848         estimate D2E/DX2                !
 ! R13   R(7,15)                 1.0109         estimate D2E/DX2                !
 ! R14   R(7,16)                 1.0108         estimate D2E/DX2                !
 ! R15   R(8,9)                  1.3479         estimate D2E/DX2                !
 ! R16   R(8,10)                 1.2045         estimate D2E/DX2                !
 ! R17   R(9,17)                 0.9784         estimate D2E/DX2                !
 ! A1    A(2,1,6)              119.2597         estimate D2E/DX2                !
 ! A2    A(2,1,11)             119.4899         estimate D2E/DX2                !
 ! A3    A(6,1,11)             121.2504         estimate D2E/DX2                !
 ! A4    A(1,2,3)              121.4443         estimate D2E/DX2                !
 ! A5    A(1,2,8)              117.5742         estimate D2E/DX2                !
 ! A6    A(3,2,8)              120.9815         estimate D2E/DX2                !
 ! A7    A(2,3,4)              118.9944         estimate D2E/DX2                !
 ! A8    A(2,3,12)             120.362          estimate D2E/DX2                !
 ! A9    A(4,3,12)             120.6435         estimate D2E/DX2                !
 ! A10   A(3,4,5)              120.4442         estimate D2E/DX2                !
 ! A11   A(3,4,13)             120.2108         estimate D2E/DX2                !
 ! A12   A(5,4,13)             119.3451         estimate D2E/DX2                !
 ! A13   A(4,5,6)              119.6433         estimate D2E/DX2                !
 ! A14   A(4,5,7)              120.2075         estimate D2E/DX2                !
 ! A15   A(6,5,7)              120.1492         estimate D2E/DX2                !
 ! A16   A(1,6,5)              120.2141         estimate D2E/DX2                !
 ! A17   A(1,6,14)             120.3489         estimate D2E/DX2                !
 ! A18   A(5,6,14)             119.437          estimate D2E/DX2                !
 ! A19   A(5,7,15)             121.457          estimate D2E/DX2                !
 ! A20   A(5,7,16)             121.5114         estimate D2E/DX2                !
 ! A21   A(15,7,16)            117.0316         estimate D2E/DX2                !
 ! A22   A(2,8,9)              115.1445         estimate D2E/DX2                !
 ! A23   A(2,8,10)             126.683          estimate D2E/DX2                !
 ! A24   A(9,8,10)             118.1724         estimate D2E/DX2                !
 ! A25   A(8,9,17)             104.92           estimate D2E/DX2                !
 ! D1    D(6,1,2,3)             -0.0065         estimate D2E/DX2                !
 ! D2    D(6,1,2,8)            179.999          estimate D2E/DX2                !
 ! D3    D(11,1,2,3)           179.9973         estimate D2E/DX2                !
 ! D4    D(11,1,2,8)             0.0027         estimate D2E/DX2                !
 ! D5    D(2,1,6,5)              0.003          estimate D2E/DX2                !
 ! D6    D(2,1,6,14)          -179.9962         estimate D2E/DX2                !
 ! D7    D(11,1,6,5)           179.9992         estimate D2E/DX2                !
 ! D8    D(11,1,6,14)            0.0001         estimate D2E/DX2                !
 ! D9    D(1,2,3,4)              0.0063         estimate D2E/DX2                !
 ! D10   D(1,2,3,12)          -179.9966         estimate D2E/DX2                !
 ! D11   D(8,2,3,4)           -179.9993         estimate D2E/DX2                !
 ! D12   D(8,2,3,12)            -0.0022         estimate D2E/DX2                !
 ! D13   D(1,2,8,9)            179.9487         estimate D2E/DX2                !
 ! D14   D(1,2,8,10)             0.0465         estimate D2E/DX2                !
 ! D15   D(3,2,8,9)             -0.0459         estimate D2E/DX2                !
 ! D16   D(3,2,8,10)          -179.9481         estimate D2E/DX2                !
 ! D17   D(2,3,4,5)             -0.0027         estimate D2E/DX2                !
 ! D18   D(2,3,4,13)           179.9967         estimate D2E/DX2                !
 ! D19   D(12,3,4,5)          -179.9998         estimate D2E/DX2                !
 ! D20   D(12,3,4,13)           -0.0005         estimate D2E/DX2                !
 ! D21   D(3,4,5,6)             -0.0006         estimate D2E/DX2                !
 ! D22   D(3,4,5,7)            179.9995         estimate D2E/DX2                !
 ! D23   D(13,4,5,6)          -180.0            estimate D2E/DX2                !
 ! D24   D(13,4,5,7)             0.0001         estimate D2E/DX2                !
 ! D25   D(4,5,6,1)              0.0004         estimate D2E/DX2                !
 ! D26   D(4,5,6,14)           179.9996         estimate D2E/DX2                !
 ! D27   D(7,5,6,1)           -179.9997         estimate D2E/DX2                !
 ! D28   D(7,5,6,14)            -0.0005         estimate D2E/DX2                !
 ! D29   D(4,5,7,15)           180.0            estimate D2E/DX2                !
 ! D30   D(4,5,7,16)             0.0            estimate D2E/DX2                !
 ! D31   D(6,5,7,15)             0.0001         estimate D2E/DX2                !
 ! D32   D(6,5,7,16)          -179.9999         estimate D2E/DX2                !
 ! D33   D(2,8,9,17)          -179.9506         estimate D2E/DX2                !
 ! D34   D(10,8,9,17)           -0.0395         estimate D2E/DX2                !
 --------------------------------------------------------------------------------
 Trust Radius=3.00D-01 FncErr=1.00D-07 GrdErr=1.00D-06
 Number of steps in this run=     86 maximum allowed number of steps=    102.
 GradGradGradGradGradGradGradGradGradGradGradGradGradGradGradGradGradGrad

                          Input orientation:                          
 ---------------------------------------------------------------------
 Center     Atomic      Atomic             Coordinates (Angstroms)
 Number     Number       Type             X           Y           Z
 ---------------------------------------------------------------------
      1          6           0        0.056849    1.263083    0.000132
      2          6           0       -0.664677    0.036374    0.000345
      3          6           0        0.005357   -1.218884    0.000236
      4          6           0        1.367234   -1.240324    0.000051
      5          6           0        2.111936   -0.017721   -0.000090
      6          6           0        1.417516    1.234499   -0.000049
      7          7           0        3.440914   -0.044134   -0.000260
      8          7           0       -2.025461    0.105047    0.000544
      9          8           0       -2.658960   -1.084710   -0.000351
     10          8           0       -2.695392    1.106005   -0.000224
     11          1           0       -0.486292    2.202055    0.000178
     12          1           0       -0.561451   -2.142185    0.000346
     13          1           0        1.898276   -2.186287    0.000020
     14          1           0        1.985172    2.158932   -0.000150
     15          1           0        3.985484    0.807530   -0.000362
     16          1           0        3.952012   -0.916227   -0.000293
     17          1           0       -3.611842   -0.862729   -0.000887
 ---------------------------------------------------------------------
                    Distance matrix (angstroms):
                    1          2          3          4          5
     1  C    0.000000
     2  C    1.423171   0.000000
     3  C    2.482501   1.422891   0.000000
     4  C    2.825625   2.399713   1.362046   0.000000
     5  C    2.421537   2.777140   2.424968   1.431551   0.000000
     6  C    1.360967   2.402297   2.830774   2.475334   1.431878
     7  N    3.627770   4.106380   3.630852   2.393955   1.329240
     8  N    2.382659   1.362516   2.424256   3.649713   4.139218
     9  O    3.589951   2.287792   2.667693   4.029200   4.888754
    10  O    2.756720   2.295194   3.563587   4.691502   4.936918
    11  H    1.084744   2.173015   3.456088   3.909672   3.417337
    12  H    3.460946   2.181003   1.083400   2.129126   3.414725
    13  H    3.910116   3.392484   2.125797   1.084828   2.179066
    14  H    2.126258   3.395137   3.915266   3.454966   2.180341
    15  H    3.954959   4.713669   4.466292   3.323994   2.047247
    16  H    4.463372   4.713944   3.958243   2.605018   2.047729
    17  H    4.240091   3.081261   3.634691   4.993373   5.785817
                    6          7          8          9         10
     6  C    0.000000
     7  N    2.393542   0.000000
     8  N    3.623500   5.468410   0.000000
     9  O    4.690031   6.187993   1.347903   0.000000
    10  O    4.114915   6.243162   1.204460   2.191018   0.000000
    11  H    2.135568   4.524192   2.601247   3.939963   2.466059
    12  H    3.913861   4.518932   2.682047   2.348999   3.886443
    13  H    3.454404   2.639801   4.543779   4.688483   5.651634
    14  H    1.084809   2.640584   4.505954   5.664731   4.797534
    15  H    2.603222   1.010885   6.051855   6.908633   6.687540
    16  H    3.324048   1.010825   6.064090   6.613119   6.948194
    17  H    5.449111   7.100103   1.858278   0.978397   2.171588
                   11         12         13         14         15
    11  H    0.000000
    12  H    4.344890   0.000000
    13  H    4.994368   2.460122   0.000000
    14  H    2.471840   4.998489   4.346088   0.000000
    15  H    4.684173   5.419911   3.649572   2.414029   0.000000
    16  H    5.424226   4.676999   2.414722   3.650351   1.724082
    17  H    4.377438   3.307853   5.666852   6.360582   7.778761
                   16         17
    16  H    0.000000
    17  H    7.564043   0.000000
 Stoichiometry    C6H7N2O2(1+)
 Framework group  C1[X(C6H7N2O2)]
 Deg. of freedom    45
 Full point group                 C1      NOp   1
 Largest Abelian subgroup         C1      NOp   1
 Largest concise Abelian subgroup C1      NOp   1
                         Standard orientation:                         
 ---------------------------------------------------------------------
 Center     Atomic      Atomic             Coordinates (Angstroms)
 Number     Number       Type             X           Y           Z
 ---------------------------------------------------------------------
      1          6           0       -0.056849    1.263083   -0.000132
      2          6           0        0.664677    0.036374   -0.000345
      3          6           0       -0.005357   -1.218884   -0.000236
      4          6           0       -1.367234   -1.240324   -0.000051
      5          6           0       -2.111936   -0.017721    0.000090
      6          6           0       -1.417516    1.234499    0.000049
      7          7           0       -3.440914   -0.044134    0.000260
      8          7           0        2.025461    0.105047   -0.000544
      9          8           0        2.658960   -1.084710    0.000351
     10          8           0        2.695392    1.106005    0.000224
     11          1           0        0.486292    2.202055   -0.000178
     12          1           0        0.561451   -2.142185   -0.000346
     13          1           0       -1.898276   -2.186287   -0.000020
     14          1           0       -1.985172    2.158932    0.000150
     15          1           0       -3.985484    0.807530    0.000362
     16          1           0       -3.952012   -0.916227    0.000293
     17          1           0        3.611842   -0.862729    0.000887
 ---------------------------------------------------------------------
 Rotational constants (GHZ):      3.7837951      0.8276019      0.6790732
 Standard basis: 6-31+G(d,p) (6D, 7F)
 There are   225 symmetry adapted cartesian basis functions of A   symmetry.
 There are   225 symmetry adapted basis functions of A   symmetry.
   225 basis functions,   369 primitive gaussians,   225 cartesian basis functions
    36 alpha electrons       36 beta electrons
       nuclear repulsion energy       510.1219227400 Hartrees.
 NAtoms=   17 NActive=   17 NUniq=   17 SFac= 1.00D+00 NAtFMM=   60 NAOKFM=F Big=F
 Integral buffers will be    131072 words long.
 Raffenetti 2 integral format.
 Two-electron integral symmetry is turned on.
 One-electron integrals computed using PRISM.
 NBasis=   225 RedAO= T EigKep=  3.36D-06  NBF=   225
 NBsUse=   225 1.00D-06 EigRej= -1.00D+00 NBFU=   225
 ExpMin= 4.38D-02 ExpMax= 5.48D+03 ExpMxC= 8.25D+02 IAcc=2 IRadAn=         4 AccDes= 0.00D+00
 Harris functional with IExCor=  408 and IRadAn=       4 diagonalized for initial guess.
 HarFok:  IExCor=  408 AccDes= 0.00D+00 IRadAn=         4 IDoV= 1 UseB2=F ITyADJ=14
 ICtDFT=  3500011 ScaDFX=  1.000000  1.000000  1.000000  1.000000
 FoFCou: FMM=F IPFlag=           0 FMFlag=      100000 FMFlg1=           0
         NFxFlg=           0 DoJE=T BraDBF=F KetDBF=T FulRan=T
         wScrn=  0.000000 ICntrl=     500 IOpCl=  0 I1Cent=   200000004 NGrid=           0
         NMat0=    1 NMatS0=      1 NMatT0=    0 NMatD0=    1 NMtDS0=    0 NMtDT0=    0
 Petite list used in FoFCou.
 Keep R1 ints in memory in canonical form, NReq=329175655.
 Requested convergence on RMS density matrix=1.00D-08 within 128 cycles.
 Requested convergence on MAX density matrix=1.00D-06.
 Requested convergence on             energy=1.00D-06.
 No special actions if energy rises.
 EnCoef did     3 forward-backward iterations
 SCF Done:  E(RB3PW91) =  -492.304020310     A.U. after   17 cycles
            NFock= 17  Conv=0.53D-08     -V/T= 2.0090

 **********************************************************************

            Population analysis using the SCF density.

 **********************************************************************

 Orbital symmetries:
       Occupied  (A) (A) (A) (A) (A) (A) (A) (A) (A) (A) (A) (A)
                 (A) (A) (A) (A) (A) (A) (A) (A) (A) (A) (A) (A)
                 (A) (A) (A) (A) (A) (A) (A) (A) (A) (A) (A) (A)
       Virtual   (A) (A) (A) (A) (A) (A) (A) (A) (A) (A) (A) (A)
                 (A) (A) (A) (A) (A) (A) (A) (A) (A) (A) (A) (A)
                 (A) (A) (A) (A) (A) (A) (A) (A) (A) (A) (A) (A)
                 (A) (A) (A) (A) (A) (A) (A) (A) (A) (A) (A) (A)
                 (A) (A) (A) (A) (A) (A) (A) (A) (A) (A) (A) (A)
                 (A) (A) (A) (A) (A) (A) (A) (A) (A) (A) (A) (A)
                 (A) (A) (A) (A) (A) (A) (A) (A) (A) (A) (A) (A)
                 (A) (A) (A) (A) (A) (A) (A) (A) (A) (A) (A) (A)
                 (A) (A) (A) (A) (A) (A) (A) (A) (A) (A) (A) (A)
                 (A) (A) (A) (A) (A) (A) (A) (A) (A) (A) (A) (A)
                 (A) (A) (A) (A) (A) (A) (A) (A) (A) (A) (A) (A)
                 (A) (A) (A) (A) (A) (A) (A) (A) (A) (A) (A) (A)
                 (A) (A) (A) (A) (A) (A) (A) (A) (A) (A) (A) (A)
                 (A) (A) (A) (A) (A) (A) (A) (A) (A) (A) (A) (A)
                 (A) (A) (A) (A) (A) (A) (A) (A) (A) (A) (A) (A)
                 (A) (A) (A) (A) (A) (A) (A) (A) (A)
 The electronic state is 1-A.
 Alpha  occ. eigenvalues --  -19.41190 -19.37394 -14.74873 -14.54722 -10.43485
 Alpha  occ. eigenvalues --  -10.41632 -10.38179 -10.38004 -10.36684 -10.36671
 Alpha  occ. eigenvalues --   -1.43383  -1.26858  -1.14055  -1.08378  -1.00587
 Alpha  occ. eigenvalues --   -0.95198  -0.89248  -0.83269  -0.80675  -0.76000
 Alpha  occ. eigenvalues --   -0.74033  -0.72673  -0.72270  -0.71098  -0.65025
 Alpha  occ. eigenvalues --   -0.62734  -0.61935  -0.61198  -0.59416  -0.58700
 Alpha  occ. eigenvalues --   -0.53867  -0.53312  -0.51615  -0.49975  -0.45199
 Alpha  occ. eigenvalues --   -0.40864
 Alpha virt. eigenvalues --   -0.28854  -0.18945  -0.16284  -0.12603  -0.11775
 Alpha virt. eigenvalues --   -0.09773  -0.09166  -0.08222  -0.06549  -0.06129
 Alpha virt. eigenvalues --   -0.05850  -0.04500  -0.04193  -0.03267  -0.02454
 Alpha virt. eigenvalues --   -0.02227  -0.00796  -0.00339   0.00834   0.01357
 Alpha virt. eigenvalues --    0.01931   0.02421   0.02472   0.03298   0.03685
 Alpha virt. eigenvalues --    0.05016   0.05431   0.06283   0.06723   0.06822
 Alpha virt. eigenvalues --    0.07673   0.08210   0.08580   0.09113   0.10103
 Alpha virt. eigenvalues --    0.10360   0.10493   0.12335   0.12741   0.12749
 Alpha virt. eigenvalues --    0.13466   0.14461   0.14679   0.15497   0.15815
 Alpha virt. eigenvalues --    0.16543   0.18868   0.19042   0.19752   0.20717
 Alpha virt. eigenvalues --    0.21853   0.22709   0.24831   0.25363   0.27611
 Alpha virt. eigenvalues --    0.29014   0.30251   0.33479   0.38260   0.40949
 Alpha virt. eigenvalues --    0.43888   0.48434   0.49377   0.49812   0.52839
 Alpha virt. eigenvalues --    0.54844   0.56150   0.57700   0.59286   0.62873
 Alpha virt. eigenvalues --    0.63899   0.65654   0.68106   0.69039   0.71933
 Alpha virt. eigenvalues --    0.73590   0.74844   0.77645   0.79558   0.80253
 Alpha virt. eigenvalues --    0.82041   0.82586   0.85384   0.86043   0.88811
 Alpha virt. eigenvalues --    0.89925   0.90090   0.92135   0.94496   0.96734
 Alpha virt. eigenvalues --    0.99763   1.00710   1.01661   1.02890   1.04459
 Alpha virt. eigenvalues --    1.06827   1.09479   1.09726   1.12269   1.12444
 Alpha virt. eigenvalues --    1.15120   1.15877   1.15942   1.19474   1.19692
 Alpha virt. eigenvalues --    1.20925   1.21610   1.26274   1.27384   1.30046
 Alpha virt. eigenvalues --    1.33611   1.35188   1.37630   1.49514   1.52970
 Alpha virt. eigenvalues --    1.56191   1.58371   1.63085   1.64340   1.65879
 Alpha virt. eigenvalues --    1.66830   1.72325   1.73011   1.73840   1.76189
 Alpha virt. eigenvalues --    1.77883   1.78736   1.79510   1.79611   1.86084
 Alpha virt. eigenvalues --    1.88942   1.91278   1.93383   1.95340   1.96551
 Alpha virt. eigenvalues --    2.00437   2.01001   2.03076   2.13046   2.13704
 Alpha virt. eigenvalues --    2.20127   2.21183   2.22054   2.22601   2.23509
 Alpha virt. eigenvalues --    2.27660   2.27671   2.30503   2.32629   2.37014
 Alpha virt. eigenvalues --    2.38020   2.39729   2.40901   2.41777   2.42662
 Alpha virt. eigenvalues --    2.45138   2.49919   2.50540   2.53483   2.58680
 Alpha virt. eigenvalues --    2.59150   2.63323   2.66478   2.68229   2.80076
 Alpha virt. eigenvalues --    2.82573   2.86665   2.90541   2.94381   2.98710
 Alpha virt. eigenvalues --    3.03365   3.12377   3.17346   3.18107   3.24279
 Alpha virt. eigenvalues --    3.33644   3.36482   3.51508   3.67267   3.97731
 Alpha virt. eigenvalues --    4.04739   4.12623   4.13987   4.18470   4.29816
 Alpha virt. eigenvalues --    4.31986   4.36532   4.63019   4.69625
          Condensed to atoms (all electrons):
               1          2          3          4          5          6
     1  C    9.982334   0.431468  -2.682558  -1.573226   0.302509  -1.012779
     2  C    0.431468  12.581802  -2.452704  -1.256201  -1.207381  -0.396904
     3  C   -2.682558  -2.452704  12.073785  -1.243074   0.619373  -1.324183
     4  C   -1.573226  -1.256201  -1.243074  10.160284   0.094946  -0.462949
     5  C    0.302509  -1.207381   0.619373   0.094946   6.090948  -0.112881
     6  C   -1.012779  -0.396904  -1.324183  -0.462949  -0.112881   8.932292
     7  N    0.082094  -0.031454   0.071557  -0.069004   0.148484  -0.083519
     8  N    0.404549  -1.140563   0.086676   0.020622   0.042809   0.090681
     9  O    0.035243  -0.317602   0.114743   0.072434  -0.005843   0.033574
    10  O   -0.279325  -0.203886   0.348575   0.009816   0.016568   0.034660
    11  H   -0.017864   0.294541   0.068134   0.003843  -0.048294   0.065391
    12  H    0.041198   0.339658  -0.087613   0.117060  -0.062840   0.017506
    13  H    0.008678   0.004537   0.149501   0.060266   0.109968   0.007906
    14  H    0.120588   0.002585  -0.000181   0.012355   0.108043   0.097375
    15  H    0.022250   0.000325  -0.003246   0.050788  -0.007329  -0.073865
    16  H   -0.003574  -0.000017   0.021863  -0.074289  -0.005463   0.050502
    17  H    0.041898   0.031559  -0.061157  -0.003947  -0.001349   0.004117
               7          8          9         10         11         12
     1  C    0.082094   0.404549   0.035243  -0.279325  -0.017864   0.041198
     2  C   -0.031454  -1.140563  -0.317602  -0.203886   0.294541   0.339658
     3  C    0.071557   0.086676   0.114743   0.348575   0.068134  -0.087613
     4  C   -0.069004   0.020622   0.072434   0.009816   0.003843   0.117060
     5  C    0.148484   0.042809  -0.005843   0.016568  -0.048294  -0.062840
     6  C   -0.083519   0.090681   0.033574   0.034660   0.065391   0.017506
     7  N    6.791787   0.000951  -0.000131  -0.000497  -0.000188  -0.000048
     8  N    0.000951   7.230889   0.177390   0.429832  -0.060471  -0.061991
     9  O   -0.000131   0.177390   7.781874  -0.096957  -0.002466   0.020157
    10  O   -0.000497   0.429832  -0.096957   7.680016   0.022581  -0.002771
    11  H   -0.000188  -0.060471  -0.002466   0.022581   0.458125  -0.000081
    12  H   -0.000048  -0.061991   0.020157  -0.002771  -0.000081   0.464142
    13  H   -0.020040  -0.001073   0.000087   0.000027   0.000010  -0.004297
    14  H   -0.019548  -0.000996   0.000063  -0.000025  -0.003967   0.000010
    15  H    0.330257  -0.000006   0.000000   0.000001  -0.000009   0.000003
    16  H    0.330150   0.000002   0.000001   0.000000   0.000003  -0.000009
    17  H    0.000005   0.036142   0.215288   0.010311   0.000004   0.000174
              13         14         15         16         17
     1  C    0.008678   0.120588   0.022250  -0.003574   0.041898
     2  C    0.004537   0.002585   0.000325  -0.000017   0.031559
     3  C    0.149501  -0.000181  -0.003246   0.021863  -0.061157
     4  C    0.060266   0.012355   0.050788  -0.074289  -0.003947
     5  C    0.109968   0.108043  -0.007329  -0.005463  -0.001349
     6  C    0.007906   0.097375  -0.073865   0.050502   0.004117
     7  N   -0.020040  -0.019548   0.330257   0.330150   0.000005
     8  N   -0.001073  -0.000996  -0.000006   0.000002   0.036142
     9  O    0.000087   0.000063   0.000000   0.000001   0.215288
    10  O    0.000027  -0.000025   0.000001   0.000000   0.010311
    11  H    0.000010  -0.003967  -0.000009   0.000003   0.000004
    12  H   -0.004297   0.000010   0.000003  -0.000009   0.000174
    13  H    0.489878  -0.000090  -0.000052   0.004386  -0.000000
    14  H   -0.000090   0.487417   0.004402  -0.000054  -0.000000
    15  H   -0.000052   0.004402   0.339763  -0.019678   0.000000
    16  H    0.004386  -0.000054  -0.019678   0.340043  -0.000000
    17  H   -0.000000  -0.000000   0.000000  -0.000000   0.327526
 Mulliken charges:
               1
     1  C    0.096515
     2  C   -0.679764
     3  C    0.300508
     4  C    0.080275
     5  C   -0.082267
     6  C    0.133078
     7  N   -0.530857
     8  N   -0.255443
     9  O   -0.027856
    10  O    0.031074
    11  H    0.220709
    12  H    0.219741
    13  H    0.190307
    14  H    0.192025
    15  H    0.356396
    16  H    0.356133
    17  H    0.399428
 Sum of Mulliken charges =   1.00000
 Mulliken charges with hydrogens summed into heavy atoms:
               1
     1  C    0.317223
     2  C   -0.679764
     3  C    0.520249
     4  C    0.270582
     5  C   -0.082267
     6  C    0.325103
     7  N    0.181671
     8  N   -0.255443
     9  O    0.371572
    10  O    0.031074
 Electronic spatial extent (au):  <R**2>=           1541.9217
 Charge=              1.0000 electrons
 Dipole moment (field-independent basis, Debye):
    X=             -3.5650    Y=             -1.1299    Z=              0.0007  Tot=              3.7397
 Quadrupole moment (field-independent basis, Debye-Ang):
   XX=             -7.5091   YY=            -44.0931   ZZ=            -58.2992
   XY=             -4.7968   XZ=              0.0003   YZ=             -0.0008
 Traceless Quadrupole moment (field-independent basis, Debye-Ang):
   XX=             29.1247   YY=             -7.4593   ZZ=            -21.6654
   XY=             -4.7968   XZ=              0.0003   YZ=             -0.0008
 Octapole moment (field-independent basis, Debye-Ang**2):
  XXX=            -41.5816  YYY=             -1.0334  ZZZ=              0.0029  XYY=            -12.9630
  XXY=            -21.7828  XXZ=              0.0298  XZZ=             11.1647  YZZ=              0.3025
  YYZ=              0.0023  XYZ=             -0.0064
 Hexadecapole moment (field-independent basis, Debye-Ang**3):
 XXXX=           -654.3002 YYYY=           -330.7874 ZZZZ=            -57.2966 XXXY=            -81.2151
 XXXZ=              0.0457 YYYX=             -3.5589 YYYZ=              0.0008 ZZZX=              0.0159
 ZZZY=             -0.0007 XXYY=           -240.7541 XXZZ=           -260.9098 YYZZ=            -80.6600
 XXYZ=             -0.0204 YYXZ=              0.0061 ZZXY=              0.3772
 N-N= 5.101219227400D+02 E-N=-2.154577347855D+03  KE= 4.879281770178D+02
 Calling FoFJK, ICntrl=      2127 FMM=F ISym2X=0 I1Cent= 0 IOpClX= 0 NMat=1 NMatS=1 NMatT=0.
 ***** Axes restored to original set *****
 -------------------------------------------------------------------
 Center     Atomic                   Forces (Hartrees/Bohr)
 Number     Number              X              Y              Z
 -------------------------------------------------------------------
      1        6          -0.002412896   -0.000834828    0.000022545
      2        6           0.001930224   -0.000806199    0.000038624
      3        6          -0.002031270    0.001187423    0.000019614
      4        6           0.002797231    0.001696970   -0.000002809
      5        6          -0.003584021    0.000003183    0.000002955
      6        6           0.002446260   -0.001944117   -0.000002254
      7        7           0.004341983   -0.000082141   -0.000000588
      8        7           0.005061750   -0.001844096   -0.000209789
      9        8          -0.003049408   -0.009354436    0.000054938
     10        8          -0.006340723    0.011413436    0.000076692
     11        1           0.000098262   -0.000062709   -0.000000487
     12        1           0.000114447   -0.000013949    0.000001047
     13        1           0.000057489   -0.000566830   -0.000003409
     14        1           0.000059496    0.000599316   -0.000004035
     15        1           0.000064311   -0.000688318   -0.000000027
     16        1           0.000089439    0.000650577   -0.000000114
     17        1           0.000357425    0.000646716    0.000007095
 -------------------------------------------------------------------
 Cartesian Forces:  Max     0.011413436 RMS     0.002683011

 GradGradGradGradGradGradGradGradGradGradGradGradGradGradGradGradGradGrad
 Berny optimization.
 FormGI is forming the generalized inverse of G from B-inverse, IUseBI=4.
 GSVD:  received Info=                   1 from GESDD.
 Internal  Forces:  Max     0.013009915 RMS     0.002075329
 Search for a local minimum.
 Step number   1 out of a maximum of   86
 All quantities printed in internal units (Hartrees-Bohrs-Radians)
 Mixed Optimization -- RFO/linear search
 Second derivative matrix not updated -- first step.
 ITU=  0
     Eigenvalues ---    0.01709   0.01843   0.01950   0.01984   0.02016
     Eigenvalues ---    0.02067   0.02128   0.02166   0.02170   0.02188
     Eigenvalues ---    0.02298   0.02318   0.02628   0.02628   0.16000
     Eigenvalues ---    0.16000   0.16000   0.16000   0.16000   0.16000
     Eigenvalues ---    0.16000   0.22000   0.22950   0.24000   0.25000
     Eigenvalues ---    0.25000   0.25000   0.25000   0.35417   0.35420
     Eigenvalues ---    0.35427   0.35587   0.38152   0.39667   0.41471
     Eigenvalues ---    0.41595   0.45825   0.45835   0.49569   0.51697
     Eigenvalues ---    0.52442   0.52648   0.55470   0.59685   1.02613
 RFO step:  Lambda=-5.01816294D-04 EMin= 1.70943082D-02
 Linear search not attempted -- first point.
 Iteration  1 RMS(Cart)=  0.00652548 RMS(Int)=  0.00001061
 Iteration  2 RMS(Cart)=  0.00001778 RMS(Int)=  0.00000205
 Iteration  3 RMS(Cart)=  0.00000000 RMS(Int)=  0.00000205
 Variable       Old X    -DE/DX   Delta X   Delta X   Delta X     New X
                                 (Linear)    (Quad)   (Total)
    R1        2.68940  -0.00053   0.00000  -0.00123  -0.00123   2.68817
    R2        2.57186   0.00308   0.00000   0.00581   0.00581   2.57767
    R3        2.04987  -0.00010   0.00000  -0.00029  -0.00029   2.04958
    R4        2.68887  -0.00029   0.00000  -0.00065  -0.00065   2.68822
    R5        2.57478   0.00401   0.00000   0.00764   0.00764   2.58242
    R6        2.57389   0.00320   0.00000   0.00610   0.00610   2.57999
    R7        2.04733  -0.00005   0.00000  -0.00014  -0.00014   2.04719
    R8        2.70524  -0.00093   0.00000  -0.00229  -0.00229   2.70295
    R9        2.05003   0.00052   0.00000   0.00147   0.00147   2.05150
   R10        2.70586  -0.00076   0.00000  -0.00190  -0.00190   2.70396
   R11        2.51190   0.00450   0.00000   0.00753   0.00753   2.51943
   R12        2.04999   0.00054   0.00000   0.00153   0.00153   2.05152
   R13        1.91030  -0.00054   0.00000  -0.00118  -0.00118   1.90911
   R14        1.91018  -0.00052   0.00000  -0.00113  -0.00113   1.90905
   R15        2.54717   0.00896   0.00000   0.01613   0.01613   2.56330
   R16        2.27610   0.01301   0.00000   0.01267   0.01267   2.28877
   R17        1.84890  -0.00020   0.00000  -0.00039  -0.00039   1.84851
    A1        2.08148   0.00077   0.00000   0.00323   0.00323   2.08471
    A2        2.08549  -0.00033   0.00000  -0.00129  -0.00129   2.08420
    A3        2.11622  -0.00044   0.00000  -0.00194  -0.00194   2.11427
    A4        2.11960  -0.00174   0.00000  -0.00709  -0.00709   2.11251
    A5        2.05206   0.00035   0.00000   0.00146   0.00146   2.05352
    A6        2.11153   0.00139   0.00000   0.00563   0.00563   2.11715
    A7        2.07684   0.00088   0.00000   0.00378   0.00378   2.08063
    A8        2.10071  -0.00033   0.00000  -0.00121  -0.00121   2.09950
    A9        2.10563  -0.00055   0.00000  -0.00257  -0.00257   2.10305
   A10        2.10215   0.00061   0.00000   0.00247   0.00246   2.10461
   A11        2.09807  -0.00054   0.00000  -0.00267  -0.00267   2.09541
   A12        2.08296  -0.00007   0.00000   0.00020   0.00020   2.08317
   A13        2.08817  -0.00131   0.00000  -0.00557  -0.00557   2.08260
   A14        2.09802   0.00061   0.00000   0.00262   0.00263   2.10064
   A15        2.09700   0.00069   0.00000   0.00294   0.00294   2.09994
   A16        2.09813   0.00078   0.00000   0.00318   0.00318   2.10131
   A17        2.10048  -0.00066   0.00000  -0.00328  -0.00328   2.09720
   A18        2.08457  -0.00012   0.00000   0.00011   0.00011   2.08468
   A19        2.11983   0.00028   0.00000   0.00173   0.00173   2.12156
   A20        2.12077   0.00025   0.00000   0.00156   0.00156   2.12234
   A21        2.04259  -0.00053   0.00000  -0.00330  -0.00330   2.03929
   A22        2.00965  -0.00123   0.00000  -0.00492  -0.00493   2.00472
   A23        2.21104  -0.00061   0.00000  -0.00242  -0.00243   2.20861
   A24        2.06250   0.00184   0.00000   0.00736   0.00735   2.06985
   A25        1.83120  -0.00131   0.00000  -0.00815  -0.00815   1.82305
    D1       -0.00011   0.00001   0.00000   0.00039   0.00039   0.00027
    D2        3.14157   0.00000   0.00000   0.00005   0.00005  -3.14156
    D3        3.14154   0.00000   0.00000   0.00017   0.00017  -3.14147
    D4        0.00005  -0.00000   0.00000  -0.00017  -0.00017  -0.00012
    D5        0.00005  -0.00000   0.00000  -0.00018  -0.00018  -0.00013
    D6       -3.14153  -0.00001   0.00000  -0.00023  -0.00023   3.14143
    D7        3.14158   0.00000   0.00000   0.00004   0.00004  -3.14156
    D8        0.00000  -0.00000   0.00000  -0.00001  -0.00001  -0.00001
    D9        0.00011  -0.00001   0.00000  -0.00038  -0.00038  -0.00027
   D10       -3.14153  -0.00000   0.00000  -0.00021  -0.00021   3.14144
   D11       -3.14158  -0.00000   0.00000  -0.00003  -0.00003   3.14158
   D12       -0.00004   0.00000   0.00000   0.00014   0.00014   0.00010
   D13        3.14070   0.00006   0.00000   0.00273   0.00273  -3.13976
   D14        0.00081  -0.00005   0.00000  -0.00242  -0.00242  -0.00161
   D15       -0.00080   0.00005   0.00000   0.00240   0.00239   0.00159
   D16       -3.14069  -0.00006   0.00000  -0.00276  -0.00275   3.13975
   D17       -0.00005   0.00000   0.00000   0.00016   0.00016   0.00012
   D18        3.14153   0.00000   0.00000   0.00020   0.00020  -3.14145
   D19       -3.14159  -0.00000   0.00000  -0.00001  -0.00001   3.14159
   D20       -0.00001   0.00000   0.00000   0.00003   0.00003   0.00002
   D21       -0.00001   0.00000   0.00000   0.00003   0.00003   0.00002
   D22        3.14158   0.00000   0.00000   0.00003   0.00003  -3.14157
   D23       -3.14159  -0.00000   0.00000  -0.00000   0.00000  -3.14159
   D24        0.00000  -0.00000   0.00000  -0.00000  -0.00000   0.00000
   D25        0.00001  -0.00000   0.00000  -0.00003  -0.00003  -0.00002
   D26        3.14159   0.00000   0.00000   0.00002   0.00002  -3.14158
   D27       -3.14159  -0.00000   0.00000  -0.00002  -0.00002   3.14157
   D28       -0.00001   0.00000   0.00000   0.00003   0.00002   0.00002
   D29        3.14159  -0.00000   0.00000  -0.00000  -0.00000   3.14159
   D30       -0.00000  -0.00000   0.00000   0.00000   0.00000   0.00000
   D31        0.00000   0.00000   0.00000  -0.00000  -0.00000  -0.00000
   D32       -3.14159   0.00000   0.00000   0.00000   0.00000  -3.14159
   D33       -3.14073  -0.00006   0.00000  -0.00263  -0.00264   3.13982
   D34       -0.00069   0.00004   0.00000   0.00205   0.00206   0.00137
         Item               Value     Threshold  Converged?
 Maximum Force            0.013010     0.000450     NO 
 RMS     Force            0.002075     0.000300     NO 
 Maximum Displacement     0.020164     0.001800     NO 
 RMS     Displacement     0.006517     0.001200     NO 
 Predicted change in Energy=-2.511676D-04
 GradGradGradGradGradGradGradGradGradGradGradGradGradGradGradGradGradGrad

                          Input orientation:                          
 ---------------------------------------------------------------------
 Center     Atomic      Atomic             Coordinates (Angstroms)
 Number     Number       Type             X           Y           Z
 ---------------------------------------------------------------------
      1          6           0        0.055409    1.259847   -0.000404
      2          6           0       -0.669745    0.036036   -0.000852
      3          6           0        0.004963   -1.216325   -0.000611
      4          6           0        1.370068   -1.237715   -0.000257
      5          6           0        2.117058   -0.017929    0.000016
      6          6           0        1.419152    1.231199   -0.000056
      7          7           0        3.450025   -0.044109    0.000335
      8          7           0       -2.034440    0.107327   -0.001230
      9          8           0       -2.668167   -1.091971    0.000613
     10          8           0       -2.703871    1.116676    0.000339
     11          1           0       -0.485830    2.199739   -0.000488
     12          1           0       -0.559361   -2.141063   -0.000819
     13          1           0        1.899033   -2.185733   -0.000201
     14          1           0        1.984189    2.158182    0.000136
     15          1           0        3.995531    0.806212    0.000531
     16          1           0        3.962388   -0.914765    0.000390
     17          1           0       -3.619727   -0.865284    0.001744
 ---------------------------------------------------------------------
                    Distance matrix (angstroms):
                    1          2          3          4          5
     1  C    0.000000
     2  C    1.422519   0.000000
     3  C    2.476686   1.422547   0.000000
     4  C    2.822436   2.404844   1.365273   0.000000
     5  C    2.425512   2.787325   2.428394   1.430340   0.000000
     6  C    1.364044   2.406637   2.826713   2.469402   1.430872
     7  N    3.636443   4.120549   3.639031   2.398107   1.333224
     8  N    2.386581   1.366556   2.431300   3.660576   4.153387
     9  O    3.598460   2.294797   2.676021   4.040864   4.904278
    10  O    2.762992   2.303357   3.575007   4.705330   4.952644
    11  H    1.084591   2.171505   3.451141   3.906462   3.419514
    12  H    3.456028   2.179895   1.083329   2.130430   3.416272
    13  H    3.907809   3.396304   2.127735   1.085607   2.178740
    14  H    2.127722   3.398068   3.912114   3.450980   2.180164
    15  H    3.966151   4.728422   4.473846   3.327266   2.051310
    16  H    4.471401   4.728708   3.968899   2.612360   2.051721
    17  H    4.245327   3.084603   3.641649   5.003674   5.799026
                    6          7          8          9         10
     6  C    0.000000
     7  N    2.398094   0.000000
     8  N    3.631857   5.486556   0.000000
     9  O    4.701414   6.207277   1.356440   0.000000
    10  O    4.124613   6.262416   1.211166   2.208935   0.000000
    11  H    2.137060   4.530541   2.603149   3.949424   2.468347
    12  H    3.909816   4.524643   2.689074   2.355347   3.900229
    13  H    3.450465   2.644264   4.553058   4.696342   5.665036
    14  H    1.085617   2.645517   4.511695   5.675201   4.802358
    15  H    2.611196   1.010259   6.070338   6.928779   6.706592
    16  H    3.327644   1.010227   6.083307   6.632923   6.968914
    17  H    5.457613   7.117283   1.859869   0.978189   2.183336
                   11         12         13         14         15
    11  H    0.000000
    12  H    4.341425   0.000000
    13  H    4.991987   2.458800   0.000000
    14  H    2.470368   4.995313   4.344750   0.000000
    15  H    4.693028   5.425263   3.653360   2.423493   0.000000
    16  H    5.430173   4.685085   2.423385   3.654624   1.721296
    17  H    4.383569   3.315638   5.674531   6.367513   7.796541
                   16         17
    16  H    0.000000
    17  H    7.582276   0.000000
 Stoichiometry    C6H7N2O2(1+)
 Framework group  C1[X(C6H7N2O2)]
 Deg. of freedom    45
 Full point group                 C1      NOp   1
 Largest Abelian subgroup         C1      NOp   1
 Largest concise Abelian subgroup C1      NOp   1
                         Standard orientation:                         
 ---------------------------------------------------------------------
 Center     Atomic      Atomic             Coordinates (Angstroms)
 Number     Number       Type             X           Y           Z
 ---------------------------------------------------------------------
      1          6           0       -0.056262    1.259491    0.000262
      2          6           0        0.668262    0.035307    0.000711
      3          6           0       -0.007089   -1.216707    0.000469
      4          6           0       -1.372205   -1.237395    0.000115
      5          6           0       -2.118568   -0.017225   -0.000158
      6          6           0       -1.420019    1.231544   -0.000086
      7          7           0       -3.451548   -0.042718   -0.000477
      8          7           0        2.032994    0.105896    0.001088
      9          8           0        2.666104   -1.093728   -0.000755
     10          8           0        2.702944    1.114900   -0.000480
     11          1           0        0.485460    2.199104    0.000347
     12          1           0        0.556759   -2.141735    0.000678
     13          1           0       -1.901658   -2.185141    0.000060
     14          1           0       -1.984580    2.158818   -0.000278
     15          1           0       -3.996617    0.807883   -0.000673
     16          1           0       -3.964359   -0.913111   -0.000531
     17          1           0        3.617780   -0.867530   -0.001885
 ---------------------------------------------------------------------
 Rotational constants (GHZ):      3.7762899      0.8227642      0.6755730
 Standard basis: 6-31+G(d,p) (6D, 7F)
 There are   225 symmetry adapted cartesian basis functions of A   symmetry.
 There are   225 symmetry adapted basis functions of A   symmetry.
   225 basis functions,   369 primitive gaussians,   225 cartesian basis functions
    36 alpha electrons       36 beta electrons
       nuclear repulsion energy       508.9970243262 Hartrees.
 NAtoms=   17 NActive=   17 NUniq=   17 SFac= 1.00D+00 NAtFMM=   60 NAOKFM=F Big=F
 Integral buffers will be    131072 words long.
 Raffenetti 2 integral format.
 Two-electron integral symmetry is turned on.
 One-electron integrals computed using PRISM.
 NBasis=   225 RedAO= T EigKep=  3.35D-06  NBF=   225
 NBsUse=   225 1.00D-06 EigRej= -1.00D+00 NBFU=   225
 Initial guess from the checkpoint file:  "B3PW91PNAyang.chk"
 B after Tr=    -0.000000    0.000000    0.000000
         Rot=    1.000000   -0.000005    0.000012    0.000158 Ang=  -0.02 deg.
 ExpMin= 4.38D-02 ExpMax= 5.48D+03 ExpMxC= 8.25D+02 IAcc=2 IRadAn=         4 AccDes= 0.00D+00
 Harris functional with IExCor=  408 and IRadAn=       4 diagonalized for initial guess.
 HarFok:  IExCor=  408 AccDes= 0.00D+00 IRadAn=         4 IDoV= 1 UseB2=F ITyADJ=14
 ICtDFT=  3500011 ScaDFX=  1.000000  1.000000  1.000000  1.000000
 FoFCou: FMM=F IPFlag=           0 FMFlag=      100000 FMFlg1=           0
         NFxFlg=           0 DoJE=T BraDBF=F KetDBF=T FulRan=T
         wScrn=  0.000000 ICntrl=     500 IOpCl=  0 I1Cent=   200000004 NGrid=           0
         NMat0=    1 NMatS0=      1 NMatT0=    0 NMatD0=    1 NMtDS0=    0 NMtDT0=    0
 Petite list used in FoFCou.
 Keep R1 ints in memory in canonical form, NReq=329175655.
 Requested convergence on RMS density matrix=1.00D-08 within 128 cycles.
 Requested convergence on MAX density matrix=1.00D-06.
 Requested convergence on             energy=1.00D-06.
 No special actions if energy rises.
 SCF Done:  E(RB3PW91) =  -492.304279591     A.U. after   12 cycles
            NFock= 12  Conv=0.21D-08     -V/T= 2.0091
 Calling FoFJK, ICntrl=      2127 FMM=F ISym2X=0 I1Cent= 0 IOpClX= 0 NMat=1 NMatS=1 NMatT=0.
 ***** Axes restored to original set *****
 -------------------------------------------------------------------
 Center     Atomic                   Forces (Hartrees/Bohr)
 Number     Number              X              Y              Z
 -------------------------------------------------------------------
      1        6          -0.000081147   -0.000026093   -0.000047920
      2        6          -0.000037090   -0.000195175   -0.000070942
      3        6          -0.000211180    0.000160467   -0.000041599
      4        6           0.000317036    0.000376298    0.000005303
      5        6          -0.000739755    0.000061268   -0.000005734
      6        6           0.000358148   -0.000379451    0.000004071
      7        7           0.000035286    0.000008637    0.000000030
      8        7           0.003144123    0.001403072    0.000433908
      9        8          -0.001236823   -0.001727746   -0.000115278
     10        8          -0.001030646    0.000253304   -0.000163638
     11        1           0.000188019    0.000147863    0.000001060
     12        1           0.000137728   -0.000169283   -0.000002200
     13        1          -0.000292501   -0.000148059    0.000007283
     14        1          -0.000248336    0.000155264    0.000008760
     15        1          -0.000038949    0.000047060    0.000000098
     16        1          -0.000046573   -0.000051531    0.000000191
     17        1          -0.000217342    0.000084105   -0.000013393
 -------------------------------------------------------------------
 Cartesian Forces:  Max     0.003144123 RMS     0.000614815

 GradGradGradGradGradGradGradGradGradGradGradGradGradGradGradGradGradGrad
 Berny optimization.
 Using GEDIIS/GDIIS optimizer.
 FormGI is forming the generalized inverse of G from B-inverse, IUseBI=4.
 GSVD:  received Info=                   1 from GESDD.
 Internal  Forces:  Max     0.002137317 RMS     0.000337434
 Search for a local minimum.
 Step number   2 out of a maximum of   86
 All quantities printed in internal units (Hartrees-Bohrs-Radians)
 Mixed Optimization -- En-DIIS/RFO-DIIS
 Update second derivatives using D2CorX and points    1    2
 DE= -2.59D-04 DEPred=-2.51D-04 R= 1.03D+00
 TightC=F SS=  1.41D+00  RLast= 3.21D-02 DXNew= 5.0454D-01 9.6439D-02
 Trust test= 1.03D+00 RLast= 3.21D-02 DXMaxT set to 3.00D-01
 ITU=  1  0
 Use linear search instead of GDIIS.
     Eigenvalues ---    0.01710   0.01844   0.01952   0.01984   0.02016
     Eigenvalues ---    0.02069   0.02141   0.02165   0.02170   0.02188
     Eigenvalues ---    0.02299   0.02318   0.02628   0.02628   0.15624
     Eigenvalues ---    0.16000   0.16000   0.16000   0.16000   0.16000
     Eigenvalues ---    0.16143   0.22002   0.22953   0.24058   0.24958
     Eigenvalues ---    0.25000   0.25000   0.26748   0.35417   0.35419
     Eigenvalues ---    0.35434   0.35589   0.38056   0.39648   0.41093
     Eigenvalues ---    0.41604   0.45826   0.45835   0.48621   0.49568
     Eigenvalues ---    0.51733   0.52560   0.54924   0.60531   1.00929
 RFO step:  Lambda=-2.65282872D-05 EMin= 1.70956246D-02
 Quartic linear search produced a step of  0.04323.
 Iteration  1 RMS(Cart)=  0.00218265 RMS(Int)=  0.00000758
 Iteration  2 RMS(Cart)=  0.00000740 RMS(Int)=  0.00000405
 Iteration  3 RMS(Cart)=  0.00000000 RMS(Int)=  0.00000405
 Variable       Old X    -DE/DX   Delta X   Delta X   Delta X     New X
                                 (Linear)    (Quad)   (Total)
    R1        2.68817  -0.00004  -0.00005  -0.00009  -0.00015   2.68803
    R2        2.57767  -0.00032   0.00025  -0.00057  -0.00032   2.57735
    R3        2.04958   0.00003  -0.00001   0.00010   0.00009   2.04967
    R4        2.68822  -0.00029  -0.00003  -0.00072  -0.00074   2.68748
    R5        2.58242  -0.00066   0.00033  -0.00123  -0.00090   2.58152
    R6        2.57999  -0.00034   0.00026  -0.00061  -0.00034   2.57965
    R7        2.04719   0.00007  -0.00001   0.00021   0.00021   2.04740
    R8        2.70295  -0.00028  -0.00010  -0.00076  -0.00086   2.70209
    R9        2.05150  -0.00001   0.00006  -0.00002   0.00004   2.05154
   R10        2.70396  -0.00037  -0.00008  -0.00098  -0.00106   2.70289
   R11        2.51943  -0.00005   0.00033  -0.00001   0.00032   2.51975
   R12        2.05152   0.00000   0.00007   0.00003   0.00009   2.05161
   R13        1.90911   0.00002  -0.00005   0.00003  -0.00002   1.90910
   R14        1.90905   0.00002  -0.00005   0.00003  -0.00002   1.90903
   R15        2.56330   0.00214   0.00070   0.00419   0.00489   2.56819
   R16        2.28877   0.00078   0.00055   0.00092   0.00147   2.29024
   R17        1.84851   0.00023  -0.00002   0.00046   0.00044   1.84895
    A1        2.08471  -0.00013   0.00014  -0.00047  -0.00033   2.08437
    A2        2.08420   0.00030  -0.00006   0.00181   0.00175   2.08596
    A3        2.11427  -0.00018  -0.00008  -0.00133  -0.00142   2.11286
    A4        2.11251   0.00019  -0.00031   0.00079   0.00048   2.11300
    A5        2.05352   0.00000   0.00006  -0.00002   0.00004   2.05356
    A6        2.11715  -0.00019   0.00024  -0.00077  -0.00053   2.11663
    A7        2.08063  -0.00015   0.00016  -0.00062  -0.00045   2.08017
    A8        2.09950   0.00029  -0.00005   0.00170   0.00165   2.10116
    A9        2.10305  -0.00014  -0.00011  -0.00109  -0.00120   2.10185
   A10        2.10461  -0.00003   0.00011  -0.00012  -0.00002   2.10460
   A11        2.09541  -0.00032  -0.00012  -0.00213  -0.00225   2.09316
   A12        2.08317   0.00035   0.00001   0.00225   0.00226   2.08543
   A13        2.08260   0.00021  -0.00024   0.00079   0.00055   2.08315
   A14        2.10064  -0.00009   0.00011  -0.00035  -0.00023   2.10041
   A15        2.09994  -0.00012   0.00013  -0.00044  -0.00032   2.09963
   A16        2.10131  -0.00009   0.00014  -0.00037  -0.00023   2.10108
   A17        2.09720  -0.00026  -0.00014  -0.00181  -0.00195   2.09525
   A18        2.08468   0.00035   0.00000   0.00218   0.00219   2.08686
   A19        2.12156  -0.00004   0.00007  -0.00022  -0.00014   2.12142
   A20        2.12234  -0.00004   0.00007  -0.00026  -0.00019   2.12215
   A21        2.03929   0.00008  -0.00014   0.00048   0.00033   2.03962
   A22        2.00472   0.00036  -0.00021   0.00146   0.00123   2.00596
   A23        2.20861   0.00064  -0.00010   0.00267   0.00255   2.21116
   A24        2.06985  -0.00101   0.00032  -0.00410  -0.00380   2.06605
   A25        1.82305  -0.00005  -0.00035  -0.00044  -0.00079   1.82226
    D1        0.00027  -0.00002   0.00002  -0.00087  -0.00085  -0.00058
    D2       -3.14156  -0.00000   0.00000  -0.00011  -0.00010   3.14152
    D3       -3.14147  -0.00001   0.00001  -0.00038  -0.00037   3.14134
    D4       -0.00012   0.00001  -0.00001   0.00038   0.00037   0.00025
    D5       -0.00013   0.00001  -0.00001   0.00040   0.00040   0.00027
    D6        3.14143   0.00001  -0.00001   0.00052   0.00051  -3.14124
    D7       -3.14156  -0.00000   0.00000  -0.00009  -0.00009   3.14153
    D8       -0.00001   0.00000  -0.00000   0.00002   0.00002   0.00002
    D9       -0.00027   0.00002  -0.00002   0.00085   0.00084   0.00057
   D10        3.14144   0.00001  -0.00001   0.00047   0.00046  -3.14128
   D11        3.14158   0.00000  -0.00000   0.00006   0.00006  -3.14155
   D12        0.00010  -0.00001   0.00001  -0.00032  -0.00032  -0.00021
   D13       -3.13976  -0.00012   0.00012  -0.00572  -0.00561   3.13782
   D14       -0.00161   0.00010  -0.00010   0.00498   0.00488   0.00327
   D15        0.00159  -0.00010   0.00010  -0.00496  -0.00486  -0.00327
   D16        3.13975   0.00012  -0.00012   0.00574   0.00563  -3.13781
   D17        0.00012  -0.00001   0.00001  -0.00037  -0.00037  -0.00025
   D18       -3.14145  -0.00001   0.00001  -0.00045  -0.00044   3.14129
   D19        3.14159   0.00000  -0.00000   0.00001   0.00001  -3.14158
   D20        0.00002  -0.00000   0.00000  -0.00007  -0.00007  -0.00004
   D21        0.00002  -0.00000   0.00000  -0.00008  -0.00008  -0.00005
   D22       -3.14157  -0.00000   0.00000  -0.00007  -0.00007   3.14154
   D23       -3.14159   0.00000   0.00000  -0.00000  -0.00000  -3.14159
   D24        0.00000   0.00000  -0.00000   0.00000   0.00000   0.00000
   D25       -0.00002   0.00000  -0.00000   0.00006   0.00006   0.00004
   D26       -3.14158  -0.00000   0.00000  -0.00006  -0.00005   3.14155
   D27        3.14157   0.00000  -0.00000   0.00006   0.00006  -3.14155
   D28        0.00002  -0.00000   0.00000  -0.00006  -0.00006  -0.00004
   D29        3.14159   0.00000  -0.00000   0.00000   0.00000  -3.14159
   D30        0.00000   0.00000   0.00000  -0.00001  -0.00001  -0.00001
   D31       -0.00000  -0.00000  -0.00000   0.00001   0.00001   0.00000
   D32       -3.14159  -0.00000   0.00000  -0.00000  -0.00000   3.14159
   D33        3.13982   0.00011  -0.00011   0.00553   0.00541  -3.13796
   D34        0.00137  -0.00009   0.00009  -0.00427  -0.00417  -0.00280
         Item               Value     Threshold  Converged?
 Maximum Force            0.002137     0.000450     NO 
 RMS     Force            0.000337     0.000300     NO 
 Maximum Displacement     0.010175     0.001800     NO 
 RMS     Displacement     0.002182     0.001200     NO 
 Predicted change in Energy=-1.372303D-05
 GradGradGradGradGradGradGradGradGradGradGradGradGradGradGradGradGradGrad

                          Input orientation:                          
 ---------------------------------------------------------------------
 Center     Atomic      Atomic             Coordinates (Angstroms)
 Number     Number       Type             X           Y           Z
 ---------------------------------------------------------------------
      1          6           0        0.056162    1.260133    0.000671
      2          6           0       -0.668821    0.036311    0.001616
      3          6           0        0.005227   -1.215959    0.001108
      4          6           0        1.370151   -1.237242    0.000366
      5          6           0        2.116790   -0.017777   -0.000206
      6          6           0        1.419731    1.231180   -0.000057
      7          7           0        3.449921   -0.044148   -0.000874
      8          7           0       -2.033052    0.107374    0.002413
      9          8           0       -2.669291   -1.093516   -0.001359
     10          8           0       -2.705640    1.115552   -0.000777
     11          1           0       -0.483553    2.200954    0.000849
     12          1           0       -0.557975   -2.141507    0.001547
     13          1           0        1.897067   -2.186425    0.000255
     14          1           0        1.983192    2.159179   -0.000453
     15          1           0        3.995424    0.806164   -0.001284
     16          1           0        3.961988   -0.914968   -0.000989
     17          1           0       -3.620647   -0.864982   -0.003641
 ---------------------------------------------------------------------
                    Distance matrix (angstroms):
                    1          2          3          4          5
     1  C    0.000000
     2  C    1.422442   0.000000
     3  C    2.476615   1.422153   0.000000
     4  C    2.821958   2.404027   1.365090   0.000000
     5  C    2.424715   2.786137   2.427826   1.429883   0.000000
     6  C    1.363877   2.406193   2.826537   2.468920   1.430309
     7  N    3.635761   4.119528   3.638552   2.397690   1.333392
     8  N    2.386141   1.366081   2.430183   3.659206   4.151729
     9  O    3.601078   2.297477   2.677321   4.041999   4.905486
    10  O    2.765583   2.305081   3.575576   4.706136   4.953813
    11  H    1.084636   2.172557   3.451695   3.906073   3.418267
    12  H    3.456634   2.180637   1.083437   2.129640   3.415348
    13  H    3.907390   3.394751   2.126233   1.085628   2.179750
    14  H    2.126437   3.397021   3.912021   3.451304   2.181052
    15  H    3.965335   4.727352   4.473327   3.326795   2.051376
    16  H    4.470631   4.727508   3.968193   2.611796   2.051757
    17  H    4.246770   3.086363   3.642824   5.004664   5.799651
                    6          7          8          9         10
     6  C    0.000000
     7  N    2.397527   0.000000
     8  N    3.631068   5.485067   0.000000
     9  O    4.703649   6.208537   1.359027   0.000000
    10  O    4.126991   6.263851   1.211944   2.209368   0.000000
    11  H    2.136106   4.529095   2.604616   3.953605   2.473008
    12  H    3.909775   4.523510   2.689483   2.357107   3.901398
    13  H    3.450779   2.645884   4.550533   4.695326   5.664624
    14  H    1.085667   2.646875   4.510003   5.676763   4.803572
    15  H    2.610524   1.010250   6.068842   6.930167   6.708202
    16  H    3.327014   1.010217   6.081587   6.633683   6.969955
    17  H    5.458875   7.118055   1.861712   0.978423   2.181688
                   11         12         13         14         15
    11  H    0.000000
    12  H    4.343099   0.000000
    13  H    4.991637   2.455453   0.000000
    14  H    2.467099   4.995342   4.346458   0.000000
    15  H    4.691127   5.424224   3.654954   2.424815   0.000000
    16  H    5.428794   4.683425   2.424975   3.655956   1.721456
    17  H    4.386496   3.318058   5.673746   6.367777   7.797261
                   16         17
    16  H    0.000000
    17  H    7.582800   0.000000
 Stoichiometry    C6H7N2O2(1+)
 Framework group  C1[X(C6H7N2O2)]
 Deg. of freedom    45
 Full point group                 C1      NOp   1
 Largest Abelian subgroup         C1      NOp   1
 Largest concise Abelian subgroup C1      NOp   1
                         Standard orientation:                         
 ---------------------------------------------------------------------
 Center     Atomic      Atomic             Coordinates (Angstroms)
 Number     Number       Type             X           Y           Z
 ---------------------------------------------------------------------
      1          6           0       -0.057354    1.259912   -0.000521
      2          6           0        0.667317    0.035906   -0.001466
      3          6           0       -0.007049   -1.216192   -0.000958
      4          6           0       -1.371979   -1.237128   -0.000216
      5          6           0       -2.118307   -0.017473    0.000356
      6          6           0       -1.420930    1.231306    0.000207
      7          7           0       -3.451445   -0.043506    0.001024
      8          7           0        2.031566    0.106622   -0.002263
      9          8           0        2.667500   -1.094430    0.001509
     10          8           0        2.704411    1.114629    0.000927
     11          1           0        0.482600    2.200596   -0.000699
     12          1           0        0.555917   -2.141884   -0.001397
     13          1           0       -1.899136   -2.186177   -0.000105
     14          1           0       -1.984156    2.159449    0.000603
     15          1           0       -3.996731    0.806946    0.001434
     16          1           0       -3.963733   -0.914194    0.001139
     17          1           0        3.618914   -0.866138    0.003791
 ---------------------------------------------------------------------
 Rotational constants (GHZ):      3.7758886      0.8225758      0.6754334
 Standard basis: 6-31+G(d,p) (6D, 7F)
 There are   225 symmetry adapted cartesian basis functions of A   symmetry.
 There are   225 symmetry adapted basis functions of A   symmetry.
   225 basis functions,   369 primitive gaussians,   225 cartesian basis functions
    36 alpha electrons       36 beta electrons
       nuclear repulsion energy       508.9307599588 Hartrees.
 NAtoms=   17 NActive=   17 NUniq=   17 SFac= 1.00D+00 NAtFMM=   60 NAOKFM=F Big=F
 Integral buffers will be    131072 words long.
 Raffenetti 2 integral format.
 Two-electron integral symmetry is turned on.
 One-electron integrals computed using PRISM.
 NBasis=   225 RedAO= T EigKep=  3.35D-06  NBF=   225
 NBsUse=   225 1.00D-06 EigRej= -1.00D+00 NBFU=   225
 Initial guess from the checkpoint file:  "B3PW91PNAyang.chk"
 B after Tr=    -0.000000   -0.000000    0.000000
         Rot=    1.000000    0.000013   -0.000026   -0.000069 Ang=   0.01 deg.
 Keep R1 ints in memory in canonical form, NReq=329175655.
 Requested convergence on RMS density matrix=1.00D-08 within 128 cycles.
 Requested convergence on MAX density matrix=1.00D-06.
 Requested convergence on             energy=1.00D-06.
 No special actions if energy rises.
 SCF Done:  E(RB3PW91) =  -492.304291253     A.U. after   11 cycles
            NFock= 11  Conv=0.56D-08     -V/T= 2.0091
 Calling FoFJK, ICntrl=      2127 FMM=F ISym2X=0 I1Cent= 0 IOpClX= 0 NMat=1 NMatS=1 NMatT=0.
 ***** Axes restored to original set *****
 -------------------------------------------------------------------
 Center     Atomic                   Forces (Hartrees/Bohr)
 Number     Number              X              Y              Z
 -------------------------------------------------------------------
      1        6          -0.000047439    0.000120257    0.000099691
      2        6          -0.000594423   -0.000049072    0.000141880
      3        6          -0.000080897   -0.000116904    0.000085974
      4        6           0.000086025   -0.000015295   -0.000010668
      5        6           0.000087913   -0.000018598    0.000011139
      6        6           0.000067527    0.000028907   -0.000008198
      7        7          -0.000123378   -0.000003656    0.000000107
      8        7           0.000441262    0.000992722   -0.000893182
      9        8          -0.000100090   -0.000750610    0.000239298
     10        8           0.000292794   -0.000371717    0.000337794
     11        1           0.000021573    0.000010544   -0.000002236
     12        1           0.000010250    0.000007437    0.000004466
     13        1          -0.000057255    0.000005023   -0.000015342
     14        1          -0.000057427   -0.000008110   -0.000018478
     15        1          -0.000015770    0.000039872   -0.000000223
     16        1          -0.000018159   -0.000045627   -0.000000374
     17        1           0.000087496    0.000174827    0.000028352
 -------------------------------------------------------------------
 Cartesian Forces:  Max     0.000992722 RMS     0.000260646

 GradGradGradGradGradGradGradGradGradGradGradGradGradGradGradGradGradGrad
 Berny optimization.
 Using GEDIIS/GDIIS optimizer.
 FormGI is forming the generalized inverse of G from B-inverse, IUseBI=4.
 Internal  Forces:  Max     0.000719406 RMS     0.000143779
 Search for a local minimum.
 Step number   3 out of a maximum of   86
 All quantities printed in internal units (Hartrees-Bohrs-Radians)
 Mixed Optimization -- En-DIIS/RFO-DIIS
 Swapping is turned off.
 Update second derivatives using D2CorX and points    1    2    3
 DE= -1.17D-05 DEPred=-1.37D-05 R= 8.50D-01
 TightC=F SS=  1.41D+00  RLast= 1.56D-02 DXNew= 5.0454D-01 4.6723D-02
 Trust test= 8.50D-01 RLast= 1.56D-02 DXMaxT set to 3.00D-01
 ITU=  1  1  0
     Eigenvalues ---    0.01710   0.01844   0.01953   0.01984   0.02015
     Eigenvalues ---    0.02069   0.02164   0.02169   0.02188   0.02299
     Eigenvalues ---    0.02317   0.02628   0.02628   0.03187   0.13114
     Eigenvalues ---    0.16000   0.16000   0.16000   0.16000   0.16021
     Eigenvalues ---    0.16614   0.22003   0.22921   0.24313   0.24361
     Eigenvalues ---    0.25000   0.25025   0.27485   0.35418   0.35425
     Eigenvalues ---    0.35440   0.35575   0.36767   0.39027   0.39670
     Eigenvalues ---    0.41584   0.42722   0.45828   0.45847   0.49566
     Eigenvalues ---    0.51766   0.53630   0.55055   0.60588   1.05549
 En-DIIS/RFO-DIIS IScMMF=        0 using points:     3    2
 RFO step:  Lambda=-3.64045351D-06.
 DidBck=F Rises=F RFO-DIIS coefs:    0.86857    0.13143
 Iteration  1 RMS(Cart)=  0.00258158 RMS(Int)=  0.00001000
 Iteration  2 RMS(Cart)=  0.00001221 RMS(Int)=  0.00000528
 Iteration  3 RMS(Cart)=  0.00000000 RMS(Int)=  0.00000528
 Variable       Old X    -DE/DX   Delta X   Delta X   Delta X     New X
                                 (Linear)    (Quad)   (Total)
    R1        2.68803   0.00005   0.00002   0.00000   0.00002   2.68805
    R2        2.57735  -0.00002   0.00004  -0.00011  -0.00007   2.57729
    R3        2.04967  -0.00000  -0.00001   0.00004   0.00003   2.04969
    R4        2.68748   0.00003   0.00010  -0.00038  -0.00028   2.68720
    R5        2.58152  -0.00072   0.00012  -0.00157  -0.00146   2.58006
    R6        2.57965  -0.00001   0.00005  -0.00010  -0.00006   2.57959
    R7        2.04740  -0.00001  -0.00003   0.00009   0.00006   2.04746
    R8        2.70209   0.00002   0.00011  -0.00050  -0.00038   2.70170
    R9        2.05154  -0.00003  -0.00001  -0.00003  -0.00004   2.05150
   R10        2.70289   0.00004   0.00014  -0.00055  -0.00041   2.70248
   R11        2.51975  -0.00016  -0.00004   0.00009   0.00004   2.51979
   R12        2.05161  -0.00004  -0.00001  -0.00001  -0.00002   2.05159
   R13        1.90910   0.00003   0.00000   0.00002   0.00002   1.90912
   R14        1.90903   0.00003   0.00000   0.00002   0.00002   1.90906
   R15        2.56819   0.00052  -0.00064   0.00390   0.00325   2.57144
   R16        2.29024  -0.00047  -0.00019   0.00066   0.00047   2.29071
   R17        1.84895  -0.00005  -0.00006   0.00017   0.00011   1.84906
    A1        2.08437  -0.00007   0.00004  -0.00038  -0.00034   2.08404
    A2        2.08596   0.00006  -0.00023   0.00122   0.00099   2.08695
    A3        2.11286   0.00001   0.00019  -0.00084  -0.00066   2.11220
    A4        2.11300   0.00010  -0.00006   0.00051   0.00045   2.11345
    A5        2.05356  -0.00002  -0.00001  -0.00002  -0.00002   2.05354
    A6        2.11663  -0.00008   0.00007  -0.00050  -0.00043   2.11620
    A7        2.08017  -0.00006   0.00006  -0.00040  -0.00034   2.07983
    A8        2.10116   0.00004  -0.00022   0.00107   0.00085   2.10200
    A9        2.10185   0.00002   0.00016  -0.00066  -0.00050   2.10135
   A10        2.10460  -0.00002   0.00000  -0.00003  -0.00003   2.10457
   A11        2.09316  -0.00004   0.00030  -0.00155  -0.00126   2.09190
   A12        2.08543   0.00006  -0.00030   0.00158   0.00128   2.08671
   A13        2.08315   0.00006  -0.00007   0.00042   0.00034   2.08349
   A14        2.10041  -0.00003   0.00003  -0.00020  -0.00017   2.10024
   A15        2.09963  -0.00003   0.00004  -0.00022  -0.00017   2.09945
   A16        2.10108  -0.00001   0.00003  -0.00012  -0.00009   2.10099
   A17        2.09525  -0.00004   0.00026  -0.00142  -0.00116   2.09409
   A18        2.08686   0.00006  -0.00029   0.00153   0.00125   2.08811
   A19        2.12142  -0.00002   0.00002  -0.00018  -0.00016   2.12125
   A20        2.12215  -0.00002   0.00003  -0.00021  -0.00018   2.12197
   A21        2.03962   0.00005  -0.00004   0.00039   0.00034   2.03997
   A22        2.00596  -0.00019  -0.00016  -0.00003  -0.00022   2.00574
   A23        2.21116   0.00006  -0.00034   0.00164   0.00128   2.21244
   A24        2.06605   0.00014   0.00050  -0.00153  -0.00106   2.06499
   A25        1.82226  -0.00035   0.00010  -0.00249  -0.00238   1.81987
    D1       -0.00058   0.00004   0.00011   0.00105   0.00117   0.00059
    D2        3.14152   0.00000   0.00001   0.00014   0.00015  -3.14151
    D3        3.14134   0.00001   0.00005   0.00045   0.00050  -3.14134
    D4        0.00025  -0.00002  -0.00005  -0.00046  -0.00051  -0.00026
    D5        0.00027  -0.00002  -0.00005  -0.00049  -0.00054  -0.00027
    D6       -3.14124  -0.00002  -0.00007  -0.00064  -0.00071   3.14124
    D7        3.14153   0.00000   0.00001   0.00012   0.00013  -3.14152
    D8        0.00002  -0.00000  -0.00000  -0.00003  -0.00003  -0.00002
    D9        0.00057  -0.00003  -0.00011  -0.00103  -0.00114  -0.00057
   D10       -3.14128  -0.00002  -0.00006  -0.00056  -0.00062   3.14128
   D11       -3.14155  -0.00000  -0.00001  -0.00008  -0.00009   3.14154
   D12       -0.00021   0.00001   0.00004   0.00039   0.00043   0.00021
   D13        3.13782   0.00024   0.00074   0.00679   0.00753  -3.13784
   D14        0.00327  -0.00021  -0.00064  -0.00588  -0.00652  -0.00325
   D15       -0.00327   0.00021   0.00064   0.00587   0.00651   0.00325
   D16       -3.13781  -0.00024  -0.00074  -0.00680  -0.00754   3.13783
   D17       -0.00025   0.00002   0.00005   0.00045   0.00050   0.00025
   D18        3.14129   0.00002   0.00006   0.00055   0.00061  -3.14129
   D19       -3.14158  -0.00000  -0.00000  -0.00002  -0.00002   3.14158
   D20       -0.00004   0.00000   0.00001   0.00008   0.00009   0.00004
   D21       -0.00005   0.00000   0.00001   0.00010   0.00011   0.00005
   D22        3.14154   0.00000   0.00001   0.00009   0.00010  -3.14154
   D23       -3.14159  -0.00000   0.00000  -0.00000  -0.00000   3.14159
   D24        0.00000  -0.00000  -0.00000  -0.00001  -0.00001  -0.00001
   D25        0.00004  -0.00000  -0.00001  -0.00007  -0.00008  -0.00004
   D26        3.14155   0.00000   0.00001   0.00007   0.00008  -3.14155
   D27       -3.14155  -0.00000  -0.00001  -0.00007  -0.00008   3.14155
   D28       -0.00004   0.00000   0.00001   0.00008   0.00009   0.00004
   D29       -3.14159  -0.00000  -0.00000  -0.00000  -0.00000   3.14159
   D30       -0.00001  -0.00000   0.00000   0.00001   0.00001   0.00001
   D31        0.00000   0.00000  -0.00000  -0.00001  -0.00001  -0.00000
   D32        3.14159   0.00000   0.00000   0.00000   0.00000  -3.14159
   D33       -3.13796  -0.00023  -0.00071  -0.00653  -0.00723   3.13799
   D34       -0.00280   0.00018   0.00055   0.00503   0.00557   0.00277
         Item               Value     Threshold  Converged?
 Maximum Force            0.000719     0.000450     NO 
 RMS     Force            0.000144     0.000300     YES
 Maximum Displacement     0.013593     0.001800     NO 
 RMS     Displacement     0.002583     0.001200     NO 
 Predicted change in Energy=-6.487392D-06
 GradGradGradGradGradGradGradGradGradGradGradGradGradGradGradGradGradGrad

                          Input orientation:                          
 ---------------------------------------------------------------------
 Center     Atomic      Atomic             Coordinates (Angstroms)
 Number     Number       Type             X           Y           Z
 ---------------------------------------------------------------------
      1          6           0        0.056340    1.260521   -0.000753
      2          6           0       -0.668512    0.036609   -0.001687
      3          6           0        0.005041   -1.215759   -0.001183
      4          6           0        1.369934   -1.237035   -0.000461
      5          6           0        2.116430   -0.017721    0.000093
      6          6           0        1.419868    1.231263   -0.000047
      7          7           0        3.449581   -0.044277    0.000739
      8          7           0       -2.031980    0.107510   -0.002471
      9          8           0       -2.668654   -1.095100    0.001287
     10          8           0       -2.706083    1.114975    0.000698
     11          1           0       -0.482553    2.201830   -0.000929
     12          1           0       -0.557706   -2.141620   -0.001614
     13          1           0        1.895653   -2.186861   -0.000358
     14          1           0        1.982456    2.159779    0.000334
     15          1           0        3.995070    0.806059    0.001138
     16          1           0        3.961377   -0.915271    0.000848
     17          1           0       -3.619589   -0.864578    0.003553
 ---------------------------------------------------------------------
                    Distance matrix (angstroms):
                    1          2          3          4          5
     1  C    0.000000
     2  C    1.422453   0.000000
     3  C    2.476812   1.422005   0.000000
     4  C    2.821935   2.403629   1.365060   0.000000
     5  C    2.424433   2.785473   2.427604   1.429679   0.000000
     6  C    1.363842   2.405937   2.826598   2.468804   1.430091
     7  N    3.635462   4.118888   3.638301   2.397416   1.333416
     8  N    2.385481   1.365310   2.429093   3.657981   4.150301
     9  O    3.602020   2.298117   2.676417   4.041082   4.904873
    10  O    2.766256   2.305336   3.575265   4.705940   4.953750
    11  H    1.084652   2.173192   3.452197   3.906086   3.417766
    12  H    3.457112   2.181046   1.083468   2.129336   3.414960
    13  H    3.907367   3.393930   2.125430   1.085610   2.180346
    14  H    2.125697   3.396393   3.912088   3.451598   2.181618
    15  H    3.964862   4.726633   4.473040   3.326496   2.051317
    16  H    4.470278   4.726728   3.967732   2.611342   2.051688
    17  H    4.246001   3.085616   3.641606   5.003408   5.798198
                    6          7          8          9         10
     6  C    0.000000
     7  N    2.397236   0.000000
     8  N    3.630163   5.483663   0.000000
     9  O    4.704038   6.207820   1.360749   0.000000
    10  O    4.127590   6.263870   1.212193   2.210391   0.000000
    11  H    2.135699   4.528431   2.605168   3.955855   2.474943
    12  H    3.909878   4.522964   2.689251   2.356123   3.901403
    13  H    3.451078   2.646763   4.548674   4.693063   5.663753
    14  H    1.085655   2.647701   4.508604   5.676888   4.803542
    15  H    2.610070   1.010262   6.067397   6.929619   6.708270
    16  H    3.326691   1.010230   6.080001   6.632469   6.969715
    17  H    5.457902   7.116606   1.861584   0.978480   2.180168
                   11         12         13         14         15
    11  H    0.000000
    12  H    4.344101   0.000000
    13  H    4.991640   2.453776   0.000000
    14  H    2.465369   4.995444   4.347506   0.000000
    15  H    4.690128   5.423706   3.655834   2.425526   0.000000
    16  H    5.428153   4.682526   2.425728   3.656783   1.721659
    17  H    4.386784   3.317528   5.671538   6.366291   7.795773
                   16         17
    16  H    0.000000
    17  H    7.581136   0.000000
 Stoichiometry    C6H7N2O2(1+)
 Framework group  C1[X(C6H7N2O2)]
 Deg. of freedom    45
 Full point group                 C1      NOp   1
 Largest Abelian subgroup         C1      NOp   1
 Largest concise Abelian subgroup C1      NOp   1
                         Standard orientation:                         
 ---------------------------------------------------------------------
 Center     Atomic      Atomic             Coordinates (Angstroms)
 Number     Number       Type             X           Y           Z
 ---------------------------------------------------------------------
      1          6           0       -0.057657    1.260414    0.000513
      2          6           0        0.667072    0.036429    0.001448
      3          6           0       -0.006606   -1.215871    0.000943
      4          6           0       -1.371502   -1.237011    0.000222
      5          6           0       -2.117876   -0.017622   -0.000333
      6          6           0       -1.421188    1.231293   -0.000193
      7          7           0       -3.451029   -0.044044   -0.000979
      8          7           0        2.030547    0.107194    0.002231
[...]
 ! D27   D(7,5,6,1)            180.0001         -DE/DX =    0.0                 !
 ! D28   D(7,5,6,14)            -0.0001         -DE/DX =    0.0                 !
 ! D29   D(4,5,7,15)           180.0            -DE/DX =    0.0                 !
 ! D30   D(4,5,7,16)             0.0            -DE/DX =    0.0                 !
 ! D31   D(6,5,7,15)             0.0            -DE/DX =    0.0                 !
 ! D32   D(6,5,7,16)          -180.0            -DE/DX =    0.0                 !
 ! D33   D(2,8,9,17)          -179.9909         -DE/DX =    0.0                 !
 ! D34   D(10,8,9,17)           -0.0071         -DE/DX =    0.0                 !
 --------------------------------------------------------------------------------
 GradGradGradGradGradGradGradGradGradGradGradGradGradGradGradGradGradGrad

 1\1\ WCSS.PL-BEM-JP\Freq\RB3PW91\6-31+G(d,p)\C6H7N2O2(1+)\C612\15-Dec-
 2024\0\\#N Geom=AllCheck Guess=TCheck SCRF=Check GenChk RB3PW91/6-31+G
 (d,p) Freq\\[No Title]\\1,1\C,0.0561028505,1.2605465486,-0.0000165263\
 C,-0.668815771,0.0365707158,0.0000302596\C,0.0049154458,-1.2159122176,
 0.0000054978\C,1.3698520261,-1.2372222985,-0.0000332748\C,2.1164439623
 ,-0.0177684476,-0.0000625966\C,1.4196654927,1.2313424195,-0.0000543511
 \N,3.4494624703,-0.0442840648,-0.0000978347\N,-2.0321522868,0.10754281
 92,0.0000716665\O,-2.668109895,-1.09480181,-0.0000900421\O,-2.70531824
 8,1.1151307099,-0.0000667681\H,-0.4832621823,2.2015619481,-0.000006324
 4\H,-0.5582155826,-2.141476661,0.0000289118\H,1.8961859818,-2.18667476
 98,-0.0000391561\H,1.9827425287,2.1595156799,-0.0000746162\H,3.9949201
 029,0.8060935968,-0.0001191491\H,3.9612913198,-0.9152791382,-0.0001044
 199\H,-3.6190332151,-0.8645610305,-0.0001852762\\Version=ES64L-G09RevE
 .01\State=1-A\HF=-492.3042954\RMSD=6.206e-09\RMSF=7.618e-05\ZeroPoint=
 0.1330584\Thermal=0.1415016\Dipole=1.4272604,-0.4368045,-0.0000536\Dip
 oleDeriv=0.812457,-0.0154966,-0.0000052,0.4497349,0.032079,-0.000004,-
 0.0000117,-0.0000006,-0.0233021,-1.7305511,0.1228313,0.0000233,-0.0288
 986,-0.0930928,-0.0000013,-0.000052,-0.0000196,0.0577463,0.8274416,-0.
 0712839,0.0000114,-0.463214,0.0789757,0.0000029,-0.0000153,0.000006,-0
 .0110208,-0.8213522,-0.103504,-0.0000163,-0.7020071,-0.0338248,0.00003
 36,0.000047,-0.0000046,-0.1509043,2.2591758,-0.0604739,-0.0000348,-0.0
 29861,0.3882684,-0.0000203,-0.0000513,0.0000006,0.2466202,-0.7753324,0
 .1718965,-0.0000132,0.7086463,-0.0967187,-0.0000281,0.0000317,-0.00000
 71,-0.1471338,-2.0399088,0.0598352,0.0000344,0.0344299,-0.1979783,-0.0
 000162,0.000045,-0.0000069,-0.4619689,3.4632256,-0.0581541,0.0000206,-
 0.3166837,1.3732167,0.0001006,0.0006253,0.0000285,0.2324604,-1.1145658
 ,-0.4752213,-0.0000538,-1.0012175,-0.6986261,-0.0000374,-0.0002739,-0.
 0000958,-0.239412,-1.4665984,0.3191669,0.0000084,1.226535,-0.7378641,-
 0.0000529,-0.0003426,0.0000773,-0.1502223,0.0775754,0.016489,0.0000043
 ,-0.0264903,0.1134536,-0.0000058,-0.000006,0.0000016,0.1471082,0.09014
 16,-0.0097099,0.0000025,0.011159,0.1035721,0.000002,-0.0000068,0.00000
 55,0.1474288,0.0403703,0.0328875,-0.0000005,0.0144868,0.0509639,0.0000
 051,-0.0000093,0.000001,0.1550086,0.0374952,-0.033706,0.0000067,-0.012
 2514,0.0550509,0.0000075,-0.0000118,0.0000062,0.1557801,0.3487458,0.06
 06619,-0.0000078,0.2196591,0.2004821,-0.0000047,-0.0000067,0.000003,0.
 3312026,0.337971,-0.0686742,-0.0000077,-0.2240445,0.217601,0.0000225,0
 .0000004,0.0000034,0.3307566,0.6537094,0.1124556,0.0000279,0.1400171,0
 .2444414,-0.0000034,0.0000379,0.0000017,0.3798526\Polar=193.4347963,-5
 .2408014,87.2985828,0.0000854,-0.0012386,44.1172574\PG=C01 [X(C6H7N2O2
 )]\NImag=0\\0.78139709,-0.05650464,0.69623650,-0.00001992,-0.00000417,
 0.13458491,-0.12031570,-0.07869509,0.00000201,0.66611749,-0.05304722,-
 0.26478262,0.00000570,-0.00871297,0.71351990,0.00000516,0.00000521,-0.
 05517304,-0.00000368,-0.00000344,0.12088661,0.03158971,0.00497469,-0.0
 0000150,-0.11675222,0.04910700,0.00000425,0.77486746,-0.00799847,-0.04
 546905,0.00000107,0.07333931,-0.27367893,-0.00000191,0.05528064,0.6992
 7466,-0.00000131,-0.00000030,0.00435935,0.00000024,-0.00000205,-0.0541
 5261,-0.00002030,-0.00000408,0.13510891,-0.02193566,-0.01746414,0.0000
 0138,-0.04352107,0.04234384,0.00000061,-0.43970981,-0.01430371,0.00001
 189,0.78267560,-0.00720592,-0.00701818,0.00000037,0.01886505,0.0130618
 7,-0.00000164,0.02950546,-0.12357084,-0.00000112,-0.05751180,0.6814533
 6,0.00000074,0.00000095,-0.00026728,0.00000231,-0.00000151,0.00532622,
 0.00001070,0.00000094,-0.05402554,-0.00001816,-0.00000173,0.12084209,-
 0.03722694,0.03013069,0.00000026,0.02380772,-0.00044584,-0.00000018,-0
 .04051751,-0.02746322,0.00000105,-0.13749614,-0.07783003,0.00000233,0.
 79648240,0.05208441,0.02478094,-0.00000223,-0.00105292,-0.02903248,-0.
 00000008,-0.05023311,0.02782931,0.00000190,-0.03690374,-0.25609342,0.0
 0000173,-0.00218808,0.66428606,-0.00000017,-0.00000158,-0.00127427,-0.
 00000112,0.00000011,-0.00741937,0.00000074,0.00000122,-0.00115210,0.00
 000306,0.00000354,-0.06730156,-0.00001713,-0.00000372,0.16837505,-0.44
 393562,0.02561866,0.00001176,-0.04604669,-0.04039383,0.00000131,-0.020
 99741,0.01793707,0.00000083,0.03933546,0.00024192,-0.00000110,-0.13252
 965,0.03177428,0.00000240,0.78993745,-0.01708606,-0.12344452,0.0000018
 7,-0.01666121,0.01627856,0.00000156,0.00806566,-0.00809520,-0.00000019
 ,-0.00315176,-0.03353956,0.00000031,0.07269993,-0.26029810,-0.00000048
 ,0.05461059,0.67663504,0.00001119,-0.00000018,-0.05307002,0.00000267,0
 .00000115,0.00443498,0.00000049,-0.00000082,-0.00029584,-0.00000110,0.
 00000036,0.00455235,0.00000111,0.00000147,-0.06713648,-0.00001904,-0.0
 0000667,0.12064786,0.01671785,0.00433473,-0.00000025,-0.02421238,-0.00
 029701,-0.00000016,0.01676732,-0.00512006,-0.00000022,-0.05290460,-0.0
 2075026,0.00000196,-0.43907291,0.00587221,0.00001058,-0.05029037,0.022
 69509,0.00000151,0.86595584,-0.00357177,-0.00965756,0.00000038,0.00048
 927,0.00215466,0.00000005,0.00274299,-0.00956595,-0.00000010,-0.047077
 49,0.00436314,0.00000155,0.00584358,-0.14145153,0.00000058,0.04913900,
 0.00161728,-0.00000139,0.00007947,0.87358665,-0.00000013,0.00000018,0.
 00374379,0.00000055,0.,-0.00067884,-0.00000031,0.,0.00380328,0.0000020
 8,0.00000047,0.00957356,0.00001038,0.00000065,-0.04566708,0.00000115,-
 0.00000039,0.00957227,-0.00002196,-0.00000659,0.04511611,-0.06551040,-
 0.03275267,0.00000394,-0.27004423,0.01111495,0.00000868,-0.05382570,0.
 03154444,0.00000496,0.02164031,0.01376865,-0.00000180,-0.02637962,0.00
 045483,0.00000100,0.02111866,-0.01454333,-0.00000146,0.02496159,-0.000
 41420,-0.00000091,0.86191227,-0.03045919,0.01302689,0.00000077,-0.0071
 1548,-0.12912306,0.00000007,0.03691893,0.00893968,-0.00000279,0.002819
 51,-0.00959041,-0.00000003,0.00246378,-0.00534215,-0.00000013,-0.00602
 257,-0.00582212,0.00000091,-0.00236439,0.00062215,0.00000002,-0.157496
 95,0.74963511,-0.00000087,-0.00000092,-0.00572295,-0.00000490,0.000000
 48,-0.06271843,-0.00000116,0.00000070,-0.01003018,0.00000051,0.0000015
 0,0.00548483,-0.00000280,0.00000101,-0.00166187,0.00000089,-0.00000186
 ,0.00519650,0.00000301,-0.00000017,-0.00025230,0.00005080,-0.00002721,
 0.19254349,-0.00062873,0.00950828,-0.00000135,-0.03671111,-0.05209146,
 -0.00000749,-0.00197705,-0.00356939,-0.00000011,-0.00218278,-0.0020389
 1,0.00000023,0.00547330,-0.00368781,-0.00000024,-0.00519786,0.00031738
 ,0.00000069,-0.00530854,0.00084987,0.00000019,-0.18662797,-0.05762262,
 -0.00001252,0.63978932,0.00858145,0.00552177,-0.00000115,-0.03116782,-
 0.00117385,-0.00000441,0.00791799,-0.00585549,0.00000041,-0.00416779,-
 0.00242006,0.00000050,0.00646384,-0.00183024,-0.00000016,-0.00432179,0
 .00474586,0.00000026,-0.00644570,0.00072489,0.00000025,-0.00289534,-0.
 17540393,0.00000119,-0.05680959,0.35689987,0.00000096,0.00000127,0.004
 58935,0.00000026,-0.00000236,0.00852068,0.00000010,-0.00000095,0.00038
 855,-0.00000017,-0.00000042,-0.00061025,0.00000115,-0.00000073,0.00004
 225,-0.00000054,0.00000076,0.00018437,-0.00000146,0.00000024,0.0000837
 9,-0.00001600,-0.00001775,-0.05026012,0.00005955,0.00000587,0.02296854
 ,0.00591139,0.00759238,0.00000036,-0.05242625,0.05431992,-0.00000800,0
 .00291054,-0.01165162,-0.00000213,-0.00745834,-0.00238060,0.00000079,0
 .00856953,0.00374418,-0.00000048,-0.00376546,0.00402293,0.00000018,-0.
 00839137,-0.00063320,0.00000034,-0.29384649,0.22559274,-0.00002909,0.0
 4083732,-0.00792878,0.00000120,0.30718598,-0.01443453,-0.00920780,-0.0
 0000003,0.05103370,-0.00783269,0.00000498,-0.00853818,0.00704172,0.000
 00212,0.00582288,0.00612484,-0.00000065,-0.00922496,-0.00156251,0.0000
 0030,0.00547038,-0.00343204,-0.00000061,0.00886021,0.00058627,-0.00000
 029,0.22086871,-0.45356837,0.00003300,0.01675629,-0.09871716,0.0000043
 7,-0.28186321,0.55791490,0.00000135,0.00000099,-0.00094663,0.00000008,
 0.00000191,0.01473223,0.00000090,-0.00000096,0.00937514,-0.00000079,-0
 .00000087,-0.00083389,0.00000187,-0.00000009,0.00024540,-0.00000095,0.
 00000095,-0.00059500,-0.00000177,-0.00000008,0.00007664,-0.00003911,0.
 00004597,-0.07053827,0.00000228,-0.00000539,0.02061272,0.00003556,-0.0
 0004426,0.03197084,-0.12804492,0.12718780,0.00000206,0.01114400,-0.014
 96812,-0.00000031,-0.00223784,-0.00335363,0.00000013,-0.00059998,-0.00
 036843,-0.00000004,-0.00485708,-0.00117343,0.00000061,-0.00964415,0.02
 623461,0.00000040,-0.00032745,0.00149245,-0.00000009,0.00311404,-0.002
 47008,0.00000041,0.00012631,0.00085691,-0.00000011,-0.00340897,0.00122
 894,-0.00000031,0.13337932,0.12648747,-0.28371517,-0.00000207,0.012303
 07,-0.01708201,-0.00000044,-0.00377098,-0.00213183,0.00000029,-0.00011
 323,0.00055594,0.00000004,-0.00143557,0.00013923,0.00000017,-0.0027695
 5,0.00663807,0.00000017,-0.00035448,0.00052457,0.00000004,0.00334429,-
 0.00314286,0.00000049,-0.00007420,0.00032711,0.,0.00001810,0.00312278,
 -0.00000042,-0.13410262,0.29458992,0.00000247,-0.00000191,-0.04016985,
 -0.00000117,0.00000045,0.00365879,0.00000050,0.00000022,0.00324096,-0.
 00000009,-0.00000006,-0.00122035,0.00000055,-0.00000002,0.01052106,0.0
 0000021,-0.00000090,0.00640192,-0.00000004,-0.00000008,-0.00059465,0.0
 0000056,0.00000007,-0.00228827,-0.00000007,-0.00000009,-0.00031057,-0.
 00000013,0.00000020,0.00026164,-0.00000258,0.00000203,0.02604021,-0.00
 200480,0.00344927,0.00000010,0.01102944,0.01437424,-0.00000063,-0.1358
 4435,-0.13278374,0.00000419,-0.01057199,-0.02591664,0.00000080,-0.0049
 7590,0.00133695,0.00000053,-0.00050387,0.00031584,0.,-0.00025062,-0.00
 149196,-0.00000004,0.00380456,0.00089081,0.00000065,-0.00545762,0.0003
 7362,-0.00000063,-0.00046551,-0.00041381,-0.00000020,0.00067097,0.0007
 1985,0.00000001,0.14391598,0.00384412,-0.00228330,-0.00000025,-0.01350
 305,-0.01646869,0.00000076,-0.13165898,-0.27848646,0.00000572,0.003223
 65,0.00718622,-0.00000025,0.00164658,0.00007148,-0.00000003,0.00009235
 ,0.00057925,-0.00000003,0.00028776,0.00053987,-0.00000004,-0.00303539,
 -0.00195835,-0.00000056,-0.00033295,0.00136489,0.00000010,0.00052667,0
 .00016756,0.00000020,-0.00077772,-0.00063009,0.00000006,0.13941169,0.2
 8827527,0.00000036,-0.00000011,0.00340111,-0.00000093,-0.00000007,0.00
 290775,0.00000458,0.00000512,-0.03959137,0.00000016,0.00000093,0.00646
 278,0.00000056,0.00000017,0.01038236,0.,0.00000001,-0.00118798,-0.0000
 0007,-0.00000003,-0.00056729,0.00000054,0.00000003,-0.00242246,-0.0000
 0044,-0.00000020,0.00090640,-0.00000012,0.00000009,0.00004522,0.000000
 05,-0.00000004,0.00107248,-0.00000456,-0.00000588,0.02549740,-0.000645
 72,-0.00047710,0.00000006,-0.00440266,-0.00189843,0.00000054,-0.011991
 05,0.02837826,0.00000054,-0.12496892,0.12214655,0.00000117,0.01020155,
 -0.01681611,-0.00000012,-0.00208437,-0.00307149,0.00000012,0.00221322,
 -0.00044758,-0.00000008,-0.00009492,0.00198541,-0.00000008,-0.00008162
 ,0.00000889,0.00000001,-0.00071305,-0.00010049,-0.00000005,0.00005216,
 0.00008404,-0.00000002,0.00098089,0.00019370,-0.00000021,0.13127546,-0
 .00091422,-0.00003410,0.00000002,-0.00138998,0.00145219,0.00000017,-0.
 00192913,0.00470680,0.00000009,0.12281045,-0.28212025,-0.00000157,0.01
 466910,-0.01793076,-0.00000034,-0.00360374,-0.00224479,0.00000011,0.00
 117672,0.00191875,-0.00000008,0.00010783,0.00042345,0.00000006,0.00003
 233,-0.00005472,-0.00000003,-0.00036394,0.00019983,-0.00000004,0.00006
 377,0.00000977,0.00000002,-0.00014232,0.00084478,-0.00000008,-0.129514
 75,0.29397664,0.00000007,-0.00000002,-0.00073330,0.00000099,-0.0000002
 1,0.00831234,0.00000044,-0.00000078,0.00355686,0.00000088,-0.00000128,
 -0.03484461,0.00000002,0.00000061,0.00306294,0.00000009,0.00000018,0.0
 0402843,-0.00000019,-0.00000006,-0.00204707,-0.00000026,0.00000013,0.0
 0218154,-0.00000007,-0.00000011,0.00006916,0.00000018,-0.00000014,-0.0
 0134491,0.00000001,-0.00000005,-0.00043101,-0.00000022,0.00000003,-0.0
 0566983,-0.00000189,0.00000155,0.02369420,-0.01289372,-0.02770075,0.00
 000100,-0.00426583,0.00208430,0.00000054,-0.00060427,0.00049526,0.0000
 0002,-0.00180795,0.00306309,0.00000004,0.01021828,0.01559374,-0.000000
 38,-0.13487734,-0.12794122,0.00000320,0.00221817,0.00043326,-0.0000001
 1,-0.00013634,-0.00167326,-0.00000014,-0.00084055,0.00009815,-0.000000
 05,0.00000806,-0.00010089,0.00000006,0.00102900,-0.00017429,-0.0000001
 7,0.00004488,-0.00008344,0.,0.00064869,0.00073301,0.,0.14174395,0.0025
 4492,0.00575872,-0.00000019,0.00164650,0.00132864,-0.00000009,0.000916
 45,-0.00008464,-0.00000006,0.00358915,-0.00247000,-0.00000005,-0.01576
 931,-0.01790820,0.00000068,-0.12855740,-0.27229432,0.00000524,-0.00120
 060,0.00192011,-0.00000004,-0.00021523,0.00049766,-0.00000013,0.000397
 02,0.00019195,0.00000006,0.00000285,-0.00012138,0.00000005,0.00013369,
 0.00081948,0.00000002,-0.00006036,0.00001249,0.,-0.00078659,-0.0007718
 3,0.00000005,0.13563024,0.28354358,0.00000032,0.00000074,0.00357901,0.
 00000103,0.00000029,0.00855163,0.00000017,-0.00000004,-0.00070896,0.,-
 0.00000005,0.00403066,0.00000026,-0.00000040,0.00305945,0.00000297,0.0
 0000493,-0.03506596,-0.00000018,-0.00000010,-0.00202479,-0.00000018,0.
 00000018,0.00185311,0.,-0.00000006,-0.00088803,-0.00000010,0.00000006,
 0.00013133,-0.00000026,-0.00000012,-0.00573020,-0.00000001,0.00000002,
 -0.00047468,-0.00000001,0.00000001,-0.00005747,-0.00000406,-0.00000554
 ,0.02378859,-0.00052523,-0.00003946,0.00000003,0.00126863,0.00001098,0
 .00000007,-0.00049529,-0.00167410,0.00000010,-0.00374452,0.00349491,0.
 00000026,-0.01546888,-0.03141330,0.00000061,0.00218215,-0.00206262,-0.
 00000017,-0.18170324,-0.17325662,0.00000601,-0.00151692,0.00031843,-0.
 00000035,0.00050616,0.00056658,0.00000015,0.00056925,-0.00063694,0.000
 00016,0.00005473,0.00006700,0.,-0.00037001,0.00011666,-0.00000003,0.00
 000697,-0.00017983,-0.00000003,-0.00049920,0.00155461,0.00000001,0.185
 01483,-0.00159953,-0.00097691,0.00000007,0.00237460,0.00017348,0.00000
 008,-0.00133569,0.00073430,0.00000006,0.00347504,0.00194462,-0.0000001
 1,-0.00165464,0.00805999,-0.00000005,0.00395984,0.00134212,-0.00000016
 ,-0.17185144,-0.35737598,0.00000748,-0.00296708,0.00045645,-0.00000059
 ,0.00056701,0.00080269,0.00000024,0.00116270,-0.00141219,0.00000031,0.
 00010104,0.00005017,0.,0.00006717,-0.00003201,0.,0.00014633,0.00018465
 ,-0.00000001,-0.00013897,-0.00065662,0.,0.18609251,0.35996284,-0.00000
 004,-0.00000008,-0.00063403,0.00000002,0.00000016,0.00021358,0.0000003
 4,-0.00000008,0.00162565,-0.00000014,-0.00000008,0.00650128,0.00000037
 ,0.00000070,-0.00225486,-0.00000014,-0.00000006,-0.00392598,0.00000602
 ,0.00000749,-0.01000743,0.00000021,0.00000005,-0.00009394,-0.00000011,
 -0.00000013,0.00011215,-0.00000010,0.00000006,0.00000613,0.00000005,-0
 .00000003,0.00042765,-0.00000005,0.00000001,-0.00092445,-0.00000002,0.
 00000005,-0.00045407,0.00000006,0.,0.00067264,-0.00000620,-0.00000781,
 0.01033481,-0.00038270,0.00172433,0.00000007,0.00118236,0.00000977,0.0
 0000002,-0.00050381,0.00002285,0.00000005,0.00209383,0.00202311,-0.000
 00017,-0.01418573,0.03235224,0.00000009,-0.00399331,-0.00326169,0.0000
 0031,-0.16840803,0.16589496,0.00000292,-0.00142880,0.00018875,-0.00000
 026,0.00031377,0.00037899,0.00000011,0.00070660,-0.00080515,0.00000014
 ,-0.00036355,-0.00010524,-0.00000004,0.00004676,-0.00006130,-0.0000000
 1,-0.00043920,-0.00158273,0.00000002,0.00000913,0.00018690,-0.00000004
 ,0.01489453,-0.01814225,-0.00000033,0.17062100,0.00135596,0.00063513,-
 0.00000010,-0.00241261,0.00007748,-0.00000007,0.00158352,-0.00100271,-
 0.00000011,-0.00396022,0.00137248,0.,0.00249708,0.00671372,-0.00000016
 ,-0.00323190,0.00219297,0.00000013,0.16450215,-0.37063240,-0.00000165,
 0.00302493,-0.00047084,0.00000051,-0.00072466,-0.00095336,-0.00000030,
 -0.00107135,0.00128230,-0.00000023,-0.00006750,-0.00003883,0.00000004,
 -0.00007977,0.00004176,0.00000006,0.00015675,-0.00058452,0.00000009,-0
 .00014359,0.00018593,0.00000006,0.01705975,-0.01318031,-0.00000027,-0.
 17875977,0.37429040,0.00000022,0.00000007,0.00157353,-0.00000006,-0.00
 000016,0.00034286,-0.00000005,0.00000012,-0.00067288,-0.00000005,-0.00
 000010,-0.00390830,0.00000036,-0.00000099,-0.00223345,0.,0.00000025,0.
 00653527,0.00000289,-0.00000165,-0.01000634,0.00000012,0.,-0.00000487,
 0.00000002,-0.00000002,-0.00013811,0.,0.00000004,-0.00000177,-0.000000
 05,-0.00000002,-0.00095126,0.00000003,0.00000001,0.00041972,0.00000004
 ,0.00000004,0.00067735,0.,-0.00000003,-0.00044826,-0.00000058,0.000000
 55,-0.00154287,-0.00000285,0.00000187,0.01028663,-0.00156591,-0.000887
 00,0.,0.00414850,-0.00151012,-0.00000073,-0.00067873,0.00092012,0.0000
 0005,0.00115655,0.00089385,-0.00000007,-0.00204242,0.00025567,0.000000
 03,0.00129239,-0.00118266,-0.00000009,0.00203551,-0.00007202,0.,-0.037
 14004,-0.00595381,-0.00000411,-0.44203233,0.08849038,-0.00004452,0.003
 77676,0.00607704,0.00000078,-0.00008659,-0.00012367,0.00000003,-0.0000
 4880,0.00010965,0.00000013,0.00004255,0.00002743,-0.00000004,0.0000050
 5,-0.00001284,0.00000007,-0.00017395,-0.00025664,0.00000005,-0.0001628
 6,0.00027124,-0.00000004,0.47147431,-0.00207679,0.00062927,-0.00000005
 ,0.00065963,-0.00887246,-0.00000079,0.00045272,-0.00058539,0.00000020,
 0.00056937,0.00076027,-0.00000013,-0.00040292,-0.00043134,0.00000004,0
 .00005669,-0.00085849,0.00000006,0.00057560,0.00012507,-0.00000002,-0.
 06990844,0.01082070,-0.00000750,0.14852342,-0.08417022,0.00000963,0.00
 891022,-0.00058605,0.00000194,-0.00001769,-0.00003622,-0.00000003,-0.0
 0005084,0.00077535,-0.00000001,0.00001261,0.00002413,0.00000002,-0.000
 17466,0.00004846,0.,-0.00001857,-0.00007730,0.,-0.00006376,0.00007078,
 0.,-0.08704662,0.08236347,-0.00000040,-0.00000015,0.00216032,0.0000017
 1,-0.00000047,0.00225463,0.00000012,0.00000023,-0.00082922,-0.00000005
 ,0.00000017,0.00023803,-0.00000016,0.00000003,0.00041253,0.00000016,-0
 .00000027,-0.00027669,0.00000032,-0.00000006,-0.00012366,-0.00001109,-
 0.00000027,-0.00126580,-0.00004055,0.00000323,-0.00627089,0.00000153,0
 .00000075,-0.00319684,0.00000002,-0.00000005,0.00007144,0.00000003,0.0
 0000011,-0.00025718,0.,0.00000003,-0.00000055,0.,0.00000003,-0.0002680
 8,-0.00000003,-0.00000005,-0.00005627,-0.00000005,0.00000011,0.0000727
 4,0.00004845,-0.00000337,0.00733548\\-0.00010035,-0.00002566,-0.000004
 53,0.00015589,-0.00001082,-0.00000613,-0.00010682,0.00004589,-0.000003
 88,0.00007637,0.00004979,0.00000043,-0.00012098,0.00001297,-0.00000042
 ,0.00007478,-0.00005926,0.00000035,0.00004652,0.00000007,-0.00000001,0
 .00003588,-0.00031229,0.00003932,0.00009746,-0.00002583,-0.00001060,-0
 .00014223,0.00027528,-0.00001486,0.00001616,0.00001697,0.00000015,0.00
 001315,-0.00002496,-0.00000016,-0.00002712,-0.00001540,0.00000070,-0.0
 0002914,0.00001940,0.00000084,-0.00000244,0.00000169,0.,-0.00000053,0.
 00000481,0.00000001,0.00001342,0.00004734,-0.00000121\\\@


 Change starts when someone sees the next step.
                            -- William Drayton
 Job cpu time:       0 days  0 hours 10 minutes 47.4 seconds.
 File lengths (MBytes):  RWF=     93 Int=      0 D2E=      0 Chk=      5 Scr=      1
 Normal termination of Gaussian 09 at Sun Dec 15 20:07:47 2024.
