 Entering Gaussian System, Link 0=g09
 Input=camb3lyp4NiAn.gjf
 Output=camb3lyp4NiAn.log
 Initial command:
 /home/phzd/g09E/g09/l1.exe "/home/phzd/g09E/scratch/Gau-142693.inp" -scrdir="/home/phzd/g09E/scratch/"
 Default is to use a total of  18 processors:
                               18 via shared-memory
                                1 via Linda
 Entering Link 1 = /home/phzd/g09E/g09/l1.exe PID=    142695.
  
 Copyright (c) 1988,1990,1992,1993,1995,1998,2003,2009,2015,
            Gaussian, Inc.  All Rights Reserved.
  
 This is part of the Gaussian(R) 09 program.  It is based on
 the Gaussian(R) 03 system (copyright 2003, Gaussian, Inc.),
 the Gaussian(R) 98 system (copyright 1998, Gaussian, Inc.),
 the Gaussian(R) 94 system (copyright 1995, Gaussian, Inc.),
 the Gaussian 92(TM) system (copyright 1992, Gaussian, Inc.),
 the Gaussian 90(TM) system (copyright 1990, Gaussian, Inc.),
 the Gaussian 88(TM) system (copyright 1988, Gaussian, Inc.),
 the Gaussian 86(TM) system (copyright 1986, Carnegie Mellon
 University), and the Gaussian 82(TM) system (copyright 1983,
 Carnegie Mellon University). Gaussian is a federally registered
 trademark of Gaussian, Inc.
  
 This software contains proprietary and confidential information,
 including trade secrets, belonging to Gaussian, Inc.
  
 This software is provided under written license and may be
 used, copied, transmitted, or stored only in accord with that
 written license.
  
 The following legend is applicable only to US Government
 contracts under FAR:
  
                    RESTRICTED RIGHTS LEGEND
  
 Use, reproduction and disclosure by the US Government is
 subject to restrictions as set forth in subparagraphs (a)
 and (c) of the Commercial Computer Software - Restricted
 Rights clause in FAR 52.227-19.
  
 Gaussian, Inc.
 340 Quinnipiac St., Bldg. 40, Wallingford CT 06492
  
  
 ---------------------------------------------------------------
 Warning -- This program may not be used in any manner that
 competes with the business of Gaussian, Inc. or will provide
 assistance to any competitor of Gaussian, Inc.  The licensee
 of this program is prohibited from giving any competitor of
 Gaussian, Inc. access to this program.  By using this program,
 the user acknowledges that Gaussian, Inc. is engaged in the
 business of creating and licensing software in the field of
 computational chemistry and represents and warrants to the
 licensee that it is not a competitor of Gaussian, Inc. and that
 it will not use this program in any manner prohibited above.
 ---------------------------------------------------------------
  

 Cite this work as:
 Gaussian 09, Revision E.01,
 M. J. Frisch, G. W. Trucks, H. B. Schlegel, G. E. Scuseria, 
 M. A. Robb, J. R. Cheeseman, G. Scalmani, V. Barone, B. Mennucci, 
 G. A. Petersson, H. Nakatsuji, M. Caricato, X. Li, H. P. Hratchian, 
 A. F. Izmaylov, J. Bloino, G. Zheng, J. L. Sonnenberg, M. Hada, 
 M. Ehara, K. Toyota, R. Fukuda, J. Hasegawa, M. Ishida, T. Nakajima, 
 Y. Honda, O. Kitao, H. Nakai, T. Vreven, J. A. Montgomery, Jr., 
 J. E. Peralta, F. Ogliaro, M. Bearpark, J. J. Heyd, E. Brothers, 
 K. N. Kudin, V. N. Staroverov, T. Keith, R. Kobayashi, J. Normand, 
 K. Raghavachari, A. Rendell, J. C. Burant, S. S. Iyengar, J. Tomasi, 
 M. Cossi, N. Rega, J. M. Millam, M. Klene, J. E. Knox, J. B. Cross, 
 V. Bakken, C. Adamo, J. Jaramillo, R. Gomperts, R. E. Stratmann, 
 O. Yazyev, A. J. Austin, R. Cammi, C. Pomelli, J. W. Ochterski, 
 R. L. Martin, K. Morokuma, V. G. Zakrzewski, G. A. Voth, 
 P. Salvador, J. J. Dannenberg, S. Dapprich, A. D. Daniels, 
 O. Farkas, J. B. Foresman, J. V. Ortiz, J. Cioslowski, 
 and D. J. Fox, Gaussian, Inc., Wallingford CT, 2013.
 
 ******************************************
 Gaussian 09:  ES64L-G09RevE.01 30-Nov-2015
                20-Jun-2024 
 ******************************************
 %chk=camb3lyp4NiAn.chk
 --------------------------------
 # opt freq cam-b3lyp/6-31+g(d,p)
 --------------------------------
 1/14=-1,18=20,19=15,26=3,38=1/1,3;
 2/9=110,12=2,17=6,18=5,40=1/2;
 3/5=1,6=6,7=111,11=2,16=1,25=1,30=1,71=1,74=-40/1,2,3;
 4//1;
 5/5=2,38=5/2;
 6/7=2,8=2,9=2,10=2,28=1/1;
 7//1,2,3,16;
 1/14=-1,18=20,19=15,26=3/3(2);
 2/9=110/2;
 99//99;
 2/9=110/2;
 3/5=1,6=6,7=111,11=2,16=1,25=1,30=1,71=1,74=-40/1,2,3;
 4/5=5,16=3,69=1/1;
 5/5=2,38=5/2;
 7//1,2,3,16;
 1/14=-1,18=20,19=15,26=3/3(-5);
 2/9=110/2;
 6/7=2,8=2,9=2,10=2,19=2,28=1/1;
 99/9=1/99;
 ----------
 [No Title]
 ----------
 Symbolic Z-matrix:
 Charge =  0 Multiplicity = 1
 C                    -0.02135   1.21664   0.00023 
 C                    -0.7122    0.        0.0004 
 C                    -0.02135  -1.21663   0.0003 
 C                     1.3645   -1.21626   0.00016 
 C                     2.08473  0.         0.00006 
 C                     1.36451   1.21626   0.00009 
 N                     3.45499   0.       -0.00007 
 N                    -2.16661   0.        0.00062 
 O                    -2.74824  -1.09153  -0.00071 
 O                    -2.74825   1.09152  -0.00078 
 H                    -0.57938   2.14498   0.00028 
 H                    -0.57938  -2.14497   0.0004 
 H                     1.90362  -2.15943   0.00015 
 H                     1.90362   2.15943   0.00002 
 H                     3.97589   0.86096  -0.00016 
 H                     3.97588  -0.86096  -0.00011 
 

 GradGradGradGradGradGradGradGradGradGradGradGradGradGradGradGradGradGrad
 Berny optimization.
 Initialization pass.
                           ----------------------------
                           !    Initial Parameters    !
                           ! (Angstroms and Degrees)  !
 --------------------------                            --------------------------
 ! Name  Definition              Value          Derivative Info.                !
 --------------------------------------------------------------------------------
 ! R1    R(1,2)                  1.3991         estimate D2E/DX2                !
 ! R2    R(1,6)                  1.3859         estimate D2E/DX2                !
 ! R3    R(1,11)                 1.0831         estimate D2E/DX2                !
 ! R4    R(2,3)                  1.3991         estimate D2E/DX2                !
 ! R5    R(2,8)                  1.4544         estimate D2E/DX2                !
 ! R6    R(3,4)                  1.3859         estimate D2E/DX2                !
 ! R7    R(3,12)                 1.0831         estimate D2E/DX2                !
 ! R8    R(4,5)                  1.4135         estimate D2E/DX2                !
 ! R9    R(4,13)                 1.0864         estimate D2E/DX2                !
 ! R10   R(5,6)                  1.4135         estimate D2E/DX2                !
 ! R11   R(5,7)                  1.3703         estimate D2E/DX2                !
 ! R12   R(6,14)                 1.0864         estimate D2E/DX2                !
 ! R13   R(7,15)                 1.0063         estimate D2E/DX2                !
 ! R14   R(7,16)                 1.0063         estimate D2E/DX2                !
 ! R15   R(8,9)                  1.2368         estimate D2E/DX2                !
 ! R16   R(8,10)                 1.2368         estimate D2E/DX2                !
 ! A1    A(2,1,6)              119.574          estimate D2E/DX2                !
 ! A2    A(2,1,11)             119.4002         estimate D2E/DX2                !
 ! A3    A(6,1,11)             121.0257         estimate D2E/DX2                !
 ! A4    A(1,2,3)              120.8209         estimate D2E/DX2                !
 ! A5    A(1,2,8)              119.5896         estimate D2E/DX2                !
 ! A6    A(3,2,8)              119.5895         estimate D2E/DX2                !
 ! A7    A(2,3,4)              119.5742         estimate D2E/DX2                !
 ! A8    A(2,3,12)             119.4001         estimate D2E/DX2                !
 ! A9    A(4,3,12)             121.0257         estimate D2E/DX2                !
 ! A10   A(3,4,5)              120.6479         estimate D2E/DX2                !
 ! A11   A(3,4,13)             119.7369         estimate D2E/DX2                !
 ! A12   A(5,4,13)             119.6152         estimate D2E/DX2                !
 ! A13   A(4,5,6)              118.7351         estimate D2E/DX2                !
 ! A14   A(4,5,7)              120.6326         estimate D2E/DX2                !
 ! A15   A(6,5,7)              120.6323         estimate D2E/DX2                !
 ! A16   A(1,6,5)              120.648          estimate D2E/DX2                !
 ! A17   A(1,6,14)             119.7368         estimate D2E/DX2                !
 ! A18   A(5,6,14)             119.6152         estimate D2E/DX2                !
 ! A19   A(5,7,15)             121.1749         estimate D2E/DX2                !
 ! A20   A(5,7,16)             121.1747         estimate D2E/DX2                !
 ! A21   A(15,7,16)            117.6504         estimate D2E/DX2                !
 ! A22   A(2,8,9)              118.0512         estimate D2E/DX2                !
 ! A23   A(2,8,10)             118.0516         estimate D2E/DX2                !
 ! A24   A(9,8,10)             123.897          estimate D2E/DX2                !
 ! D1    D(6,1,2,3)             -0.006          estimate D2E/DX2                !
 ! D2    D(6,1,2,8)            179.9966         estimate D2E/DX2                !
 ! D3    D(11,1,2,3)           179.9978         estimate D2E/DX2                !
 ! D4    D(11,1,2,8)             0.0003         estimate D2E/DX2                !
 ! D5    D(2,1,6,5)              0.0029         estimate D2E/DX2                !
 ! D6    D(2,1,6,14)          -179.9966         estimate D2E/DX2                !
 ! D7    D(11,1,6,5)           179.9991         estimate D2E/DX2                !
 ! D8    D(11,1,6,14)           -0.0004         estimate D2E/DX2                !
 ! D9    D(1,2,3,4)              0.006          estimate D2E/DX2                !
 ! D10   D(1,2,3,12)          -179.9978         estimate D2E/DX2                !
 ! D11   D(8,2,3,4)           -179.9966         estimate D2E/DX2                !
 ! D12   D(8,2,3,12)            -0.0004         estimate D2E/DX2                !
 ! D13   D(1,2,8,9)            179.9223         estimate D2E/DX2                !
 ! D14   D(1,2,8,10)             0.0753         estimate D2E/DX2                !
 ! D15   D(3,2,8,9)             -0.0752         estimate D2E/DX2                !
 ! D16   D(3,2,8,10)          -179.9221         estimate D2E/DX2                !
 ! D17   D(2,3,4,5)             -0.0029         estimate D2E/DX2                !
 ! D18   D(2,3,4,13)           179.9966         estimate D2E/DX2                !
 ! D19   D(12,3,4,5)          -179.999          estimate D2E/DX2                !
 ! D20   D(12,3,4,13)            0.0004         estimate D2E/DX2                !
 ! D21   D(3,4,5,6)             -0.0001         estimate D2E/DX2                !
 ! D22   D(3,4,5,7)            179.9996         estimate D2E/DX2                !
 ! D23   D(13,4,5,6)          -179.9996         estimate D2E/DX2                !
 ! D24   D(13,4,5,7)             0.0001         estimate D2E/DX2                !
 ! D25   D(4,5,6,1)              0.0001         estimate D2E/DX2                !
 ! D26   D(4,5,6,14)           179.9996         estimate D2E/DX2                !
 ! D27   D(7,5,6,1)           -179.9996         estimate D2E/DX2                !
 ! D28   D(7,5,6,14)            -0.0001         estimate D2E/DX2                !
 ! D29   D(4,5,7,15)           179.9994         estimate D2E/DX2                !
 ! D30   D(4,5,7,16)             0.0007         estimate D2E/DX2                !
 ! D31   D(6,5,7,15)            -0.0009         estimate D2E/DX2                !
 ! D32   D(6,5,7,16)          -179.9996         estimate D2E/DX2                !
 --------------------------------------------------------------------------------
 Trust Radius=3.00D-01 FncErr=1.00D-07 GrdErr=1.00D-06
 Number of steps in this run=     82 maximum allowed number of steps=    100.
 GradGradGradGradGradGradGradGradGradGradGradGradGradGradGradGradGradGrad

                          Input orientation:                          
 ---------------------------------------------------------------------
 Center     Atomic      Atomic             Coordinates (Angstroms)
 Number     Number       Type             X           Y           Z
 ---------------------------------------------------------------------
      1          6           0       -0.021349    1.216636    0.000233
      2          6           0       -0.712201    0.000001    0.000401
      3          6           0       -0.021350   -1.216633    0.000304
      4          6           0        1.364504   -1.216261    0.000164
      5          6           0        2.084729   -0.000001    0.000057
      6          6           0        1.364505    1.216260    0.000093
      7          7           0        3.454988    0.000001   -0.000073
      8          7           0       -2.166613    0.000000    0.000623
      9          8           0       -2.748238   -1.091526   -0.000713
     10          8           0       -2.748250    1.091523   -0.000779
     11          1           0       -0.579376    2.144975    0.000276
     12          1           0       -0.579380   -2.144973    0.000402
     13          1           0        1.903619   -2.159429    0.000145
     14          1           0        1.903622    2.159428    0.000019
     15          1           0        3.975885    0.860958   -0.000159
     16          1           0        3.975884   -0.860957   -0.000106
 ---------------------------------------------------------------------
                    Distance matrix (angstroms):
                    1          2          3          4          5
     1  C    0.000000
     2  C    1.399099   0.000000
     3  C    2.433269   1.399097   0.000000
     4  C    2.799924   2.406657   1.385854   0.000000
     5  C    2.432236   2.796930   2.432234   1.413511   0.000000
     6  C    1.385854   2.406656   2.799922   2.432521   1.413511
     7  N    3.683086   4.167189   3.683086   2.418557   1.370259
     8  N    2.466244   1.454412   2.466242   3.734713   4.251342
     9  O    3.572609   2.310169   2.729757   4.114633   4.954694
    10  O    2.729770   2.310177   3.572614   4.715995   4.954706
    11  H    1.083147   2.149083   3.407609   3.882857   3.420289
    12  H    3.407611   2.149082   1.083149   2.154342   3.420290
    13  H    3.886299   3.391998   2.143448   1.086375   2.167009
    14  H    2.143448   3.391999   3.886297   3.418468   2.167010
    15  H    4.013027   4.766487   4.504916   3.336787   2.077913
    16  H    4.504916   4.766486   4.013027   2.635440   2.077911
                    6          7          8          9         10
     6  C    0.000000
     7  N    2.418554   0.000000
     8  N    3.734713   5.621601   0.000000
     9  O    4.715987   6.298527   1.236818   0.000000
    10  O    4.114646   6.298538   1.236821   2.183049   0.000000
    11  H    2.154341   4.569136   2.668378   3.896011   2.411177
    12  H    3.882857   4.569140   2.668374   2.411161   3.896011
    13  H    3.418468   2.658925   4.607594   4.772860   5.675260
    14  H    1.086376   2.658921   4.607596   5.675254   4.772875
    15  H    2.635440   1.006271   6.202542   7.001859   6.728087
    16  H    3.336784   1.006271   6.202541   6.728074   7.001868
                   11         12         13         14         15
    11  H    0.000000
    12  H    4.289948   0.000000
    13  H    4.969221   2.483041   0.000000
    14  H    2.483040   4.969222   4.318857   0.000000
    15  H    4.732769   5.457661   3.662926   2.445465   0.000000
    16  H    5.457657   4.732772   2.445468   3.662922   1.721915
                   16
    16  H    0.000000
 Stoichiometry    C6H6N2O2
 Framework group  C1[X(C6H6N2O2)]
 Deg. of freedom    42
 Full point group                 C1      NOp   1
 Largest Abelian subgroup         C1      NOp   1
 Largest concise Abelian subgroup C1      NOp   1
                         Standard orientation:                         
 ---------------------------------------------------------------------
 Center     Atomic      Atomic             Coordinates (Angstroms)
 Number     Number       Type             X           Y           Z
 ---------------------------------------------------------------------
      1          6           0        0.021349   -1.216636    0.000233
      2          6           0        0.712201   -0.000001    0.000401
      3          6           0        0.021350    1.216633    0.000304
      4          6           0       -1.364504    1.216261    0.000164
      5          6           0       -2.084729    0.000001    0.000057
      6          6           0       -1.364505   -1.216260    0.000093
      7          7           0       -3.454988   -0.000001   -0.000073
      8          7           0        2.166613    0.000000    0.000623
      9          8           0        2.748238    1.091526   -0.000713
     10          8           0        2.748250   -1.091523   -0.000779
     11          1           0        0.579376   -2.144975    0.000276
     12          1           0        0.579380    2.144973    0.000402
     13          1           0       -1.903619    2.159429    0.000145
     14          1           0       -1.903622   -2.159428    0.000019
     15          1           0       -3.975885   -0.860958   -0.000159
     16          1           0       -3.975884    0.860957   -0.000106
 ---------------------------------------------------------------------
 Rotational constants (GHZ):      3.9083219      0.8197758      0.6776399
 Standard basis: 6-31+G(d,p) (6D, 7F)
 There are   220 symmetry adapted cartesian basis functions of A   symmetry.
 There are   220 symmetry adapted basis functions of A   symmetry.
   220 basis functions,   362 primitive gaussians,   220 cartesian basis functions
    36 alpha electrons       36 beta electrons
       nuclear repulsion energy       494.3528993097 Hartrees.
 NAtoms=   16 NActive=   16 NUniq=   16 SFac= 1.00D+00 NAtFMM=   60 NAOKFM=F Big=F
 Integral buffers will be    131072 words long.
 Raffenetti 2 integral format.
 Two-electron integral symmetry is turned on.
 One-electron integrals computed using PRISM.
 NBasis=   220 RedAO= T EigKep=  3.28D-06  NBF=   220
 NBsUse=   220 1.00D-06 EigRej= -1.00D+00 NBFU=   220
 ExpMin= 4.38D-02 ExpMax= 5.48D+03 ExpMxC= 8.25D+02 IAcc=2 IRadAn=         4 AccDes= 0.00D+00
 Harris functional with IExCor=20419 and IRadAn=       4 diagonalized for initial guess.
 HarFok:  IExCor=20419 AccDes= 0.00D+00 IRadAn=         4 IDoV= 1 UseB2=F ITyADJ=14
 ICtDFT=  3500011 ScaDFX=  1.000000  1.000000  1.000000  1.000000
 FoFCou: FMM=F IPFlag=           0 FMFlag=      100000 FMFlg1=           0
         NFxFlg=           0 DoJE=T BraDBF=F KetDBF=T FulRan=T
         wScrn=  0.000000 ICntrl=     500 IOpCl=  0 I1Cent=   200000004 NGrid=           0
         NMat0=    1 NMatS0=      1 NMatT0=    0 NMatD0=    1 NMtDS0=    0 NMtDT0=    0
 Petite list used in FoFCou.
 Keep R1 ints in memory in canonical form, NReq=596566580.
 Requested convergence on RMS density matrix=1.00D-08 within 128 cycles.
 Requested convergence on MAX density matrix=1.00D-06.
 Requested convergence on             energy=1.00D-06.
 No special actions if energy rises.
 SCF Done:  E(RCAM-B3LYP) =  -491.914212275     A.U. after   16 cycles
            NFock= 16  Conv=0.23D-08     -V/T= 2.0093

 **********************************************************************

            Population analysis using the SCF density.

 **********************************************************************

 Orbital symmetries:
       Occupied  (A) (A) (A) (A) (A) (A) (A) (A) (A) (A) (A) (A)
                 (A) (A) (A) (A) (A) (A) (A) (A) (A) (A) (A) (A)
                 (A) (A) (A) (A) (A) (A) (A) (A) (A) (A) (A) (A)
       Virtual   (A) (A) (A) (A) (A) (A) (A) (A) (A) (A) (A) (A)
                 (A) (A) (A) (A) (A) (A) (A) (A) (A) (A) (A) (A)
                 (A) (A) (A) (A) (A) (A) (A) (A) (A) (A) (A) (A)
                 (A) (A) (A) (A) (A) (A) (A) (A) (A) (A) (A) (A)
                 (A) (A) (A) (A) (A) (A) (A) (A) (A) (A) (A) (A)
                 (A) (A) (A) (A) (A) (A) (A) (A) (A) (A) (A) (A)
                 (A) (A) (A) (A) (A) (A) (A) (A) (A) (A) (A) (A)
                 (A) (A) (A) (A) (A) (A) (A) (A) (A) (A) (A) (A)
                 (A) (A) (A) (A) (A) (A) (A) (A) (A) (A) (A) (A)
                 (A) (A) (A) (A) (A) (A) (A) (A) (A) (A) (A) (A)
                 (A) (A) (A) (A) (A) (A) (A) (A) (A) (A) (A) (A)
                 (A) (A) (A) (A) (A) (A) (A) (A) (A) (A) (A) (A)
                 (A) (A) (A) (A) (A) (A) (A) (A) (A) (A) (A) (A)
                 (A) (A) (A) (A) (A) (A) (A) (A) (A) (A) (A) (A)
                 (A) (A) (A) (A) (A) (A) (A) (A) (A) (A) (A) (A)
                 (A) (A) (A) (A)
 The electronic state is 1-A.
 Alpha  occ. eigenvalues --  -19.25671 -19.25668 -14.65199 -14.45586 -10.34920
 Alpha  occ. eigenvalues --  -10.32156 -10.30072 -10.30071 -10.29047 -10.29047
 Alpha  occ. eigenvalues --   -1.30492  -1.12809  -1.04114  -0.96668  -0.87908
 Alpha  occ. eigenvalues --   -0.86034  -0.77565  -0.72465  -0.67981  -0.63888
 Alpha  occ. eigenvalues --   -0.62523  -0.61335  -0.60368  -0.57778  -0.53840
 Alpha  occ. eigenvalues --   -0.52892  -0.51804  -0.49211  -0.48769  -0.43605
 Alpha  occ. eigenvalues --   -0.41024  -0.37704  -0.37098  -0.35817  -0.33862
 Alpha  occ. eigenvalues --   -0.28833
 Alpha virt. eigenvalues --   -0.04424   0.00973   0.01181   0.03494   0.04067
 Alpha virt. eigenvalues --    0.04864   0.06303   0.06750   0.08794   0.09006
 Alpha virt. eigenvalues --    0.10253   0.10801   0.11457   0.12084   0.13666
 Alpha virt. eigenvalues --    0.15039   0.15425   0.15827   0.16216   0.16259
 Alpha virt. eigenvalues --    0.17329   0.19148   0.19376   0.19650   0.19714
 Alpha virt. eigenvalues --    0.20269   0.20419   0.22776   0.23021   0.23549
 Alpha virt. eigenvalues --    0.23580   0.24617   0.24830   0.25673   0.26656
 Alpha virt. eigenvalues --    0.27012   0.27086   0.29073   0.29394   0.29610
 Alpha virt. eigenvalues --    0.30923   0.31631   0.32160   0.34341   0.35263
 Alpha virt. eigenvalues --    0.35502   0.35918   0.37239   0.38774   0.39945
 Alpha virt. eigenvalues --    0.41926   0.43600   0.43861   0.45592   0.45708
 Alpha virt. eigenvalues --    0.48802   0.50714   0.57592   0.63839   0.65976
 Alpha virt. eigenvalues --    0.69095   0.69779   0.70628   0.74964   0.75286
 Alpha virt. eigenvalues --    0.76185   0.78155   0.80098   0.82869   0.83258
 Alpha virt. eigenvalues --    0.86327   0.88646   0.89639   0.92697   0.95280
 Alpha virt. eigenvalues --    0.95763   0.98636   0.98803   1.01055   1.04615
 Alpha virt. eigenvalues --    1.04679   1.07913   1.09271   1.12409   1.12507
 Alpha virt. eigenvalues --    1.13875   1.15530   1.21481   1.22395   1.24791
 Alpha virt. eigenvalues --    1.24830   1.26593   1.27927   1.28898   1.30706
 Alpha virt. eigenvalues --    1.33883   1.36586   1.36696   1.38818   1.40379
 Alpha virt. eigenvalues --    1.42175   1.43345   1.43593   1.44130   1.48643
 Alpha virt. eigenvalues --    1.49132   1.50294   1.51855   1.52381   1.58876
 Alpha virt. eigenvalues --    1.68065   1.74670   1.78430   1.81439   1.86061
 Alpha virt. eigenvalues --    1.87808   1.88231   1.90538   1.92261   1.93703
 Alpha virt. eigenvalues --    1.97784   1.98096   1.98635   2.02114   2.02615
 Alpha virt. eigenvalues --    2.02932   2.03649   2.09159   2.13324   2.14919
 Alpha virt. eigenvalues --    2.19064   2.19744   2.19796   2.23160   2.25643
 Alpha virt. eigenvalues --    2.28013   2.29391   2.36325   2.43660   2.44332
 Alpha virt. eigenvalues --    2.45739   2.48291   2.49017   2.49380   2.54940
 Alpha virt. eigenvalues --    2.57928   2.59541   2.60284   2.62412   2.63844
 Alpha virt. eigenvalues --    2.65662   2.66430   2.73223   2.75803   2.79371
 Alpha virt. eigenvalues --    2.79645   2.85418   2.88407   2.89435   2.90771
 Alpha virt. eigenvalues --    3.05559   3.08815   3.09872   3.13557   3.17510
 Alpha virt. eigenvalues --    3.18104   3.25954   3.34726   3.40547   3.40762
 Alpha virt. eigenvalues --    3.48170   3.59011   3.71933   3.89560   4.18478
 Alpha virt. eigenvalues --    4.27908   4.34425   4.34797   4.38893   4.53790
 Alpha virt. eigenvalues --    4.55178   4.58343   4.86237   4.91442
          Condensed to atoms (all electrons):
               1          2          3          4          5          6
     1  C    8.809035   0.161577  -2.532180  -0.454765  -0.182915  -0.305388
     2  C    0.161577   8.827030   0.161505  -0.875426  -0.333649  -0.875429
     3  C   -2.532180   0.161505   8.809096  -0.305403  -0.182905  -0.454765
     4  C   -0.454765  -0.875426  -0.305403   8.943606   0.354960  -1.876354
     5  C   -0.182915  -0.333649  -0.182905   0.354960   5.703459   0.354982
     6  C   -0.305388  -0.875429  -0.454765  -1.876354   0.354982   8.943563
     7  N    0.034343  -0.011713   0.034343  -0.044930   0.046844  -0.044930
     8  N    0.202069  -0.784541   0.202086   0.023216  -0.013367   0.023221
     9  O    0.130570  -0.306072  -0.063551   0.148389   0.011801  -0.014503
    10  O   -0.063553  -0.306069   0.130573  -0.014504   0.011801   0.148384
    11  H    0.072368   0.255481   0.107573  -0.011078  -0.032692  -0.040782
    12  H    0.107572   0.255485   0.072364  -0.040781  -0.032692  -0.011078
    13  H   -0.015691   0.014675   0.090334   0.195185   0.011536   0.029421
    14  H    0.090334   0.014674  -0.015691   0.029420   0.011535   0.195186
    15  H    0.026518  -0.001177  -0.000332   0.057670  -0.003681  -0.091838
    16  H   -0.000332  -0.001177   0.026517  -0.091839  -0.003680   0.057671
               7          8          9         10         11         12
     1  C    0.034343   0.202069   0.130570  -0.063553   0.072368   0.107572
     2  C   -0.011713  -0.784541  -0.306072  -0.306069   0.255481   0.255485
     3  C    0.034343   0.202086  -0.063551   0.130573   0.107573   0.072364
     4  C   -0.044930   0.023216   0.148389  -0.014504  -0.011078  -0.040781
     5  C    0.046844  -0.013367   0.011801   0.011801  -0.032692  -0.032692
     6  C   -0.044930   0.023221  -0.014503   0.148384  -0.040782  -0.011078
     7  N    7.019497   0.000688  -0.000226  -0.000226  -0.000405  -0.000405
     8  N    0.000688   6.926172   0.381334   0.381343  -0.047089  -0.047089
     9  O   -0.000226   0.381334   7.863941  -0.086360  -0.002710   0.017369
    10  O   -0.000226   0.381343  -0.086360   7.863937   0.017369  -0.002710
    11  H   -0.000405  -0.047089  -0.002710   0.017369   0.510429  -0.000133
    12  H   -0.000405  -0.047089   0.017369  -0.002710  -0.000133   0.510429
    13  H   -0.017110  -0.000336   0.000030   0.000052   0.000011  -0.004763
    14  H   -0.017110  -0.000336   0.000052   0.000030  -0.004763   0.000011
    15  H    0.339503   0.000009  -0.000000   0.000001  -0.000007   0.000002
    16  H    0.339503   0.000009   0.000001  -0.000000   0.000002  -0.000007
              13         14         15         16
     1  C   -0.015691   0.090334   0.026518  -0.000332
     2  C    0.014675   0.014674  -0.001177  -0.001177
     3  C    0.090334  -0.015691  -0.000332   0.026517
     4  C    0.195185   0.029420   0.057670  -0.091839
     5  C    0.011536   0.011535  -0.003681  -0.003680
     6  C    0.029421   0.195186  -0.091838   0.057671
     7  N   -0.017110  -0.017110   0.339503   0.339503
     8  N   -0.000336  -0.000336   0.000009   0.000009
     9  O    0.000030   0.000052  -0.000000   0.000001
    10  O    0.000052   0.000030   0.000001  -0.000000
    11  H    0.000011  -0.004763  -0.000007   0.000002
    12  H   -0.004763   0.000011   0.000002  -0.000007
    13  H    0.563849  -0.000133  -0.000041   0.004494
    14  H   -0.000133   0.563849   0.004494  -0.000041
    15  H   -0.000041   0.004494   0.382851  -0.026831
    16  H    0.004494  -0.000041  -0.026831   0.382851
 Mulliken charges:
               1
     1  C   -0.079563
     2  C   -0.195175
     3  C   -0.079563
     4  C   -0.037364
     5  C    0.278664
     6  C   -0.037359
     7  N   -0.677666
     8  N   -0.247390
     9  O   -0.080063
    10  O   -0.080067
    11  H    0.176427
    12  H    0.176427
    13  H    0.128488
    14  H    0.128488
    15  H    0.312858
    16  H    0.312858
 Sum of Mulliken charges =  -0.00000
 Mulliken charges with hydrogens summed into heavy atoms:
               1
     1  C    0.096863
     2  C   -0.195175
     3  C    0.096865
     4  C    0.091124
     5  C    0.278664
     6  C    0.091129
     7  N   -0.051949
     8  N   -0.247390
     9  O   -0.080063
    10  O   -0.080067
 Electronic spatial extent (au):  <R**2>=           1566.3699
 Charge=             -0.0000 electrons
 Dipole moment (field-independent basis, Debye):
    X=             -7.7247    Y=              0.0000    Z=              0.0027  Tot=              7.7247
 Quadrupole moment (field-independent basis, Debye-Ang):
   XX=            -57.5927   YY=            -53.2166   ZZ=            -61.0265
   XY=              0.0000   XZ=              0.0099   YZ=              0.0002
 Traceless Quadrupole moment (field-independent basis, Debye-Ang):
   XX=             -0.3141   YY=              4.0620   ZZ=             -3.7479
   XY=              0.0000   XZ=              0.0099   YZ=              0.0002
 Octapole moment (field-independent basis, Debye-Ang**2):
  XXX=           -109.2652  YYY=              0.0000  ZZZ=             -0.0069  XYY=            -17.0538
  XXY=              0.0001  XXZ=              0.0191  XZZ=             13.5973  YZZ=              0.0000
  YYZ=             -0.0006  XYZ=             -0.0009
 Hexadecapole moment (field-independent basis, Debye-Ang**3):
 XXXX=          -1391.6536 YYYY=           -371.2521 ZZZZ=            -67.2365 XXXY=              0.0006
 XXXZ=              0.1368 YYYX=              0.0001 YYYZ=             -0.0034 ZZZX=              0.0432
 ZZZY=             -0.0056 XXYY=           -303.5053 XXZZ=           -283.3378 YYZZ=            -85.6526
 XXYZ=             -0.0005 YYXZ=              0.0166 ZZXY=              0.0000
 N-N= 4.943528993097D+02 E-N=-2.135094688371D+03  KE= 4.873792069452D+02
 Calling FoFJK, ICntrl=      2127 FMM=F ISym2X=0 I1Cent= 0 IOpClX= 0 NMat=1 NMatS=1 NMatT=0.
 ***** Axes restored to original set *****
 -------------------------------------------------------------------
 Center     Atomic                   Forces (Hartrees/Bohr)
 Number     Number              X              Y              Z
 -------------------------------------------------------------------
      1        6           0.001028252   -0.004994906    0.000024282
      2        6           0.004105837    0.000001569    0.000087869
      3        6           0.001027560    0.004992260    0.000024073
      4        6          -0.001514104    0.004451493   -0.000006555
      5        6          -0.002985864    0.000000698    0.000002822
      6        6          -0.001514214   -0.004450561   -0.000006285
      7        7          -0.002421581   -0.000000931    0.000000689
      8        7          -0.009242882    0.000001771   -0.000448699
      9        8           0.006758212    0.013283570    0.000163450
     10        8           0.006761346   -0.013286169    0.000164256
     11        1           0.000074356   -0.000340451    0.000000144
     12        1           0.000075329    0.000341900    0.000000083
     13        1          -0.000313578    0.000643621   -0.000002976
     14        1          -0.000313830   -0.000644227   -0.000002945
     15        1          -0.000762499   -0.000563714   -0.000000076
     16        1          -0.000762339    0.000564076   -0.000000132
 -------------------------------------------------------------------
 Cartesian Forces:  Max     0.013286169 RMS     0.003710793

 GradGradGradGradGradGradGradGradGradGradGradGradGradGradGradGradGradGrad
 Berny optimization.
 FormGI is forming the generalized inverse of G from B-inverse, IUseBI=4.
 Internal  Forces:  Max     0.014905180 RMS     0.003134560
 Search for a local minimum.
 Step number   1 out of a maximum of   82
 All quantities printed in internal units (Hartrees-Bohrs-Radians)
 Mixed Optimization -- RFO/linear search
 Second derivative matrix not updated -- first step.
 ITU=  0
     Eigenvalues ---    0.00972   0.00972   0.01759   0.01936   0.02004
     Eigenvalues ---    0.02067   0.02085   0.02085   0.02096   0.02144
     Eigenvalues ---    0.02156   0.02199   0.02205   0.16000   0.16000
     Eigenvalues ---    0.16000   0.16000   0.16000   0.16000   0.22000
     Eigenvalues ---    0.22968   0.24000   0.25000   0.25000   0.25000
     Eigenvalues ---    0.25000   0.35235   0.35235   0.35616   0.35617
     Eigenvalues ---    0.37673   0.40705   0.41643   0.44683   0.44883
     Eigenvalues ---    0.46568   0.46603   0.46603   0.48048   0.50927
     Eigenvalues ---    0.88303   0.88304
 RFO step:  Lambda=-1.10230281D-03 EMin= 9.72013634D-03
 Linear search not attempted -- first point.
 Iteration  1 RMS(Cart)=  0.01086884 RMS(Int)=  0.00005015
 Iteration  2 RMS(Cart)=  0.00004475 RMS(Int)=  0.00002526
 Iteration  3 RMS(Cart)=  0.00000000 RMS(Int)=  0.00002526
 Variable       Old X    -DE/DX   Delta X   Delta X   Delta X     New X
                                 (Linear)    (Quad)   (Total)
    R1        2.64391  -0.00682   0.00000  -0.01496  -0.01496   2.62895
    R2        2.61888  -0.00529   0.00000  -0.01099  -0.01099   2.60789
    R3        2.04685  -0.00033   0.00000  -0.00092  -0.00092   2.04593
    R4        2.64391  -0.00682   0.00000  -0.01496  -0.01496   2.62895
    R5        2.74844  -0.00428   0.00000  -0.01132  -0.01132   2.73712
    R6        2.61888  -0.00529   0.00000  -0.01099  -0.01099   2.60789
    R7        2.04686  -0.00033   0.00000  -0.00093  -0.00093   2.04593
    R8        2.67115  -0.00604   0.00000  -0.01376  -0.01376   2.65738
    R9        2.05295  -0.00071   0.00000  -0.00202  -0.00202   2.05093
   R10        2.67115  -0.00604   0.00000  -0.01376  -0.01376   2.65738
   R11        2.58941  -0.00395   0.00000  -0.00773  -0.00773   2.58168
   R12        2.05295  -0.00072   0.00000  -0.00202  -0.00202   2.05093
   R13        1.90158  -0.00088   0.00000  -0.00188  -0.00188   1.89970
   R14        1.90158  -0.00088   0.00000  -0.00188  -0.00188   1.89970
   R15        2.33725  -0.01490   0.00000  -0.01685  -0.01685   2.32039
   R16        2.33725  -0.01491   0.00000  -0.01686  -0.01686   2.32039
    A1        2.08696  -0.00052   0.00000  -0.00240  -0.00240   2.08456
    A2        2.08393   0.00014   0.00000   0.00049   0.00049   2.08442
    A3        2.11230   0.00037   0.00000   0.00191   0.00191   2.11421
    A4        2.10872   0.00123   0.00000   0.00466   0.00466   2.11338
    A5        2.08723  -0.00062   0.00000  -0.00233  -0.00233   2.08490
    A6        2.08723  -0.00062   0.00000  -0.00233  -0.00233   2.08490
    A7        2.08696  -0.00052   0.00000  -0.00240  -0.00240   2.08456
    A8        2.08393   0.00014   0.00000   0.00049   0.00049   2.08442
    A9        2.11230   0.00037   0.00000   0.00191   0.00191   2.11421
   A10        2.10570  -0.00034   0.00000  -0.00117  -0.00117   2.10453
   A11        2.08980   0.00022   0.00000   0.00089   0.00089   2.09069
   A12        2.08768   0.00012   0.00000   0.00029   0.00029   2.08797
   A13        2.07232   0.00049   0.00000   0.00249   0.00248   2.07480
   A14        2.10544  -0.00025   0.00000  -0.00124  -0.00124   2.10419
   A15        2.10543  -0.00024   0.00000  -0.00124  -0.00124   2.10419
   A16        2.10570  -0.00034   0.00000  -0.00117  -0.00117   2.10453
   A17        2.08980   0.00022   0.00000   0.00089   0.00089   2.09069
   A18        2.08768   0.00012   0.00000   0.00029   0.00029   2.08796
   A19        2.11490  -0.00023   0.00000  -0.00142  -0.00142   2.11348
   A20        2.11490  -0.00023   0.00000  -0.00142  -0.00142   2.11348
   A21        2.05339   0.00046   0.00000   0.00284   0.00284   2.05622
   A22        2.06038   0.00022   0.00000   0.00090   0.00078   2.06116
   A23        2.06039   0.00022   0.00000   0.00089   0.00077   2.06116
   A24        2.16241  -0.00044   0.00000  -0.00173  -0.00185   2.16056
    D1       -0.00010   0.00001   0.00000   0.00042   0.00042   0.00032
    D2        3.14153   0.00001   0.00000   0.00021   0.00021  -3.14144
    D3        3.14155   0.00000   0.00000   0.00016   0.00016  -3.14147
    D4        0.00001  -0.00000   0.00000  -0.00005  -0.00005  -0.00004
    D5        0.00005  -0.00000   0.00000  -0.00020  -0.00020  -0.00015
    D6       -3.14153  -0.00001   0.00000  -0.00023  -0.00023   3.14142
    D7        3.14158   0.00000   0.00000   0.00006   0.00006  -3.14155
    D8       -0.00001   0.00000   0.00000   0.00003   0.00003   0.00003
    D9        0.00010  -0.00001   0.00000  -0.00042  -0.00042  -0.00032
   D10       -3.14155  -0.00000   0.00000  -0.00016  -0.00016   3.14147
   D11       -3.14153  -0.00001   0.00000  -0.00021  -0.00021   3.14144
   D12       -0.00001   0.00000   0.00000   0.00005   0.00005   0.00004
   D13        3.14024   0.00015   0.00000   0.01418   0.01418  -3.12877
   D14        0.00131  -0.00015   0.00000  -0.01397  -0.01397  -0.01265
   D15       -0.00131   0.00015   0.00000   0.01397   0.01397   0.01265
   D16       -3.14023  -0.00015   0.00000  -0.01418  -0.01418   3.12877
   D17       -0.00005   0.00000   0.00000   0.00020   0.00020   0.00015
   D18        3.14153   0.00001   0.00000   0.00023   0.00023  -3.14142
   D19       -3.14158  -0.00000   0.00000  -0.00006  -0.00006   3.14155
   D20        0.00001  -0.00000   0.00000  -0.00003  -0.00003  -0.00003
   D21       -0.00000   0.00000   0.00000   0.00001   0.00001   0.00001
   D22        3.14159   0.00000   0.00000   0.00002   0.00002  -3.14158
   D23       -3.14159  -0.00000   0.00000  -0.00002  -0.00002   3.14158
   D24        0.00000  -0.00000   0.00000  -0.00001  -0.00001  -0.00001
   D25        0.00000  -0.00000   0.00000  -0.00001  -0.00001  -0.00001
   D26        3.14159   0.00000   0.00000   0.00002   0.00002  -3.14158
   D27       -3.14159  -0.00000   0.00000  -0.00002  -0.00002   3.14158
   D28       -0.00000   0.00000   0.00000   0.00001   0.00001   0.00001
   D29        3.14158  -0.00000   0.00000  -0.00001  -0.00001   3.14157
   D30        0.00001   0.00000   0.00000   0.00001   0.00001   0.00002
   D31       -0.00002  -0.00000   0.00000  -0.00001  -0.00001  -0.00002
   D32       -3.14159   0.00000   0.00000   0.00001   0.00001  -3.14158
         Item               Value     Threshold  Converged?
 Maximum Force            0.014905     0.000450     NO 
 RMS     Force            0.003135     0.000300     NO 
 Maximum Displacement     0.034354     0.001800     NO 
 RMS     Displacement     0.010885     0.001200     NO 
 Predicted change in Energy=-5.526505D-04
 GradGradGradGradGradGradGradGradGradGradGradGradGradGradGradGradGradGrad

                          Input orientation:                          
 ---------------------------------------------------------------------
 Center     Atomic      Atomic             Coordinates (Angstroms)
 Number     Number       Type             X           Y           Z
 ---------------------------------------------------------------------
      1          6           0       -0.019241    1.211348   -0.002440
      2          6           0       -0.703360   -0.000001   -0.003446
      3          6           0       -0.019240   -1.211349   -0.002369
      4          6           0        1.360796   -1.210882   -0.000647
      5          6           0        2.075805   -0.000000    0.000203
      6          6           0        1.360795    1.210881   -0.000718
      7          7           0        3.441971    0.000001    0.001897
      8          7           0       -2.151781   -0.000000   -0.005440
      9          8           0       -2.730077   -1.083116    0.007593
     10          8           0       -2.730071    1.083120    0.007527
     11          1           0       -0.578724    2.138239   -0.003201
     12          1           0       -0.578722   -2.138240   -0.003076
     13          1           0        1.900281   -2.152606    0.000040
     14          1           0        1.900279    2.152605   -0.000086
     15          1           0        3.961132    0.860846    0.002498
     16          1           0        3.961133   -0.860843    0.002551
 ---------------------------------------------------------------------
                    Distance matrix (angstroms):
                    1          2          3          4          5
     1  C    0.000000
     2  C    1.391181   0.000000
     3  C    2.422697   1.391181   0.000000
     4  C    2.787777   2.393111   1.380037   0.000000
     5  C    2.420039   2.779167   2.420039   1.406227   0.000000
     6  C    1.380037   2.393110   2.787777   2.421763   1.406227
     7  N    3.667066   4.145334   3.667066   2.407807   1.366167
     8  N    2.452570   1.448422   2.452571   3.715434   4.227590
     9  O    3.551520   2.298008   2.713887   4.092876   4.926429
    10  O    2.713879   2.298006   3.551520   4.690171   4.926423
    11  H    1.082658   2.141869   3.395992   3.870188   3.408607
    12  H    3.395992   2.141869   1.082658   2.149821   3.408606
    13  H    3.873080   3.378263   2.137880   1.085306   2.159750
    14  H    2.137880   3.378263   3.873080   3.406477   2.159750
    15  H    3.995779   4.743267   4.487469   3.324728   2.072563
    16  H    4.487469   4.743267   3.995779   2.623793   2.072563
                    6          7          8          9         10
     6  C    0.000000
     7  N    2.407807   0.000000
     8  N    3.715433   5.593757   0.000000
     9  O    4.690173   6.266367   1.227899   0.000000
    10  O    4.092868   6.266361   1.227900   2.166236   0.000000
    11  H    2.149821   4.553908   2.654539   3.873701   2.396181
    12  H    3.870187   4.553908   2.654541   2.396191   3.873704
    13  H    3.406478   2.647740   4.588349   4.752271   5.648906
    14  H    1.085306   2.647739   4.588347   5.648907   4.752262
    15  H    2.623793   1.005277   6.173234   6.967876   6.694896
    16  H    3.324728   1.005277   6.173235   6.694903   6.967871
                   11         12         13         14         15
    11  H    0.000000
    12  H    4.276479   0.000000
    13  H    4.955484   2.479046   0.000000
    14  H    2.479047   4.955483   4.305211   0.000000
    15  H    4.716149   5.441032   3.650754   2.432235   0.000000
    16  H    5.441032   4.716149   2.432235   3.650753   1.721689
                   16
    16  H    0.000000
 Stoichiometry    C6H6N2O2
 Framework group  C1[X(C6H6N2O2)]
 Deg. of freedom    42
 Full point group                 C1      NOp   1
 Largest Abelian subgroup         C1      NOp   1
 Largest concise Abelian subgroup C1      NOp   1
                         Standard orientation:                         
 ---------------------------------------------------------------------
 Center     Atomic      Atomic             Coordinates (Angstroms)
 Number     Number       Type             X           Y           Z
 ---------------------------------------------------------------------
      1          6           0        0.022696   -1.211348   -0.002949
      2          6           0        0.706814    0.000001   -0.004355
      3          6           0        0.022695    1.211349   -0.002950
      4          6           0       -1.357340    1.210882   -0.000495
      5          6           0       -2.072349    0.000000    0.000771
      6          6           0       -1.357339   -1.210881   -0.000494
      7          7           0       -3.438514   -0.000001    0.003191
      8          7           0        2.155234    0.000001   -0.007119
      9          8           0        2.733537    1.083117    0.005575
     10          8           0        2.733531   -1.083119    0.005573
     11          1           0        0.582178   -2.138238   -0.003981
     12          1           0        0.582176    2.138241   -0.003982
     13          1           0       -1.896825    2.152606    0.000451
     14          1           0       -1.896823   -2.152605    0.000453
     15          1           0       -3.957674   -0.860846    0.004094
     16          1           0       -3.957675    0.860843    0.004095
 ---------------------------------------------------------------------
 Rotational constants (GHZ):      3.9486816      0.8283220      0.6846971
 Standard basis: 6-31+G(d,p) (6D, 7F)
 There are   220 symmetry adapted cartesian basis functions of A   symmetry.
 There are   220 symmetry adapted basis functions of A   symmetry.
   220 basis functions,   362 primitive gaussians,   220 cartesian basis functions
    36 alpha electrons       36 beta electrons
       nuclear repulsion energy       496.8470123574 Hartrees.
 NAtoms=   16 NActive=   16 NUniq=   16 SFac= 1.00D+00 NAtFMM=   60 NAOKFM=F Big=F
 Integral buffers will be    131072 words long.
 Raffenetti 2 integral format.
 Two-electron integral symmetry is turned on.
 One-electron integrals computed using PRISM.
 NBasis=   220 RedAO= T EigKep=  3.14D-06  NBF=   220
 NBsUse=   220 1.00D-06 EigRej= -1.00D+00 NBFU=   220
 Initial guess from the checkpoint file:  "camb3lyp4NiAn.chk"
 B after Tr=     0.000000    0.000000    0.000000
         Rot=    1.000000    0.000015    0.000033    0.000000 Ang=   0.00 deg.
 ExpMin= 4.38D-02 ExpMax= 5.48D+03 ExpMxC= 8.25D+02 IAcc=2 IRadAn=         4 AccDes= 0.00D+00
 Harris functional with IExCor=20419 and IRadAn=       4 diagonalized for initial guess.
 HarFok:  IExCor=20419 AccDes= 0.00D+00 IRadAn=         4 IDoV= 1 UseB2=F ITyADJ=14
 ICtDFT=  3500011 ScaDFX=  1.000000  1.000000  1.000000  1.000000
 FoFCou: FMM=F IPFlag=           0 FMFlag=      100000 FMFlg1=           0
         NFxFlg=           0 DoJE=T BraDBF=F KetDBF=T FulRan=T
         wScrn=  0.000000 ICntrl=     500 IOpCl=  0 I1Cent=   200000004 NGrid=           0
         NMat0=    1 NMatS0=      1 NMatT0=    0 NMatD0=    1 NMtDS0=    0 NMtDT0=    0
 Petite list used in FoFCou.
 Keep R1 ints in memory in canonical form, NReq=596566580.
 Requested convergence on RMS density matrix=1.00D-08 within 128 cycles.
 Requested convergence on MAX density matrix=1.00D-06.
 Requested convergence on             energy=1.00D-06.
 No special actions if energy rises.
 SCF Done:  E(RCAM-B3LYP) =  -491.914696430     A.U. after   13 cycles
            NFock= 13  Conv=0.67D-08     -V/T= 2.0089
 Calling FoFJK, ICntrl=      2127 FMM=F ISym2X=0 I1Cent= 0 IOpClX= 0 NMat=1 NMatS=1 NMatT=0.
 ***** Axes restored to original set *****
 -------------------------------------------------------------------
 Center     Atomic                   Forces (Hartrees/Bohr)
 Number     Number              X              Y              Z
 -------------------------------------------------------------------
      1        6          -0.000396606    0.000515390   -0.000181594
      2        6           0.000687797   -0.000000068   -0.000925173
      3        6          -0.000396665   -0.000515488   -0.000181558
      4        6           0.000440627   -0.000389775    0.000052397
      5        6           0.000097618    0.000000148   -0.000020406
      6        6           0.000440820    0.000389751    0.000052345
      7        7           0.000969901   -0.000000126   -0.000001857
      8        7          -0.003808862    0.000001048    0.004111786
      9        8           0.000849104    0.001092468   -0.001471047
     10        8           0.000848719   -0.001093258   -0.001470975
     11        1          -0.000031900   -0.000017248   -0.000004287
     12        1          -0.000032034    0.000017083   -0.000004292
     13        1           0.000124677   -0.000086164    0.000020752
     14        1           0.000124674    0.000086167    0.000020748
     15        1           0.000041066   -0.000022874    0.000001594
     16        1           0.000041065    0.000022946    0.000001568
 -------------------------------------------------------------------
 Cartesian Forces:  Max     0.004111786 RMS     0.000952138

 GradGradGradGradGradGradGradGradGradGradGradGradGradGradGradGradGradGrad
 Berny optimization.
 Using GEDIIS/GDIIS optimizer.
 FormGI is forming the generalized inverse of G from B-inverse, IUseBI=4.
 Internal  Forces:  Max     0.002109428 RMS     0.000575763
 Search for a local minimum.
 Step number   2 out of a maximum of   82
 All quantities printed in internal units (Hartrees-Bohrs-Radians)
 Mixed Optimization -- En-DIIS/RFO-DIIS
 Update second derivatives using D2CorX and points    1    2
 DE= -4.84D-04 DEPred=-5.53D-04 R= 8.76D-01
 TightC=F SS=  1.41D+00  RLast= 5.21D-02 DXNew= 5.0454D-01 1.5636D-01
 Trust test= 8.76D-01 RLast= 5.21D-02 DXMaxT set to 3.00D-01
 ITU=  1  0
 Use linear search instead of GDIIS.
     Eigenvalues ---    0.00972   0.01108   0.01761   0.01936   0.02004
     Eigenvalues ---    0.02067   0.02085   0.02085   0.02096   0.02144
     Eigenvalues ---    0.02156   0.02199   0.02205   0.15990   0.16000
     Eigenvalues ---    0.16000   0.16000   0.16000   0.16008   0.22000
     Eigenvalues ---    0.22975   0.24159   0.25000   0.25000   0.25000
     Eigenvalues ---    0.25031   0.35235   0.35246   0.35613   0.35617
     Eigenvalues ---    0.38262   0.40722   0.41628   0.44680   0.45850
     Eigenvalues ---    0.46562   0.46586   0.46603   0.49772   0.53217
     Eigenvalues ---    0.77855   0.88303
 RFO step:  Lambda=-6.66414308D-04 EMin= 9.72013634D-03
 Quartic linear search produced a step of -0.11344.
 Iteration  1 RMS(Cart)=  0.02947892 RMS(Int)=  0.00283801
 Iteration  2 RMS(Cart)=  0.00246028 RMS(Int)=  0.00174203
 Iteration  3 RMS(Cart)=  0.00000936 RMS(Int)=  0.00174201
 Iteration  4 RMS(Cart)=  0.00000003 RMS(Int)=  0.00174201
 Variable       Old X    -DE/DX   Delta X   Delta X   Delta X     New X
                                 (Linear)    (Quad)   (Total)
    R1        2.62895   0.00081   0.00170  -0.00937  -0.00767   2.62128
    R2        2.60789   0.00114   0.00125  -0.00594  -0.00469   2.60320
    R3        2.04593   0.00000   0.00010  -0.00067  -0.00057   2.04536
    R4        2.62895   0.00081   0.00170  -0.00937  -0.00767   2.62128
    R5        2.73712   0.00211   0.00128  -0.00332  -0.00204   2.73508
    R6        2.60789   0.00114   0.00125  -0.00594  -0.00469   2.60320
    R7        2.04593   0.00000   0.00011  -0.00068  -0.00057   2.04536
    R8        2.65738   0.00068   0.00156  -0.00872  -0.00716   2.65023
    R9        2.05093   0.00014   0.00023  -0.00114  -0.00091   2.05002
   R10        2.65738   0.00068   0.00156  -0.00872  -0.00716   2.65023
   R11        2.58168   0.00105   0.00088  -0.00383  -0.00295   2.57873
   R12        2.05093   0.00014   0.00023  -0.00114  -0.00091   2.05002
   R13        1.89970   0.00000   0.00021  -0.00137  -0.00116   1.89854
   R14        1.89970   0.00000   0.00021  -0.00137  -0.00116   1.89854
   R15        2.32039  -0.00138   0.00191  -0.01372  -0.01181   2.30859
   R16        2.32039  -0.00138   0.00191  -0.01372  -0.01181   2.30859
    A1        2.08456   0.00019   0.00027  -0.00102  -0.00075   2.08381
    A2        2.08442  -0.00013  -0.00006  -0.00022  -0.00027   2.08415
    A3        2.11421  -0.00006  -0.00022   0.00124   0.00102   2.11523
    A4        2.11338  -0.00041  -0.00053   0.00195   0.00143   2.11481
    A5        2.08490   0.00021   0.00026  -0.00098  -0.00071   2.08419
    A6        2.08490   0.00021   0.00026  -0.00098  -0.00071   2.08419
    A7        2.08456   0.00019   0.00027  -0.00102  -0.00075   2.08381
    A8        2.08442  -0.00013  -0.00006  -0.00022  -0.00027   2.08415
    A9        2.11421  -0.00006  -0.00022   0.00124   0.00102   2.11523
   A10        2.10453   0.00016   0.00013  -0.00032  -0.00019   2.10434
   A11        2.09069  -0.00001  -0.00010   0.00075   0.00065   2.09134
   A12        2.08797  -0.00014  -0.00003  -0.00043  -0.00046   2.08750
   A13        2.07480  -0.00028  -0.00028   0.00074   0.00045   2.07526
   A14        2.10419   0.00014   0.00014  -0.00037  -0.00023   2.10396
   A15        2.10419   0.00014   0.00014  -0.00037  -0.00023   2.10397
   A16        2.10453   0.00016   0.00013  -0.00032  -0.00019   2.10434
   A17        2.09069  -0.00001  -0.00010   0.00075   0.00065   2.09134
   A18        2.08796  -0.00014  -0.00003  -0.00043  -0.00046   2.08750
   A19        2.11348   0.00003   0.00016  -0.00088  -0.00072   2.11276
   A20        2.11348   0.00003   0.00016  -0.00088  -0.00072   2.11276
   A21        2.05622  -0.00006  -0.00032   0.00176   0.00144   2.05766
   A22        2.06116  -0.00015  -0.00009   0.00187  -0.00663   2.05453
   A23        2.06116  -0.00015  -0.00009   0.00186  -0.00663   2.05452
   A24        2.16056   0.00037   0.00021   0.00178  -0.00663   2.15394
    D1        0.00032  -0.00007  -0.00005  -0.00262  -0.00267  -0.00236
    D2       -3.14144  -0.00004  -0.00002  -0.00119  -0.00121   3.14053
    D3       -3.14147  -0.00003  -0.00002  -0.00112  -0.00114   3.14058
    D4       -0.00004   0.00001   0.00001   0.00031   0.00032   0.00027
    D5       -0.00015   0.00003   0.00002   0.00124   0.00126   0.00111
    D6        3.14142   0.00004   0.00003   0.00136   0.00139  -3.14038
    D7       -3.14155  -0.00001  -0.00001  -0.00029  -0.00030   3.14134
    D8        0.00003  -0.00001  -0.00000  -0.00017  -0.00017  -0.00015
    D9       -0.00032   0.00007   0.00005   0.00262   0.00267   0.00236
   D10        3.14147   0.00003   0.00002   0.00112   0.00114  -3.14058
   D11        3.14144   0.00004   0.00002   0.00119   0.00121  -3.14053
   D12        0.00004  -0.00001  -0.00001  -0.00031  -0.00032  -0.00027
   D13       -3.12877  -0.00150  -0.00161  -0.11622  -0.11700   3.03742
   D14       -0.01265   0.00147   0.00158   0.11481   0.11556   0.10291
   D15        0.01265  -0.00147  -0.00158  -0.11481  -0.11557  -0.10291
   D16        3.12877   0.00150   0.00161   0.11622   0.11700  -3.03741
   D17        0.00015  -0.00003  -0.00002  -0.00124  -0.00126  -0.00111
   D18       -3.14142  -0.00004  -0.00003  -0.00136  -0.00138   3.14038
   D19        3.14155   0.00001   0.00001   0.00029   0.00030  -3.14134
   D20       -0.00003   0.00001   0.00000   0.00017   0.00017   0.00015
   D21        0.00001  -0.00000  -0.00000  -0.00010  -0.00010  -0.00009
   D22       -3.14158  -0.00000  -0.00000  -0.00010  -0.00010   3.14150
   D23        3.14158   0.00000   0.00000   0.00002   0.00002  -3.14158
   D24       -0.00001   0.00000   0.00000   0.00002   0.00002   0.00001
   D25       -0.00001   0.00000   0.00000   0.00010   0.00010   0.00009
   D26       -3.14158  -0.00000  -0.00000  -0.00002  -0.00002   3.14158
   D27        3.14158   0.00000   0.00000   0.00010   0.00010  -3.14150
   D28        0.00001  -0.00000  -0.00000  -0.00002  -0.00002  -0.00001
   D29        3.14157   0.00000   0.00000   0.00005   0.00005  -3.14156
   D30        0.00002  -0.00000  -0.00000  -0.00005  -0.00005  -0.00003
   D31       -0.00002   0.00000   0.00000   0.00005   0.00005   0.00003
   D32       -3.14158  -0.00000  -0.00000  -0.00005  -0.00005   3.14156
         Item               Value     Threshold  Converged?
 Maximum Force            0.002109     0.000450     NO 
 RMS     Force            0.000576     0.000300     NO 
 Maximum Displacement     0.130136     0.001800     NO 
 RMS     Displacement     0.029693     0.001200     NO 
 Predicted change in Energy=-3.501935D-04
 GradGradGradGradGradGradGradGradGradGradGradGradGradGradGradGradGradGrad

                          Input orientation:                          
 ---------------------------------------------------------------------
 Center     Atomic      Atomic             Coordinates (Angstroms)
 Number     Number       Type             X           Y           Z
 ---------------------------------------------------------------------
      1          6           0       -0.018998    1.208299    0.020019
      2          6           0       -0.700211    0.000000    0.028310
      3          6           0       -0.018998   -1.208299    0.020090
      4          6           0        1.358485   -1.207782    0.006223
      5          6           0        2.071260    0.000001   -0.000932
      6          6           0        1.358484    1.207783    0.006153
      7          7           0        3.435798   -0.000000   -0.014560
      8          7           0       -2.147467    0.000001    0.044224
      9          8           0       -2.716838   -1.075695   -0.061272
     10          8           0       -2.716828    1.075694   -0.061337
     11          1           0       -0.579209    2.134382    0.025822
     12          1           0       -0.579206   -2.134381    0.025947
     13          1           0        1.898355   -2.148717    0.000871
     14          1           0        1.898352    2.148718    0.000745
     15          1           0        3.953999    0.860691   -0.019734
     16          1           0        3.954001   -0.860692   -0.019683
 ---------------------------------------------------------------------
                    Distance matrix (angstroms):
                    1          2          3          4          5
     1  C    0.000000
     2  C    1.387121   0.000000
     3  C    2.416599   1.387122   0.000000
     4  C    2.781205   2.386934   1.377553   0.000000
     5  C    2.414457   2.771625   2.414458   1.402440   0.000000
     6  C    1.377552   2.386934   2.781206   2.415566   1.402440
     7  N    3.660164   4.136231   3.660164   2.402998   1.364606
     8  N    2.447641   1.447344   2.447643   3.708354   4.218968
     9  O    3.535756   2.287341   2.702322   4.078021   4.907814
    10  O    2.702312   2.287335   3.535753   4.671939   4.907805
    11  H    1.082357   2.137810   3.389305   3.863302   3.403128
    12  H    3.389303   2.137810   1.082356   2.147934   3.403127
    13  H    3.866027   3.371985   2.135648   1.084825   2.155664
    14  H    2.135648   3.371985   3.866028   3.399644   2.155663
    15  H    3.988374   4.733368   4.479622   3.319029   2.070230
    16  H    4.479623   4.733369   3.988374   2.618749   2.070231
                    6          7          8          9         10
     6  C    0.000000
     7  N    2.402999   0.000000
     8  N    3.708353   5.583575   0.000000
     9  O    4.671944   6.246137   1.221652   0.000000
    10  O    4.078011   6.246128   1.221651   2.151389   0.000000
    11  H    2.147935   4.547251   2.648651   3.857672   2.387014
    12  H    3.863301   4.547249   2.648653   2.387026   3.857672
    13  H    3.399645   2.642149   4.581216   4.738696   5.630330
    14  H    1.084825   2.642151   4.581215   5.630334   4.738684
    15  H    2.618749   1.004664   6.162205   6.946322   6.674421
    16  H    3.319030   1.004664   6.162206   6.674432   6.946314
                   11         12         13         14         15
    11  H    0.000000
    12  H    4.268763   0.000000
    13  H    4.948118   2.477729   0.000000
    14  H    2.477730   4.948117   4.297435   0.000000
    15  H    4.708964   5.433460   3.644535   2.425926   0.000000
    16  H    5.433463   4.708962   2.425925   3.644537   1.721383
                   16
    16  H    0.000000
 Stoichiometry    C6H6N2O2
 Framework group  C1[X(C6H6N2O2)]
 Deg. of freedom    42
 Full point group                 C1      NOp   1
 Largest Abelian subgroup         C1      NOp   1
 Largest concise Abelian subgroup C1      NOp   1
                         Standard orientation:                         
 ---------------------------------------------------------------------
 Center     Atomic      Atomic             Coordinates (Angstroms)
 Number     Number       Type             X           Y           Z
 ---------------------------------------------------------------------
      1          6           0        0.024384   -1.208298    0.024053
      2          6           0        0.705553    0.000001    0.035335
      3          6           0        0.024383    1.208300    0.024053
      4          6           0       -1.353025    1.207783    0.004067
      5          6           0       -2.065761   -0.000000   -0.006218
      6          6           0       -1.353024   -1.207783    0.004068
      7          7           0       -3.430225    0.000000   -0.025908
      8          7           0        2.152724    0.000000    0.057678
      9          8           0        2.722558    1.075693   -0.045320
     10          8           0        2.722548   -1.075696   -0.045322
     11          1           0        0.584562   -2.134381    0.032373
     12          1           0        0.584559    2.134382    0.032371
     13          1           0       -1.892865    2.148717   -0.003712
     14          1           0       -1.892863   -2.148717   -0.003710
     15          1           0       -3.948398   -0.860691   -0.033359
     16          1           0       -3.948400    0.860691   -0.033358
 ---------------------------------------------------------------------
 Rotational constants (GHZ):      3.9730128      0.8331105      0.6889884
 Standard basis: 6-31+G(d,p) (6D, 7F)
 There are   220 symmetry adapted cartesian basis functions of A   symmetry.
 There are   220 symmetry adapted basis functions of A   symmetry.
   220 basis functions,   362 primitive gaussians,   220 cartesian basis functions
    36 alpha electrons       36 beta electrons
       nuclear repulsion energy       498.2857466284 Hartrees.
 NAtoms=   16 NActive=   16 NUniq=   16 SFac= 1.00D+00 NAtFMM=   60 NAOKFM=F Big=F
 Integral buffers will be    131072 words long.
 Raffenetti 2 integral format.
 Two-electron integral symmetry is turned on.
 One-electron integrals computed using PRISM.
 NBasis=   220 RedAO= T EigKep=  3.07D-06  NBF=   220
 NBsUse=   220 1.00D-06 EigRej= -1.00D+00 NBFU=   220
 Initial guess from the checkpoint file:  "camb3lyp4NiAn.chk"
 B after Tr=    -0.000000   -0.000000   -0.000000
         Rot=    1.000000   -0.000000   -0.000007    0.000000 Ang=  -0.00 deg.
 ExpMin= 4.38D-02 ExpMax= 5.48D+03 ExpMxC= 8.25D+02 IAcc=2 IRadAn=         4 AccDes= 0.00D+00
 Harris functional with IExCor=20419 and IRadAn=       4 diagonalized for initial guess.
 HarFok:  IExCor=20419 AccDes= 0.00D+00 IRadAn=         4 IDoV= 1 UseB2=F ITyADJ=14
 ICtDFT=  3500011 ScaDFX=  1.000000  1.000000  1.000000  1.000000
 FoFCou: FMM=F IPFlag=           0 FMFlag=      100000 FMFlg1=           0
         NFxFlg=           0 DoJE=T BraDBF=F KetDBF=T FulRan=T
         wScrn=  0.000000 ICntrl=     500 IOpCl=  0 I1Cent=   200000004 NGrid=           0
         NMat0=    1 NMatS0=      1 NMatT0=    0 NMatD0=    1 NMtDS0=    0 NMtDT0=    0
 Petite list used in FoFCou.
 Keep R1 ints in memory in canonical form, NReq=596566580.
 Requested convergence on RMS density matrix=1.00D-08 within 128 cycles.
 Requested convergence on MAX density matrix=1.00D-06.
 Requested convergence on             energy=1.00D-06.
 No special actions if energy rises.
 SCF Done:  E(RCAM-B3LYP) =  -491.911948401     A.U. after   14 cycles
            NFock= 14  Conv=0.32D-08     -V/T= 2.0086
 Calling FoFJK, ICntrl=      2127 FMM=F ISym2X=0 I1Cent= 0 IOpClX= 0 NMat=1 NMatS=1 NMatT=0.
 ***** Axes restored to original set *****
 -------------------------------------------------------------------
 Center     Atomic                   Forces (Hartrees/Bohr)
 Number     Number              X              Y              Z
 -------------------------------------------------------------------
      1        6          -0.001045137    0.003363799    0.001426424
      2        6           0.000140525   -0.000000654    0.007941242
      3        6          -0.001044572   -0.003362375    0.001426555
      4        6           0.001339766   -0.002953790   -0.000430205
      5        6           0.001703331   -0.000000270    0.000140637
      6        6           0.001340062    0.002953175   -0.000430400
      7        7           0.002344974    0.000000475    0.000002633
      8        7           0.003854015   -0.000001375   -0.032658352
      9        8          -0.005020742   -0.009589705    0.011431042
     10        8          -0.005022528    0.009591447    0.011430329
     11        1          -0.000031305    0.000222604    0.000043022
     12        1          -0.000031955   -0.000223535    0.000043066
     13        1           0.000258472   -0.000471355   -0.000165293
     14        1           0.000258613    0.000471726   -0.000165322
     15        1           0.000478291    0.000334231   -0.000017694
     16        1           0.000478190   -0.000334400   -0.000017684
 -------------------------------------------------------------------
 Cartesian Forces:  Max     0.032658352 RMS     0.005951783

 GradGradGradGradGradGradGradGradGradGradGradGradGradGradGradGradGradGrad
 Berny optimization.
 Using GEDIIS/GDIIS optimizer.
 FormGI is forming the generalized inverse of G from B-inverse, IUseBI=4.
 Internal  Forces:  Max     0.012635185 RMS     0.003714600
 Search for a local minimum.
 Step number   3 out of a maximum of   82
 All quantities printed in internal units (Hartrees-Bohrs-Radians)
 Mixed Optimization -- RFO/linear search
 Update second derivatives using D2CorX and points    1    3    2
 DE=  2.75D-03 DEPred=-3.50D-04 R=-7.85D+00
 Trust test=-7.85D+00 RLast= 2.34D-01 DXMaxT set to 1.50D-01
 ITU= -1  1  0
 Use linear search instead of GDIIS.
 Energy rises -- skip Quadratic/GDIIS search.
 Quartic linear search produced a step of -0.89769.
 Iteration  1 RMS(Cart)=  0.02675166 RMS(Int)=  0.00179814
 Iteration  2 RMS(Cart)=  0.00194504 RMS(Int)=  0.00015912
 Iteration  3 RMS(Cart)=  0.00000542 RMS(Int)=  0.00015906
 Iteration  4 RMS(Cart)=  0.00000000 RMS(Int)=  0.00015906
 Variable       Old X    -DE/DX   Delta X   Delta X   Delta X     New X
                                 (Linear)    (Quad)   (Total)
    R1        2.62128   0.00469   0.00689   0.00000   0.00689   2.62817
    R2        2.60320   0.00411   0.00421   0.00000   0.00421   2.60741
    R3        2.04536   0.00021   0.00051   0.00000   0.00051   2.04587
    R4        2.62128   0.00469   0.00689   0.00000   0.00689   2.62817
    R5        2.73508   0.00608   0.00183   0.00000   0.00183   2.73691
    R6        2.60320   0.00411   0.00421   0.00000   0.00421   2.60741
    R7        2.04536   0.00021   0.00051   0.00000   0.00051   2.04587
    R8        2.65023   0.00414   0.00642   0.00000   0.00642   2.65665
    R9        2.05002   0.00054   0.00081   0.00000   0.00081   2.05084
   R10        2.65023   0.00414   0.00642   0.00000   0.00642   2.65665
   R11        2.57873   0.00330   0.00265   0.00000   0.00265   2.58138
   R12        2.05002   0.00054   0.00082   0.00000   0.00082   2.05084
   R13        1.89854   0.00053   0.00104   0.00000   0.00104   1.89958
   R14        1.89854   0.00053   0.00104   0.00000   0.00104   1.89958
   R15        2.30859   0.00980   0.01060   0.00000   0.01060   2.31919
   R16        2.30859   0.00980   0.01060   0.00000   0.01060   2.31919
    A1        2.08381   0.00045   0.00067   0.00000   0.00067   2.08449
    A2        2.08415  -0.00013   0.00024   0.00000   0.00024   2.08439
    A3        2.11523  -0.00031  -0.00092   0.00000  -0.00092   2.11431
    A4        2.11481  -0.00104  -0.00128   0.00000  -0.00128   2.11353
    A5        2.08419   0.00052   0.00064   0.00000   0.00064   2.08483
    A6        2.08419   0.00052   0.00064   0.00000   0.00064   2.08483
    A7        2.08381   0.00045   0.00067   0.00000   0.00067   2.08449
    A8        2.08415  -0.00013   0.00024   0.00000   0.00024   2.08439
    A9        2.11523  -0.00031  -0.00092   0.00000  -0.00092   2.11431
   A10        2.10434   0.00032   0.00017   0.00000   0.00017   2.10451
   A11        2.09134  -0.00017  -0.00059   0.00000  -0.00059   2.09076
   A12        2.08750  -0.00015   0.00042   0.00000   0.00042   2.08792
   A13        2.07526  -0.00050  -0.00041   0.00000  -0.00041   2.07485
   A14        2.10396   0.00025   0.00021   0.00000   0.00020   2.10417
   A15        2.10397   0.00025   0.00020   0.00000   0.00020   2.10417
   A16        2.10434   0.00032   0.00017   0.00000   0.00017   2.10451
   A17        2.09134  -0.00017  -0.00059   0.00000  -0.00059   2.09076
   A18        2.08750  -0.00015   0.00042   0.00000   0.00042   2.08792
   A19        2.11276   0.00015   0.00065   0.00000   0.00065   2.11341
   A20        2.11276   0.00015   0.00064   0.00000   0.00064   2.11341
   A21        2.05766  -0.00030  -0.00129   0.00000  -0.00129   2.05637
   A22        2.05453   0.00215   0.00595   0.00000   0.00673   2.06126
   A23        2.05452   0.00215   0.00596   0.00000   0.00673   2.06126
   A24        2.15394   0.00063   0.00595   0.00000   0.00673   2.16066
    D1       -0.00236   0.00056   0.00240   0.00000   0.00240   0.00004
    D2        3.14053   0.00031   0.00109   0.00000   0.00109  -3.14157
    D3        3.14058   0.00022   0.00102   0.00000   0.00102  -3.14158
    D4        0.00027  -0.00003  -0.00028   0.00000  -0.00028  -0.00001
    D5        0.00111  -0.00027  -0.00113   0.00000  -0.00113  -0.00002
    D6       -3.14038  -0.00030  -0.00124   0.00000  -0.00124   3.14156
    D7        3.14134   0.00008   0.00027   0.00000   0.00027  -3.14158
    D8       -0.00015   0.00004   0.00016   0.00000   0.00016   0.00001
    D9        0.00236  -0.00056  -0.00240   0.00000  -0.00240  -0.00004
   D10       -3.14058  -0.00022  -0.00102   0.00000  -0.00103   3.14158
   D11       -3.14053  -0.00031  -0.00109   0.00000  -0.00109   3.14157
   D12       -0.00027   0.00003   0.00028   0.00000   0.00028   0.00001
   D13        3.03742   0.01264   0.10503   0.00000   0.10503  -3.14074
   D14        0.10291  -0.01239  -0.10374   0.00000  -0.10374  -0.00083
   D15       -0.10291   0.01239   0.10374   0.00000   0.10374   0.00083
   D16       -3.03741  -0.01264  -0.10503   0.00000  -0.10503   3.14074
   D17       -0.00111   0.00027   0.00113   0.00000   0.00113   0.00002
   D18        3.14038   0.00030   0.00124   0.00000   0.00124  -3.14156
   D19       -3.14134  -0.00008  -0.00027   0.00000  -0.00027   3.14158
   D20        0.00015  -0.00004  -0.00016   0.00000  -0.00016  -0.00001
   D21       -0.00009   0.00001   0.00009   0.00000   0.00009   0.00000
   D22        3.14150   0.00002   0.00009   0.00000   0.00009   3.14159
   D23       -3.14158  -0.00002  -0.00002   0.00000  -0.00002   3.14159
   D24        0.00001  -0.00001  -0.00002   0.00000  -0.00002  -0.00001
   D25        0.00009  -0.00001  -0.00009   0.00000  -0.00009  -0.00000
   D26        3.14158   0.00002   0.00002   0.00000   0.00002  -3.14159
   D27       -3.14150  -0.00002  -0.00009   0.00000  -0.00009  -3.14159
   D28       -0.00001   0.00001   0.00002   0.00000   0.00002   0.00001
   D29       -3.14156  -0.00001  -0.00005   0.00000  -0.00005   3.14158
   D30       -0.00003   0.00001   0.00005   0.00000   0.00005   0.00001
   D31        0.00003  -0.00001  -0.00005   0.00000  -0.00005  -0.00002
   D32        3.14156   0.00001   0.00004   0.00000   0.00004  -3.14158
         Item               Value     Threshold  Converged?
 Maximum Force            0.012635     0.000450     NO 
 RMS     Force            0.003715     0.000300     NO 
 Maximum Displacement     0.116802     0.001800     NO 
 RMS     Displacement     0.026688     0.001200     NO 
 Predicted change in Energy=-8.892878D-05
 GradGradGradGradGradGradGradGradGradGradGradGradGradGradGradGradGradGrad

                          Input orientation:                          
 ---------------------------------------------------------------------
 Center     Atomic      Atomic             Coordinates (Angstroms)
 Number     Number       Type             X           Y           Z
 ---------------------------------------------------------------------
      1          6           0       -0.019132    1.211036   -0.000136
      2          6           0       -0.702959   -0.000001   -0.000186
      3          6           0       -0.019131   -1.211037   -0.000065
      4          6           0        1.360652   -1.210565    0.000056
      5          6           0        2.075437   -0.000000    0.000084
      6          6           0        1.360651    1.210564   -0.000014
      7          7           0        3.441444    0.000001    0.000206
      8          7           0       -2.151271   -0.000000   -0.000343
      9          8           0       -2.729357   -1.082581    0.000537
     10          8           0       -2.729350    1.082586    0.000471
     11          1           0       -0.578693    2.137844   -0.000226
     12          1           0       -0.578691   -2.137846   -0.000100
     13          1           0        1.900179   -2.152208    0.000125
     14          1           0        1.900178    2.152208   -0.000001
     15          1           0        3.960510    0.860830    0.000214
     16          1           0        3.960511   -0.860828    0.000266
 ---------------------------------------------------------------------
                    Distance matrix (angstroms):
                    1          2          3          4          5
     1  C    0.000000
     2  C    1.390766   0.000000
     3  C    2.422073   1.390766   0.000000
     4  C    2.787105   2.392479   1.379783   0.000000
     5  C    2.419468   2.778395   2.419468   1.405839   0.000000
     6  C    1.379783   2.392478   2.787104   2.421129   1.405840
     7  N    3.666359   4.144403   3.666359   2.407315   1.366007
     8  N    2.452065   1.448312   2.452067   3.714710   4.226707
     9  O    3.550493   2.297449   2.713269   4.092011   4.925243
    10  O    2.713261   2.297446   3.550492   4.688993   4.925238
    11  H    1.082627   2.141454   3.395308   3.869483   3.408046
    12  H    3.395308   2.141453   1.082627   2.149628   3.408046
    13  H    3.872359   3.377621   2.137652   1.085256   2.159332
    14  H    2.137651   3.377621   3.872359   3.405778   2.159332
    15  H    3.995021   4.742254   4.486666   3.324145   2.072325
    16  H    4.486666   4.742254   3.995021   2.623277   2.072325
                    6          7          8          9         10
     6  C    0.000000
     7  N    2.407315   0.000000
     8  N    3.714708   5.592715   0.000000
     9  O    4.688996   6.265043   1.227260   0.000000
    10  O    4.092003   6.265037   1.227260   2.165167   0.000000
    11  H    2.149628   4.553227   2.653937   3.872531   2.395600
    12  H    3.869483   4.553226   2.653939   2.395610   3.872533
    13  H    3.405779   2.647168   4.587619   4.751495   5.647693
    14  H    1.085256   2.647168   4.587617   5.647694   4.751486
    15  H    2.623277   1.005214   6.172106   6.966431   6.693535
    16  H    3.324145   1.005214   6.172106   6.693542   6.966426
                   11         12         13         14         15
    11  H    0.000000
    12  H    4.275690   0.000000
    13  H    4.954730   2.478912   0.000000
    14  H    2.478912   4.954730   4.304415   0.000000
    15  H    4.715414   5.440257   3.650118   2.431589   0.000000
    16  H    5.440258   4.715414   2.431590   3.650117   1.721658
                   16
    16  H    0.000000
 Stoichiometry    C6H6N2O2
 Framework group  C1[X(C6H6N2O2)]
 Deg. of freedom    42
 Full point group                 C1      NOp   1
 Largest Abelian subgroup         C1      NOp   1
 Largest concise Abelian subgroup C1      NOp   1
                         Standard orientation:                         
 ---------------------------------------------------------------------
 Center     Atomic      Atomic             Coordinates (Angstroms)
 Number     Number       Type             X           Y           Z
 ---------------------------------------------------------------------
      1          6           0        0.022724   -1.211036   -0.000217
      2          6           0        0.706551    0.000001   -0.000267
      3          6           0        0.022723    1.211038   -0.000146
      4          6           0       -1.357060    1.210565   -0.000024
      5          6           0       -2.071844    0.000000    0.000003
      6          6           0       -1.357058   -1.210564   -0.000095
      7          7           0       -3.437852   -0.000001    0.000125
      8          7           0        2.154863    0.000001   -0.000424
      9          8           0        2.732949    1.082582    0.000456
     10          8           0        2.732943   -1.082585    0.000390
     11          1           0        0.582285   -2.137844   -0.000306
     12          1           0        0.582283    2.137846   -0.000181
     13          1           0       -1.896587    2.152208    0.000044
     14          1           0       -1.896585   -2.152208   -0.000082
     15          1           0       -3.956917   -0.860830    0.000133
     16          1           0       -3.956918    0.860828    0.000185
 ---------------------------------------------------------------------
 Rotational constants (GHZ):      3.9512389      0.8286647      0.6850038
 Standard basis: 6-31+G(d,p) (6D, 7F)
 There are   220 symmetry adapted cartesian basis functions of A   symmetry.
 There are   220 symmetry adapted basis functions of A   symmetry.
   220 basis functions,   362 primitive gaussians,   220 cartesian basis functions
    36 alpha electrons       36 beta electrons
       nuclear repulsion energy       496.9714139676 Hartrees.
 NAtoms=   16 NActive=   16 NUniq=   16 SFac= 1.00D+00 NAtFMM=   60 NAOKFM=F Big=F
 Integral buffers will be    131072 words long.
 Raffenetti 2 integral format.
 Two-electron integral symmetry is turned on.
 One-electron integrals computed using PRISM.
 NBasis=   220 RedAO= T EigKep=  3.13D-06  NBF=   220
 NBsUse=   220 1.00D-06 EigRej= -1.00D+00 NBFU=   220
 Lowest energy guess from the checkpoint file:  "camb3lyp4NiAn.chk"
 B after Tr=    -0.000000   -0.000000   -0.000000
         Rot=    1.000000   -0.000015    0.000011    0.000000 Ang=  -0.00 deg.
 B after Tr=     0.000000    0.000000    0.000000
         Rot=    1.000000   -0.000015    0.000019   -0.000000 Ang=  -0.00 deg.
 Keep R1 ints in memory in canonical form, NReq=596566580.
 Requested convergence on RMS density matrix=1.00D-08 within 128 cycles.
 Requested convergence on MAX density matrix=1.00D-06.
 Requested convergence on             energy=1.00D-06.
 No special actions if energy rises.
 SCF Done:  E(RCAM-B3LYP) =  -491.914731361     A.U. after   10 cycles
            NFock= 10  Conv=0.54D-08     -V/T= 2.0089
 Calling FoFJK, ICntrl=      2127 FMM=F ISym2X=0 I1Cent= 0 IOpClX= 0 NMat=1 NMatS=1 NMatT=0.
 ***** Axes restored to original set *****
 -------------------------------------------------------------------
 Center     Atomic                   Forces (Hartrees/Bohr)
 Number     Number              X              Y              Z
 -------------------------------------------------------------------
      1        6          -0.000460967    0.000810089   -0.000014185
      2        6           0.000469891   -0.000000127   -0.000059323
      3        6          -0.000460961   -0.000810031   -0.000014157
      4        6           0.000523171   -0.000657897    0.000003762
      5        6           0.000271123    0.000000106   -0.000001066
      6        6           0.000523374    0.000657812    0.000003713
      7        7           0.001096990   -0.000000065   -0.000000148
      8        7          -0.003248005    0.000000806    0.000271009
      9        8           0.000453992    0.000256716   -0.000096762
     10        8           0.000453466   -0.000257254   -0.000096748
     11        1          -0.000035200    0.000009396    0.000000150
     12        1          -0.000035385   -0.000009639    0.000000153
     13        1           0.000138209   -0.000125248    0.000001746
     14        1           0.000138220    0.000125288    0.000001733
     15        1           0.000086047    0.000014463    0.000000066
[...]
 ! A23   A(2,8,10)             118.0171         -DE/DX =    0.0001              !
 ! A24   A(9,8,10)             123.9658         -DE/DX =   -0.0001              !
 ! D1    D(6,1,2,3)             -0.0002         -DE/DX =    0.0                 !
 ! D2    D(6,1,2,8)           -179.9999         -DE/DX =    0.0                 !
 ! D3    D(11,1,2,3)           179.9998         -DE/DX =    0.0                 !
 ! D4    D(11,1,2,8)             0.0001         -DE/DX =    0.0                 !
 ! D5    D(2,1,6,5)              0.0001         -DE/DX =    0.0                 !
 ! D6    D(2,1,6,14)          -180.0            -DE/DX =    0.0                 !
 ! D7    D(11,1,6,5)          -179.9999         -DE/DX =    0.0                 !
 ! D8    D(11,1,6,14)            0.0001         -DE/DX =    0.0                 !
 ! D9    D(1,2,3,4)              0.0001         -DE/DX =    0.0                 !
 ! D10   D(1,2,3,12)          -179.9998         -DE/DX =    0.0                 !
 ! D11   D(8,2,3,4)            179.9999         -DE/DX =    0.0                 !
 ! D12   D(8,2,3,12)            -0.0001         -DE/DX =    0.0                 !
 ! D13   D(1,2,8,9)           -180.0127         -DE/DX =    0.0                 !
 ! D14   D(1,2,8,10)             0.0126         -DE/DX =    0.0                 !
 ! D15   D(3,2,8,9)             -0.0124         -DE/DX =    0.0                 !
 ! D16   D(3,2,8,10)          -179.9872         -DE/DX =    0.0                 !
 ! D17   D(2,3,4,5)             -0.0001         -DE/DX =    0.0                 !
 ! D18   D(2,3,4,13)           180.0            -DE/DX =    0.0                 !
 ! D19   D(12,3,4,5)           179.9999         -DE/DX =    0.0                 !
 ! D20   D(12,3,4,13)           -0.0001         -DE/DX =    0.0                 !
 ! D21   D(3,4,5,6)              0.0            -DE/DX =    0.0                 !
 ! D22   D(3,4,5,7)            179.9998         -DE/DX =    0.0                 !
 ! D23   D(13,4,5,6)          -180.0            -DE/DX =    0.0                 !
 ! D24   D(13,4,5,7)            -0.0002         -DE/DX =    0.0                 !
 ! D25   D(4,5,6,1)              0.0            -DE/DX =    0.0                 !
 ! D26   D(4,5,6,14)           180.0            -DE/DX =    0.0                 !
 ! D27   D(7,5,6,1)           -179.9998         -DE/DX =    0.0                 !
 ! D28   D(7,5,6,14)             0.0002         -DE/DX =    0.0                 !
 ! D29   D(4,5,7,15)           179.9991         -DE/DX =    0.0                 !
 ! D30   D(4,5,7,16)             0.001          -DE/DX =    0.0                 !
 ! D31   D(6,5,7,15)            -0.0011         -DE/DX =    0.0                 !
 ! D32   D(6,5,7,16)          -179.9992         -DE/DX =    0.0                 !
 --------------------------------------------------------------------------------
 GradGradGradGradGradGradGradGradGradGradGradGradGradGradGradGradGradGrad

 1\1\ WCSS.PL-BEM-QINLAB\Freq\RCAM-B3LYP\6-31+G(d,p)\C6H6N2O2\PHZD\20-J
 un-2024\0\\#N Geom=AllCheck Guess=TCheck SCRF=Check GenChk RCAM-B3LYP/
 6-31+G(d,p) Freq\\[No Title]\\0,1\C,-0.0196077571,1.2115771296,0.00005
 84139\C,-0.7046250063,-0.0000000841,0.0001027204\C,-0.0196075849,-1.21
 15772331,0.000129378\C,1.3615613897,-1.2111080196,0.000114689\C,2.0774
 996503,0.0000000961,0.0000715327\C,1.3615611579,1.2111081245,0.0000438
 396\N,3.4447775876,0.0000002852,0.0000603872\N,-2.1568906044,0.0000001
 473,0.0001157969\O,-2.7330754267,-1.0828650839,-0.0000846163\O,-2.7330
 743443,1.0828659504,-0.0001504829\H,-0.5789129706,2.1386424866,0.00003
 52838\H,-0.5789125777,-2.138642688,0.0001606128\H,1.9011398221,-2.1530
 122233,0.0001356581\H,1.9011395045,2.1530123795,0.0000096664\H,3.96400
 29493,0.8607960727,0.0000161886\H,3.9640032105,-0.86079534,0.000067931
 8\\Version=ES64L-G09RevE.01\State=1-A\HF=-491.9147526\RMSD=3.365e-09\R
 MSF=5.678e-05\ZeroPoint=0.1204025\Thermal=0.1282962\Dipole=2.9900469,-
 0.0000005,0.0001934\DipoleDeriv=0.5712727,0.1147475,-0.000002,0.311703
 4,0.0777474,0.0000025,0.0000195,-0.0000143,-0.0383157,-1.1430729,0.,-0
 .0000264,0.,-0.2037999,0.0000057,0.0000936,0.0000057,-0.0115845,0.5712
 73,-0.1147474,0.0000046,-0.3117033,0.0777476,-0.0000092,0.0000382,0.00
 00073,-0.0383155,-0.6876495,-0.0259918,-0.0000054,-0.5927597,0.0110768
 ,-0.0000056,0.0000295,-0.0000037,-0.2115158,2.1777726,0.0000002,0.0000
 003,0.0000004,0.1291817,0.0000011,-0.0000189,0.000001,0.1610232,-0.687
 6495,0.0259917,-0.0000069,0.5927595,0.0110769,-0.0000074,-0.0000057,-0
 .0000095,-0.2115158,-1.9534753,-0.0000002,-0.0000084,-0.0000002,-0.166
 3466,-0.0000138,-0.0000099,-0.0000138,-0.6273314,2.4905576,0.0000005,0
 .0000351,0.0000002,1.6502722,-0.0000425,0.0000552,-0.0000424,0.2623836
 ,-0.9910755,-0.3955638,0.0000122,-0.4580667,-0.9801311,0.0000614,-0.00
 0089,-0.0001344,-0.2677858,-0.991075,0.3955633,-0.000012,0.4580665,-0.
 9801317,-0.0000178,-0.0001167,0.0001778,-0.2677858,0.1113524,0.0353535
 ,0.0000011,0.0229666,0.0628697,0.0000007,0.0000009,0.0000037,0.1398555
 ,0.1113523,-0.0353535,0.0000031,-0.0229666,0.0628696,0.0000038,0.00000
 21,0.0000009,0.1398555,-0.0062854,0.075588,-0.0000025,0.0740197,-0.028
 1465,0.0000042,-0.0000117,0.0000001,0.1478569,-0.0062854,-0.075588,0.0
 000019,-0.0740197,-0.0281465,0.0000061,-0.0000072,0.0000103,0.1478568,
 0.216494,0.0482067,0.0000013,0.0874528,0.1519302,0.0000076,0.0000077,0
 .0000069,0.3376594,0.216494,-0.0482067,0.0000042,-0.0874528,0.1519302,
 0.0000035,0.0000123,0.0000042,0.3376594\Polar=146.4780758,0.0000046,97
 .9275085,0.0018485,-0.0014182,50.005613\PG=C01 [X(C6H6N2O2)]\NImag=1\\
 0.74026545,-0.04100813,0.74439144,-0.00000650,-0.00001775,0.14287306,-
 0.15100954,-0.11140355,0.00000608,0.59049991,-0.04962979,-0.29930942,0
 .00000796,-0.00000001,0.77311050,0.00000533,0.00000830,-0.05945487,0.0
 0000727,-0.00001907,0.12436555,0.05867276,0.02471860,-0.00000170,-0.15
 100955,0.04962976,0.00000244,0.74026515,-0.02471858,-0.05878233,0.0000
 0302,0.11140350,-0.29930933,0.00000574,0.04100822,0.74439147,-0.000000
 27,0.00000072,0.00541193,-0.00000045,0.00000610,-0.05945478,-0.0000089
 4,-0.00001744,0.14287297,-0.04708287,-0.03283336,0.00000176,-0.0394143
 7,0.07705988,-0.00000218,-0.38228757,-0.03371766,0.00000567,0.74866788
 ,-0.02077645,-0.01809153,0.00000081,0.01844406,0.03327618,-0.00000205,
 0.03595851,-0.13350980,0.00000214,-0.04188924,0.70965409,0.00000146,0.
 00000137,-0.00162385,0.00000078,-0.00000224,0.00561593,0.00000237,0.00
 000313,-0.05794685,-0.00000558,-0.00001539,0.12487294,-0.03463790,0.03
 018200,-0.00000112,0.01927385,0.,-0.00000021,-0.03463789,-0.03018201,0
 .00000065,-0.15946598,-0.09815927,0.00000390,0.75345565,0.08277921,0.0
 4595670,-0.00000227,0.00000001,-0.07905291,0.00000220,-0.08277923,0.04
 595667,-0.00000043,-0.03155683,-0.27723748,0.00000558,0.00000006,0.703
 00504,-0.00000263,-0.00000227,-0.00005283,-0.00000012,0.00000218,-0.00
 435235,0.00000220,-0.00000041,-0.00005285,0.00000258,0.00000710,-0.070
 37595,-0.00000674,-0.00001565,0.16957574,-0.38228776,0.03371763,0.0000
 0366,-0.03941436,-0.07705989,0.00000232,-0.04708288,0.03283335,-0.0000
 0016,0.06023066,0.01614406,-0.00000153,-0.15946598,0.03155682,0.000000
 73,0.74866806,-0.03595855,-0.13350979,0.00000226,-0.01844407,0.0332761
 6,0.00000042,0.02077645,-0.01809152,0.00000015,-0.01614404,-0.04265214
 ,0.00000150,0.09815926,-0.27723740,0.00000500,0.04188929,0.70965400,0.
 00000448,0.00000126,-0.05794686,0.00000187,0.00000062,0.00561592,0.000
 00023,-0.00000040,-0.00162382,-0.00000060,0.00000134,0.00643734,-0.000
 00184,0.00000653,-0.07037595,-0.00000801,-0.00001877,0.12487292,0.0126
 5759,0.00210495,0.00000043,-0.02050069,0.,-0.00000006,0.01265759,-0.00
 210494,0.00000056,-0.04663464,-0.01970720,0.00000120,-0.36102756,-0.00
 000003,0.00000275,-0.04663466,0.01970719,0.00000003,0.79379966,-0.0069
 2931,-0.01086302,0.00000062,0.,0.00822747,-0.00000027,0.00692931,-0.01
 086302,0.00000028,-0.05081334,0.00175384,0.00000083,-0.00000003,-0.133
 25105,0.00000281,0.05081333,0.00175385,-0.00000033,-0.00000003,0.88952
 552,0.00000050,0.00000055,0.00452251,-0.00000019,-0.00000026,-0.000952
 71,0.00000012,0.00000034,0.00452251,0.00000171,0.00000010,0.01025693,0
 .00000471,0.00000283,-0.03915669,-0.00000127,0.00000039,0.01025694,-0.
 00001591,-0.00002644,0.00969300,-0.04412450,-0.02186973,0.00000092,-0.
 14497839,-0.00000003,0.00001290,-0.04412450,0.02186973,-0.00000037,0.0
 1527770,0.01012405,-0.00000168,-0.01944401,0.,0.00000031,0.01527769,-0
 .01012404,-0.00000108,0.01817965,0.,0.00000016,0.69871316,-0.02614703,
 0.01480948,0.00000113,0.,-0.11685888,0.00000126,0.02614707,0.01480944,
 -0.00000238,0.00518886,-0.00747931,-0.00000020,0.,-0.00485316,0.000000
 08,-0.00518887,-0.00747931,0.00000112,0.,0.00009508,-0.00000002,0.0000
 0020,1.00165994,0.00000015,-0.00000303,-0.00631279,-0.00001231,0.00000
 122,-0.07375167,-0.00000136,0.00000180,-0.00631286,-0.00000015,-0.0000
 0033,0.00811226,-0.00000046,0.00000009,-0.00191696,0.00000017,0.000001
 24,0.00811226,0.00000017,-0.00000002,-0.00052210,0.00010510,-0.0000232
 0,0.23451450,-0.00238190,0.00784561,-0.00000152,-0.04096674,-0.0512437
 4,-0.00001227,-0.00106939,-0.00303774,-0.00000039,-0.00204657,-0.00257
 377,0.00000018,0.00500595,-0.00201390,-0.00000018,-0.00484475,0.000168
 80,0.00000077,-0.00498688,0.00031186,0.,-0.24834865,-0.18987763,-0.000
 04010,0.25484211,0.00133500,0.00341823,-0.00000069,-0.03850637,-0.0106
 7657,-0.00000849,0.01121420,-0.00873996,0.00000148,-0.00425365,0.00001
 860,0.00000048,0.00479772,-0.00004181,-0.00000012,-0.00263688,0.002770
 10,0.00000021,-0.00407340,0.00055288,-0.00000005,-0.18803269,-0.443968
 48,-0.00004994,0.23006473,0.57736110,-0.00000158,0.00000130,0.00431527
 ,0.00000062,-0.00000570,0.01823258,0.00000055,-0.00000109,0.00173528,-
 0.00000055,0.00000005,-0.00067727,0.00000053,0.00000018,0.00035791,0.0
 0000010,-0.00000057,-0.00111977,-0.00000043,0.00000006,0.00005092,-0.0
 0005311,-0.00006555,-0.07819054,0.00004966,0.00005962,0.02901317,-0.00
 106946,0.00303773,-0.00000059,-0.04096674,0.05124381,-0.00001537,-0.00
 238189,-0.00784562,-0.00000106,-0.00484475,-0.00016881,0.00000079,0.00
 500594,0.00201390,-0.00000029,-0.00204656,0.00257377,0.00000003,-0.004
 98687,-0.00031186,0.00000002,-0.24834829,0.18987742,-0.00005172,0.0491
 6041,-0.01120436,0.00000479,0.25484186,-0.01121424,-0.00873998,-0.0000
 0086,0.03850644,-0.01067665,0.00001026,-0.00133500,0.00341824,0.000000
 75,0.00263689,0.00277010,-0.00000045,-0.00479773,-0.00004182,0.0000001
 5,0.00425366,0.00001861,-0.00000052,0.00407340,0.00055288,0.00000003,0
 .18803252,-0.44396885,0.00007212,0.01120419,-0.12521535,0.00001138,-0.
 23006440,0.57736154,0.00000122,0.00000171,0.00173527,-0.00000172,0.000
 00747,0.01823264,-0.00000151,-0.00000126,0.00431528,-0.00000006,0.0000
 0034,-0.00111977,0.00000081,-0.00000016,0.00035790,-0.00000081,-0.0000
 0009,-0.00067726,-0.00000067,-0.00000009,0.00005092,-0.00006463,0.0000
 8772,-0.07819063,0.00000411,-0.00000214,0.02678407,0.00006375,-0.00009
 289,0.02901321,-0.13390593,0.12999299,-0.00000253,0.01326588,-0.012256
 38,-0.00000013,-0.00173351,-0.00355484,0.00000017,-0.00083673,-0.00066
 155,0.00000003,-0.00485800,-0.00095331,0.00000021,-0.00938152,0.025874
 82,-0.00000054,-0.00025949,0.00130082,-0.00000006,0.00104523,-0.000961
 45,0.00000021,0.00046550,0.00142702,0.00000010,-0.00403951,-0.00005697
 ,-0.00000046,0.13866277,0.12804078,-0.28014274,0.00000585,0.01535740,-
 0.01802386,0.00000036,-0.00394439,-0.00314585,0.00000045,-0.00063760,0
 .00045165,-0.00000005,-0.00155891,0.00107975,0.00000030,-0.00275191,0.
 00659043,0.00000006,-0.00002489,0.00025681,-0.00000001,0.00293842,-0.0
 0362679,0.00000055,-0.00006284,0.00127008,0.00000005,0.00088346,0.0033
 7056,-0.00000050,-0.13924571,0.29200171,-0.00000217,0.00000723,-0.0415
 7162,-0.00000158,-0.00000007,0.00551323,0.00000009,0.00000043,0.004963
 04,0.00000023,0.00000002,-0.00098507,0.00000028,-0.00000005,0.00848453
 ,-0.00000004,-0.00000055,0.00511945,0.,0.,-0.00016655,0.00000080,0.,-0
 .00414348,-0.00000016,-0.00000014,0.00035648,-0.00000037,0.00000007,-0
 .00014686,0.00000300,-0.00000682,0.02780779,-0.00173351,0.00355484,-0.
 00000003,0.01326588,0.01225639,-0.00000084,-0.13390590,-0.12999298,0.0
 0000509,-0.00938152,-0.02587484,0.00000099,-0.00485801,0.00095331,0.00
 000015,-0.00083673,0.00066155,-0.00000001,-0.00025949,-0.00130082,0.00
 000001,0.00104523,0.00096145,0.00000015,-0.00403948,0.00005696,-0.0000
 0045,0.00046550,-0.00142702,0.00000019,0.00072453,0.00082715,0.0000000
 2,0.13866272,0.00394439,-0.00314585,0.00000003,-0.01535740,-0.01802386
 ,0.00000101,-0.12804078,-0.28014283,0.00000814,0.00275191,0.00659042,-
 0.00000015,0.00155891,0.00107975,0.00000014,0.00063760,0.00045165,-0.0
 0000003,0.00002489,0.00025680,-0.00000001,-0.00293842,-0.00362679,-0.0
 0000058,-0.00088345,0.00337055,0.00000029,0.00006284,0.00127007,-0.000
 00010,-0.00082715,-0.00085672,0.00000006,0.13924571,0.29200182,-0.0000
 0013,0.00000004,0.00496305,-0.00000070,0.00000147,0.00551323,0.0000053
 6,0.00000676,-0.04157160,-0.00000021,0.00000045,0.00511945,0.00000019,
 0.00000048,0.00848452,0.00000019,-0.00000010,-0.00098506,0.,-0.0000000
 2,-0.00016655,0.00000098,-0.00000002,-0.00414348,-0.00000030,-0.000000
 31,-0.00014686,-0.00000017,0.00000010,0.00035648,0.00000007,0.00000002
 ,0.00052230,-0.00000518,-0.00000867,0.02780777,-0.00089656,-0.00071654
 ,0.00000005,-0.00464165,-0.00189119,0.00000051,-0.01195718,0.02922169,
 -0.00000057,-0.12819688,0.12115305,-0.00000264,0.00997201,-0.01489596,
 0.00000035,-0.00130621,-0.00297397,0.00000008,0.00220638,-0.00054911,-
 0.00000003,0.00038871,0.00183309,0.00000006,-0.00018764,-0.00023926,-0
 .00000009,-0.00093578,0.00021907,-0.00000019,0.00002573,0.00007639,0.,
 0.00118708,-0.00019829,-0.00000010,0.13395966,-0.00124091,-0.00014325,
 0.,-0.00070809,0.00201062,0.00000018,-0.00172200,0.00435061,0.,0.12100
 783,-0.27572289,0.00000541,0.01735144,-0.01867210,0.00000041,-0.003806
 39,-0.00295367,0.00000027,0.00099675,0.00195299,-0.00000015,-0.0004605
 6,0.00021819,0.00000004,0.00017402,0.00003326,0.00000001,0.00002596,-0
 .00003017,-0.00000002,0.00005099,-0.00000301,-0.00000001,0.00017107,0.
 00076343,-0.00000019,-0.13079474,0.28951105,0.00000016,0.00000011,-0.0
 0058337,0.00000018,-0.00000004,0.00728056,0.00000012,-0.00000048,0.002
 53069,-0.00000264,0.00000533,-0.03400756,-0.00000032,0.00000089,0.0041
 1401,0.00000016,0.00000037,0.00511499,-0.00000028,-0.00000007,-0.00293
 659,-0.00000008,0.00000017,0.00142121,-0.00000003,-0.00000004,-0.00005
 322,0.00000018,-0.00000012,-0.00060794,-0.00000001,-0.00000003,-0.0006
 0478,-0.00000005,-0.00000011,-0.00490179,0.00000255,-0.00000600,0.0234
 6267,-0.01195717,-0.02922170,0.00000115,-0.00464165,0.00189119,0.00000
 039,-0.00089656,0.00071654,0.,-0.00130621,0.00297397,-0.00000010,0.009
 97200,0.01489597,-0.00000052,-0.12819685,-0.12115304,0.00000445,0.0022
 0638,0.00054911,-0.00000007,0.00038870,-0.00183309,0.00000016,-0.00093
 578,-0.00021907,-0.00000018,-0.00018764,0.00023926,-0.00000010,0.00118
 708,0.00019829,-0.00000011,0.00002573,-0.00007639,0.,0.00058129,0.0007
 3697,-0.00000002,0.13395963,0.00172200,0.00435061,-0.00000010,0.000708
 09,0.00201063,0.00000013,0.00124091,-0.00014325,-0.00000003,0.00380639
 ,-0.00295367,0.00000020,-0.01735144,-0.01867210,0.00000093,-0.12100781
 ,-0.27572291,0.00000874,-0.00099675,0.00195299,-0.00000013,0.00046056,
 0.00021819,0.00000003,-0.00002596,-0.00003017,-0.00000002,-0.00017402,
 0.00003326,-0.00000002,-0.00017107,0.00076343,-0.00000014,-0.00005099,
 -0.00000301,-0.00000002,-0.00073697,-0.00101429,0.00000004,0.13079472,
 0.28951107,0.00000002,0.00000037,0.00253069,0.00000014,0.00000035,0.00
 728056,0.00000009,-0.00000013,-0.00058337,-0.00000006,0.00000010,0.005
 11499,0.00000071,0.00000044,0.00411402,0.00000445,0.00000883,-0.034007
 56,-0.00000022,-0.00000022,-0.00293659,-0.00000011,-0.00000010,0.00142
 121,0.00000018,0.00000008,-0.00060794,-0.00000002,0.00000004,-0.000053
 22,-0.00000004,-0.00000022,-0.00490179,0.,0.,-0.00060478,0.00000002,0.
 ,-0.00019791,-0.00000511,-0.00000958,0.02346267,-0.00060442,-0.0000308
 2,0.,0.00061907,0.00047139,-0.00000006,0.00009574,-0.00192947,0.000000
 07,-0.00500749,0.00305540,0.,-0.01214503,-0.03204349,0.00000155,0.0023
 2934,-0.00195802,-0.00000006,-0.17820843,-0.17615516,0.00001047,-0.000
 47387,-0.00002899,-0.00000004,0.00021049,0.00025017,0.00000005,0.00012
 329,-0.00001989,0.,0.00000649,0.00000896,0.,-0.00036851,0.00010459,0.,
 0.00009128,-0.00021451,0.,-0.00029024,0.00156783,-0.00000001,0.1793486
 6,-0.00104880,-0.00062334,-0.00000009,0.00157170,0.00000997,0.00000004
 ,-0.00085040,0.00042479,0.,0.00258371,0.00178726,0.00000002,-0.0010893
 5,0.00599095,-0.00000041,0.00318974,0.00134469,-0.00000015,-0.17493452
 ,-0.37595206,0.00001787,-0.00149305,0.00002562,-0.00000003,0.00034264,
 0.00028018,0.00000002,0.00039280,-0.00040263,0.00000007,0.00007715,0.0
 0000204,0.,0.00003537,0.00001253,0.,0.00013591,0.00022565,-0.00000001,
 -0.00035683,-0.00052643,0.00000008,0.18918297,0.38113081,-0.00000005,-
 0.00000004,-0.00087599,0.00000002,0.00000005,0.00015809,0.00000006,-0.
 00000002,0.00207041,-0.00000012,0.00000002,0.00310995,-0.00000055,-0.0
 0000028,-0.00460252,0.00000001,-0.00000015,-0.00190348,0.00001152,0.00
 001922,0.00374202,-0.00000002,0.,-0.00004847,0.00000003,0.00000001,-0.
 00002661,0.,-0.00000001,-0.00002346,0.,0.,0.00011654,-0.00000003,0.,-0
 .00036321,-0.00000001,0.,-0.00071145,0.00000005,0.00000002,0.00068048,
 -0.00001089,-0.00001841,0.00253161,0.00009574,0.00192947,-0.00000004,0
 .00061907,-0.00047139,-0.00000003,-0.00060442,0.00003082,0.,0.00232935
 ,0.00195803,-0.00000017,-0.01214504,0.03204348,-0.00000037,-0.00500749
 ,-0.00305540,0.00000019,-0.17820854,0.17615523,-0.00000015,-0.00047387
 ,0.00002899,-0.00000004,0.00012329,0.00001989,0.,0.00021049,-0.0002501
 7,0.00000006,-0.00036851,-0.00010459,0.,0.00000649,-0.00000896,0.,-0.0
 0029024,-0.00156783,0.00000008,0.00009128,0.00021451,0.,0.01427363,-0.
 01773903,-0.00000005,0.17934878,0.00085040,0.00042479,0.00000009,-0.00
 157170,0.00000996,-0.00000003,0.00104880,-0.00062334,0.00000007,-0.003
 18973,0.00134469,-0.00000004,0.00108934,0.00599096,-0.00000023,-0.0025
 8371,0.00178725,0.00000006,0.17493458,-0.37595196,0.00000498,0.0014930
 5,0.00002562,0.00000002,-0.00039280,-0.00040263,-0.00000004,-0.0003426
 4,0.00028018,-0.00000004,-0.00003537,0.00001253,-0.00000001,-0.0000771
 5,0.00000204,0.,0.00035683,-0.00052643,-0.00000001,-0.00013591,0.00022
 565,-0.00000004,0.01773903,-0.01373003,-0.00000040,-0.18918304,0.38113
 071,0.00000001,0.00000012,0.00207041,0.00000011,-0.00000005,0.00015809
 ,-0.00000011,0.00000003,-0.00087599,0.00000020,-0.00000005,-0.00190348
 ,-0.00000056,-0.00000037,-0.00460252,0.00000003,0.00000006,0.00310994,
 0.00000093,0.00000364,0.00374203,-0.00000010,0.,-0.00004846,0.00000002
 ,0.00000003,-0.00002346,0.00000005,-0.00000003,-0.00002662,-0.00000003
 ,-0.00000001,-0.00036321,0.00000001,0.,0.00011654,0.00000002,0.0000000
 5,0.00068048,0.,-0.00000005,-0.00071145,-0.00000111,0.00000099,-0.0038
 5390,0.00000052,-0.00000437,0.00253161\\0.00009791,0.00003444,-0.00000
 278,-0.00030824,0.00000005,-0.00001614,0.00009793,-0.00003449,-0.00000
 278,-0.00004912,-0.00003416,0.00000091,0.00006168,-0.00000002,-0.00000
 053,-0.00004918,0.00003419,0.00000091,-0.00001769,0.,-0.00000010,0.000
 06286,0.,0.00007047,0.00005299,-0.00007145,-0.00002517,0.00005311,0.00
 007143,-0.00002517,-0.00001293,0.00000592,-0.00000016,-0.00001290,-0.0
 0000590,-0.00000016,0.00000487,-0.00000644,0.00000028,0.00000488,0.000
 00644,0.00000028,0.00000691,0.00000015,0.00000007,0.00000691,-0.000000
 14,0.00000008\\\@


 I LOVE MANKIND - IT'S PEOPLE I CAN'T STAND.
     -- LINUS OF PEANUTS
 Job cpu time:       0 days  0 hours 24 minutes 29.7 seconds.
 File lengths (MBytes):  RWF=     85 Int=      0 D2E=      0 Chk=      5 Scr=      1
 Normal termination of Gaussian 09 at Thu Jun 20 16:54:36 2024.
