 Entering Gaussian System, Link 0=g09
 Input=camb3lyp4NiAnyang.gjf
 Output=camb3lyp4NiAnyang.log
 Initial command:
 /home/phzd/g09E/g09/l1.exe "/home/phzd/g09E/scratch/Gau-147901.inp" -scrdir="/home/phzd/g09E/scratch/"
 Default is to use a total of  18 processors:
                               18 via shared-memory
                                1 via Linda
 Entering Link 1 = /home/phzd/g09E/g09/l1.exe PID=    147903.
  
 Copyright (c) 1988,1990,1992,1993,1995,1998,2003,2009,2015,
            Gaussian, Inc.  All Rights Reserved.
  
 This is part of the Gaussian(R) 09 program.  It is based on
 the Gaussian(R) 03 system (copyright 2003, Gaussian, Inc.),
 the Gaussian(R) 98 system (copyright 1998, Gaussian, Inc.),
 the Gaussian(R) 94 system (copyright 1995, Gaussian, Inc.),
 the Gaussian 92(TM) system (copyright 1992, Gaussian, Inc.),
 the Gaussian 90(TM) system (copyright 1990, Gaussian, Inc.),
 the Gaussian 88(TM) system (copyright 1988, Gaussian, Inc.),
 the Gaussian 86(TM) system (copyright 1986, Carnegie Mellon
 University), and the Gaussian 82(TM) system (copyright 1983,
 Carnegie Mellon University). Gaussian is a federally registered
 trademark of Gaussian, Inc.
  
 This software contains proprietary and confidential information,
 including trade secrets, belonging to Gaussian, Inc.
  
 This software is provided under written license and may be
 used, copied, transmitted, or stored only in accord with that
 written license.
  
 The following legend is applicable only to US Government
 contracts under FAR:
  
                    RESTRICTED RIGHTS LEGEND
  
 Use, reproduction and disclosure by the US Government is
 subject to restrictions as set forth in subparagraphs (a)
 and (c) of the Commercial Computer Software - Restricted
 Rights clause in FAR 52.227-19.
  
 Gaussian, Inc.
 340 Quinnipiac St., Bldg. 40, Wallingford CT 06492
  
  
 ---------------------------------------------------------------
 Warning -- This program may not be used in any manner that
 competes with the business of Gaussian, Inc. or will provide
 assistance to any competitor of Gaussian, Inc.  The licensee
 of this program is prohibited from giving any competitor of
 Gaussian, Inc. access to this program.  By using this program,
 the user acknowledges that Gaussian, Inc. is engaged in the
 business of creating and licensing software in the field of
 computational chemistry and represents and warrants to the
 licensee that it is not a competitor of Gaussian, Inc. and that
 it will not use this program in any manner prohibited above.
 ---------------------------------------------------------------
  

 Cite this work as:
 Gaussian 09, Revision E.01,
 M. J. Frisch, G. W. Trucks, H. B. Schlegel, G. E. Scuseria, 
 M. A. Robb, J. R. Cheeseman, G. Scalmani, V. Barone, B. Mennucci, 
 G. A. Petersson, H. Nakatsuji, M. Caricato, X. Li, H. P. Hratchian, 
 A. F. Izmaylov, J. Bloino, G. Zheng, J. L. Sonnenberg, M. Hada, 
 M. Ehara, K. Toyota, R. Fukuda, J. Hasegawa, M. Ishida, T. Nakajima, 
 Y. Honda, O. Kitao, H. Nakai, T. Vreven, J. A. Montgomery, Jr., 
 J. E. Peralta, F. Ogliaro, M. Bearpark, J. J. Heyd, E. Brothers, 
 K. N. Kudin, V. N. Staroverov, T. Keith, R. Kobayashi, J. Normand, 
 K. Raghavachari, A. Rendell, J. C. Burant, S. S. Iyengar, J. Tomasi, 
 M. Cossi, N. Rega, J. M. Millam, M. Klene, J. E. Knox, J. B. Cross, 
 V. Bakken, C. Adamo, J. Jaramillo, R. Gomperts, R. E. Stratmann, 
 O. Yazyev, A. J. Austin, R. Cammi, C. Pomelli, J. W. Ochterski, 
 R. L. Martin, K. Morokuma, V. G. Zakrzewski, G. A. Voth, 
 P. Salvador, J. J. Dannenberg, S. Dapprich, A. D. Daniels, 
 O. Farkas, J. B. Foresman, J. V. Ortiz, J. Cioslowski, 
 and D. J. Fox, Gaussian, Inc., Wallingford CT, 2013.
 
 ******************************************
 Gaussian 09:  ES64L-G09RevE.01 30-Nov-2015
                20-Jun-2024 
 ******************************************
 %chk=camb3lyp4NiAnyang.chk
 --------------------------------
 # opt freq cam-b3lyp/6-31+g(d,p)
 --------------------------------
 1/14=-1,18=20,19=15,26=3,38=1/1,3;
 2/9=110,12=2,17=6,18=5,40=1/2;
 3/5=1,6=6,7=111,11=2,16=1,25=1,30=1,71=1,74=-40/1,2,3;
 4//1;
 5/5=2,38=5/2;
 6/7=2,8=2,9=2,10=2,28=1/1;
 7//1,2,3,16;
 1/14=-1,18=20,19=15,26=3/3(2);
 2/9=110/2;
 99//99;
 2/9=110/2;
 3/5=1,6=6,7=111,11=2,16=1,25=1,30=1,71=1,74=-40/1,2,3;
 4/5=5,16=3,69=1/1;
 5/5=2,38=5/2;
 7//1,2,3,16;
 1/14=-1,18=20,19=15,26=3/3(-5);
 2/9=110/2;
 6/7=2,8=2,9=2,10=2,19=2,28=1/1;
 99/9=1/99;
 ----------
 [No Title]
 ----------
 Symbolic Z-matrix:
 Charge =  1 Multiplicity = 1
 C                    -0.00714  -1.21745   0. 
 C                     0.66826   0.03846   0. 
 C                    -0.06057   1.26464   0. 
 C                    -1.42577   1.23384   0. 
 C                    -2.12282  -0.01851   0. 
 C                    -1.37377  -1.23975   0. 
 N                    -3.45914  -0.04627  0. 
 N                     2.03368   0.11012   0. 
 O                     2.71256   1.12025   0. 
 O                     2.67679  -1.10342  -0.00001 
 H                     0.55689  -2.14153   0.00001 
 H                     0.47737   2.20564   0. 
 H                    -1.99087   2.16033  0. 
 H                    -1.90049  -2.18854   0.00001 
 H                    -3.9711   -0.91855  -0.00001 
 H                    -4.00647   0.80429  -0.00001 
 H                     3.62901  -0.87058  -0.00001 
 

 GradGradGradGradGradGradGradGradGradGradGradGradGradGradGradGradGradGrad
 Berny optimization.
 Initialization pass.
                           ----------------------------
                           !    Initial Parameters    !
                           ! (Angstroms and Degrees)  !
 --------------------------                            --------------------------
 ! Name  Definition              Value          Derivative Info.                !
 --------------------------------------------------------------------------------
 ! R1    R(1,2)                  1.426          estimate D2E/DX2                !
 ! R2    R(1,6)                  1.3668         estimate D2E/DX2                !
 ! R3    R(1,11)                 1.0826         estimate D2E/DX2                !
 ! R4    R(2,3)                  1.4264         estimate D2E/DX2                !
 ! R5    R(2,8)                  1.3673         estimate D2E/DX2                !
 ! R6    R(3,4)                  1.3656         estimate D2E/DX2                !
 ! R7    R(3,12)                 1.0839         estimate D2E/DX2                !
 ! R8    R(4,5)                  1.4333         estimate D2E/DX2                !
 ! R9    R(4,13)                 1.0852         estimate D2E/DX2                !
 ! R10   R(5,6)                  1.4326         estimate D2E/DX2                !
 ! R11   R(5,7)                  1.3366         estimate D2E/DX2                !
 ! R12   R(6,14)                 1.0852         estimate D2E/DX2                !
 ! R13   R(7,15)                 1.0114         estimate D2E/DX2                !
 ! R14   R(7,16)                 1.0114         estimate D2E/DX2                !
 ! R15   R(8,9)                  1.2171         estimate D2E/DX2                !
 ! R16   R(8,10)                 1.3734         estimate D2E/DX2                !
 ! R17   R(10,17)                0.9803         estimate D2E/DX2                !
 ! A1    A(2,1,6)              119.2048         estimate D2E/DX2                !
 ! A2    A(2,1,11)             120.3314         estimate D2E/DX2                !
 ! A3    A(6,1,11)             120.4637         estimate D2E/DX2                !
 ! A4    A(1,2,3)              121.0029         estimate D2E/DX2                !
 ! A5    A(1,2,8)              121.2748         estimate D2E/DX2                !
 ! A6    A(3,2,8)              117.7223         estimate D2E/DX2                !
 ! A7    A(2,3,4)              119.4345         estimate D2E/DX2                !
 ! A8    A(2,3,12)             119.5182         estimate D2E/DX2                !
 ! A9    A(4,3,12)             121.0473         estimate D2E/DX2                !
 ! A10   A(3,4,5)              120.3923         estimate D2E/DX2                !
 ! A11   A(3,4,13)             120.0878         estimate D2E/DX2                !
 ! A12   A(5,4,13)             119.5199         estimate D2E/DX2                !
 ! A13   A(4,5,6)              119.3769         estimate D2E/DX2                !
 ! A14   A(4,5,7)              120.2898         estimate D2E/DX2                !
 ! A15   A(6,5,7)              120.3332         estimate D2E/DX2                !
 ! A16   A(1,6,5)              120.5886         estimate D2E/DX2                !
 ! A17   A(1,6,14)             119.9708         estimate D2E/DX2                !
 ! A18   A(5,6,14)             119.4406         estimate D2E/DX2                !
 ! A19   A(5,7,15)             121.5991         estimate D2E/DX2                !
 ! A20   A(5,7,16)             121.5709         estimate D2E/DX2                !
 ! A21   A(15,7,16)            116.83           estimate D2E/DX2                !
 ! A22   A(2,8,9)              126.9086         estimate D2E/DX2                !
 ! A23   A(2,8,10)             114.9164         estimate D2E/DX2                !
 ! A24   A(9,8,10)             118.175          estimate D2E/DX2                !
 ! A25   A(8,10,17)            104.1802         estimate D2E/DX2                !
 ! D1    D(6,1,2,3)              0.0            estimate D2E/DX2                !
 ! D2    D(6,1,2,8)           -180.0            estimate D2E/DX2                !
 ! D3    D(11,1,2,3)          -179.9999         estimate D2E/DX2                !
 ! D4    D(11,1,2,8)             0.0001         estimate D2E/DX2                !
 ! D5    D(2,1,6,5)              0.0001         estimate D2E/DX2                !
 ! D6    D(2,1,6,14)          -179.9999         estimate D2E/DX2                !
 ! D7    D(11,1,6,5)          -180.0            estimate D2E/DX2                !
 ! D8    D(11,1,6,14)            0.0001         estimate D2E/DX2                !
 ! D9    D(1,2,3,4)              0.0            estimate D2E/DX2                !
 ! D10   D(1,2,3,12)          -180.0            estimate D2E/DX2                !
 ! D11   D(8,2,3,4)            179.9999         estimate D2E/DX2                !
 ! D12   D(8,2,3,12)             0.0            estimate D2E/DX2                !
 ! D13   D(1,2,8,9)           -179.9999         estimate D2E/DX2                !
 ! D14   D(1,2,8,10)             0.0003         estimate D2E/DX2                !
 ! D15   D(3,2,8,9)              0.0001         estimate D2E/DX2                !
 ! D16   D(3,2,8,10)          -179.9997         estimate D2E/DX2                !
 ! D17   D(2,3,4,5)              0.0            estimate D2E/DX2                !
 ! D18   D(2,3,4,13)          -180.0            estimate D2E/DX2                !
 ! D19   D(12,3,4,5)           179.9999         estimate D2E/DX2                !
 ! D20   D(12,3,4,13)           -0.0001         estimate D2E/DX2                !
 ! D21   D(3,4,5,6)              0.0001         estimate D2E/DX2                !
 ! D22   D(3,4,5,7)           -179.9999         estimate D2E/DX2                !
 ! D23   D(13,4,5,6)          -179.9999         estimate D2E/DX2                !
 ! D24   D(13,4,5,7)             0.0001         estimate D2E/DX2                !
 ! D25   D(4,5,6,1)             -0.0001         estimate D2E/DX2                !
 ! D26   D(4,5,6,14)           179.9998         estimate D2E/DX2                !
 ! D27   D(7,5,6,1)            179.9999         estimate D2E/DX2                !
 ! D28   D(7,5,6,14)            -0.0002         estimate D2E/DX2                !
 ! D29   D(4,5,7,15)           179.9999         estimate D2E/DX2                !
 ! D30   D(4,5,7,16)             0.0            estimate D2E/DX2                !
 ! D31   D(6,5,7,15)            -0.0001         estimate D2E/DX2                !
 ! D32   D(6,5,7,16)          -179.9999         estimate D2E/DX2                !
 ! D33   D(2,8,10,17)          179.9997         estimate D2E/DX2                !
 ! D34   D(9,8,10,17)           -0.0001         estimate D2E/DX2                !
 --------------------------------------------------------------------------------
 Trust Radius=3.00D-01 FncErr=1.00D-07 GrdErr=1.00D-06
 Number of steps in this run=     86 maximum allowed number of steps=    102.
 GradGradGradGradGradGradGradGradGradGradGradGradGradGradGradGradGradGrad

                          Input orientation:                          
 ---------------------------------------------------------------------
 Center     Atomic      Atomic             Coordinates (Angstroms)
 Number     Number       Type             X           Y           Z
 ---------------------------------------------------------------------
      1          6           0       -0.007137   -1.217453    0.000003
      2          6           0        0.668262    0.038458    0.000002
      3          6           0       -0.060566    1.264637    0.000001
      4          6           0       -1.425774    1.233839    0.000000
      5          6           0       -2.122823   -0.018514    0.000000
      6          6           0       -1.373773   -1.239746    0.000003
      7          7           0       -3.459143   -0.046270   -0.000003
      8          7           0        2.033678    0.110124    0.000001
      9          8           0        2.712561    1.120252    0.000001
     10          8           0        2.676786   -1.103424   -0.000005
     11          1           0        0.556885   -2.141532    0.000005
     12          1           0        0.477373    2.205644    0.000000
     13          1           0       -1.990867    2.160333   -0.000001
     14          1           0       -1.900486   -2.188544    0.000006
     15          1           0       -3.971097   -0.918554   -0.000005
     16          1           0       -4.006469    0.804292   -0.000006
     17          1           0        3.629009   -0.870580   -0.000010
 ---------------------------------------------------------------------
                    Distance matrix (angstroms):
                    1          2          3          4          5
     1  C    0.000000
     2  C    1.426000   0.000000
     3  C    2.482665   1.426431   0.000000
     4  C    2.832201   2.411208   1.365555   0.000000
     5  C    2.431786   2.791666   2.428864   1.433271   0.000000
     6  C    1.366818   2.409090   2.827799   2.474132   1.432649
     7  N    3.645273   4.128275   3.642637   2.402763   1.336608
     8  N    2.434622   1.367295   2.391393   3.637381   4.158491
     9  O    3.586310   2.312885   2.776883   4.139894   4.967668
    10  O    2.686344   2.310425   3.619504   4.721631   4.920699
    11  H    1.082609   2.182833   3.461681   3.914597   3.418778
    12  H    3.457216   2.175577   1.083915   2.136907   3.421681
    13  H    3.917221   3.401958   2.127988   1.085229   2.182839
    14  H    2.127860   3.399706   3.912769   3.455149   2.181390
    15  H    3.975213   4.737037   4.478680   3.333386   2.055770
    16  H    4.481307   4.737047   3.972665   2.616199   2.055513
    17  H    3.652654   3.097156   4.262876   5.475346   5.814601
                    6          7          8          9         10
     6  C    0.000000
     7  N    2.402739   0.000000
     8  N    3.665088   5.495047   0.000000
     9  O    4.718868   6.280980   1.217062   0.000000
    10  O    4.052852   6.226331   1.373422   2.223964   0.000000
    11  H    2.130882   4.529747   2.692744   3.909754   2.360434
    12  H    3.911196   4.535116   2.610228   2.484782   3.973330
    13  H    3.455625   2.650459   4.516671   4.817053   5.695533
    14  H    1.085193   2.649292   4.556481   5.677000   4.704137
    15  H    2.617108   1.011423   6.092249   6.987704   6.650453
    16  H    3.333044   1.011445   6.079905   6.726455   6.950200
    17  H    5.016384   7.135922   1.872662   2.191641   0.980278
                   11         12         13         14         15
    11  H    0.000000
    12  H    4.347903   0.000000
    13  H    4.999708   2.468656   0.000000
    14  H    2.457821   4.996309   4.349816   0.000000
    15  H    4.690234   5.435945   3.660718   2.429054   0.000000
    16  H    5.431582   4.697726   2.429300   3.659540   1.723209
    17  H    3.324645   4.404085   6.385095   5.684395   7.600257
                   16         17
    16  H    0.000000
    17  H    7.817015   0.000000
 Stoichiometry    C6H7N2O2(1+)
 Framework group  C1[X(C6H7N2O2)]
 Deg. of freedom    45
 Full point group                 C1      NOp   1
 Largest Abelian subgroup         C1      NOp   1
 Largest concise Abelian subgroup C1      NOp   1
                         Standard orientation:                         
 ---------------------------------------------------------------------
 Center     Atomic      Atomic             Coordinates (Angstroms)
 Number     Number       Type             X           Y           Z
 ---------------------------------------------------------------------
      1          6           0        0.007137   -1.217453   -0.000003
      2          6           0       -0.668262    0.038458   -0.000002
      3          6           0        0.060566    1.264637   -0.000001
      4          6           0        1.425774    1.233839   -0.000000
      5          6           0        2.122823   -0.018514   -0.000000
      6          6           0        1.373773   -1.239746   -0.000003
      7          7           0        3.459143   -0.046270    0.000003
      8          7           0       -2.033678    0.110124   -0.000001
      9          8           0       -2.712561    1.120252   -0.000001
     10          8           0       -2.676786   -1.103424    0.000005
     11          1           0       -0.556885   -2.141532   -0.000005
     12          1           0       -0.477373    2.205644   -0.000000
     13          1           0        1.990867    2.160333    0.000001
     14          1           0        1.900486   -2.188544   -0.000006
     15          1           0        3.971097   -0.918554    0.000005
     16          1           0        4.006469    0.804292    0.000006
     17          1           0       -3.629009   -0.870580    0.000010
 ---------------------------------------------------------------------
 Rotational constants (GHZ):      3.7503071      0.8184774      0.6718508
 Standard basis: 6-31+G(d,p) (6D, 7F)
 There are   225 symmetry adapted cartesian basis functions of A   symmetry.
 There are   225 symmetry adapted basis functions of A   symmetry.
   225 basis functions,   369 primitive gaussians,   225 cartesian basis functions
    36 alpha electrons       36 beta electrons
       nuclear repulsion energy       507.5005780756 Hartrees.
 NAtoms=   17 NActive=   17 NUniq=   17 SFac= 1.00D+00 NAtFMM=   60 NAOKFM=F Big=F
 Integral buffers will be    131072 words long.
 Raffenetti 2 integral format.
 Two-electron integral symmetry is turned on.
 One-electron integrals computed using PRISM.
 NBasis=   225 RedAO= T EigKep=  3.40D-06  NBF=   225
 NBsUse=   225 1.00D-06 EigRej= -1.00D+00 NBFU=   225
 ExpMin= 4.38D-02 ExpMax= 5.48D+03 ExpMxC= 8.25D+02 IAcc=2 IRadAn=         4 AccDes= 0.00D+00
 Harris functional with IExCor=20419 and IRadAn=       4 diagonalized for initial guess.
 HarFok:  IExCor=20419 AccDes= 0.00D+00 IRadAn=         4 IDoV= 1 UseB2=F ITyADJ=14
 ICtDFT=  3500011 ScaDFX=  1.000000  1.000000  1.000000  1.000000
 FoFCou: FMM=F IPFlag=           0 FMFlag=      100000 FMFlg1=           0
         NFxFlg=           0 DoJE=T BraDBF=F KetDBF=T FulRan=T
         wScrn=  0.000000 ICntrl=     500 IOpCl=  0 I1Cent=   200000004 NGrid=           0
         NMat0=    1 NMatS0=      1 NMatT0=    0 NMatD0=    1 NMtDS0=    0 NMtDT0=    0
 Petite list used in FoFCou.
 Keep R1 ints in memory in canonical form, NReq=652403680.
 Requested convergence on RMS density matrix=1.00D-08 within 128 cycles.
 Requested convergence on MAX density matrix=1.00D-06.
 Requested convergence on             energy=1.00D-06.
 No special actions if energy rises.
 SCF Done:  E(RCAM-B3LYP) =  -492.255165202     A.U. after   16 cycles
            NFock= 16  Conv=0.83D-08     -V/T= 2.0093

 **********************************************************************

            Population analysis using the SCF density.

 **********************************************************************

 Orbital symmetries:
       Occupied  (A) (A) (A) (A) (A) (A) (A) (A) (A) (A) (A) (A)
                 (A) (A) (A) (A) (A) (A) (A) (A) (A) (A) (A) (A)
                 (A) (A) (A) (A) (A) (A) (A) (A) (A) (A) (A) (A)
       Virtual   (A) (A) (A) (A) (A) (A) (A) (A) (A) (A) (A) (A)
                 (A) (A) (A) (A) (A) (A) (A) (A) (A) (A) (A) (A)
                 (A) (A) (A) (A) (A) (A) (A) (A) (A) (A) (A) (A)
                 (A) (A) (A) (A) (A) (A) (A) (A) (A) (A) (A) (A)
                 (A) (A) (A) (A) (A) (A) (A) (A) (A) (A) (A) (A)
                 (A) (A) (A) (A) (A) (A) (A) (A) (A) (A) (A) (A)
                 (A) (A) (A) (A) (A) (A) (A) (A) (A) (A) (A) (A)
                 (A) (A) (A) (A) (A) (A) (A) (A) (A) (A) (A) (A)
                 (A) (A) (A) (A) (A) (A) (A) (A) (A) (A) (A) (A)
                 (A) (A) (A) (A) (A) (A) (A) (A) (A) (A) (A) (A)
                 (A) (A) (A) (A) (A) (A) (A) (A) (A) (A) (A) (A)
                 (A) (A) (A) (A) (A) (A) (A) (A) (A) (A) (A) (A)
                 (A) (A) (A) (A) (A) (A) (A) (A) (A) (A) (A) (A)
                 (A) (A) (A) (A) (A) (A) (A) (A) (A) (A) (A) (A)
                 (A) (A) (A) (A) (A) (A) (A) (A) (A) (A) (A) (A)
                 (A) (A) (A) (A) (A) (A) (A) (A) (A)
 The electronic state is 1-A.
 Alpha  occ. eigenvalues --  -19.49657 -19.46376 -14.84193 -14.62828 -10.52673
 Alpha  occ. eigenvalues --  -10.50445 -10.47191 -10.47001 -10.45258 -10.45219
 Alpha  occ. eigenvalues --   -1.50013  -1.33742  -1.21493  -1.16086  -1.08190
 Alpha  occ. eigenvalues --   -1.02863  -0.96508  -0.90193  -0.87610  -0.82817
 Alpha  occ. eigenvalues --   -0.80968  -0.79297  -0.79022  -0.77633  -0.71878
 Alpha  occ. eigenvalues --   -0.69259  -0.68639  -0.67815  -0.65918  -0.65282
 Alpha  occ. eigenvalues --   -0.60305  -0.59611  -0.57528  -0.56667  -0.50555
 Alpha  occ. eigenvalues --   -0.45418
 Alpha virt. eigenvalues --   -0.25256  -0.14070  -0.11409  -0.10438  -0.09421
 Alpha virt. eigenvalues --   -0.07717  -0.06715  -0.06000  -0.04677  -0.04155
 Alpha virt. eigenvalues --   -0.03222  -0.01866  -0.01843  -0.01035  -0.00880
 Alpha virt. eigenvalues --    0.00090   0.01835   0.02903   0.03190   0.03630
 Alpha virt. eigenvalues --    0.03944   0.04051   0.05124   0.06388   0.06829
 Alpha virt. eigenvalues --    0.06991   0.07747   0.08585   0.08875   0.08888
 Alpha virt. eigenvalues --    0.10070   0.10938   0.11667   0.12039   0.12216
 Alpha virt. eigenvalues --    0.12773   0.13295   0.14539   0.14855   0.15304
 Alpha virt. eigenvalues --    0.15948   0.16711   0.18179   0.18496   0.19142
 Alpha virt. eigenvalues --    0.19830   0.20582   0.22190   0.22746   0.24061
 Alpha virt. eigenvalues --    0.24911   0.27488   0.28290   0.29161   0.30178
 Alpha virt. eigenvalues --    0.33402   0.34085   0.36679   0.41103   0.46468
 Alpha virt. eigenvalues --    0.49229   0.53305   0.54362   0.54857   0.57997
 Alpha virt. eigenvalues --    0.59867   0.60963   0.62839   0.64418   0.68029
 Alpha virt. eigenvalues --    0.68880   0.70801   0.73009   0.74236   0.77133
 Alpha virt. eigenvalues --    0.78790   0.79989   0.83075   0.84749   0.85474
 Alpha virt. eigenvalues --    0.87243   0.87721   0.90707   0.91593   0.94244
 Alpha virt. eigenvalues --    0.95606   0.95982   0.97767   1.00029   1.02603
 Alpha virt. eigenvalues --    1.05372   1.06540   1.07708   1.10023   1.10548
 Alpha virt. eigenvalues --    1.12535   1.15377   1.16829   1.17694   1.19900
 Alpha virt. eigenvalues --    1.20521   1.21535   1.23577   1.27318   1.27447
 Alpha virt. eigenvalues --    1.27659   1.28740   1.32357   1.35438   1.35859
 Alpha virt. eigenvalues --    1.40034   1.41447   1.45314   1.55275   1.58998
 Alpha virt. eigenvalues --    1.63809   1.65088   1.69361   1.70352   1.73301
 Alpha virt. eigenvalues --    1.73394   1.78299   1.80128   1.80291   1.82749
 Alpha virt. eigenvalues --    1.84655   1.85807   1.86693   1.86940   1.92329
 Alpha virt. eigenvalues --    1.94770   1.98572   2.00464   2.01701   2.04316
 Alpha virt. eigenvalues --    2.06958   2.08575   2.10731   2.19979   2.20773
 Alpha virt. eigenvalues --    2.27532   2.28238   2.29629   2.30182   2.30928
 Alpha virt. eigenvalues --    2.34331   2.35219   2.38543   2.39675   2.43820
 Alpha virt. eigenvalues --    2.46230   2.46538   2.48360   2.48479   2.50529
 Alpha virt. eigenvalues --    2.51863   2.56915   2.57286   2.60846   2.65874
 Alpha virt. eigenvalues --    2.66050   2.70565   2.73208   2.74749   2.87041
 Alpha virt. eigenvalues --    2.89894   2.92953   2.97935   3.00394   3.05248
 Alpha virt. eigenvalues --    3.09585   3.19706   3.24498   3.24903   3.31350
 Alpha virt. eigenvalues --    3.39844   3.43434   3.58265   3.73590   4.02943
 Alpha virt. eigenvalues --    4.11313   4.17947   4.19791   4.23257   4.35518
 Alpha virt. eigenvalues --    4.37900   4.41972   4.67105   4.75316
          Condensed to atoms (all electrons):
               1          2          3          4          5          6
     1  C    9.734801  -1.471025  -2.093131  -0.914134   0.149428  -0.292338
     2  C   -1.471025  10.493464   0.846887  -0.521373  -0.785367  -1.274587
     3  C   -2.093131   0.846887   7.833748  -0.048927  -0.073475  -0.961148
     4  C   -0.914134  -0.521373  -0.048927   7.737001   0.263225  -0.815954
     5  C    0.149428  -0.785367  -0.073475   0.263225   5.585613   0.495888
     6  C   -0.292338  -1.274587  -0.961148  -0.815954   0.495888   8.630873
     7  N    0.061392  -0.013792   0.064599  -0.066372   0.135941  -0.056341
     8  N    0.045525  -0.875627   0.355789   0.066588   0.035031  -0.010496
     9  O    0.262211  -0.230827  -0.170577   0.013554   0.017006   0.007295
    10  O    0.124604  -0.298511   0.011828   0.029590  -0.004481   0.052449
    11  H    0.049799   0.243315   0.044004   0.008002  -0.044736   0.058508
    12  H    0.065081   0.197750   0.119390   0.012628  -0.032514  -0.004332
    13  H   -0.010705   0.018824   0.084866   0.231280   0.000512   0.010638
    14  H    0.116788   0.024959   0.001909   0.003859   0.001071   0.187045
    15  H    0.024071  -0.000003  -0.001814   0.028368  -0.021536  -0.044414
    16  H   -0.001054  -0.000214   0.025115  -0.045509  -0.021548   0.027861
    17  H   -0.039102   0.018846   0.030896   0.003491  -0.000947  -0.000878
               7          8          9         10         11         12
     1  C    0.061392   0.045525   0.262211   0.124604   0.049799   0.065081
     2  C   -0.013792  -0.875627  -0.230827  -0.298511   0.243315   0.197750
     3  C    0.064599   0.355789  -0.170577   0.011828   0.044004   0.119390
     4  C   -0.066372   0.066588   0.013554   0.029590   0.008002   0.012628
     5  C    0.135941   0.035031   0.017006  -0.004481  -0.044736  -0.032514
     6  C   -0.056341  -0.010496   0.007295   0.052449   0.058508  -0.004332
     7  N    6.809798   0.000593  -0.000448  -0.000114  -0.000090  -0.000202
     8  N    0.000593   7.147755   0.437854   0.200308  -0.052804  -0.049050
     9  O   -0.000448   0.437854   7.703590  -0.101677  -0.002094   0.017148
    10  O   -0.000114   0.200308  -0.101677   7.790249   0.015449  -0.001634
    11  H   -0.000090  -0.052804  -0.002094   0.015449   0.479410  -0.000079
    12  H   -0.000202  -0.049050   0.017148  -0.001634  -0.000079   0.473326
    13  H   -0.014158  -0.000464  -0.000067   0.000070   0.000009  -0.004152
    14  H   -0.014554  -0.000857   0.000029   0.000099  -0.004484   0.000009
    15  H    0.336995   0.000007  -0.000000   0.000001  -0.000007   0.000002
    16  H    0.337053   0.000001   0.000001  -0.000000   0.000002  -0.000007
    17  H    0.000003   0.023117   0.012779   0.226320   0.000221   0.000005
              13         14         15         16         17
     1  C   -0.010705   0.116788   0.024071  -0.001054  -0.039102
     2  C    0.018824   0.024959  -0.000003  -0.000214   0.018846
     3  C    0.084866   0.001909  -0.001814   0.025115   0.030896
     4  C    0.231280   0.003859   0.028368  -0.045509   0.003491
     5  C    0.000512   0.001071  -0.021536  -0.021548  -0.000947
     6  C    0.010638   0.187045  -0.044414   0.027861  -0.000878
     7  N   -0.014158  -0.014554   0.336995   0.337053   0.000003
     8  N   -0.000464  -0.000857   0.000007   0.000001   0.023117
     9  O   -0.000067   0.000029  -0.000000   0.000001   0.012779
    10  O    0.000070   0.000099   0.000001  -0.000000   0.226320
    11  H    0.000009  -0.004484  -0.000007   0.000002   0.000221
    12  H   -0.004152   0.000009   0.000002  -0.000007   0.000005
    13  H    0.503942  -0.000087  -0.000021   0.003886  -0.000000
    14  H   -0.000087   0.506410   0.003873  -0.000019   0.000000
    15  H   -0.000021   0.003873   0.345218  -0.020570  -0.000000
    16  H    0.003886  -0.000019  -0.020570   0.344861   0.000000
    17  H   -0.000000   0.000000  -0.000000   0.000000   0.323706
 Mulliken charges:
               1
     1  C    0.187787
     2  C   -0.372719
     3  C   -0.069959
     4  C    0.014682
     5  C    0.300890
     6  C   -0.010070
     7  N   -0.580304
     8  N   -0.323272
     9  O    0.034223
    10  O   -0.044549
    11  H    0.205574
    12  H    0.206630
    13  H    0.175626
    14  H    0.173949
    15  H    0.349831
    16  H    0.350139
    17  H    0.401543
 Sum of Mulliken charges =   1.00000
 Mulliken charges with hydrogens summed into heavy atoms:
               1
     1  C    0.393361
     2  C   -0.372719
     3  C    0.136671
     4  C    0.190308
     5  C    0.300890
     6  C    0.163879
     7  N    0.119665
     8  N   -0.323272
     9  O    0.034223
    10  O    0.356994
 Electronic spatial extent (au):  <R**2>=           1559.1423
 Charge=              1.0000 electrons
 Dipole moment (field-independent basis, Debye):
    X=              3.5435    Y=             -1.0990    Z=              0.0000  Tot=              3.7100
 Quadrupole moment (field-independent basis, Debye-Ang):
   XX=             -8.8024   YY=            -44.9317   ZZ=            -58.9063
   XY=              4.7273   XZ=             -0.0000   YZ=              0.0000
 Traceless Quadrupole moment (field-independent basis, Debye-Ang):
   XX=             28.7444   YY=             -7.3849   ZZ=            -21.3595
   XY=              4.7273   XZ=             -0.0000   YZ=              0.0000
 Octapole moment (field-independent basis, Debye-Ang**2):
  XXX=             40.7224  YYY=             -0.9932  ZZZ=              0.0000  XYY=             12.9313
  XXY=            -21.9540  XXZ=              0.0005  XZZ=            -11.3432  YZZ=              0.3467
  YYZ=              0.0000  XYZ=              0.0001
 Hexadecapole moment (field-independent basis, Debye-Ang**3):
 XXXX=           -688.9956 YYYY=           -340.7275 ZZZZ=            -59.8975 XXXY=             82.3714
 XXXZ=              0.0000 YYYX=              3.3768 YYYZ=              0.0001 ZZZX=              0.0000
 ZZZY=             -0.0000 XXYY=           -249.5143 XXZZ=           -268.1634 YYZZ=            -82.8171
 XXYZ=             -0.0002 YYXZ=             -0.0000 ZZXY=             -0.5086
 N-N= 5.075005780756D+02 E-N=-2.148934138394D+03  KE= 4.877285247621D+02
 Calling FoFJK, ICntrl=      2127 FMM=F ISym2X=0 I1Cent= 0 IOpClX= 0 NMat=1 NMatS=1 NMatT=0.
 ***** Axes restored to original set *****
 -------------------------------------------------------------------
 Center     Atomic                   Forces (Hartrees/Bohr)
 Number     Number              X              Y              Z
 -------------------------------------------------------------------
      1        6          -0.005680168    0.002143159    0.000000092
      2        6           0.005647895    0.000945640    0.000000031
      3        6          -0.005451844   -0.002694032    0.000000032
      4        6           0.004927029   -0.001875719    0.000000022
      5        6          -0.002799784    0.000218745   -0.000000014
      6        6           0.005208840    0.002037687    0.000000021
      7        7           0.006335604    0.000088835    0.000000000
      8        7           0.002525822    0.000372246   -0.000000495
      9        8          -0.007588992   -0.012773417    0.000000113
     10        8          -0.004270597    0.011773959    0.000000154
     11        1           0.000025990    0.000150768   -0.000000011
     12        1          -0.000056153   -0.000163839    0.000000030
     13        1           0.000221677   -0.000558432   -0.000000031
     14        1           0.000234989    0.000549791   -0.000000083
     15        1           0.000750116    0.000425565    0.000000037
     16        1           0.000776667   -0.000389431    0.000000020
     17        1          -0.000807094   -0.000251524    0.000000083
 -------------------------------------------------------------------
 Cartesian Forces:  Max     0.012773417 RMS     0.003432440

 GradGradGradGradGradGradGradGradGradGradGradGradGradGradGradGradGradGrad
 Berny optimization.
 FormGI is forming the generalized inverse of G from B-inverse, IUseBI=4.
 GSVD:  received Info=                   1 from GESDD.
 Internal  Forces:  Max     0.014834884 RMS     0.003083851
 Search for a local minimum.
 Step number   1 out of a maximum of   86
 All quantities printed in internal units (Hartrees-Bohrs-Radians)
 Mixed Optimization -- RFO/linear search
 Second derivative matrix not updated -- first step.
 ITU=  0
     Eigenvalues ---    0.01646   0.01686   0.01801   0.01906   0.01976
     Eigenvalues ---    0.01985   0.02025   0.02118   0.02122   0.02124
     Eigenvalues ---    0.02248   0.02265   0.02530   0.02530   0.16000
     Eigenvalues ---    0.16000   0.16000   0.16000   0.16000   0.16000
     Eigenvalues ---    0.16000   0.22000   0.22948   0.24000   0.25000
     Eigenvalues ---    0.25000   0.25000   0.25000   0.35370   0.35374
     Eigenvalues ---    0.35525   0.35681   0.37957   0.39426   0.41111
     Eigenvalues ---    0.41190   0.45731   0.45735   0.48753   0.50325
     Eigenvalues ---    0.51331   0.51500   0.51721   0.57972   0.96697
 RFO step:  Lambda=-1.23628501D-03 EMin= 1.64638733D-02
 Linear search not attempted -- first point.
 Iteration  1 RMS(Cart)=  0.01256561 RMS(Int)=  0.00000799
 Iteration  2 RMS(Cart)=  0.00001084 RMS(Int)=  0.00000028
 Iteration  3 RMS(Cart)=  0.00000000 RMS(Int)=  0.00000028
 Variable       Old X    -DE/DX   Delta X   Delta X   Delta X     New X
                                 (Linear)    (Quad)   (Total)
    R1        2.69475  -0.00325   0.00000  -0.00780  -0.00780   2.68695
    R2        2.58291  -0.00794   0.00000  -0.01536  -0.01536   2.56755
    R3        2.04584  -0.00012   0.00000  -0.00032  -0.00032   2.04551
    R4        2.69556  -0.00330   0.00000  -0.00793  -0.00793   2.68763
    R5        2.58381  -0.01017   0.00000  -0.01971  -0.01971   2.56411
    R6        2.58053  -0.00772   0.00000  -0.01485  -0.01485   2.56567
    R7        2.04830  -0.00017   0.00000  -0.00048  -0.00048   2.04783
    R8        2.70849  -0.00366   0.00000  -0.00901  -0.00901   2.69948
    R9        2.05078  -0.00059   0.00000  -0.00167  -0.00167   2.04912
   R10        2.70731  -0.00336   0.00000  -0.00827  -0.00827   2.69905
   R11        2.52582  -0.00786   0.00000  -0.01354  -0.01354   2.51229
   R12        2.05072  -0.00059   0.00000  -0.00168  -0.00168   2.04904
   R13        1.91131  -0.00075   0.00000  -0.00163  -0.00163   1.90968
   R14        1.91135  -0.00075   0.00000  -0.00163  -0.00163   1.90972
   R15        2.29991  -0.01483   0.00000  -0.01532  -0.01532   2.28459
   R16        2.59539  -0.01256   0.00000  -0.02489  -0.02489   2.57050
   R17        1.85246  -0.00084   0.00000  -0.00164  -0.00164   1.85082
    A1        2.08052  -0.00052   0.00000  -0.00216  -0.00216   2.07836
    A2        2.10018   0.00016   0.00000   0.00044   0.00044   2.10062
    A3        2.10249   0.00036   0.00000   0.00172   0.00172   2.10421
    A4        2.11190   0.00089   0.00000   0.00373   0.00372   2.11562
    A5        2.11664  -0.00071   0.00000  -0.00293  -0.00293   2.11371
    A6        2.05464  -0.00018   0.00000  -0.00079  -0.00079   2.05385
    A7        2.08452  -0.00040   0.00000  -0.00158  -0.00158   2.08294
    A8        2.08599   0.00017   0.00000   0.00058   0.00058   2.08657
    A9        2.11267   0.00023   0.00000   0.00100   0.00100   2.11367
   A10        2.10124  -0.00061   0.00000  -0.00257  -0.00257   2.09867
   A11        2.09593   0.00041   0.00000   0.00193   0.00193   2.09786
   A12        2.08602   0.00020   0.00000   0.00064   0.00064   2.08666
   A13        2.08352   0.00111   0.00000   0.00455   0.00455   2.08808
   A14        2.09945  -0.00052   0.00000  -0.00213  -0.00213   2.09732
   A15        2.10021  -0.00059   0.00000  -0.00242  -0.00242   2.09779
   A16        2.10467  -0.00047   0.00000  -0.00197  -0.00197   2.10270
   A17        2.09389   0.00030   0.00000   0.00138   0.00137   2.09526
   A18        2.08463   0.00017   0.00000   0.00059   0.00059   2.08522
   A19        2.12230  -0.00027   0.00000  -0.00166  -0.00166   2.12064
   A20        2.12181  -0.00029   0.00000  -0.00179  -0.00179   2.12002
   A21        2.03907   0.00056   0.00000   0.00345   0.00345   2.04252
   A22        2.21497   0.00051   0.00000   0.00205   0.00205   2.21702
   A23        2.00567   0.00087   0.00000   0.00347   0.00347   2.00914
   A24        2.06254  -0.00139   0.00000  -0.00552  -0.00552   2.05702
   A25        1.81829   0.00010   0.00000   0.00061   0.00061   1.81889
    D1       -0.00000   0.00000   0.00000   0.00000   0.00000   0.00000
    D2       -3.14159  -0.00000   0.00000  -0.00000  -0.00000  -3.14159
    D3       -3.14159  -0.00000   0.00000  -0.00000  -0.00000  -3.14159
    D4        0.00000  -0.00000   0.00000  -0.00000  -0.00000   0.00000
    D5        0.00000  -0.00000   0.00000  -0.00000  -0.00000   0.00000
    D6       -3.14159  -0.00000   0.00000  -0.00000  -0.00000  -3.14159
    D7       -3.14159  -0.00000   0.00000  -0.00000  -0.00000  -3.14159
    D8        0.00000  -0.00000   0.00000  -0.00000  -0.00000   0.00000
    D9       -0.00000  -0.00000   0.00000  -0.00000  -0.00000  -0.00000
   D10       -3.14159  -0.00000   0.00000  -0.00000  -0.00000   3.14159
   D11        3.14159   0.00000   0.00000   0.00000   0.00000   3.14159
   D12       -0.00000   0.00000   0.00000   0.00000   0.00000  -0.00000
   D13       -3.14159   0.00000   0.00000   0.00000   0.00000  -3.14159
   D14        0.00000  -0.00000   0.00000  -0.00001  -0.00001  -0.00000
   D15        0.00000   0.00000   0.00000   0.00000   0.00000   0.00001
   D16       -3.14159  -0.00000   0.00000  -0.00001  -0.00001   3.14159
   D17        0.00000   0.00000   0.00000   0.00000   0.00000   0.00000
   D18       -3.14159   0.00000   0.00000   0.00000   0.00000  -3.14159
   D19        3.14159   0.00000   0.00000   0.00000   0.00000   3.14159
   D20       -0.00000   0.00000   0.00000   0.00000   0.00000  -0.00000
   D21        0.00000  -0.00000   0.00000  -0.00000  -0.00000   0.00000
   D22       -3.14159  -0.00000   0.00000  -0.00000  -0.00000  -3.14159
   D23       -3.14159  -0.00000   0.00000  -0.00000  -0.00000  -3.14159
   D24        0.00000  -0.00000   0.00000  -0.00000  -0.00000   0.00000
   D25       -0.00000   0.00000   0.00000   0.00000   0.00000  -0.00000
   D26        3.14159   0.00000   0.00000   0.00000   0.00000   3.14159
   D27        3.14159   0.00000   0.00000   0.00000   0.00000   3.14159
   D28       -0.00000   0.00000   0.00000   0.00000   0.00000  -0.00000
   D29        3.14159   0.00000   0.00000   0.00000   0.00000   3.14159
   D30        0.00000  -0.00000   0.00000  -0.00000  -0.00000   0.00000
   D31       -0.00000   0.00000   0.00000   0.00000   0.00000  -0.00000
   D32       -3.14159  -0.00000   0.00000  -0.00000  -0.00000  -3.14159
   D33        3.14159   0.00000   0.00000   0.00001   0.00001  -3.14159
   D34       -0.00000  -0.00000   0.00000  -0.00000  -0.00000  -0.00000
         Item               Value     Threshold  Converged?
 Maximum Force            0.014835     0.000450     NO 
 RMS     Force            0.003084     0.000300     NO 
 Maximum Displacement     0.040792     0.001800     NO 
 RMS     Displacement     0.012569     0.001200     NO 
 Predicted change in Energy=-6.195784D-04
 GradGradGradGradGradGradGradGradGradGradGradGradGradGradGradGradGradGrad

                          Input orientation:                          
 ---------------------------------------------------------------------
 Center     Atomic      Atomic             Coordinates (Angstroms)
 Number     Number       Type             X           Y           Z
 ---------------------------------------------------------------------
      1          6           0       -0.009619   -1.216149   -0.000001
      2          6           0        0.661720    0.037255   -0.000002
      3          6           0       -0.062463    1.261310   -0.000002
      4          6           0       -1.419826    1.231317   -0.000001
      5          6           0       -2.111922   -0.018335   -0.000000
      6          6           0       -1.368138   -1.237660    0.000001
      7          7           0       -3.441082   -0.045915    0.000000
      8          7           0        2.016810    0.106678   -0.000004
      9          8           0        2.694476    1.107846    0.000000
     10          8           0        2.656420   -1.093812   -0.000000
     11          1           0        0.555458   -2.139384   -0.000000
     12          1           0        0.476725    2.201311   -0.000002
     13          1           0       -1.985818    2.156227   -0.000001
     14          1           0       -1.896177   -2.184706    0.000002
     15          1           0       -3.951170   -0.918293   -0.000000
     16          1           0       -3.986398    0.804912   -0.000001
     17          1           0        3.607423   -0.859638    0.000002
 ---------------------------------------------------------------------
                    Distance matrix (angstroms):
                    1          2          3          4          5
     1  C    0.000000
     2  C    1.421871   0.000000
     3  C    2.478023   1.422235   0.000000
     4  C    2.824672   2.399712   1.357695   0.000000
     5  C    2.419594   2.774199   2.416149   1.428505   0.000000
     6  C    1.358690   2.397026   2.819511   2.469518   1.428274
     7  N    3.625519   4.103645   3.622693   2.390982   1.329446
     8  N    2.419977   1.356867   2.378350   3.615976   4.130625
     9  O    3.565542   2.297447   2.761207   4.116155   4.936573
    10  O    2.668844   2.293063   3.597071   4.692761   4.888122
    11  H    1.082439   2.179231   3.456377   3.906836   3.407898
    12  H    3.451893   2.171949   1.083663   2.130210   3.409974
    13  H    3.908744   3.391092   2.121361   1.084346   2.178215
    14  H    2.120661   3.388207   3.903528   3.449075   2.177087
    15  H    3.952789   4.710820   4.457882   3.320922   2.047622
    16  H    4.460882   4.711083   3.950389   2.601752   2.047290
    17  H    3.634569   3.079217   4.238688   5.444752   5.780890
                    6          7          8          9         10
     6  C    0.000000
     7  N    2.391098   0.000000
     8  N    3.642131   5.460025   0.000000
     9  O    4.691081   6.243095   1.208954   0.000000
    10  O    4.027128   6.186890   1.360248   2.201987   0.000000
    11  H    2.124460   4.511646   2.679616   3.888432   2.346755
    12  H    3.902569   4.516551   2.599875   2.472667   3.950810
    13  H    3.449637   2.639549   4.496853   4.796276   5.666844
    14  H    1.084307   2.638401   4.534524   5.649336   4.681472
    15  H    2.602700   1.010561   6.055358   6.947651   6.609920
    16  H    3.320751   1.010582   6.043678   6.687739   6.908848
    17  H    4.989901   7.095320   1.861132   2.168978   0.979410
                   11         12         13         14         15
    11  H    0.000000
    12  H    4.341408   0.000000
    13  H    4.991028   2.462956   0.000000
    14  H    2.452054   4.986763   4.341858   0.000000
    15  H    4.669129   5.416473   3.649011   2.413877   0.000000
    16  H    5.412702   4.676473   2.414202   3.647855   1.723565
    17  H    3.309416   4.378432   6.354509   5.660867   7.558820
                   16         17
    16  H    0.000000
    17  H    7.774114   0.000000
 Stoichiometry    C6H7N2O2(1+)
 Framework group  C1[X(C6H7N2O2)]
 Deg. of freedom    45
 Full point group                 C1      NOp   1
 Largest Abelian subgroup         C1      NOp   1
 Largest concise Abelian subgroup C1      NOp   1
                         Standard orientation:                         
 ---------------------------------------------------------------------
 Center     Atomic      Atomic             Coordinates (Angstroms)
 Number     Number       Type             X           Y           Z
 ---------------------------------------------------------------------
      1          6           0        0.006514   -1.215390   -0.000000
      2          6           0       -0.664507    0.038184    0.000002
      3          6           0        0.059985    1.262055    0.000001
      4          6           0        1.417341    1.231718   -0.000000
      5          6           0        2.109121   -0.018108   -0.000001
      6          6           0        1.365028   -1.237245   -0.000001
      7          7           0        3.438273   -0.046025   -0.000001
      8          7           0       -2.019580    0.107950    0.000003
      9          8           0       -2.696992    1.109290   -0.000001
     10          8           0       -2.659493   -1.092378   -0.000001
     11          1           0       -0.558797   -2.138481   -0.000001
     12          1           0       -0.478965    2.202193    0.000002
     13          1           0        1.983568    2.156485   -0.000000
     14          1           0        1.892827   -2.184425   -0.000003
     15          1           0        3.948141   -0.918532   -0.000000
     16          1           0        3.983805    0.804664   -0.000000
     17          1           0       -3.610437   -0.857963   -0.000003
 ---------------------------------------------------------------------
 Rotational constants (GHZ):      3.7824750      0.8285723      0.6796837
 Standard basis: 6-31+G(d,p) (6D, 7F)
 There are   225 symmetry adapted cartesian basis functions of A   symmetry.
 There are   225 symmetry adapted basis functions of A   symmetry.
   225 basis functions,   369 primitive gaussians,   225 cartesian basis functions
    36 alpha electrons       36 beta electrons
       nuclear repulsion energy       510.1966794088 Hartrees.
 NAtoms=   17 NActive=   17 NUniq=   17 SFac= 1.00D+00 NAtFMM=   60 NAOKFM=F Big=F
 Integral buffers will be    131072 words long.
 Raffenetti 2 integral format.
 Two-electron integral symmetry is turned on.
 One-electron integrals computed using PRISM.
 NBasis=   225 RedAO= T EigKep=  3.29D-06  NBF=   225
 NBsUse=   225 1.00D-06 EigRej= -1.00D+00 NBFU=   225
 Initial guess from the checkpoint file:  "camb3lyp4NiAnyang.chk"
 B after Tr=    -0.000000   -0.000000    0.000000
         Rot=    1.000000   -0.000000   -0.000000   -0.000005 Ang=  -0.00 deg.
 ExpMin= 4.38D-02 ExpMax= 5.48D+03 ExpMxC= 8.25D+02 IAcc=2 IRadAn=         4 AccDes= 0.00D+00
 Harris functional with IExCor=20419 and IRadAn=       4 diagonalized for initial guess.
 HarFok:  IExCor=20419 AccDes= 0.00D+00 IRadAn=         4 IDoV= 1 UseB2=F ITyADJ=14
 ICtDFT=  3500011 ScaDFX=  1.000000  1.000000  1.000000  1.000000
 FoFCou: FMM=F IPFlag=           0 FMFlag=      100000 FMFlg1=           0
         NFxFlg=           0 DoJE=T BraDBF=F KetDBF=T FulRan=T
         wScrn=  0.000000 ICntrl=     500 IOpCl=  0 I1Cent=   200000004 NGrid=           0
         NMat0=    1 NMatS0=      1 NMatT0=    0 NMatD0=    1 NMtDS0=    0 NMtDT0=    0
 Petite list used in FoFCou.
 Keep R1 ints in memory in canonical form, NReq=652403680.
 Requested convergence on RMS density matrix=1.00D-08 within 128 cycles.
 Requested convergence on MAX density matrix=1.00D-06.
 Requested convergence on             energy=1.00D-06.
 No special actions if energy rises.
 SCF Done:  E(RCAM-B3LYP) =  -492.255765803     A.U. after   12 cycles
            NFock= 12  Conv=0.45D-08     -V/T= 2.0089
 Calling FoFJK, ICntrl=      2127 FMM=F ISym2X=0 I1Cent= 0 IOpClX= 0 NMat=1 NMatS=1 NMatT=0.
 ***** Axes restored to original set *****
 -------------------------------------------------------------------
 Center     Atomic                   Forces (Hartrees/Bohr)
 Number     Number              X              Y              Z
 -------------------------------------------------------------------
      1        6          -0.000380139   -0.000406089   -0.000000105
      2        6           0.001377494    0.000566367   -0.000000214
      3        6          -0.000293613    0.000227607   -0.000000105
      4        6           0.000056511    0.000604589   -0.000000001
      5        6          -0.001197498    0.000035361    0.000000030
      6        6           0.000135783   -0.000647788    0.000000013
      7        7          -0.000256287   -0.000038701   -0.000000024
      8        7           0.001820997   -0.002951908    0.000001173
      9        8          -0.000220652    0.000322932   -0.000000452
     10        8          -0.000593885    0.002899998   -0.000000314
     11        1           0.000099867    0.000097263   -0.000000005
     12        1           0.000177953   -0.000080898    0.000000002
     13        1          -0.000242846   -0.000047031    0.000000012
     14        1          -0.000270018    0.000038434   -0.000000008
     15        1          -0.000141832    0.000033279    0.000000018
     16        1          -0.000140903   -0.000035322    0.000000005
     17        1           0.000069068   -0.000618095   -0.000000025
 -------------------------------------------------------------------
 Cartesian Forces:  Max     0.002951908 RMS     0.000721419

 GradGradGradGradGradGradGradGradGradGradGradGradGradGradGradGradGradGrad
 Berny optimization.
 Using GEDIIS/GDIIS optimizer.
 FormGI is forming the generalized inverse of G from B-inverse, IUseBI=4.
 GSVD:  received Info=                   1 from GESDD.
 Internal  Forces:  Max     0.002260355 RMS     0.000474387
 Search for a local minimum.
 Step number   2 out of a maximum of   86
 All quantities printed in internal units (Hartrees-Bohrs-Radians)
 Mixed Optimization -- En-DIIS/RFO-DIIS
 Update second derivatives using D2CorX and points    1    2
 DE= -6.01D-04 DEPred=-6.20D-04 R= 9.69D-01
 TightC=F SS=  1.41D+00  RLast= 4.81D-02 DXNew= 5.0454D-01 1.4442D-01
 Trust test= 9.69D-01 RLast= 4.81D-02 DXMaxT set to 3.00D-01
 ITU=  1  0
 Use linear search instead of GDIIS.
     Eigenvalues ---    0.01646   0.01686   0.01801   0.01905   0.01977
     Eigenvalues ---    0.01986   0.02023   0.02119   0.02122   0.02124
     Eigenvalues ---    0.02247   0.02265   0.02530   0.02530   0.15883
     Eigenvalues ---    0.16000   0.16000   0.16000   0.16000   0.16000
     Eigenvalues ---    0.16044   0.21999   0.22924   0.24302   0.24862
     Eigenvalues ---    0.25000   0.25000   0.25157   0.35371   0.35383
     Eigenvalues ---    0.35526   0.35680   0.37915   0.39425   0.41185
     Eigenvalues ---    0.42233   0.45612   0.45733   0.45815   0.48744
     Eigenvalues ---    0.51329   0.51585   0.55371   0.59809   0.96814
 RFO step:  Lambda=-4.48848352D-05 EMin= 1.64638733D-02
 Quartic linear search produced a step of -0.03606.
 Iteration  1 RMS(Cart)=  0.00255835 RMS(Int)=  0.00000288
 Iteration  2 RMS(Cart)=  0.00000413 RMS(Int)=  0.00000018
 Iteration  3 RMS(Cart)=  0.00000000 RMS(Int)=  0.00000018
 Variable       Old X    -DE/DX   Delta X   Delta X   Delta X     New X
                                 (Linear)    (Quad)   (Total)
    R1        2.68695   0.00106   0.00028   0.00190   0.00218   2.68912
    R2        2.56755   0.00101   0.00055   0.00077   0.00132   2.56887
    R3        2.04551  -0.00003   0.00001  -0.00011  -0.00010   2.04542
    R4        2.68763   0.00085   0.00029   0.00139   0.00167   2.68931
    R5        2.56411   0.00106   0.00071   0.00053   0.00124   2.56535
    R6        2.56567   0.00104   0.00054   0.00085   0.00138   2.56705
    R7        2.04783   0.00002   0.00002   0.00001   0.00003   2.04786
    R8        2.69948   0.00077   0.00032   0.00117   0.00149   2.70098
    R9        2.04912   0.00009   0.00006   0.00011   0.00017   2.04929
   R10        2.69905   0.00080   0.00030   0.00128   0.00158   2.70063
   R11        2.51229   0.00054   0.00049  -0.00010   0.00039   2.51268
   R12        2.04904   0.00010   0.00006   0.00014   0.00020   2.04925
   R13        1.90968   0.00004   0.00006  -0.00003   0.00003   1.90971
   R14        1.90972   0.00005   0.00006  -0.00002   0.00004   1.90976
   R15        2.28459   0.00014   0.00055  -0.00098  -0.00042   2.28417
   R16        2.57050  -0.00226   0.00090  -0.00616  -0.00526   2.56523
   R17        1.85082  -0.00008   0.00006  -0.00027  -0.00021   1.85060
    A1        2.07836   0.00049   0.00008   0.00187   0.00195   2.08031
    A2        2.10062  -0.00038  -0.00002  -0.00182  -0.00184   2.09878
    A3        2.10421  -0.00011  -0.00006  -0.00005  -0.00011   2.10409
    A4        2.11562  -0.00094  -0.00013  -0.00346  -0.00359   2.11203
    A5        2.11371   0.00058   0.00011   0.00208   0.00219   2.11590
    A6        2.05385   0.00036   0.00003   0.00138   0.00141   2.05526
    A7        2.08294   0.00052   0.00006   0.00203   0.00208   2.08503
    A8        2.08657  -0.00046  -0.00002  -0.00223  -0.00225   2.08432
    A9        2.11367  -0.00006  -0.00004   0.00020   0.00017   2.11384
   A10        2.09867   0.00025   0.00009   0.00075   0.00084   2.09951
   A11        2.09786   0.00011  -0.00007   0.00110   0.00103   2.09889
   A12        2.08666  -0.00036  -0.00002  -0.00185  -0.00187   2.08478
   A13        2.08808  -0.00057  -0.00016  -0.00199  -0.00215   2.08592
   A14        2.09732   0.00032   0.00008   0.00114   0.00122   2.09854
   A15        2.09779   0.00025   0.00009   0.00085   0.00094   2.09872
   A16        2.10270   0.00025   0.00007   0.00080   0.00087   2.10357
   A17        2.09526   0.00014  -0.00005   0.00120   0.00115   2.09641
   A18        2.08522  -0.00038  -0.00002  -0.00200  -0.00202   2.08320
   A19        2.12064   0.00009   0.00006   0.00042   0.00047   2.12112
   A20        2.12002   0.00009   0.00006   0.00038   0.00045   2.12047
   A21        2.04252  -0.00018  -0.00012  -0.00080  -0.00092   2.04160
   A22        2.21702  -0.00070  -0.00007  -0.00253  -0.00260   2.21442
   A23        2.00914   0.00056  -0.00013   0.00242   0.00229   2.01144
   A24        2.05702   0.00014   0.00020   0.00011   0.00031   2.05733
   A25        1.81889   0.00114  -0.00002   0.00692   0.00690   1.82580
    D1        0.00000  -0.00000  -0.00000  -0.00000  -0.00000  -0.00000
    D2       -3.14159  -0.00000   0.00000  -0.00000  -0.00000   3.14159
    D3       -3.14159  -0.00000   0.00000  -0.00000  -0.00000   3.14159
    D4        0.00000   0.00000   0.00000   0.00000   0.00000   0.00000
    D5        0.00000   0.00000   0.00000   0.00000   0.00000   0.00000
    D6       -3.14159   0.00000   0.00000   0.00000   0.00000  -3.14159
    D7       -3.14159  -0.00000   0.00000  -0.00000  -0.00000   3.14159
    D8        0.00000  -0.00000   0.00000  -0.00000  -0.00000   0.00000
    D9       -0.00000   0.00000   0.00000   0.00000   0.00000   0.00000
   D10        3.14159   0.00000   0.00000   0.00000   0.00000  -3.14159
   D11        3.14159   0.00000  -0.00000   0.00000   0.00000  -3.14159
   D12       -0.00000  -0.00000  -0.00000  -0.00000  -0.00000  -0.00000
   D13       -3.14159  -0.00000  -0.00000  -0.00002  -0.00002   3.14158
   D14       -0.00000   0.00000   0.00000   0.00001   0.00001   0.00001
   D15        0.00001  -0.00000  -0.00000  -0.00001  -0.00001  -0.00001
   D16        3.14159   0.00000   0.00000   0.00001   0.00001  -3.14158
   D17        0.00000  -0.00000  -0.00000  -0.00000  -0.00000  -0.00000
   D18       -3.14159  -0.00000  -0.00000  -0.00000  -0.00000   3.14159
   D19        3.14159   0.00000  -0.00000   0.00000   0.00000  -3.14159
   D20       -0.00000   0.00000  -0.00000   0.00000   0.00000   0.00000
   D21        0.00000  -0.00000   0.00000  -0.00000  -0.00000   0.00000
   D22       -3.14159  -0.00000   0.00000  -0.00000  -0.00000  -3.14159
   D23       -3.14159  -0.00000   0.00000  -0.00000  -0.00000  -3.14159
   D24        0.00000   0.00000   0.00000  -0.00000  -0.00000   0.00000
   D25       -0.00000   0.00000  -0.00000   0.00000   0.00000  -0.00000
   D26        3.14159   0.00000  -0.00000   0.00000   0.00000   3.14159
   D27        3.14159   0.00000  -0.00000   0.00000   0.00000   3.14159
   D28       -0.00000   0.00000  -0.00000   0.00000   0.00000  -0.00000
   D29        3.14159   0.00000  -0.00000   0.00000   0.00000   3.14159
   D30        0.00000  -0.00000   0.00000  -0.00000  -0.00000   0.00000
   D31       -0.00000   0.00000  -0.00000   0.00000   0.00000  -0.00000
   D32       -3.14159  -0.00000   0.00000  -0.00000  -0.00000  -3.14159
   D33       -3.14159  -0.00000  -0.00000  -0.00001  -0.00001   3.14158
   D34       -0.00000   0.00000   0.00000   0.00001   0.00001   0.00001
         Item               Value     Threshold  Converged?
 Maximum Force            0.002260     0.000450     NO 
 RMS     Force            0.000474     0.000300     NO 
 Maximum Displacement     0.010849     0.001800     NO 
 RMS     Displacement     0.002556     0.001200     NO 
 Predicted change in Energy=-2.329858D-05
 GradGradGradGradGradGradGradGradGradGradGradGradGradGradGradGradGradGrad

                          Input orientation:                          
 ---------------------------------------------------------------------
 Center     Atomic      Atomic             Coordinates (Angstroms)
 Number     Number       Type             X           Y           Z
 ---------------------------------------------------------------------
      1          6           0       -0.010185   -1.216468    0.000003
      2          6           0        0.664336    0.036535    0.000004
      3          6           0       -0.062122    1.260270    0.000001
      4          6           0       -1.420234    1.231067   -0.000001
      5          6           0       -2.114504   -0.018282   -0.000001
      6          6           0       -1.369405   -1.237785    0.000002
      7          7           0       -3.443876   -0.045577   -0.000003
      8          7           0        2.020074    0.106105    0.000006
      9          8           0        2.694925    1.108904   -0.000003
     10          8           0        2.661221   -1.090406   -0.000004
     11          1           0        0.554622   -2.139809    0.000005
     12          1           0        0.477790    2.199875    0.000001
     13          1           0       -1.986681    2.155806   -0.000002
     14          1           0       -1.898730   -2.184236    0.000002
     15          1           0       -3.954576   -0.917614   -0.000003
     16          1           0       -3.989400    0.805141   -0.000004
     17          1           0        3.613164   -0.860563   -0.000010
 ---------------------------------------------------------------------
                    Distance matrix (angstroms):
                    1          2          3          4          5
     1  C    0.000000
     2  C    1.423024   0.000000
     3  C    2.477283   1.423119   0.000000
     4  C    2.824654   2.402569   1.358426   0.000000
     5  C    2.421530   2.779380   2.418050   1.429295   0.000000
     6  C    1.359388   2.399999   2.819445   2.469376   1.429112
     7  N    3.627840   4.109033   3.625121   2.392687   1.329653
     8  N    2.423046   1.357522   2.380680   3.619566   4.136449
     9  O    3.567208   2.296360   2.761199   4.116971   4.939752
    10  O    2.674378   2.292934   3.597537   4.695477   4.894588
    11  H    1.082389   2.179108   3.455563   3.906772   3.409562
    12  H    3.451018   2.171368   1.083680   2.130981   3.411774
    13  H    3.908807   3.393995   2.122714   1.084437   2.177842
    14  H    2.122069   3.391331   3.903557   3.448660   2.176676
    15  H    3.955697   4.716434   4.460312   3.322608   2.048089
    16  H    4.463301   4.716780   3.953563   2.604233   2.047745
    17  H    3.640786   3.082267   4.243307   5.450688   5.789267
                    6          7          8          9         10
     6  C    0.000000
     7  N    2.392654   0.000000
     8  N    3.646178   5.466056   0.000000
     9  O    4.693158   6.246416   1.208730   0.000000
    10  O    4.033319   6.193858   1.357463   2.199568   0.000000
    11  H    2.124977   4.513734   2.681731   3.890377   2.353510
    12  H    3.902517   4.519018   2.600484   2.471013   3.948838
    13  H    3.449274   2.639981   4.500596   4.797233   5.669293
    14  H    1.084414   2.638436   4.539018   5.652118   4.689308
    15  H    2.604922   1.010576   6.061720   6.951449   6.618053
    16  H    3.322336   1.010602   6.049995   6.691224   6.915479
    17  H    4.996828   7.103944   1.863432   2.173007   0.979297
                   11         12         13         14         15
    11  H    0.000000
    12  H    4.340365   0.000000
    13  H    4.991045   2.464865   0.000000
    14  H    2.453753   4.986810   4.340933   0.000000
    15  H    4.671897   5.418912   3.649455   2.414712   0.000000
    16  H    5.414874   4.679858   2.415611   3.647914   1.723107
    17  H    3.315290   4.381421   6.360561   5.668605   7.567955
                   16         17
    16  H    0.000000
    17  H    7.782900   0.000000
 Stoichiometry    C6H7N2O2(1+)
 Framework group  C1[X(C6H7N2O2)]
 Deg. of freedom    45
 Full point group                 C1      NOp   1
 Largest Abelian subgroup         C1      NOp   1
 Largest concise Abelian subgroup C1      NOp   1
                         Standard orientation:                         
 ---------------------------------------------------------------------
 Center     Atomic      Atomic             Coordinates (Angstroms)
 Number     Number       Type             X           Y           Z
 ---------------------------------------------------------------------
      1          6           0        0.007753   -1.215952   -0.000003
      2          6           0       -0.666717    0.037078   -0.000004
      3          6           0        0.059789    1.260784   -0.000001
      4          6           0        1.417900    1.231527    0.000001
      5          6           0        2.112120   -0.017850    0.000001
      6          6           0        1.366973   -1.237324   -0.000002
      7          7           0        3.441492   -0.045198    0.000003
      8          7           0       -2.022453    0.106702   -0.000006
      9          8           0       -2.697263    1.109528    0.000003
     10          8           0       -2.663647   -1.089783    0.000004
     11          1           0       -0.557090   -2.139271   -0.000005
     12          1           0       -0.480084    2.200411   -0.000001
     13          1           0        1.984385    2.156243    0.000002
     14          1           0        1.896259   -2.183796   -0.000002
     15          1           0        3.952157   -0.917256    0.000003
     16          1           0        3.987050    0.805497    0.000004
     17          1           0       -3.615581   -0.859901    0.000010
 ---------------------------------------------------------------------
 Rotational constants (GHZ):      3.7858615      0.8269047      0.6786701
 Standard basis: 6-31+G(d,p) (6D, 7F)
 There are   225 symmetry adapted cartesian basis functions of A   symmetry.
 There are   225 symmetry adapted basis functions of A   symmetry.
   225 basis functions,   369 primitive gaussians,   225 cartesian basis functions
    36 alpha electrons       36 beta electrons
       nuclear repulsion energy       509.9959524385 Hartrees.
 NAtoms=   17 NActive=   17 NUniq=   17 SFac= 1.00D+00 NAtFMM=   60 NAOKFM=F Big=F
 Integral buffers will be    131072 words long.
 Raffenetti 2 integral format.
 Two-electron integral symmetry is turned on.
 One-electron integrals computed using PRISM.
 NBasis=   225 RedAO= T EigKep=  3.30D-06  NBF=   225
 NBsUse=   225 1.00D-06 EigRej= -1.00D+00 NBFU=   225
 Initial guess from the checkpoint file:  "camb3lyp4NiAnyang.chk"
 B after Tr=     0.000000   -0.000000    0.000000
         Rot=    1.000000   -0.000000    0.000000    0.000001 Ang=  -0.00 deg.
 Keep R1 ints in memory in canonical form, NReq=652403680.
 Requested convergence on RMS density matrix=1.00D-08 within 128 cycles.
 Requested convergence on MAX density matrix=1.00D-06.
 Requested convergence on             energy=1.00D-06.
 No special actions if energy rises.
 SCF Done:  E(RCAM-B3LYP) =  -492.255791986     A.U. after   10 cycles
            NFock= 10  Conv=0.84D-08     -V/T= 2.0089
 Calling FoFJK, ICntrl=      2127 FMM=F ISym2X=0 I1Cent= 0 IOpClX= 0 NMat=1 NMatS=1 NMatT=0.
 ***** Axes restored to original set *****
 -------------------------------------------------------------------
 Center     Atomic                   Forces (Hartrees/Bohr)
 Number     Number              X              Y              Z
 -------------------------------------------------------------------
      1        6          -0.000095846    0.000056091    0.000000219
      2        6          -0.000190240    0.000044415    0.000000449
      3        6          -0.000081408   -0.000033536    0.000000260
      4        6           0.000110678    0.000069388   -0.000000030
      5        6          -0.000148003    0.000026985    0.000000031
      6        6           0.000148032   -0.000120987   -0.000000032
      7        7           0.000022586   -0.000007254   -0.000000010
      8        7           0.000959852   -0.001690104   -0.000002484
      9        8           0.000215392    0.000935362    0.000000923
     10        8          -0.000805491    0.000689426    0.000000682
     11        1           0.000053172   -0.000064111    0.000000007
     12        1           0.000015202    0.000031789   -0.000000012
     13        1          -0.000010952    0.000023605   -0.000000044
     14        1          -0.000020511   -0.000020322   -0.000000041
     15        1          -0.000046912   -0.000014459    0.000000007
     16        1          -0.000049457    0.000014171    0.000000002
     17        1          -0.000076093    0.000059540    0.000000072
 -------------------------------------------------------------------
 Cartesian Forces:  Max     0.001690104 RMS     0.000342492

 GradGradGradGradGradGradGradGradGradGradGradGradGradGradGradGradGradGrad
 Berny optimization.
 Using GEDIIS/GDIIS optimizer.
 FormGI is forming the generalized inverse of G from B-inverse, IUseBI=4.
 Internal  Forces:  Max     0.001076353 RMS     0.000188010
 Search for a local minimum.
 Step number   3 out of a maximum of   86
 All quantities printed in internal units (Hartrees-Bohrs-Radians)
 Mixed Optimization -- En-DIIS/RFO-DIIS
 Swapping is turned off.
 Update second derivatives using D2CorX and points    1    2    3
 DE= -2.62D-05 DEPred=-2.33D-05 R= 1.12D+00
 TightC=F SS=  1.41D+00  RLast= 1.27D-02 DXNew= 5.0454D-01 3.8116D-02
 Trust test= 1.12D+00 RLast= 1.27D-02 DXMaxT set to 3.00D-01
 ITU=  1  1  0
     Eigenvalues ---    0.01646   0.01686   0.01801   0.01905   0.01977
     Eigenvalues ---    0.01986   0.02024   0.02119   0.02123   0.02124
     Eigenvalues ---    0.02247   0.02265   0.02530   0.02530   0.15682
     Eigenvalues ---    0.16000   0.16000   0.16000   0.16000   0.16003
     Eigenvalues ---    0.16345   0.21262   0.22004   0.23059   0.24753
     Eigenvalues ---    0.25000   0.25004   0.28457   0.35349   0.35372
     Eigenvalues ---    0.35519   0.35684   0.36849   0.38079   0.39433
     Eigenvalues ---    0.41188   0.44050   0.45733   0.45741   0.48746
     Eigenvalues ---    0.51329   0.51698   0.55655   0.59428   1.00191
 En-DIIS/RFO-DIIS IScMMF=        0 using points:     3    2
 RFO step:  Lambda=-4.28596721D-06.
 DidBck=F Rises=F RFO-DIIS coefs:    1.14250   -0.14250
 Iteration  1 RMS(Cart)=  0.00074568 RMS(Int)=  0.00000069
 Iteration  2 RMS(Cart)=  0.00000085 RMS(Int)=  0.00000003
 Variable       Old X    -DE/DX   Delta X   Delta X   Delta X     New X
                                 (Linear)    (Quad)   (Total)
    R1        2.68912   0.00005   0.00031   0.00004   0.00035   2.68947
    R2        2.56887  -0.00002   0.00019  -0.00019  -0.00000   2.56887
    R3        2.04542   0.00008  -0.00001   0.00026   0.00025   2.04567
    R4        2.68931   0.00004   0.00024   0.00001   0.00025   2.68956
    R5        2.56535   0.00029   0.00018   0.00045   0.00063   2.56597
    R6        2.56705   0.00001   0.00020  -0.00013   0.00007   2.56712
    R7        2.04786   0.00004   0.00000   0.00011   0.00011   2.04797
    R8        2.70098   0.00013   0.00021   0.00030   0.00052   2.70149
    R9        2.04929   0.00003   0.00002   0.00007   0.00009   2.04938
   R10        2.70063   0.00015   0.00023   0.00036   0.00059   2.70122
   R11        2.51268   0.00007   0.00006   0.00001   0.00006   2.51274
   R12        2.04925   0.00003   0.00003   0.00007   0.00010   2.04935
   R13        1.90971   0.00004   0.00000   0.00007   0.00008   1.90979
   R14        1.90976   0.00004   0.00001   0.00008   0.00009   1.90985
   R15        2.28417   0.00090  -0.00006   0.00091   0.00084   2.28501
   R16        2.56523  -0.00108  -0.00075  -0.00271  -0.00346   2.56177
   R17        1.85060  -0.00006  -0.00003  -0.00015  -0.00018   1.85042
    A1        2.08031   0.00005   0.00028   0.00021   0.00049   2.08080
    A2        2.09878  -0.00004  -0.00026  -0.00020  -0.00046   2.09832
    A3        2.10409  -0.00001  -0.00002  -0.00001  -0.00003   2.10407
    A4        2.11203  -0.00003  -0.00051  -0.00013  -0.00065   2.11138
    A5        2.11590  -0.00010   0.00031  -0.00044  -0.00013   2.11577
    A6        2.05526   0.00012   0.00020   0.00057   0.00077   2.05603
    A7        2.08503   0.00002   0.00030   0.00008   0.00037   2.08540
    A8        2.08432  -0.00001  -0.00032  -0.00002  -0.00035   2.08397
    A9        2.11384  -0.00001   0.00002  -0.00005  -0.00003   2.11381
   A10        2.09951   0.00002   0.00012   0.00010   0.00022   2.09973
   A11        2.09889  -0.00001   0.00015  -0.00006   0.00008   2.09898
   A12        2.08478  -0.00001  -0.00027  -0.00004  -0.00031   2.08448
   A13        2.08592  -0.00007  -0.00031  -0.00023  -0.00054   2.08538
   A14        2.09854   0.00004   0.00017   0.00015   0.00033   2.09887
   A15        2.09872   0.00003   0.00013   0.00008   0.00021   2.09894
   A16        2.10357  -0.00000   0.00012  -0.00002   0.00010   2.10368
   A17        2.09641   0.00001   0.00016   0.00008   0.00024   2.09665
   A18        2.08320  -0.00001  -0.00029  -0.00006  -0.00035   2.08286
   A19        2.12112   0.00002   0.00007   0.00013   0.00020   2.12132
   A20        2.12047   0.00002   0.00006   0.00014   0.00020   2.12067
   A21        2.04160  -0.00004  -0.00013  -0.00027  -0.00040   2.04120
   A22        2.21442  -0.00021  -0.00037  -0.00093  -0.00131   2.21311
   A23        2.01144  -0.00037   0.00033  -0.00165  -0.00133   2.01011
   A24        2.05733   0.00058   0.00004   0.00259   0.00263   2.05996
   A25        1.82580  -0.00014   0.00098  -0.00098   0.00000   1.82580
    D1       -0.00000   0.00000  -0.00000   0.00000   0.00000   0.00000
    D2        3.14159   0.00000  -0.00000   0.00000   0.00000  -3.14159
    D3        3.14159   0.00000  -0.00000   0.00000   0.00000  -3.14159
    D4        0.00000  -0.00000   0.00000  -0.00000  -0.00000  -0.00000
    D5        0.00000  -0.00000   0.00000  -0.00000  -0.00000  -0.00000
    D6       -3.14159  -0.00000   0.00000  -0.00000  -0.00000   3.14159
    D7        3.14159   0.00000  -0.00000   0.00000   0.00000  -3.14159
    D8        0.00000  -0.00000  -0.00000  -0.00000  -0.00000  -0.00000
    D9        0.00000  -0.00000   0.00000  -0.00001  -0.00000  -0.00000
   D10       -3.14159  -0.00000   0.00000  -0.00000  -0.00000   3.14159
   D11       -3.14159  -0.00000   0.00000  -0.00000  -0.00000   3.14159
   D12       -0.00000   0.00000  -0.00000   0.00000   0.00000   0.00000
   D13        3.14158   0.00000  -0.00000   0.00004   0.00004  -3.14157
   D14        0.00001  -0.00000   0.00000  -0.00003  -0.00003  -0.00002
   D15       -0.00001   0.00000  -0.00000   0.00003   0.00003   0.00002
   D16       -3.14158  -0.00000   0.00000  -0.00004  -0.00004   3.14157
   D17       -0.00000   0.00000  -0.00000   0.00000   0.00000   0.00000
   D18        3.14159   0.00000  -0.00000   0.00000   0.00000  -3.14159
   D19       -3.14159  -0.00000   0.00000  -0.00000  -0.00000   3.14159
   D20        0.00000   0.00000   0.00000  -0.00000  -0.00000  -0.00000
   D21        0.00000   0.00000  -0.00000   0.00000   0.00000   0.00000
   D22       -3.14159   0.00000  -0.00000   0.00000   0.00000  -3.14159
   D23       -3.14159  -0.00000  -0.00000  -0.00000  -0.00000   3.14159
   D24        0.00000  -0.00000  -0.00000  -0.00000  -0.00000  -0.00000
   D25       -0.00000  -0.00000   0.00000  -0.00000  -0.00000  -0.00000
   D26        3.14159   0.00000   0.00000   0.00000   0.00000  -3.14159
   D27        3.14159  -0.00000   0.00000  -0.00000  -0.00000   3.14159
   D28       -0.00000   0.00000   0.00000   0.00000   0.00000   0.00000
   D29        3.14159   0.00000   0.00000   0.00000   0.00000   3.14159
   D30        0.00000  -0.00000  -0.00000  -0.00000  -0.00000   0.00000
   D31       -0.00000   0.00000   0.00000   0.00000   0.00000  -0.00000
   D32       -3.14159  -0.00000  -0.00000  -0.00000  -0.00000  -3.14159
   D33        3.14158   0.00000  -0.00000   0.00004   0.00004  -3.14157
   D34        0.00001  -0.00000   0.00000  -0.00003  -0.00003  -0.00002
         Item               Value     Threshold  Converged?
 Maximum Force            0.001076     0.000450     NO 
 RMS     Force            0.000188     0.000300     YES
 Maximum Displacement     0.003356     0.001800     NO 
 RMS     Displacement     0.000745     0.001200     YES
 Predicted change in Energy=-3.727551D-06
 GradGradGradGradGradGradGradGradGradGradGradGradGradGradGradGradGradGrad

                          Input orientation:                          
 ---------------------------------------------------------------------
 Center     Atomic      Atomic             Coordinates (Angstroms)
 Number     Number       Type             X           Y           Z
 ---------------------------------------------------------------------
      1          6           0       -0.009816   -1.216178   -0.000008
      2          6           0        0.665094    0.036824   -0.000012
      3          6           0       -0.061925    1.260381   -0.000006
      4          6           0       -1.420074    1.231138   -0.000001
      5          6           0       -2.114718   -0.018315    0.000001
      6          6           0       -1.369031   -1.237826   -0.000003
      7          7           0       -3.444121   -0.045790    0.000006
      8          7           0        2.021191    0.105909   -0.000018
      9          8           0        2.695353    1.109710    0.000004
     10          8           0        2.659445   -1.090069    0.000009
     11          1           0        0.555260   -2.139507   -0.000011
     12          1           0        0.477962    2.200069   -0.000008
     13          1           0       -1.986651    2.155854    0.000001
     14          1           0       -1.898378   -2.184326   -0.000001
     15          1           0       -3.954898   -0.917830    0.000007
     16          1           0       -3.989956    0.804781    0.000008
     17          1           0        3.611683   -0.861864    0.000025
 ---------------------------------------------------------------------
                    Distance matrix (angstroms):
                    1          2          3          4          5
     1  C    0.000000
     2  C    1.423207   0.000000
     3  C    2.477107   1.423253   0.000000
     4  C    2.824567   2.402980   1.358463   0.000000
     5  C    2.421876   2.780359   2.418475   1.429568   0.000000
     6  C    1.359387   2.400500   2.819497   2.469491   1.429424
     7  N    3.628258   4.110045   3.625649   2.393180   1.329687
     8  N    2.423407   1.357855   2.381634   3.620559   4.137774
     9  O    3.567589   2.296309   2.761392   4.117218   4.940568
    10  O    2.672238   2.290703   3.595896   4.693663   4.892983
    11  H    1.082519   2.179101   3.455453   3.906814   3.410020
    12  H    3.450894   2.171324   1.083739   2.131048   3.412215
    13  H    3.908769   3.394413   2.122838   1.084486   2.177938
    14  H    2.122257   3.391887   3.903660   3.448792   2.176787
    15  H    3.956347   4.717594   4.460924   3.323161   2.048265
    16  H    4.463831   4.717971   3.954365   2.605010   2.047928
    17  H    3.638790   3.080588   4.242560   5.449700   5.788198
                    6          7          8          9         10
     6  C    0.000000
     7  N    2.393104   0.000000
     8  N    3.646811   5.467417   0.000000
     9  O    4.693628   6.247265   1.209178   0.000000
    10  O    4.031185   6.192256   1.355630   2.200072   0.000000
    11  H    2.125071   4.514277   2.681575   3.890682   2.351364
    12  H    3.902628   4.519581   2.601358   2.470973   3.947642
    13  H    3.449423   2.640352   4.501674   4.797455   5.667647
    14  H    1.084468   2.638684   4.539625   5.652702   4.687339
    15  H    2.605591   1.010617   6.063141   6.952464   6.616585
    16  H    3.322874   1.010647   6.051637   6.692260   6.914115
    17  H    4.994883   7.102840   1.861786   2.174112   0.979201
                   11         12         13         14         15
    11  H    0.000000
    12  H    4.340264   0.000000
    13  H    4.991136   2.465009   0.000000
    14  H    2.454048   4.986974   4.341077   0.000000
    15  H    4.672689   5.419552   3.649868   2.415219   0.000000
    16  H    5.415517   4.680718   2.416326   3.648213   1.722968
    17  H    3.312716   4.381283   6.359871   5.666540   7.566788
                   16         17
    16  H    0.000000
    17  H    7.782199   0.000000
 Stoichiometry    C6H7N2O2(1+)
 Framework group  C1[X(C6H7N2O2)]
 Deg. of freedom    45
 Full point group                 C1      NOp   1
 Largest Abelian subgroup         C1      NOp   1
 Largest concise Abelian subgroup C1      NOp   1
                         Standard orientation:                         
 ---------------------------------------------------------------------
 Center     Atomic      Atomic             Coordinates (Angstroms)
 Number     Number       Type             X           Y           Z
 ---------------------------------------------------------------------
      1          6           0        0.007646   -1.215783    0.000006
      2          6           0       -0.667427    0.037131    0.000010
      3          6           0        0.059434    1.260782    0.000005
      4          6           0        1.417587    1.231715   -0.000001
      5          6           0        2.112392   -0.017649   -0.000003
      6          6           0        1.366863   -1.237255    0.000001
      7          7           0        3.441799   -0.044952   -0.000007
      8          7           0       -2.023532    0.106041    0.000016
      9          8           0       -2.697824    1.109754   -0.000006
[...]
 ! D18   D(2,3,4,13)           179.9998         -DE/DX =    0.0                 !
 ! D19   D(12,3,4,5)          -180.0            -DE/DX =    0.0                 !
 ! D20   D(12,3,4,13)            0.0            -DE/DX =    0.0                 !
 ! D21   D(3,4,5,6)              0.0            -DE/DX =    0.0                 !
 ! D22   D(3,4,5,7)            180.0            -DE/DX =    0.0                 !
 ! D23   D(13,4,5,6)          -180.0            -DE/DX =    0.0                 !
 ! D24   D(13,4,5,7)             0.0            -DE/DX =    0.0                 !
 ! D25   D(4,5,6,1)              0.0            -DE/DX =    0.0                 !
 ! D26   D(4,5,6,14)          -180.0            -DE/DX =    0.0                 !
 ! D27   D(7,5,6,1)           -180.0            -DE/DX =    0.0                 !
 ! D28   D(7,5,6,14)             0.0            -DE/DX =    0.0                 !
 ! D29   D(4,5,7,15)          -180.0            -DE/DX =    0.0                 !
 ! D30   D(4,5,7,16)             0.0            -DE/DX =    0.0                 !
 ! D31   D(6,5,7,15)             0.0            -DE/DX =    0.0                 !
 ! D32   D(6,5,7,16)           180.0            -DE/DX =    0.0                 !
 ! D33   D(2,8,10,17)          179.9978         -DE/DX =    0.0                 !
 ! D34   D(9,8,10,17)            0.0017         -DE/DX =    0.0                 !
 --------------------------------------------------------------------------------
 GradGradGradGradGradGradGradGradGradGradGradGradGradGradGradGradGradGrad

 1\1\ WCSS.PL-BEM-QINLAB\Freq\RCAM-B3LYP\6-31+G(d,p)\C6H7N2O2(1+)\PHZD\
 20-Jun-2024\0\\#N Geom=AllCheck Guess=TCheck SCRF=Check GenChk RCAM-B3
 LYP/6-31+G(d,p) Freq\\[No Title]\\1,1\C,-0.0101250842,-1.2164019073,0.
 0000127263\C,0.6647576811,0.036534869,0.000016987\C,-0.0619643713,1.26
 01318101,0.0000066406\C,-1.4200635055,1.2310373692,-0.0000010522\C,-2.
 1147130657,-0.0183123236,-0.0000019254\C,-1.369286577,-1.2379064518,0.
 0000048782\N,-3.4440966863,-0.0456264535,-0.0000090714\N,2.0210310375,
 0.1056959248,0.000025409\O,2.6951251758,1.1097664062,-0.0000093088\O,2
 .6603725966,-1.0895753021,-0.0000143711\H,0.5546949149,-2.1398772401,0
 .0000180472\H,0.4779305926,2.1998195081,0.0000079843\H,-1.9864427772,2
 .155870248,-0.0000059998\H,-1.89864731,-2.184391667,0.0000041247\H,-3.
 9549690271,-0.9176170612,-0.0000098346\H,-3.9898238463,0.8050211082,-0
 .000013988\H,3.612639252,-0.861206837,-0.0000392457\\Version=ES64L-G09
 RevE.01\State=1-A\HF=-492.2557956\RMSD=3.016e-09\RMSF=4.379e-05\ZeroPo
 int=0.1341447\Thermal=0.1424711\Dipole=-1.3718858,-0.4451687,-0.000010
 5\DipoleDeriv=1.0906137,0.0968797,0.0000018,0.6309791,0.1050596,0.0000
 008,0.0000049,0.000003,0.0116978,-2.2923077,-0.1842491,0.0000043,0.023
 5221,-0.13049,-0.0000005,0.0000088,-0.0000054,0.0382591,1.076585,0.026
 2569,0.0000023,-0.605041,0.0275734,-0.000001,0.000004,0.0000003,-0.002
 7005,-1.0173296,-0.2108858,-0.000001,-0.8530568,-0.1390826,-0.0000025,
 -0.0000071,-0.0000018,-0.1647298,2.6782564,0.0844856,0.0000073,0.03825
 39,0.4569185,-0.0000003,0.0000133,0.0000008,0.278304,-1.0673649,0.1141
 34,-0.0000019,0.8388178,-0.0540629,0.0000021,-0.0000116,-0.0000006,-0.
 1679281,-2.3271305,-0.0789022,-0.000005,-0.04041,-0.2182993,-0.0000007
 ,-0.0000099,-0.0000011,-0.4860011,3.9994587,0.1314925,-0.0000072,0.435
 4358,1.4170533,0.000015,-0.0001525,0.0000079,0.2587337,-1.6096173,-0.3
 435858,-0.0000031,-1.3990199,-0.7891393,-0.0000116,0.0000879,0.0000199
 ,-0.1629426,-1.1705155,0.4734782,0.0000069,1.0577518,-0.6916475,-0.000
 0027,0.0000672,-0.0000243,-0.2543151,0.0935387,0.0039683,-0.0000004,-0
 .0159503,0.1081862,0.,0.0000007,0.0000003,0.1430063,0.0770987,-0.01110
 08,-0.0000001,0.0325413,0.1194873,0.0000003,0.0000009,0.,0.1425816,0.0
 386463,0.0304244,-0.0000005,0.011047,0.0584224,0.0000006,0.0000021,0.0
 000009,0.1558074,0.0415751,-0.0297886,-0.0000003,-0.0130828,0.05471,-0
 .0000002,0.0000016,-0.0000004,0.1548711,0.346494,0.0710016,-0.0000004,
 0.2346775,0.2225834,0.0000009,-0.0000003,0.0000007,0.3337516,0.3579772
 ,-0.061807,0.,-0.2302519,0.2025753,-0.0000003,0.0000007,-0.0000001,0.3
 342073,0.6840218,-0.111802,-0.0000026,-0.1462136,0.250152,0.0000002,-0
 .0000107,0.,0.3873975\Polar=196.8166877,6.3683635,86.2016317,0.0000749
 ,-0.0000671,44.6719242\PG=C01 [X(C6H7N2O2)]\NImag=0\\0.79550933,-0.058
 61169,0.70746641,0.00000424,-0.00000124,0.14184342,-0.11379179,-0.0682
 3024,0.00000010,0.68046436,-0.04870291,-0.27698935,-0.00000031,0.00995
 186,0.72585983,-0.00000094,-0.00000028,-0.05584745,0.00000021,-0.00000
 109,0.12338600,0.03080957,0.00712324,0.00000027,-0.11806744,0.05272058
 ,-0.00000125,0.80111438,-0.00394282,-0.04556307,-0.00000004,0.07419484
 ,-0.26834593,0.00000125,0.05984694,0.70537184,0.00000030,0.00000030,0.
 00454102,-0.00000033,0.00000137,-0.05747689,0.00000409,-0.00000125,0.1
 4210152,-0.02131508,-0.01890850,-0.00000016,-0.05096970,0.04190568,-0.
 00000026,-0.45736972,-0.02774770,-0.00000247,0.81027309,-0.00675859,-0
 .00808483,-0.00000004,0.01273268,0.01834370,0.00000033,0.02087346,-0.1
 3162163,0.00000050,-0.05918998,0.68478625,-0.00000012,-0.00000017,-0.0
 0011204,-0.00000066,0.00000026,0.00531765,-0.00000235,-0.00000001,-0.0
 5630879,0.00000409,-0.00000187,0.12473544,-0.04532838,0.02631078,-0.00
 000025,0.03248071,0.00058049,0.00000003,-0.04187877,-0.02935653,-0.000
 00007,-0.13275232,-0.06841522,-0.00000019,0.80841597,0.05494307,0.0322
 6963,0.00000040,0.00104356,-0.03380283,-0.00000001,-0.05720632,0.02875
 278,-0.00000055,-0.02659797,-0.26401269,0.00000048,0.00254728,0.673679
 70,-0.00000021,0.00000023,-0.00164712,0.00000029,0.00000005,-0.0074614
 9,0.00000007,-0.00000036,-0.00156970,-0.00000048,0.00000006,-0.0700571
 4,0.00000354,-0.00000110,0.17698825,-0.45378477,0.01631727,-0.00000252
 ,-0.04891607,-0.04384229,-0.00000012,-0.02220466,0.01821239,-0.0000002
 7,0.04125334,0.00217028,0.00000028,-0.13736083,0.03188925,-0.00000063,
 0.80341231,-0.03362002,-0.13199765,-0.00000020,-0.01494749,0.01515321,
 -0.00000035,0.00589212,-0.00695597,0.00000007,0.00084345,-0.03146200,0
 .00000011,0.07359405,-0.25977760,0.00000083,0.06262818,0.68967901,-0.0
 0000223,0.00000031,-0.05685146,-0.00000058,-0.00000036,0.00597107,-0.0
 0000016,0.00000020,-0.00009677,0.00000027,0.00000007,0.00470710,-0.000
 00052,0.00000041,-0.07008081,0.00000384,-0.00000062,0.12477895,0.02080
 071,0.00733881,0.00000006,-0.03152718,0.00019206,0.00000005,0.02071768
 ,-0.00634609,0.00000007,-0.05426136,-0.02612163,-0.00000033,-0.4447998
 4,-0.00602932,-0.00000218,-0.05705155,0.02391890,-0.00000047,0.8763891
 2,-0.00339452,-0.01010744,-0.00000003,-0.00060776,0.00309131,0.0000000
 2,0.00443671,-0.01021596,0.00000009,-0.05099296,0.00182791,-0.00000029
 ,-0.00607883,-0.14586751,0.00000017,0.04865871,0.00481437,0.00000032,-
 0.00000682,0.87845782,0.00000005,0.00000004,0.00395444,-0.00000015,0.,
 -0.00067171,0.00000003,0.00000003,0.00389736,-0.00000019,-0.00000009,0
 .01082286,-0.00000214,0.00000018,-0.04999148,-0.00000043,0.00000012,0.
 01078723,0.00000450,-0.00000190,0.04962457,-0.06179553,-0.03690208,-0.
 00000123,-0.27172560,-0.01200985,-0.00000185,-0.07287629,0.03732536,-0
 .00000101,0.02655647,0.01904751,0.00000033,-0.03553844,-0.00026446,-0.
 00000028,0.02769199,-0.01832252,0.00000044,0.03216387,0.00050024,0.000
 00017,0.87605034,-0.03922605,0.00855402,-0.00000059,0.01202799,-0.1350
 5792,0.00000004,0.02904483,0.01567153,0.00000016,0.00751231,-0.0052918
 9,0.00000021,-0.00458361,-0.00507772,-0.00000002,-0.00145757,-0.010635
 21,0.,0.00398817,0.00055222,0.00000001,0.15179004,0.77175198,0.0000006
 9,0.00000054,-0.01029393,0.00000054,0.00000019,-0.06713933,0.00000071,
 -0.00000062,-0.00564285,-0.00000051,-0.00000061,0.00530580,0.00000107,
 0.00000023,-0.00163210,-0.00000036,0.00000052,0.00558901,-0.00000102,-
 0.00000007,-0.00026058,-0.00001275,-0.00000675,0.20437120,0.00615139,0
 .01382466,0.00000058,-0.06138646,-0.05583568,0.00000208,0.00825861,-0.
 00918581,-0.00000011,-0.00556782,-0.00523991,-0.00000003,0.01176243,-0
 .00397514,0.00000012,-0.01001586,0.00392987,-0.00000019,-0.01074184,0.
 00058241,-0.00000007,-0.29329972,-0.22958863,0.00000736,0.31325875,0.0
 1290349,0.01002145,0.00000055,-0.06288191,-0.00743930,0.00000123,0.017
 91215,-0.01225188,-0.00000002,-0.00787621,-0.00481076,-0.00000014,0.01
 353796,-0.00221102,0.00000010,-0.00933815,0.00813606,-0.00000016,-0.01
 200235,0.00060699,-0.00000006,-0.21459340,-0.45880846,0.00000844,0.284
 95295,0.56465455,-0.00000041,-0.00000046,0.00954606,0.00000059,0.00000
 055,0.01648934,-0.00000055,0.00000045,-0.00123772,0.00000034,0.0000003
 0,-0.00063908,-0.00000066,0.00000002,0.00020445,0.00000032,-0.00000030
 ,-0.00092694,0.00000061,0.,0.00009402,0.00000955,0.00001167,-0.0746209
 0,-0.00000911,-0.00001129,0.03352308,-0.00130762,0.00388541,0.00000005
 ,-0.03933862,0.05318440,0.00000194,0.00086498,-0.01009344,0.00000036,-
 0.00636800,-0.00119002,-0.00000015,0.00686082,0.00382473,0.00000006,-0
 .00287674,0.00261280,-0.00000005,-0.00633005,-0.00083258,-0.00000004,-
 0.19242839,0.06338902,0.00000332,0.04104245,-0.01722962,-0.00000050,0.
 64809598,-0.00989132,-0.00767542,0.00000005,0.03693820,-0.00108705,-0.
 00000107,-0.01079239,0.00675811,-0.00000034,0.00613142,0.00591093,0.00
 000006,-0.00870812,-0.00220926,-0.00000007,0.00542151,-0.00312478,0.00
 000011,0.00803487,0.00078315,0.00000004,0.00244576,-0.18838245,0.00000
 010,0.00994865,-0.10053277,-0.00000136,0.05047362,0.37247830,-0.000000
 14,-0.00000027,0.00040983,0.00000032,-0.00000068,0.00968728,-0.0000003
 6,0.00000038,0.00476059,0.00000028,0.00000026,0.00007612,-0.00000045,-
 0.00000020,0.00009897,0.00000019,-0.00000017,-0.00074531,0.00000044,0.
 00000006,0.00008835,0.00000386,-0.00000470,-0.05346605,-0.00000023,0.0
 0000115,0.02165491,-0.00001568,0.00000156,0.02411121,-0.13862020,0.133
 56487,-0.00000095,0.01154219,-0.01443476,0.00000015,-0.00201064,-0.003
 48405,-0.00000002,-0.00051833,-0.00033062,0.,-0.00508749,-0.00107705,-
 0.00000011,-0.01020297,0.02611041,-0.00000019,-0.00021592,0.00141148,0
 .,0.00397217,-0.00082191,-0.00000018,-0.00052725,0.00029128,0.00000006
 ,-0.00583303,-0.00031970,0.00000016,0.14614448,0.13216717,-0.28042584,
 0.00000132,0.01357373,-0.01663514,0.00000017,-0.00388581,-0.00218261,-
 0.00000004,0.00006690,0.00067192,0.,-0.00157372,-0.00024025,0.,-0.0032
 7386,0.00796036,-0.00000005,-0.00032201,0.00055947,0.,0.00295807,-0.00
 195662,-0.00000014,-0.00054092,0.00013568,0.00000004,0.00072779,0.0014
 4287,0.00000003,-0.14036473,0.28964733,-0.00000103,0.00000115,-0.04210
 049,0.00000025,0.00000003,0.00346865,-0.00000007,-0.00000002,0.0033115
 2,-0.00000001,0.00000002,-0.00117791,-0.00000013,0.00000006,0.01071870
 ,-0.00000003,0.00000018,0.00742389,0.00000003,0.,-0.00073936,-0.000000
 14,-0.00000003,-0.00236431,0.00000002,0.00000002,0.00000625,0.00000009
 ,-0.00000002,0.00087726,0.00000101,-0.00000136,0.02665458,-0.00217919,
 0.00345462,-0.00000002,0.01139137,0.01511883,0.00000006,-0.13046515,-0
 .12781758,-0.00000033,-0.00928170,-0.02649639,-0.00000008,-0.00493293,
 0.00089820,-0.00000013,-0.00065827,0.00040359,0.,-0.00032734,-0.001418
 22,0.00000002,0.00346749,0.00242731,-0.00000012,-0.00370608,-0.0012867
 0,0.00000009,0.00009706,-0.00065711,0.00000002,0.00065867,0.00073031,-
 0.00000001,0.13518372,0.00377717,-0.00205246,0.00000006,-0.01221288,-0
 .01721922,-0.00000007,-0.12688840,-0.28598136,-0.00000024,0.00281186,0
 .00739257,0.00000003,0.00132211,-0.00017443,0.00000004,-0.00001776,0.0
 0061893,0.,0.00041923,0.00054356,0.,-0.00342727,-0.00318957,0.00000011
 ,-0.00014125,0.00328187,-0.00000009,0.00007046,0.00031548,0.,-0.000677
 45,-0.00061964,0.,0.13478831,0.29626325,-0.00000010,0.00000004,0.00314
 594,0.00000031,0.00000008,0.00427964,-0.00000043,-0.00000016,-0.042711
 83,-0.00000005,-0.00000018,0.00740308,-0.00000012,0.00000001,0.0108461
 9,0.,-0.00000003,-0.00120709,0.00000002,0.,-0.00077518,-0.00000013,0.,
 -0.00226485,0.00000003,0.00000005,0.00029003,0.,0.,-0.00036716,0.,0.00
 000001,0.00106951,0.00000043,0.00000021,0.02714350,-0.00061334,-0.0005
 1511,0.,-0.00413343,-0.00206290,-0.00000011,-0.01304136,0.02807379,-0.
 00000024,-0.13785795,0.12912857,-0.00000077,0.01071330,-0.01591888,0.0
 0000009,-0.00184438,-0.00298640,-0.00000001,0.00212537,-0.00029299,0.0
 0000002,-0.00022276,0.00163453,0.00000003,0.00001378,0.00007727,0.,-0.
 00076769,-0.00010018,0.,0.00004159,0.00007881,0.,0.00105121,0.00012409
 ,0.00000004,0.14428577,-0.00100657,-0.00015433,-0.00000001,-0.00167513
 ,0.00135082,-0.00000002,-0.00236504,0.00641874,-0.00000004,0.12941369,
 -0.27381096,0.00000129,0.01591710,-0.01828879,0.00000016,-0.00343729,-
 0.00243964,0.,0.00113294,0.00198321,0.,0.00025326,0.00051627,-0.000000
 02,-0.00001389,-0.00011984,0.,-0.00037272,0.00017303,0.00000001,0.0000
 5165,0.00001869,0.,-0.00006035,0.00083778,0.,-0.13688886,0.28461811,-0
 .00000002,-0.00000002,-0.00063829,-0.00000020,0.00000006,0.00865732,-0
 .00000007,0.00000016,0.00400699,-0.00000074,0.00000123,-0.03630108,-0.
 00000007,-0.00000006,0.00338233,-0.00000003,-0.00000002,0.00406737,0.0
 0000005,-0.00000001,-0.00213926,0.00000007,0.00000002,0.00173768,0.000
 00002,0.00000001,0.00015710,-0.00000003,0.00000002,-0.00084561,0.,0.,-
 0.00045303,0.00000006,-0.00000002,-0.00599708,0.00000096,-0.00000137,0
 .02452843,-0.01211976,-0.02878949,-0.00000010,-0.00427180,0.00187325,-
 0.00000012,-0.00066920,0.00050241,-0.00000001,-0.00210639,0.00299501,-
 0.00000003,0.01067004,0.01713914,0.00000002,-0.12778007,-0.12331580,-0
 .00000018,0.00213319,0.00031392,0.00000002,-0.00017778,-0.00190934,0.0
 0000002,-0.00065292,0.00010050,0.,-0.00006639,-0.00001242,0.,0.0010087
 1,-0.00014225,0.00000004,0.00005026,-0.00008006,0.,0.00064736,0.000747
 16,0.,0.13368986,0.00172130,0.00532384,0.00000002,0.00142745,0.0014741
 0,0.00000004,0.00100647,-0.00009550,0.00000001,0.00345136,-0.00221764,
 0.00000003,-0.01477898,-0.01831505,-0.00000005,-0.12366899,-0.28383404
 ,-0.00000020,-0.00112364,0.00196929,-0.00000001,-0.00018447,0.00041366
 ,0.00000002,0.00036174,0.00020475,-0.00000002,-0.00002024,-0.00005537,
 0.,0.00007291,0.00086253,-0.00000003,-0.00005517,0.00001628,0.,-0.0006
 9379,-0.00076174,0.,0.13078729,0.29529790,-0.00000007,-0.00000019,0.00
 401633,-0.00000021,-0.00000004,0.00841099,-0.00000002,0.00000002,-0.00
 067313,-0.00000005,0.00000005,0.00405621,0.00000001,0.00000016,0.00338
 222,-0.00000016,-0.00000015,-0.03614965,0.00000005,0.,-0.00215104,0.00
 000012,0.00000003,0.00209024,-0.00000006,-0.00000005,-0.00125536,0.000
 00002,0.,0.00007352,0.00000005,0.,-0.00594978,0.,0.,-0.00040974,0.,0.,
 -0.00016584,0.00000033,0.00000018,0.02448132,-0.00068023,-0.00016760,0
 .,0.00144092,0.00008591,0.,-0.00047688,-0.00159217,0.,-0.00375399,0.00
 328659,-0.00000006,-0.01460417,-0.03266230,0.,0.00229620,-0.00210870,0
 .00000005,-0.16889739,-0.16469673,-0.00000047,-0.00167646,-0.00022612,
 0.00000007,0.00076298,0.00085597,-0.00000005,0.00034523,-0.00039894,-0
 .00000002,0.00003476,0.00006908,0.,-0.00033165,0.00008773,0.,0.0000223
 9,-0.00020148,0.,-0.00042005,0.00153265,-0.00000001,0.17069741,-0.0019
 5957,-0.00121692,-0.00000001,0.00313262,0.00002509,-0.00000002,-0.0018
 6575,0.00094544,0.,0.00380689,0.00243982,0.00000004,-0.00392906,0.0071
 0484,-0.00000004,0.00449064,0.00087703,0.00000002,-0.16355771,-0.37134
 487,-0.00000008,-0.00363722,-0.00055961,0.00000016,0.00122391,0.001444
 35,-0.00000008,0.00078919,-0.00103329,-0.00000006,0.00007397,0.0000407
 8,0.,0.00007036,-0.00005334,0.,0.00013990,0.00017494,0.,-0.00005896,-0
 .00048398,0.,0.17824515,0.37485319,0.00000002,0.00000002,-0.00069634,0
 .,-0.00000003,0.00033310,-0.00000005,0.00000002,0.00156673,-0.00000001
 ,0.00000005,0.00665421,-0.00000007,-0.00000021,-0.00179391,0.,-0.00000
 002,-0.00415480,-0.00000048,-0.00000009,-0.01119770,0.,0.,0.00002313,0
 .,0.,-0.00000792,0.,0.,-0.00013182,0.,0.,0.00040888,0.00000001,0.,-0.0
 0091871,0.,0.,-0.00047107,0.,0.,0.00071777,0.00000046,0.00000014,0.011
 00410,-0.00060957,0.00152748,-0.00000001,0.00155194,-0.00009526,-0.000
 00001,-0.00072289,0.00018050,0.,0.00240446,0.00217173,0.00000004,-0.01
 602349,0.03167220,-0.00000015,-0.00347875,-0.00352022,-0.00000005,-0.1
 8258911,0.17234963,-0.00000133,-0.00177799,-0.00035178,0.00000009,0.00
 063252,0.00068800,-0.00000004,0.00052939,-0.00058866,-0.00000004,-0.00
 033683,-0.00009919,0.,0.00004339,-0.00007510,0.,-0.00043498,-0.0015147
 8,0.,0.00001979,0.00019564,0.,0.01541374,-0.01667692,0.00000013,0.1855
 6060,0.00183779,0.00106782,0.00000001,-0.00309516,0.00008845,0.0000000
 1,0.00197211,-0.00117023,0.00000001,-0.00446961,0.00081739,-0.00000004
 ,0.00301665,0.00859182,-0.00000001,-0.00404289,0.00215695,-0.00000002,
 0.17119881,-0.35776424,0.00000175,0.00358611,0.00056415,-0.00000015,-0
 .00131886,-0.00158978,0.00000009,-0.00063388,0.00087860,0.00000006,-0.
 00006595,-0.00004381,0.,-0.00009716,0.00005238,0.,0.00004656,-0.000558
 13,0.,-0.00014220,0.00017541,0.,0.01782310,-0.01329265,0.00000012,-0.1
 8588926,0.36011063,-0.00000005,-0.00000002,0.00161663,0.00000002,0.000
 00003,0.00021517,0.00000001,-0.00000001,-0.00066140,0.00000001,0.,-0.0
 0417236,-0.00000008,0.00000016,-0.00179064,0.,-0.00000003,0.00661595,-
 0.00000133,0.00000176,-0.01121497,-0.00000003,-0.00000001,-0.00004567,
 0.00000001,0.,-0.00001215,0.,0.,0.00007733,0.,0.,-0.00089134,0.,0.,0.0
 0041780,0.,0.,0.00071347,0.,0.,-0.00047414,0.00000005,-0.00000006,-0.0
 0140129,0.00000138,-0.00000182,0.01104700,-0.00112553,-0.00122243,-0.0
 0000004,0.00525661,0.00137061,0.00000014,-0.00198223,0.00122998,0.0000
 0003,0.00163502,0.00133652,0.00000002,-0.00259660,-0.00022598,-0.00000
 001,0.00152107,-0.00111221,0.00000003,0.00241163,0.00006829,0.,-0.0383
 8336,0.00635080,0.00000104,0.00401504,-0.00611122,-0.00000024,-0.44251
 936,-0.08792520,0.00001164,-0.00004989,-0.00016937,-0.00000001,-0.0000
 6087,0.00011920,0.,0.00001512,0.00002031,-0.00000001,0.00004515,-0.000
 03155,0.,-0.00017283,-0.00028743,0.,-0.00018223,0.00027385,0.,0.472173
 28,-0.00023591,-0.00043586,0.00000005,-0.00137235,-0.00880977,-0.00000
 019,0.00217511,0.00046569,0.,-0.00016062,-0.00087810,0.00000001,0.0005
 9765,-0.00042164,0.,-0.00070943,0.00083097,-0.00000003,-0.00071422,0.0
 0011073,0.,0.07143492,0.01093563,-0.00000195,-0.00898411,-0.00072189,0
 .00000048,-0.14858492,-0.08464011,0.00000260,-0.00000036,0.00076429,0.
 ,-0.00000284,-0.00003207,0.,0.00015557,0.00004183,0.,-0.00000815,0.000
 02555,0.,0.00006786,0.00007919,0.,0.00002599,-0.00008474,0.,0.08631582
 ,0.08277030,0.00000001,0.00000004,-0.00088656,-0.00000047,-0.00000010,
 0.00238067,0.00000010,-0.00000002,0.00219334,-0.00000007,-0.00000007,-
 0.00031008,0.00000008,0.00000002,0.00040328,-0.00000005,0.00000005,0.0
 0027228,-0.00000008,0.,-0.00012755,0.00000288,-0.00000007,-0.00138651,
 -0.00000041,0.00000017,-0.00326516,0.00001061,0.00000093,-0.00635943,0
 .,0.00000002,-0.00026302,0.,0.,0.00005595,0.,0.,-0.00023944,0.,0.,0.00
 000009,0.,0.,0.00006564,0.,-0.00000001,-0.00003940,-0.00001259,-0.0000
 0096,0.00750591\\-0.00010574,-0.00002041,-0.00000090,0.00012220,-0.000
 01336,-0.00000183,-0.00009766,0.00000514,-0.00000104,0.00006645,0.0000
 3598,0.00000011,-0.00007674,-0.00000599,-0.00000011,0.00006396,-0.0000
 2436,0.00000013,0.00002859,0.00000077,0.,0.00006657,0.00014090,0.00001
 014,-0.00007547,-0.00011010,-0.00000379,0.00002789,0.00001362,-0.00000
 273,0.00000700,0.00000283,-0.00000003,0.00001145,0.00000206,0.00000003
 ,-0.00001068,-0.00000105,0.00000017,-0.00001123,-0.00000014,0.00000014
 ,-0.00000552,-0.00000168,0.,-0.00000609,0.00000180,0.,-0.00000497,-0.0
 0002600,-0.00000031\\\@


 THE BEST WAY TO CONVINCE A FOOL THAT HE IS WRONG 
 IS TO LET HIM HAVE HIS OWN WAY.

                                         JOSH BILLINGS
 Job cpu time:       0 days  0 hours 27 minutes 36.4 seconds.
 File lengths (MBytes):  RWF=     93 Int=      0 D2E=      0 Chk=      5 Scr=      1
 Normal termination of Gaussian 09 at Thu Jun 20 17:09:45 2024.
