 Entering Gaussian System, Link 0=g09
 Input=m062xPNA.gjf
 Output=m062xPNA.log
 Initial command:
 /home/phzd/g09E/g09/l1.exe "/home/phzd/g09E/scratch/Gau-62891.inp" -scrdir="/home/phzd/g09E/scratch/"
 Default is to use a total of  18 processors:
                               18 via shared-memory
                                1 via Linda
 Entering Link 1 = /home/phzd/g09E/g09/l1.exe PID=     62893.
  
 Copyright (c) 1988,1990,1992,1993,1995,1998,2003,2009,2015,
            Gaussian, Inc.  All Rights Reserved.
  
 This is part of the Gaussian(R) 09 program.  It is based on
 the Gaussian(R) 03 system (copyright 2003, Gaussian, Inc.),
 the Gaussian(R) 98 system (copyright 1998, Gaussian, Inc.),
 the Gaussian(R) 94 system (copyright 1995, Gaussian, Inc.),
 the Gaussian 92(TM) system (copyright 1992, Gaussian, Inc.),
 the Gaussian 90(TM) system (copyright 1990, Gaussian, Inc.),
 the Gaussian 88(TM) system (copyright 1988, Gaussian, Inc.),
 the Gaussian 86(TM) system (copyright 1986, Carnegie Mellon
 University), and the Gaussian 82(TM) system (copyright 1983,
 Carnegie Mellon University). Gaussian is a federally registered
 trademark of Gaussian, Inc.
  
 This software contains proprietary and confidential information,
 including trade secrets, belonging to Gaussian, Inc.
  
 This software is provided under written license and may be
 used, copied, transmitted, or stored only in accord with that
 written license.
  
 The following legend is applicable only to US Government
 contracts under FAR:
  
                    RESTRICTED RIGHTS LEGEND
  
 Use, reproduction and disclosure by the US Government is
 subject to restrictions as set forth in subparagraphs (a)
 and (c) of the Commercial Computer Software - Restricted
 Rights clause in FAR 52.227-19.
  
 Gaussian, Inc.
 340 Quinnipiac St., Bldg. 40, Wallingford CT 06492
  
  
 ---------------------------------------------------------------
 Warning -- This program may not be used in any manner that
 competes with the business of Gaussian, Inc. or will provide
 assistance to any competitor of Gaussian, Inc.  The licensee
 of this program is prohibited from giving any competitor of
 Gaussian, Inc. access to this program.  By using this program,
 the user acknowledges that Gaussian, Inc. is engaged in the
 business of creating and licensing software in the field of
 computational chemistry and represents and warrants to the
 licensee that it is not a competitor of Gaussian, Inc. and that
 it will not use this program in any manner prohibited above.
 ---------------------------------------------------------------
  

 Cite this work as:
 Gaussian 09, Revision E.01,
 M. J. Frisch, G. W. Trucks, H. B. Schlegel, G. E. Scuseria, 
 M. A. Robb, J. R. Cheeseman, G. Scalmani, V. Barone, B. Mennucci, 
 G. A. Petersson, H. Nakatsuji, M. Caricato, X. Li, H. P. Hratchian, 
 A. F. Izmaylov, J. Bloino, G. Zheng, J. L. Sonnenberg, M. Hada, 
 M. Ehara, K. Toyota, R. Fukuda, J. Hasegawa, M. Ishida, T. Nakajima, 
 Y. Honda, O. Kitao, H. Nakai, T. Vreven, J. A. Montgomery, Jr., 
 J. E. Peralta, F. Ogliaro, M. Bearpark, J. J. Heyd, E. Brothers, 
 K. N. Kudin, V. N. Staroverov, T. Keith, R. Kobayashi, J. Normand, 
 K. Raghavachari, A. Rendell, J. C. Burant, S. S. Iyengar, J. Tomasi, 
 M. Cossi, N. Rega, J. M. Millam, M. Klene, J. E. Knox, J. B. Cross, 
 V. Bakken, C. Adamo, J. Jaramillo, R. Gomperts, R. E. Stratmann, 
 O. Yazyev, A. J. Austin, R. Cammi, C. Pomelli, J. W. Ochterski, 
 R. L. Martin, K. Morokuma, V. G. Zakrzewski, G. A. Voth, 
 P. Salvador, J. J. Dannenberg, S. Dapprich, A. D. Daniels, 
 O. Farkas, J. B. Foresman, J. V. Ortiz, J. Cioslowski, 
 and D. J. Fox, Gaussian, Inc., Wallingford CT, 2013.
 
 ******************************************
 Gaussian 09:  ES64L-G09RevE.01 30-Nov-2015
                13-Jun-2024 
 ******************************************
 %chk=m062xPNA.chk
 ----------------------------
 # opt freq m062x/6-31+g(d,p)
 ----------------------------
 1/14=-1,18=20,19=15,26=3,38=1/1,3;
 2/9=110,12=2,17=6,18=5,40=1/2;
 3/5=1,6=6,7=111,11=2,16=1,25=1,30=1,71=1,74=-55/1,2,3;
 4//1;
 5/5=2,38=5/2;
 6/7=2,8=2,9=2,10=2,28=1/1;
 7//1,2,3,16;
 1/14=-1,18=20,19=15,26=3/3(2);
 2/9=110/2;
 99//99;
 2/9=110/2;
 3/5=1,6=6,7=111,11=2,16=1,25=1,30=1,71=1,74=-55/1,2,3;
 4/5=5,16=3,69=1/1;
 5/5=2,38=5/2;
 7//1,2,3,16;
 1/14=-1,18=20,19=15,26=3/3(-5);
 2/9=110/2;
 6/7=2,8=2,9=2,10=2,19=2,28=1/1;
 99/9=1/99;
 ----------
 [No Title]
 ----------
 Symbolic Z-matrix:
 Charge =  0 Multiplicity = 1
 C                    -0.0218    1.21641   0.00023 
 C                    -0.71134   0.        0.00039 
 C                    -0.0218   -1.2164    0.0003 
 C                     1.36325  -1.2161    0.00016 
 C                     2.08217  0.         0.00006 
 C                     1.36325   1.2161    0.00009 
 N                     3.4515    0.       -0.00007 
 N                    -2.16391   0.        0.00061 
 O                    -2.7452   -1.0916   -0.0007 
 O                    -2.74521   1.0916   -0.00077 
 H                    -0.58095   2.14355   0.00027 
 H                    -0.58095  -2.14355   0.0004 
 H                     1.90326  -2.15827   0.00014 
 H                     1.90326   2.15827   0.00002 
 H                     3.9715    0.86123  -0.00016 
 H                     3.9715   -0.86123  -0.0001 
 

 GradGradGradGradGradGradGradGradGradGradGradGradGradGradGradGradGradGrad
 Berny optimization.
 Initialization pass.
                           ----------------------------
                           !    Initial Parameters    !
                           ! (Angstroms and Degrees)  !
 --------------------------                            --------------------------
 ! Name  Definition              Value          Derivative Info.                !
 --------------------------------------------------------------------------------
 ! R1    R(1,2)                  1.3983         estimate D2E/DX2                !
 ! R2    R(1,6)                  1.3851         estimate D2E/DX2                !
 ! R3    R(1,11)                 1.0827         estimate D2E/DX2                !
 ! R4    R(2,3)                  1.3983         estimate D2E/DX2                !
 ! R5    R(2,8)                  1.4526         estimate D2E/DX2                !
 ! R6    R(3,4)                  1.3851         estimate D2E/DX2                !
 ! R7    R(3,12)                 1.0827         estimate D2E/DX2                !
 ! R8    R(4,5)                  1.4127         estimate D2E/DX2                !
 ! R9    R(4,13)                 1.086          estimate D2E/DX2                !
 ! R10   R(5,6)                  1.4127         estimate D2E/DX2                !
 ! R11   R(5,7)                  1.3693         estimate D2E/DX2                !
 ! R12   R(6,14)                 1.086          estimate D2E/DX2                !
 ! R13   R(7,15)                 1.006          estimate D2E/DX2                !
 ! R14   R(7,16)                 1.006          estimate D2E/DX2                !
 ! R15   R(8,9)                  1.2367         estimate D2E/DX2                !
 ! R16   R(8,10)                 1.2367         estimate D2E/DX2                !
 ! A1    A(2,1,6)              119.5352         estimate D2E/DX2                !
 ! A2    A(2,1,11)             119.3587         estimate D2E/DX2                !
 ! A3    A(6,1,11)             121.1062         estimate D2E/DX2                !
 ! A4    A(1,2,3)              120.9048         estimate D2E/DX2                !
 ! A5    A(1,2,8)              119.5476         estimate D2E/DX2                !
 ! A6    A(3,2,8)              119.5475         estimate D2E/DX2                !
 ! A7    A(2,3,4)              119.5353         estimate D2E/DX2                !
 ! A8    A(2,3,12)             119.3585         estimate D2E/DX2                !
 ! A9    A(4,3,12)             121.1062         estimate D2E/DX2                !
 ! A10   A(3,4,5)              120.6023         estimate D2E/DX2                !
 ! A11   A(3,4,13)             119.8071         estimate D2E/DX2                !
 ! A12   A(5,4,13)             119.5906         estimate D2E/DX2                !
 ! A13   A(4,5,6)              118.8201         estimate D2E/DX2                !
 ! A14   A(4,5,7)              120.5901         estimate D2E/DX2                !
 ! A15   A(6,5,7)              120.5898         estimate D2E/DX2                !
 ! A16   A(1,6,5)              120.6024         estimate D2E/DX2                !
 ! A17   A(1,6,14)             119.8071         estimate D2E/DX2                !
 ! A18   A(5,6,14)             119.5905         estimate D2E/DX2                !
 ! A19   A(5,7,15)             121.1236         estimate D2E/DX2                !
 ! A20   A(5,7,16)             121.1233         estimate D2E/DX2                !
 ! A21   A(15,7,16)            117.7531         estimate D2E/DX2                !
 ! A22   A(2,8,9)              118.0358         estimate D2E/DX2                !
 ! A23   A(2,8,10)             118.0364         estimate D2E/DX2                !
 ! A24   A(9,8,10)             123.9276         estimate D2E/DX2                !
 ! D1    D(6,1,2,3)             -0.0059         estimate D2E/DX2                !
 ! D2    D(6,1,2,8)            179.9966         estimate D2E/DX2                !
 ! D3    D(11,1,2,3)           179.9978         estimate D2E/DX2                !
 ! D4    D(11,1,2,8)             0.0004         estimate D2E/DX2                !
 ! D5    D(2,1,6,5)              0.0029         estimate D2E/DX2                !
 ! D6    D(2,1,6,14)          -179.9966         estimate D2E/DX2                !
 ! D7    D(11,1,6,5)           179.999          estimate D2E/DX2                !
 ! D8    D(11,1,6,14)           -0.0004         estimate D2E/DX2                !
 ! D9    D(1,2,3,4)              0.0059         estimate D2E/DX2                !
 ! D10   D(1,2,3,12)          -179.9979         estimate D2E/DX2                !
 ! D11   D(8,2,3,4)           -179.9966         estimate D2E/DX2                !
 ! D12   D(8,2,3,12)            -0.0004         estimate D2E/DX2                !
 ! D13   D(1,2,8,9)            179.9235         estimate D2E/DX2                !
 ! D14   D(1,2,8,10)             0.0742         estimate D2E/DX2                !
 ! D15   D(3,2,8,9)             -0.074          estimate D2E/DX2                !
 ! D16   D(3,2,8,10)          -179.9233         estimate D2E/DX2                !
 ! D17   D(2,3,4,5)             -0.0029         estimate D2E/DX2                !
 ! D18   D(2,3,4,13)           179.9966         estimate D2E/DX2                !
 ! D19   D(12,3,4,5)          -179.999          estimate D2E/DX2                !
 ! D20   D(12,3,4,13)            0.0005         estimate D2E/DX2                !
 ! D21   D(3,4,5,6)             -0.0001         estimate D2E/DX2                !
 ! D22   D(3,4,5,7)            179.9996         estimate D2E/DX2                !
 ! D23   D(13,4,5,6)          -179.9996         estimate D2E/DX2                !
 ! D24   D(13,4,5,7)             0.0002         estimate D2E/DX2                !
 ! D25   D(4,5,6,1)              0.0001         estimate D2E/DX2                !
 ! D26   D(4,5,6,14)           179.9996         estimate D2E/DX2                !
 ! D27   D(7,5,6,1)           -179.9996         estimate D2E/DX2                !
 ! D28   D(7,5,6,14)            -0.0002         estimate D2E/DX2                !
 ! D29   D(4,5,7,15)           179.9994         estimate D2E/DX2                !
 ! D30   D(4,5,7,16)             0.0007         estimate D2E/DX2                !
 ! D31   D(6,5,7,15)            -0.0008         estimate D2E/DX2                !
 ! D32   D(6,5,7,16)          -179.9995         estimate D2E/DX2                !
 --------------------------------------------------------------------------------
 Trust Radius=3.00D-01 FncErr=1.00D-07 GrdErr=1.00D-06
 Number of steps in this run=     82 maximum allowed number of steps=    100.
 GradGradGradGradGradGradGradGradGradGradGradGradGradGradGradGradGradGrad

                          Input orientation:                          
 ---------------------------------------------------------------------
 Center     Atomic      Atomic             Coordinates (Angstroms)
 Number     Number       Type             X           Y           Z
 ---------------------------------------------------------------------
      1          6           0       -0.021796    1.216405    0.000228
      2          6           0       -0.711339    0.000001    0.000394
      3          6           0       -0.021797   -1.216402    0.000299
      4          6           0        1.363253   -1.216104    0.000162
      5          6           0        2.082168   -0.000001    0.000057
      6          6           0        1.363254    1.216104    0.000091
      7          7           0        3.451498    0.000001   -0.000071
      8          7           0       -2.163906    0.000000    0.000613
      9          8           0       -2.745196   -1.091600   -0.000701
     10          8           0       -2.745209    1.091597   -0.000768
     11          1           0       -0.580949    2.143553    0.000271
     12          1           0       -0.580954   -2.143550    0.000397
     13          1           0        1.903261   -2.158272    0.000144
     14          1           0        1.903264    2.158270    0.000018
     15          1           0        3.971504    0.861227   -0.000155
     16          1           0        3.971503   -0.861226   -0.000103
 ---------------------------------------------------------------------
                    Distance matrix (angstroms):
                    1          2          3          4          5
     1  C    0.000000
     2  C    1.398252   0.000000
     3  C    2.432807   1.398250   0.000000
     4  C    2.799189   2.404754   1.385050   0.000000
     5  C    2.430290   2.793507   2.430288   1.412708   0.000000
     6  C    1.385050   2.404754   2.799188   2.432208   1.412710
     7  N    3.680137   4.162837   3.680138   2.416543   1.369330
     8  N    2.463387   1.452567   2.463385   3.730919   4.246074
     9  O    3.569845   2.308283   2.726257   4.110335   4.949246
    10  O    2.726272   2.308292   3.569851   4.712212   4.949258
    11  H    1.082707   2.147514   3.406163   3.881651   3.418628
    12  H    3.406164   2.147513   1.082710   2.154088   3.418629
    13  H    3.885137   3.390321   2.143121   1.085951   2.165673
    14  H    2.143121   3.390321   3.885135   3.417311   2.165673
    15  H    4.009064   4.761379   4.501444   3.334408   2.076368
    16  H    4.501443   4.761378   4.009064   2.632282   2.076366
                    6          7          8          9         10
     6  C    0.000000
     7  N    2.416541   0.000000
     8  N    3.730920   5.615404   0.000000
     9  O    4.712203   6.292107   1.236726   0.000000
    10  O    4.110349   6.292119   1.236729   2.183197   0.000000
    11  H    2.154086   4.566776   2.664690   3.892323   2.406374
    12  H    3.881652   4.566780   2.664685   2.406355   3.892323
    13  H    3.417312   2.656159   4.604344   4.769271   5.671854
    14  H    1.085950   2.656154   4.604346   5.671846   4.769286
    15  H    2.632281   1.006040   6.195560   6.994826   6.720662
    16  H    3.334406   1.006040   6.195559   6.720649   6.994837
                   11         12         13         14         15
    11  H    0.000000
    12  H    4.287103   0.000000
    13  H    4.967595   2.484259   0.000000
    14  H    2.484257   4.967594   4.316542   0.000000
    15  H    4.729608   5.454682   3.659918   2.441298   0.000000
    16  H    5.454678   4.729611   2.441302   3.659914   1.722453
                   16
    16  H    0.000000
 Stoichiometry    C6H6N2O2
 Framework group  C1[X(C6H6N2O2)]
 Deg. of freedom    42
 Full point group                 C1      NOp   1
 Largest Abelian subgroup         C1      NOp   1
 Largest concise Abelian subgroup C1      NOp   1
                         Standard orientation:                         
 ---------------------------------------------------------------------
 Center     Atomic      Atomic             Coordinates (Angstroms)
 Number     Number       Type             X           Y           Z
 ---------------------------------------------------------------------
      1          6           0        0.021796   -1.216405    0.000228
      2          6           0        0.711339   -0.000001    0.000394
      3          6           0        0.021797    1.216402    0.000299
      4          6           0       -1.363253    1.216104    0.000162
      5          6           0       -2.082168    0.000001    0.000057
      6          6           0       -1.363254   -1.216104    0.000091
      7          7           0       -3.451498   -0.000001   -0.000071
      8          7           0        2.163906    0.000000    0.000613
      9          8           0        2.745196    1.091600   -0.000701
     10          8           0        2.745209   -1.091597   -0.000768
     11          1           0        0.580949   -2.143553    0.000271
     12          1           0        0.580954    2.143550    0.000397
     13          1           0       -1.903261    2.158272    0.000144
     14          1           0       -1.903264   -2.158270    0.000018
     15          1           0       -3.971504   -0.861227   -0.000155
     16          1           0       -3.971503    0.861226   -0.000103
 ---------------------------------------------------------------------
 Rotational constants (GHZ):      3.9094978      0.8215452      0.6788840
 Standard basis: 6-31+G(d,p) (6D, 7F)
 There are   220 symmetry adapted cartesian basis functions of A   symmetry.
 There are   220 symmetry adapted basis functions of A   symmetry.
   220 basis functions,   362 primitive gaussians,   220 cartesian basis functions
    36 alpha electrons       36 beta electrons
       nuclear repulsion energy       494.6945858361 Hartrees.
 NAtoms=   16 NActive=   16 NUniq=   16 SFac= 1.00D+00 NAtFMM=   60 NAOKFM=F Big=F
 Integral buffers will be    131072 words long.
 Raffenetti 2 integral format.
 Two-electron integral symmetry is turned on.
 One-electron integrals computed using PRISM.
 NBasis=   220 RedAO= T EigKep=  3.27D-06  NBF=   220
 NBsUse=   220 1.00D-06 EigRej= -1.00D+00 NBFU=   220
 ExpMin= 4.38D-02 ExpMax= 5.48D+03 ExpMxC= 8.25D+02 IAcc=2 IRadAn=         4 AccDes= 0.00D+00
 Harris functional with IExCor= 1009 and IRadAn=       4 diagonalized for initial guess.
 HarFok:  IExCor= 1009 AccDes= 0.00D+00 IRadAn=         4 IDoV= 1 UseB2=F ITyADJ=14
 ICtDFT=  3500011 ScaDFX=  1.000000  1.000000  1.000000  1.000000
 FoFCou: FMM=F IPFlag=           0 FMFlag=      100000 FMFlg1=           0
         NFxFlg=           0 DoJE=T BraDBF=F KetDBF=T FulRan=T
         wScrn=  0.000000 ICntrl=     500 IOpCl=  0 I1Cent=   200000004 NGrid=           0
         NMat0=    1 NMatS0=      1 NMatT0=    0 NMatD0=    1 NMtDS0=    0 NMtDT0=    0
 Petite list used in FoFCou.
 Keep R1 ints in memory in canonical form, NReq=301066375.
 Requested convergence on RMS density matrix=1.00D-08 within 128 cycles.
 Requested convergence on MAX density matrix=1.00D-06.
 Requested convergence on             energy=1.00D-06.
 No special actions if energy rises.
 SCF Done:  E(RM062X) =  -491.929953834     A.U. after   14 cycles
            NFock= 14  Conv=0.96D-08     -V/T= 2.0087

 **********************************************************************

            Population analysis using the SCF density.

 **********************************************************************

 Orbital symmetries:
       Occupied  (A) (A) (A) (A) (A) (A) (A) (A) (A) (A) (A) (A)
                 (A) (A) (A) (A) (A) (A) (A) (A) (A) (A) (A) (A)
                 (A) (A) (A) (A) (A) (A) (A) (A) (A) (A) (A) (A)
       Virtual   (A) (A) (A) (A) (A) (A) (A) (A) (A) (A) (A) (A)
                 (A) (A) (A) (A) (A) (A) (A) (A) (A) (A) (A) (A)
                 (A) (A) (A) (A) (A) (A) (A) (A) (A) (A) (A) (A)
                 (A) (A) (A) (A) (A) (A) (A) (A) (A) (A) (A) (A)
                 (A) (A) (A) (A) (A) (A) (A) (A) (A) (A) (A) (A)
                 (A) (A) (A) (A) (A) (A) (A) (A) (A) (A) (A) (A)
                 (A) (A) (A) (A) (A) (A) (A) (A) (A) (A) (A) (A)
                 (A) (A) (A) (A) (A) (A) (A) (A) (A) (A) (A) (A)
                 (A) (A) (A) (A) (A) (A) (A) (A) (A) (A) (A) (A)
                 (A) (A) (A) (A) (A) (A) (A) (A) (A) (A) (A) (A)
                 (A) (A) (A) (A) (A) (A) (A) (A) (A) (A) (A) (A)
                 (A) (A) (A) (A) (A) (A) (A) (A) (A) (A) (A) (A)
                 (A) (A) (A) (A) (A) (A) (A) (A) (A) (A) (A) (A)
                 (A) (A) (A) (A) (A) (A) (A) (A) (A) (A) (A) (A)
                 (A) (A) (A) (A) (A) (A) (A) (A) (A) (A) (A) (A)
                 (A) (A) (A) (A)
 The electronic state is 1-A.
 Alpha  occ. eigenvalues --  -19.67415 -19.67412 -15.00680 -14.80634 -10.63536
 Alpha  occ. eigenvalues --  -10.60861 -10.58697 -10.58695 -10.57750 -10.57750
 Alpha  occ. eigenvalues --   -1.34696  -1.16299  -1.06596  -0.98639  -0.89543
 Alpha  occ. eigenvalues --   -0.87469  -0.78836  -0.73165  -0.68851  -0.64668
 Alpha  occ. eigenvalues --   -0.62897  -0.61901  -0.60979  -0.58773  -0.53923
 Alpha  occ. eigenvalues --   -0.52590  -0.51645  -0.48862  -0.48822  -0.43061
 Alpha  occ. eigenvalues --   -0.40956  -0.38376  -0.36956  -0.36901  -0.33566
 Alpha  occ. eigenvalues --   -0.28405
 Alpha virt. eigenvalues --   -0.04930  -0.00352  -0.00229   0.01687   0.02415
 Alpha virt. eigenvalues --    0.04049   0.04359   0.04739   0.07077   0.07110
 Alpha virt. eigenvalues --    0.08437   0.09075   0.09584   0.10218   0.11787
 Alpha virt. eigenvalues --    0.13098   0.13265   0.13837   0.13962   0.14299
 Alpha virt. eigenvalues --    0.15056   0.17289   0.17322   0.17681   0.17881
 Alpha virt. eigenvalues --    0.18160   0.18262   0.20901   0.20961   0.22128
 Alpha virt. eigenvalues --    0.22175   0.22684   0.22810   0.23736   0.24703
 Alpha virt. eigenvalues --    0.24894   0.25714   0.27376   0.27604   0.27885
 Alpha virt. eigenvalues --    0.29032   0.29999   0.30603   0.32959   0.33528
 Alpha virt. eigenvalues --    0.33632   0.33912   0.35422   0.37167   0.38003
 Alpha virt. eigenvalues --    0.40953   0.41835   0.42265   0.44196   0.44471
 Alpha virt. eigenvalues --    0.48296   0.49492   0.55974   0.63189   0.65185
 Alpha virt. eigenvalues --    0.67921   0.69072   0.69518   0.73826   0.74289
 Alpha virt. eigenvalues --    0.75108   0.77157   0.79054   0.81872   0.82539
 Alpha virt. eigenvalues --    0.85373   0.87526   0.89119   0.91654   0.94928
 Alpha virt. eigenvalues --    0.95276   0.98391   0.98447   1.00429   1.03830
 Alpha virt. eigenvalues --    1.03836   1.06166   1.08259   1.10360   1.10925
 Alpha virt. eigenvalues --    1.12998   1.13611   1.19549   1.20237   1.22858
 Alpha virt. eigenvalues --    1.25826   1.26532   1.26708   1.27495   1.28129
 Alpha virt. eigenvalues --    1.32660   1.34785   1.36162   1.37749   1.39873
 Alpha virt. eigenvalues --    1.40780   1.42176   1.42387   1.42933   1.46571
 Alpha virt. eigenvalues --    1.47306   1.48413   1.49895   1.50523   1.55861
 Alpha virt. eigenvalues --    1.65173   1.72691   1.76465   1.79119   1.84200
 Alpha virt. eigenvalues --    1.85046   1.86867   1.88460   1.89790   1.91331
 Alpha virt. eigenvalues --    1.96136   1.96161   1.96251   1.99872   2.00048
 Alpha virt. eigenvalues --    2.00320   2.01778   2.06221   2.10761   2.11610
 Alpha virt. eigenvalues --    2.16224   2.16318   2.16786   2.21017   2.22093
 Alpha virt. eigenvalues --    2.25283   2.25501   2.31834   2.39980   2.40807
 Alpha virt. eigenvalues --    2.41008   2.43883   2.44291   2.45596   2.51099
 Alpha virt. eigenvalues --    2.53718   2.54800   2.56109   2.57923   2.59430
 Alpha virt. eigenvalues --    2.60264   2.62544   2.69074   2.71320   2.74345
 Alpha virt. eigenvalues --    2.75529   2.80209   2.83124   2.83769   2.85747
 Alpha virt. eigenvalues --    3.00103   3.04262   3.05510   3.06999   3.13229
 Alpha virt. eigenvalues --    3.13748   3.19745   3.26521   3.33409   3.34109
 Alpha virt. eigenvalues --    3.41802   3.51321   3.64997   3.81749   4.13650
 Alpha virt. eigenvalues --    4.23347   4.29909   4.30608   4.34532   4.49006
 Alpha virt. eigenvalues --    4.50822   4.53814   4.82673   4.86323
          Condensed to atoms (all electrons):
               1          2          3          4          5          6
     1  C    9.767985   0.208022  -2.836876  -1.043064  -0.253503  -0.370957
     2  C    0.208022  10.153096   0.207942  -1.368642  -0.621137  -1.368620
     3  C   -2.836876   0.207942   9.768036  -0.370953  -0.253501  -1.043060
     4  C   -1.043064  -1.368642  -0.370953   9.536472   0.524234  -1.486724
     5  C   -0.253503  -0.621137  -0.253501   0.524234   5.806654   0.524251
     6  C   -0.370957  -1.368620  -1.043060  -1.486724   0.524251   9.536423
     7  N    0.047397  -0.030713   0.047397  -0.075996   0.107462  -0.075996
     8  N    0.176442  -0.732338   0.176454   0.022871  -0.015720   0.022876
     9  O    0.091040  -0.405058   0.042704   0.184587   0.018144  -0.025083
    10  O    0.042697  -0.405050   0.091044  -0.025083   0.018144   0.184582
    11  H    0.047926   0.286017   0.096114  -0.005967  -0.039578  -0.031189
    12  H    0.096113   0.286021   0.047921  -0.031187  -0.039578  -0.005967
    13  H   -0.005394   0.018222   0.112712   0.158966   0.031472   0.014657
    14  H    0.112711   0.018221  -0.005395   0.014657   0.031472   0.158968
    15  H    0.023014   0.000321  -0.001628   0.056009  -0.014528  -0.076493
    16  H   -0.001628   0.000321   0.023014  -0.076494  -0.014527   0.056010
               7          8          9         10         11         12
     1  C    0.047397   0.176442   0.091040   0.042697   0.047926   0.096113
     2  C   -0.030713  -0.732338  -0.405058  -0.405050   0.286017   0.286021
     3  C    0.047397   0.176454   0.042704   0.091044   0.096114   0.047921
     4  C   -0.075996   0.022871   0.184587  -0.025083  -0.005967  -0.031187
     5  C    0.107462  -0.015720   0.018144   0.018144  -0.039578  -0.039578
     6  C   -0.075996   0.022876  -0.025083   0.184582  -0.031189  -0.005967
     7  N    7.025076   0.000821  -0.000267  -0.000267  -0.000415  -0.000415
     8  N    0.000821   6.876961   0.395855   0.395864  -0.045338  -0.045339
     9  O   -0.000267   0.395855   7.839865  -0.078828  -0.002732   0.017158
    10  O   -0.000267   0.395864  -0.078828   7.839860   0.017157  -0.002732
    11  H   -0.000415  -0.045338  -0.002732   0.017157   0.481582  -0.000123
    12  H   -0.000415  -0.045339   0.017158  -0.002732  -0.000123   0.481582
    13  H   -0.015742  -0.000559   0.000078   0.000041   0.000011  -0.004064
    14  H   -0.015742  -0.000559   0.000041   0.000078  -0.004064   0.000011
    15  H    0.340013   0.000003   0.000000   0.000001  -0.000007   0.000002
    16  H    0.340012   0.000003   0.000001   0.000000   0.000002  -0.000007
              13         14         15         16
     1  C   -0.005394   0.112711   0.023014  -0.001628
     2  C    0.018222   0.018221   0.000321   0.000321
     3  C    0.112712  -0.005395  -0.001628   0.023014
     4  C    0.158966   0.014657   0.056009  -0.076494
     5  C    0.031472   0.031472  -0.014528  -0.014527
     6  C    0.014657   0.158968  -0.076493   0.056010
     7  N   -0.015742  -0.015742   0.340013   0.340012
     8  N   -0.000559  -0.000559   0.000003   0.000003
     9  O    0.000078   0.000041   0.000000   0.000001
    10  O    0.000041   0.000078   0.000001   0.000000
    11  H    0.000011  -0.004064  -0.000007   0.000002
    12  H   -0.004064   0.000011   0.000002  -0.000007
    13  H    0.535133  -0.000121  -0.000030   0.004090
    14  H   -0.000121   0.535133   0.004090  -0.000030
    15  H   -0.000030   0.004090   0.361383  -0.022787
    16  H    0.004090  -0.000030  -0.022787   0.361384
 Mulliken charges:
               1
     1  C   -0.101924
     2  C   -0.246625
     3  C   -0.101925
     4  C   -0.013686
     5  C    0.190241
     6  C   -0.013681
     7  N   -0.692623
     8  N   -0.228296
     9  O   -0.077505
    10  O   -0.077509
    11  H    0.200603
    12  H    0.200603
    13  H    0.150527
    14  H    0.150527
    15  H    0.330637
    16  H    0.330636
 Sum of Mulliken charges =  -0.00000
 Mulliken charges with hydrogens summed into heavy atoms:
               1
     1  C    0.098679
     2  C   -0.246625
     3  C    0.098678
     4  C    0.136841
     5  C    0.190241
     6  C    0.136846
     7  N   -0.031350
     8  N   -0.228296
     9  O   -0.077505
    10  O   -0.077509
 Electronic spatial extent (au):  <R**2>=           1562.8130
 Charge=             -0.0000 electrons
 Dipole moment (field-independent basis, Debye):
    X=             -7.7177    Y=              0.0000    Z=              0.0027  Tot=              7.7177
 Quadrupole moment (field-independent basis, Debye-Ang):
   XX=            -56.7335   YY=            -52.6694   ZZ=            -61.1500
   XY=              0.0001   XZ=              0.0097   YZ=              0.0002
 Traceless Quadrupole moment (field-independent basis, Debye-Ang):
   XX=              0.1175   YY=              4.1816   ZZ=             -4.2990
   XY=              0.0001   XZ=              0.0097   YZ=              0.0002
 Octapole moment (field-independent basis, Debye-Ang**2):
  XXX=           -109.0933  YYY=              0.0000  ZZZ=             -0.0069  XYY=            -17.0592
  XXY=              0.0001  XXZ=              0.0179  XZZ=             13.5838  YZZ=              0.0000
  YYZ=             -0.0007  XYZ=             -0.0009
 Hexadecapole moment (field-independent basis, Debye-Ang**3):
 XXXX=          -1366.0794 YYYY=           -364.8654 ZZZZ=            -65.9829 XXXY=              0.0008
 XXXZ=              0.1299 YYYX=              0.0001 YYYZ=             -0.0033 ZZZX=              0.0424
 ZZZY=             -0.0056 XXYY=           -298.1274 XXZZ=           -281.5862 YYZZ=            -84.8631
 XXYZ=             -0.0005 YYXZ=              0.0158 ZZXY=              0.0000
 N-N= 4.946945858361D+02 E-N=-2.135775991455D+03  KE= 4.876685180985D+02
 Calling FoFJK, ICntrl=      2127 FMM=F ISym2X=0 I1Cent= 0 IOpClX= 0 NMat=1 NMatS=1 NMatT=0.
 ***** Axes restored to original set *****
 -------------------------------------------------------------------
 Center     Atomic                   Forces (Hartrees/Bohr)
 Number     Number              X              Y              Z
 -------------------------------------------------------------------
      1        6          -0.000652052   -0.003482011    0.000024346
      2        6           0.005490207    0.000001680    0.000085441
      3        6          -0.000652836    0.003479929    0.000024204
      4        6          -0.000549782    0.002788454   -0.000006441
      5        6          -0.000500772    0.000001175    0.000002671
      6        6          -0.000550210   -0.002789364   -0.000006228
      7        7          -0.002483226   -0.000000929    0.000000793
      8        7          -0.019161774    0.000002065   -0.000455828
      9        8           0.010566573    0.019351939    0.000168097
     10        8           0.010570184   -0.019354913    0.000169253
     11        1          -0.000412688    0.000514498    0.000000105
     12        1          -0.000411627   -0.000513339    0.000000064
     13        1          -0.000014079    0.000215052   -0.000003029
     14        1          -0.000013861   -0.000214594   -0.000003033
     15        1          -0.000612106   -0.000347656   -0.000000215
     16        1          -0.000611954    0.000348015   -0.000000200
 -------------------------------------------------------------------
 Cartesian Forces:  Max     0.019354913 RMS     0.005438475

 GradGradGradGradGradGradGradGradGradGradGradGradGradGradGradGradGradGrad
 Berny optimization.
 FormGI is forming the generalized inverse of G from B-inverse, IUseBI=4.
 Internal  Forces:  Max     0.022052102 RMS     0.003878303
 Search for a local minimum.
 Step number   1 out of a maximum of   82
 All quantities printed in internal units (Hartrees-Bohrs-Radians)
 Mixed Optimization -- RFO/linear search
 Second derivative matrix not updated -- first step.
 ITU=  0
     Eigenvalues ---    0.00996   0.00996   0.01774   0.01947   0.02015
     Eigenvalues ---    0.02078   0.02097   0.02097   0.02106   0.02155
     Eigenvalues ---    0.02167   0.02210   0.02216   0.16000   0.16000
     Eigenvalues ---    0.16000   0.16000   0.16000   0.16000   0.22000
     Eigenvalues ---    0.22969   0.24000   0.25000   0.25000   0.25000
     Eigenvalues ---    0.25000   0.35285   0.35285   0.35669   0.35669
     Eigenvalues ---    0.37911   0.40804   0.41759   0.44815   0.45017
     Eigenvalues ---    0.46642   0.46642   0.46706   0.48191   0.51106
     Eigenvalues ---    0.88339   0.88341
 RFO step:  Lambda=-1.36707943D-03 EMin= 9.96419452D-03
 Linear search not attempted -- first point.
 Iteration  1 RMS(Cart)=  0.00931081 RMS(Int)=  0.00004764
 Iteration  2 RMS(Cart)=  0.00004305 RMS(Int)=  0.00002219
 Iteration  3 RMS(Cart)=  0.00000001 RMS(Int)=  0.00002219
 Variable       Old X    -DE/DX   Delta X   Delta X   Delta X     New X
                                 (Linear)    (Quad)   (Total)
    R1        2.64231  -0.00470   0.00000  -0.01034  -0.01033   2.63198
    R2        2.61737  -0.00267   0.00000  -0.00552  -0.00552   2.61184
    R3        2.04602   0.00065   0.00000   0.00183   0.00183   2.04785
    R4        2.64231  -0.00470   0.00000  -0.01033  -0.01033   2.63198
    R5        2.74495  -0.00198   0.00000  -0.00519  -0.00519   2.73976
    R6        2.61737  -0.00267   0.00000  -0.00552  -0.00552   2.61185
    R7        2.04602   0.00065   0.00000   0.00182   0.00182   2.04785
    R8        2.66963  -0.00338   0.00000  -0.00760  -0.00760   2.66203
    R9        2.05215  -0.00019   0.00000  -0.00055  -0.00055   2.05160
   R10        2.66963  -0.00338   0.00000  -0.00760  -0.00760   2.66203
   R11        2.58766  -0.00371   0.00000  -0.00723  -0.00723   2.58042
   R12        2.05215  -0.00019   0.00000  -0.00055  -0.00055   2.05160
   R13        1.90114  -0.00061   0.00000  -0.00131  -0.00131   1.89983
   R14        1.90114  -0.00061   0.00000  -0.00131  -0.00131   1.89983
   R15        2.33707  -0.02205   0.00000  -0.02492  -0.02492   2.31215
   R16        2.33708  -0.02205   0.00000  -0.02492  -0.02492   2.31216
    A1        2.08628  -0.00092   0.00000  -0.00416  -0.00415   2.08213
    A2        2.08320   0.00037   0.00000   0.00152   0.00152   2.08472
    A3        2.11370   0.00055   0.00000   0.00263   0.00263   2.11633
    A4        2.11019   0.00201   0.00000   0.00774   0.00774   2.11793
    A5        2.08650  -0.00100   0.00000  -0.00387  -0.00387   2.08263
    A6        2.08650  -0.00100   0.00000  -0.00387  -0.00387   2.08263
    A7        2.08628  -0.00092   0.00000  -0.00416  -0.00415   2.08213
    A8        2.08320   0.00037   0.00000   0.00152   0.00152   2.08472
    A9        2.11370   0.00055   0.00000   0.00263   0.00263   2.11633
   A10        2.10491  -0.00034   0.00000  -0.00107  -0.00107   2.10383
   A11        2.09103   0.00027   0.00000   0.00114   0.00114   2.09217
   A12        2.08725   0.00008   0.00000  -0.00007  -0.00007   2.08718
   A13        2.07380   0.00052   0.00000   0.00271   0.00271   2.07651
   A14        2.10469  -0.00026   0.00000  -0.00136  -0.00136   2.10334
   A15        2.10469  -0.00026   0.00000  -0.00136  -0.00135   2.10334
   A16        2.10491  -0.00034   0.00000  -0.00107  -0.00107   2.10384
   A17        2.09103   0.00027   0.00000   0.00114   0.00114   2.09217
   A18        2.08725   0.00008   0.00000  -0.00007  -0.00007   2.08718
   A19        2.11400  -0.00022   0.00000  -0.00135  -0.00135   2.11265
   A20        2.11400  -0.00022   0.00000  -0.00135  -0.00135   2.11265
   A21        2.05518   0.00044   0.00000   0.00270   0.00270   2.05788
   A22        2.06011  -0.00018   0.00000  -0.00069  -0.00080   2.05932
   A23        2.06012  -0.00018   0.00000  -0.00070  -0.00081   2.05931
   A24        2.16294   0.00036   0.00000   0.00146   0.00135   2.16429
    D1       -0.00010   0.00001   0.00000   0.00042   0.00042   0.00031
    D2        3.14153   0.00001   0.00000   0.00022   0.00022  -3.14143
    D3        3.14155   0.00000   0.00000   0.00016   0.00016  -3.14147
    D4        0.00001  -0.00000   0.00000  -0.00004  -0.00004  -0.00003
    D5        0.00005  -0.00000   0.00000  -0.00020  -0.00020  -0.00015
    D6       -3.14153  -0.00001   0.00000  -0.00023  -0.00023   3.14142
    D7        3.14158   0.00000   0.00000   0.00007   0.00007  -3.14154
    D8       -0.00001   0.00000   0.00000   0.00003   0.00003   0.00002
    D9        0.00010  -0.00001   0.00000  -0.00042  -0.00042  -0.00031
   D10       -3.14156  -0.00000   0.00000  -0.00016  -0.00016   3.14147
   D11       -3.14153  -0.00001   0.00000  -0.00022  -0.00022   3.14143
   D12       -0.00001   0.00000   0.00000   0.00004   0.00004   0.00003
   D13        3.14026   0.00015   0.00000   0.01325   0.01325  -3.12968
   D14        0.00129  -0.00015   0.00000  -0.01305  -0.01305  -0.01176
   D15       -0.00129   0.00015   0.00000   0.01305   0.01305   0.01176
   D16       -3.14025  -0.00015   0.00000  -0.01325  -0.01324   3.12969
   D17       -0.00005   0.00000   0.00000   0.00020   0.00020   0.00015
   D18        3.14153   0.00001   0.00000   0.00023   0.00023  -3.14142
   D19       -3.14157  -0.00000   0.00000  -0.00007  -0.00007   3.14154
   D20        0.00001  -0.00000   0.00000  -0.00003  -0.00003  -0.00002
   D21       -0.00000   0.00000   0.00000   0.00002   0.00002   0.00002
   D22        3.14159   0.00000   0.00000   0.00003   0.00003  -3.14157
   D23       -3.14159  -0.00000   0.00000  -0.00002  -0.00002   3.14158
   D24        0.00000  -0.00000   0.00000  -0.00001  -0.00001  -0.00001
   D25        0.00000  -0.00000   0.00000  -0.00002  -0.00002  -0.00002
   D26        3.14159   0.00000   0.00000   0.00002   0.00002  -3.14158
   D27       -3.14159  -0.00000   0.00000  -0.00003  -0.00003   3.14157
   D28       -0.00000   0.00000   0.00000   0.00001   0.00001   0.00001
   D29        3.14158  -0.00000   0.00000  -0.00002  -0.00002   3.14156
   D30        0.00001   0.00000   0.00000   0.00001   0.00001   0.00002
   D31       -0.00001  -0.00000   0.00000  -0.00001  -0.00001  -0.00002
   D32       -3.14158   0.00000   0.00000   0.00002   0.00002  -3.14157
         Item               Value     Threshold  Converged?
 Maximum Force            0.022052     0.000450     NO 
 RMS     Force            0.003878     0.000300     NO 
 Maximum Displacement     0.032950     0.001800     NO 
 RMS     Displacement     0.009319     0.001200     NO 
 Predicted change in Energy=-6.853140D-04
 GradGradGradGradGradGradGradGradGradGradGradGradGradGradGradGradGradGrad

                          Input orientation:                          
 ---------------------------------------------------------------------
 Center     Atomic      Atomic             Coordinates (Angstroms)
 Number     Number       Type             X           Y           Z
 ---------------------------------------------------------------------
      1          6           0       -0.021564    1.214296   -0.002243
      2          6           0       -0.703712   -0.000001   -0.003182
      3          6           0       -0.021563   -1.214298   -0.002173
      4          6           0        1.360564   -1.213610   -0.000578
      5          6           0        2.075788   -0.000000    0.000203
      6          6           0        1.360563    1.213610   -0.000648
      7          7           0        3.441288    0.000001    0.001752
      8          7           0       -2.153531    0.000000   -0.005057
      9          8           0       -2.727780   -1.080342    0.007020
     10          8           0       -2.727773    1.080348    0.006950
     11          1           0       -0.583397    2.140952   -0.002959
     12          1           0       -0.583395   -2.140955   -0.002835
     13          1           0        1.901766   -2.154759    0.000056
     14          1           0        1.901765    2.154759   -0.000070
     15          1           0        3.959770    0.861335    0.002294
     16          1           0        3.959771   -0.861332    0.002347
 ---------------------------------------------------------------------
                    Distance matrix (angstroms):
                    1          2          3          4          5
     1  C    0.000000
     2  C    1.392783   0.000000
     3  C    2.428594   1.392783   0.000000
     4  C    2.793746   2.394597   1.382129   0.000000
     5  C    2.423511   2.779502   2.423511   1.408685   0.000000
     6  C    1.382129   2.394596   2.793745   2.427220   1.408686
     7  N    3.669588   4.145004   3.669588   2.408790   1.365502
     8  N    2.453529   1.449820   2.453531   3.717760   4.229322
     9  O    3.548106   2.294361   2.709546   4.090523   4.923561
    10  O    2.709537   2.294358   3.548106   4.687942   4.923554
    11  H    1.083674   2.144332   3.401965   3.877123   3.413935
    12  H    3.401965   2.144331   1.083673   2.153823   3.413935
    13  H    3.879400   3.381052   2.140951   1.085662   2.161775
    14  H    2.140951   3.381052   3.879399   3.411570   2.161775
    15  H    3.996952   4.742362   4.489909   3.325850   2.071544
    16  H    4.489909   4.742362   3.996953   2.622972   2.071543
                    6          7          8          9         10
     6  C    0.000000
     7  N    2.408790   0.000000
     8  N    3.717758   5.594824   0.000000
     9  O    4.687945   6.262953   1.223539   0.000000
    10  O    4.090514   6.262946   1.223540   2.160691   0.000000
    11  H    2.153823   4.558705   2.654996   3.869783   2.392347
    12  H    3.877123   4.558705   2.654999   2.392359   3.869786
    13  H    3.411570   2.648230   4.592217   4.752591   5.647885
    14  H    1.085662   2.648229   4.592215   5.647886   4.752581
    15  H    2.622972   1.005345   6.173687   6.963725   6.691130
    16  H    3.325850   1.005345   6.173687   6.691138   6.963719
                   11         12         13         14         15
    11  H    0.000000
    12  H    4.281907   0.000000
    13  H    4.962780   2.485202   0.000000
    14  H    2.485202   4.962780   4.309518   0.000000
    15  H    4.719939   5.445560   3.651330   2.430707   0.000000
    16  H    5.445560   4.719939   2.430708   3.651329   1.722667
                   16
    16  H    0.000000
 Stoichiometry    C6H6N2O2
 Framework group  C1[X(C6H6N2O2)]
 Deg. of freedom    42
 Full point group                 C1      NOp   1
 Largest Abelian subgroup         C1      NOp   1
 Largest concise Abelian subgroup C1      NOp   1
                         Standard orientation:                         
 ---------------------------------------------------------------------
 Center     Atomic      Atomic             Coordinates (Angstroms)
 Number     Number       Type             X           Y           Z
 ---------------------------------------------------------------------
      1          6           0        0.024711   -1.214296   -0.002715
      2          6           0        0.706858    0.000002   -0.004023
      3          6           0        0.024709    1.214298   -0.002717
      4          6           0       -1.357418    1.213611   -0.000449
      5          6           0       -2.072640    0.000000    0.000717
      6          6           0       -1.357416   -1.213610   -0.000447
      7          7           0       -3.438140   -0.000001    0.002932
      8          7           0        2.156676    0.000001   -0.006605
      9          8           0        2.730930    1.080344    0.005160
     10          8           0        2.730923   -1.080347    0.005155
     11          1           0        0.586543   -2.140952   -0.003677
     12          1           0        0.586541    2.140955   -0.003681
     13          1           0       -1.898620    2.154759    0.000420
     14          1           0       -1.898617   -2.154759    0.000424
     15          1           0       -3.956621   -0.861335    0.003752
     16          1           0       -3.956623    0.861332    0.003753
 ---------------------------------------------------------------------
 Rotational constants (GHZ):      3.9430744      0.8288302      0.6848747
 Standard basis: 6-31+G(d,p) (6D, 7F)
 There are   220 symmetry adapted cartesian basis functions of A   symmetry.
 There are   220 symmetry adapted basis functions of A   symmetry.
   220 basis functions,   362 primitive gaussians,   220 cartesian basis functions
    36 alpha electrons       36 beta electrons
       nuclear repulsion energy       496.8658089079 Hartrees.
 NAtoms=   16 NActive=   16 NUniq=   16 SFac= 1.00D+00 NAtFMM=   60 NAOKFM=F Big=F
 Integral buffers will be    131072 words long.
 Raffenetti 2 integral format.
 Two-electron integral symmetry is turned on.
 One-electron integrals computed using PRISM.
 NBasis=   220 RedAO= T EigKep=  3.19D-06  NBF=   220
 NBsUse=   220 1.00D-06 EigRej= -1.00D+00 NBFU=   220
 Initial guess from the checkpoint file:  "m062xPNA.chk"
 B after Tr=     0.000000   -0.000000    0.000000
         Rot=    1.000000    0.000015    0.000033    0.000000 Ang=   0.00 deg.
 ExpMin= 4.38D-02 ExpMax= 5.48D+03 ExpMxC= 8.25D+02 IAcc=2 IRadAn=         4 AccDes= 0.00D+00
 Harris functional with IExCor= 1009 and IRadAn=       4 diagonalized for initial guess.
 HarFok:  IExCor= 1009 AccDes= 0.00D+00 IRadAn=         4 IDoV= 1 UseB2=F ITyADJ=14
 ICtDFT=  3500011 ScaDFX=  1.000000  1.000000  1.000000  1.000000
 FoFCou: FMM=F IPFlag=           0 FMFlag=      100000 FMFlg1=           0
         NFxFlg=           0 DoJE=T BraDBF=F KetDBF=T FulRan=T
         wScrn=  0.000000 ICntrl=     500 IOpCl=  0 I1Cent=   200000004 NGrid=           0
         NMat0=    1 NMatS0=      1 NMatT0=    0 NMatD0=    1 NMtDS0=    0 NMtDT0=    0
 Petite list used in FoFCou.
 Keep R1 ints in memory in canonical form, NReq=301066375.
 Requested convergence on RMS density matrix=1.00D-08 within 128 cycles.
 Requested convergence on MAX density matrix=1.00D-06.
 Requested convergence on             energy=1.00D-06.
 No special actions if energy rises.
 SCF Done:  E(RM062X) =  -491.930637995     A.U. after   13 cycles
            NFock= 13  Conv=0.66D-08     -V/T= 2.0084
 Calling FoFJK, ICntrl=      2127 FMM=F ISym2X=0 I1Cent= 0 IOpClX= 0 NMat=1 NMatS=1 NMatT=0.
 ***** Axes restored to original set *****
 -------------------------------------------------------------------
 Center     Atomic                   Forces (Hartrees/Bohr)
 Number     Number              X              Y              Z
 -------------------------------------------------------------------
      1        6          -0.000716441    0.000275354   -0.000173541
      2        6           0.003125688   -0.000000136   -0.000852396
      3        6          -0.000716568   -0.000275286   -0.000173487
      4        6           0.000480108   -0.000168666    0.000048748
      5        6          -0.000079577    0.000000299   -0.000025319
      6        6           0.000480384    0.000168416    0.000048712
      7        7           0.000808831   -0.000000154   -0.000001540
      8        7          -0.006669637    0.000001188    0.003867466
      9        8           0.001430293    0.001685427   -0.001388859
     10        8           0.001429779   -0.001686333   -0.001388724
     11        1           0.000048204   -0.000112717   -0.000003679
     12        1           0.000048058    0.000112523   -0.000003667
     13        1           0.000143528   -0.000013413    0.000020472
     14        1           0.000143492    0.000013427    0.000020493
     15        1           0.000021925   -0.000028172    0.000002678
     16        1           0.000021933    0.000028245    0.000002642
 -------------------------------------------------------------------
 Cartesian Forces:  Max     0.006669637 RMS     0.001339055

 GradGradGradGradGradGradGradGradGradGradGradGradGradGradGradGradGradGrad
 Berny optimization.
 Using GEDIIS/GDIIS optimizer.
 FormGI is forming the generalized inverse of G from B-inverse, IUseBI=4.
 Internal  Forces:  Max     0.003808156 RMS     0.000707622
 Search for a local minimum.
 Step number   2 out of a maximum of   82
 All quantities printed in internal units (Hartrees-Bohrs-Radians)
 Mixed Optimization -- En-DIIS/RFO-DIIS
 Update second derivatives using D2CorX and points    1    2
 DE= -6.84D-04 DEPred=-6.85D-04 R= 9.98D-01
 TightC=F SS=  1.41D+00  RLast= 5.09D-02 DXNew= 5.0454D-01 1.5260D-01
 Trust test= 9.98D-01 RLast= 5.09D-02 DXMaxT set to 3.00D-01
 ITU=  1  0
 Use linear search instead of GDIIS.
     Eigenvalues ---    0.00996   0.01106   0.01777   0.01947   0.02015
     Eigenvalues ---    0.02078   0.02097   0.02097   0.02107   0.02155
     Eigenvalues ---    0.02167   0.02210   0.02216   0.15985   0.16000
     Eigenvalues ---    0.16000   0.16000   0.16000   0.16008   0.22000
     Eigenvalues ---    0.22955   0.24128   0.24945   0.25000   0.25000
     Eigenvalues ---    0.25000   0.35285   0.35287   0.35663   0.35669
     Eigenvalues ---    0.37680   0.40787   0.41760   0.44817   0.45937
     Eigenvalues ---    0.46641   0.46642   0.46700   0.49237   0.52156
     Eigenvalues ---    0.76547   0.88340
 RFO step:  Lambda=-7.62196032D-04 EMin= 9.96419452D-03
 Quartic linear search produced a step of -0.01269.
 Iteration  1 RMS(Cart)=  0.03011627 RMS(Int)=  0.00304446
 Iteration  2 RMS(Cart)=  0.00261697 RMS(Int)=  0.00186970
 Iteration  3 RMS(Cart)=  0.00001058 RMS(Int)=  0.00186968
 Iteration  4 RMS(Cart)=  0.00000003 RMS(Int)=  0.00186968
 Variable       Old X    -DE/DX   Delta X   Delta X   Delta X     New X
                                 (Linear)    (Quad)   (Total)
    R1        2.63198   0.00033   0.00013  -0.00525  -0.00511   2.62687
    R2        2.61184   0.00101   0.00007  -0.00112  -0.00105   2.61080
    R3        2.04785  -0.00012  -0.00002   0.00072   0.00070   2.04854
    R4        2.63198   0.00033   0.00013  -0.00524  -0.00511   2.62687
    R5        2.73976   0.00381   0.00007   0.00693   0.00700   2.74676
    R6        2.61185   0.00101   0.00007  -0.00112  -0.00105   2.61080
    R7        2.04785  -0.00012  -0.00002   0.00072   0.00069   2.04854
    R8        2.66203   0.00033   0.00010  -0.00365  -0.00355   2.65847
    R9        2.05160   0.00008   0.00001  -0.00008  -0.00008   2.05153
   R10        2.66203   0.00033   0.00010  -0.00365  -0.00356   2.65847
   R11        2.58042   0.00085   0.00009  -0.00253  -0.00244   2.57799
   R12        2.05160   0.00008   0.00001  -0.00008  -0.00007   2.05153
   R13        1.89983  -0.00001   0.00002  -0.00079  -0.00077   1.89906
   R14        1.89983  -0.00001   0.00002  -0.00079  -0.00077   1.89906
   R15        2.31215  -0.00217   0.00032  -0.01683  -0.01652   2.29564
   R16        2.31216  -0.00217   0.00032  -0.01684  -0.01652   2.29564
    A1        2.08213   0.00011   0.00005  -0.00194  -0.00188   2.08025
    A2        2.08472  -0.00007  -0.00002   0.00054   0.00052   2.08524
    A3        2.11633  -0.00004  -0.00003   0.00140   0.00136   2.11770
    A4        2.11793  -0.00024  -0.00010   0.00352   0.00342   2.12135
    A5        2.08263   0.00012   0.00005  -0.00176  -0.00171   2.08092
    A6        2.08263   0.00012   0.00005  -0.00176  -0.00171   2.08092
    A7        2.08213   0.00011   0.00005  -0.00194  -0.00188   2.08025
    A8        2.08472  -0.00007  -0.00002   0.00054   0.00052   2.08524
    A9        2.11633  -0.00004  -0.00003   0.00140   0.00136   2.11770
   A10        2.10383   0.00013   0.00001  -0.00009  -0.00008   2.10375
   A11        2.09217   0.00006  -0.00001   0.00114   0.00112   2.09329
   A12        2.08718  -0.00019   0.00000  -0.00104  -0.00104   2.08614
   A13        2.07651  -0.00024  -0.00003   0.00055   0.00051   2.07702
   A14        2.10334   0.00012   0.00002  -0.00028  -0.00026   2.10308
   A15        2.10334   0.00012   0.00002  -0.00027  -0.00025   2.10308
   A16        2.10384   0.00013   0.00001  -0.00009  -0.00008   2.10375
   A17        2.09217   0.00006  -0.00001   0.00114   0.00112   2.09329
   A18        2.08718  -0.00019   0.00000  -0.00104  -0.00104   2.08614
   A19        2.11265   0.00002   0.00002  -0.00065  -0.00063   2.11202
   A20        2.11265   0.00002   0.00002  -0.00065  -0.00063   2.11202
   A21        2.05788  -0.00004  -0.00003   0.00130   0.00127   2.05915
   A22        2.05932  -0.00034   0.00001  -0.00003  -0.00903   2.05028
   A23        2.05931  -0.00033   0.00001  -0.00003  -0.00903   2.05028
   A24        2.16429   0.00073  -0.00002   0.00543  -0.00384   2.16045
    D1        0.00031  -0.00007  -0.00001  -0.00291  -0.00291  -0.00260
    D2       -3.14143  -0.00004  -0.00000  -0.00142  -0.00142   3.14033
    D3       -3.14147  -0.00003  -0.00000  -0.00121  -0.00121   3.14050
    D4       -0.00003   0.00000   0.00000   0.00028   0.00028   0.00025
    D5       -0.00015   0.00003   0.00000   0.00135   0.00135   0.00120
    D6        3.14142   0.00004   0.00000   0.00156   0.00156  -3.14020
    D7       -3.14154  -0.00001  -0.00000  -0.00038  -0.00039   3.14126
    D8        0.00002  -0.00000  -0.00000  -0.00017  -0.00017  -0.00015
    D9       -0.00031   0.00007   0.00001   0.00291   0.00291   0.00260
   D10        3.14147   0.00003   0.00000   0.00121   0.00121  -3.14050
   D11        3.14143   0.00004   0.00000   0.00142   0.00142  -3.14033
   D12        0.00003  -0.00000  -0.00000  -0.00028  -0.00028  -0.00025
   D13       -3.12968  -0.00141  -0.00017  -0.12133  -0.12056   3.03294
   D14       -0.01176   0.00138   0.00017   0.11987   0.11910   0.10735
   D15        0.01176  -0.00138  -0.00017  -0.11988  -0.11910  -0.10734
   D16        3.12969   0.00141   0.00017   0.12133   0.12056  -3.03294
   D17        0.00015  -0.00003  -0.00000  -0.00135  -0.00135  -0.00120
   D18       -3.14142  -0.00004  -0.00000  -0.00156  -0.00156   3.14020
   D19        3.14154   0.00001   0.00000   0.00038   0.00039  -3.14126
   D20       -0.00002   0.00000   0.00000   0.00017   0.00017   0.00015
   D21        0.00002  -0.00000  -0.00000  -0.00015  -0.00015  -0.00014
   D22       -3.14157  -0.00001  -0.00000  -0.00027  -0.00027   3.14135
   D23        3.14158   0.00000   0.00000   0.00006   0.00007  -3.14154
   D24       -0.00001  -0.00000   0.00000  -0.00005  -0.00005  -0.00006
   D25       -0.00002   0.00000   0.00000   0.00015   0.00015   0.00014
   D26       -3.14158  -0.00000  -0.00000  -0.00006  -0.00007   3.14154
   D27        3.14157   0.00001   0.00000   0.00027   0.00027  -3.14135
   D28        0.00001   0.00000  -0.00000   0.00005   0.00005   0.00006
   D29        3.14156   0.00000   0.00000   0.00017   0.00017  -3.14145
   D30        0.00002  -0.00000  -0.00000  -0.00006  -0.00006  -0.00004
   D31       -0.00002   0.00000   0.00000   0.00006   0.00006   0.00003
   D32       -3.14157  -0.00000  -0.00000  -0.00017  -0.00017   3.14144
         Item               Value     Threshold  Converged?
 Maximum Force            0.003808     0.000450     NO 
 RMS     Force            0.000708     0.000300     NO 
 Maximum Displacement     0.133380     0.001800     NO 
 RMS     Displacement     0.030203     0.001200     NO 
 Predicted change in Energy=-3.857610D-04
 GradGradGradGradGradGradGradGradGradGradGradGradGradGradGradGradGradGrad

                          Input orientation:                          
 ---------------------------------------------------------------------
 Center     Atomic      Atomic             Coordinates (Angstroms)
 Number     Number       Type             X           Y           Z
 ---------------------------------------------------------------------
      1          6           0       -0.022314    1.213100    0.020677
      2          6           0       -0.701011    0.000001    0.029337
      3          6           0       -0.022313   -1.213099    0.020748
      4          6           0        1.359187   -1.212172    0.006331
      5          6           0        2.073107    0.000000   -0.001072
      6          6           0        1.359186    1.212173    0.006260
      7          7           0        3.437247   -0.000001   -0.015020
      8          7           0       -2.154436    0.000001    0.046106
      9          8           0       -2.716155   -1.071531   -0.063561
     10          8           0       -2.716148    1.071529   -0.063630
     11          1           0       -0.585407    2.139401    0.026775
     12          1           0       -0.585405   -2.139400    0.026899
     13          1           0        1.901563   -2.152582    0.000812
     14          1           0        1.901562    2.152583    0.000687
     15          1           0        3.954948    0.861312   -0.020262
     16          1           0        3.954949   -0.861313   -0.020209
 ---------------------------------------------------------------------
                    Distance matrix (angstroms):
                    1          2          3          4          5
     1  C    0.000000
     2  C    1.390077   0.000000
     3  C    2.426199   1.390077   0.000000
     4  C    2.791181   2.390461   1.381575   0.000000
     5  C    2.421336   2.774284   2.421337   1.406804   0.000000
     6  C    1.381575   2.390461   2.791181   2.424344   1.406804
     7  N    3.666258   4.138495   3.666258   2.405857   1.364211
     8  N    2.453202   1.453522   2.453203   3.717054   4.227806
     9  O    3.533188   2.284210   2.698876   4.078367   4.908066
    10  O    2.698869   2.284205   3.533184   4.672102   4.908059
    11  H    1.084041   2.142523   3.399466   3.874907   3.412551
    12  H    3.399466   2.142523   1.084040   2.154440   3.412551
    13  H    3.876791   3.377546   2.141103   1.085622   2.159408
    14  H    2.141104   3.377546   3.876792   3.408193   2.159408
    15  H    3.992999   4.735216   4.485919   3.322352   2.069675
    16  H    4.485920   4.735217   3.993000   2.619502   2.069676
                    6          7          8          9         10
     6  C    0.000000
     7  N    2.405858   0.000000
     8  N    3.717053   5.592017   0.000000
     9  O    4.672107   6.246190   1.214799   0.000000
    10  O    4.078359   6.246183   1.214798   2.143060   0.000000
    11  H    2.154441   4.556373   2.653160   3.854651   2.385074
    12  H    3.874906   4.556371   2.653162   2.385084   3.854650
    13  H    3.408193   2.644274   4.592036   4.743009   5.632255
    14  H    1.085622   2.644276   4.592035   5.632260   4.743001
    15  H    2.619502   1.004939   6.170157   6.945601   6.674548
    16  H    3.322353   1.004938   6.170158   6.674556   6.945595
                   11         12         13         14         15
    11  H    0.000000
    12  H    4.278802   0.000000
    13  H    4.960526   2.487139   0.000000
    14  H    2.487140   4.960525   4.305166   0.000000
    15  H    4.717049   5.442546   3.646971   2.425741   0.000000
    16  H    5.442548   4.717048   2.425740   3.646972   1.722625
                   16
    16  H    0.000000
 Stoichiometry    C6H6N2O2
 Framework group  C1[X(C6H6N2O2)]
 Deg. of freedom    42
 Full point group                 C1      NOp   1
 Largest Abelian subgroup         C1      NOp   1
 Largest concise Abelian subgroup C1      NOp   1
                         Standard orientation:                         
 ---------------------------------------------------------------------
 Center     Atomic      Atomic             Coordinates (Angstroms)
 Number     Number       Type             X           Y           Z
 ---------------------------------------------------------------------
      1          6           0        0.026902   -1.213099    0.024886
      2          6           0        0.705552    0.000000    0.036617
      3          6           0        0.026901    1.213100    0.024885
      4          6           0       -1.354518    1.212172    0.004141
      5          6           0       -2.068397   -0.000000   -0.006494
      6          6           0       -1.354517   -1.212172    0.004143
      7          7           0       -3.432459    0.000001   -0.026688
      8          7           0        2.158885    0.000000    0.060041
      9          8           0        2.721101    1.071529   -0.047085
     10          8           0        2.721093   -1.071531   -0.047089
     11          1           0        0.589961   -2.139400    0.033590
     12          1           0        0.589959    2.139401    0.033586
     13          1           0       -1.896863    2.152583   -0.003889
     14          1           0       -1.896862   -2.152583   -0.003886
     15          1           0       -3.950131   -0.861312   -0.034275
     16          1           0       -3.950132    0.861313   -0.034274
 ---------------------------------------------------------------------
 Rotational constants (GHZ):      3.9624574      0.8322228      0.6880863
 Standard basis: 6-31+G(d,p) (6D, 7F)
 There are   220 symmetry adapted cartesian basis functions of A   symmetry.
 There are   220 symmetry adapted basis functions of A   symmetry.
   220 basis functions,   362 primitive gaussians,   220 cartesian basis functions
    36 alpha electrons       36 beta electrons
       nuclear repulsion energy       497.9890774315 Hartrees.
 NAtoms=   16 NActive=   16 NUniq=   16 SFac= 1.00D+00 NAtFMM=   60 NAOKFM=F Big=F
 Integral buffers will be    131072 words long.
 Raffenetti 2 integral format.
 Two-electron integral symmetry is turned on.
 One-electron integrals computed using PRISM.
 NBasis=   220 RedAO= T EigKep=  3.16D-06  NBF=   220
 NBsUse=   220 1.00D-06 EigRej= -1.00D+00 NBFU=   220
 Initial guess from the checkpoint file:  "m062xPNA.chk"
 B after Tr=     0.000000    0.000000   -0.000000
         Rot=    1.000000   -0.000000   -0.000010    0.000000 Ang=  -0.00 deg.
 ExpMin= 4.38D-02 ExpMax= 5.48D+03 ExpMxC= 8.25D+02 IAcc=2 IRadAn=         4 AccDes= 0.00D+00
 Harris functional with IExCor= 1009 and IRadAn=       4 diagonalized for initial guess.
 HarFok:  IExCor= 1009 AccDes= 0.00D+00 IRadAn=         4 IDoV= 1 UseB2=F ITyADJ=14
 ICtDFT=  3500011 ScaDFX=  1.000000  1.000000  1.000000  1.000000
 FoFCou: FMM=F IPFlag=           0 FMFlag=      100000 FMFlg1=           0
         NFxFlg=           0 DoJE=T BraDBF=F KetDBF=T FulRan=T
         wScrn=  0.000000 ICntrl=     500 IOpCl=  0 I1Cent=   200000004 NGrid=           0
         NMat0=    1 NMatS0=      1 NMatT0=    0 NMatD0=    1 NMtDS0=    0 NMtDT0=    0
 Petite list used in FoFCou.
 Keep R1 ints in memory in canonical form, NReq=301066375.
 Requested convergence on RMS density matrix=1.00D-08 within 128 cycles.
 Requested convergence on MAX density matrix=1.00D-06.
 Requested convergence on             energy=1.00D-06.
 No special actions if energy rises.
 SCF Done:  E(RM062X) =  -491.927662252     A.U. after   14 cycles
            NFock= 14  Conv=0.47D-08     -V/T= 2.0082
 Calling FoFJK, ICntrl=      2127 FMM=F ISym2X=0 I1Cent= 0 IOpClX= 0 NMat=1 NMatS=1 NMatT=0.
 ***** Axes restored to original set *****
 -------------------------------------------------------------------
 Center     Atomic                   Forces (Hartrees/Bohr)
 Number     Number              X              Y              Z
 -------------------------------------------------------------------
      1        6          -0.000421447    0.001912602    0.001496666
      2        6           0.002045413   -0.000000555    0.008326798
      3        6          -0.000420815   -0.001911615    0.001496719
      4        6           0.000713556   -0.001483146   -0.000442158
      5        6          -0.000145361   -0.000000392    0.000222711
      6        6           0.000714099    0.001483448   -0.000442285
      7        7           0.002129723    0.000000416    0.000001617
      8        7           0.007290654   -0.000001735   -0.034081091
      9        8          -0.006645819   -0.012505779    0.011877180
     10        8          -0.006647518    0.012507807    0.011876238
     11        1           0.000289074   -0.000315294    0.000042214
     12        1           0.000288510    0.000314649    0.000042238
     13        1           0.000072135   -0.000142133   -0.000180538
     14        1           0.000071969    0.000141881   -0.000180535
     15        1           0.000332956    0.000172438   -0.000027880
     16        1           0.000332871   -0.000172591   -0.000027895
 -------------------------------------------------------------------
 Cartesian Forces:  Max     0.034081091 RMS     0.006446630

 GradGradGradGradGradGradGradGradGradGradGradGradGradGradGradGradGradGrad
 Berny optimization.
 Using GEDIIS/GDIIS optimizer.
 FormGI is forming the generalized inverse of G from B-inverse, IUseBI=4.
 Internal  Forces:  Max     0.013388578 RMS     0.003967778
 Search for a local minimum.
 Step number   3 out of a maximum of   82
 All quantities printed in internal units (Hartrees-Bohrs-Radians)
 Mixed Optimization -- RFO/linear search
 Update second derivatives using D2CorX and points    1    3    2
 DE=  2.98D-03 DEPred=-3.86D-04 R=-7.71D+00
 Trust test=-7.71D+00 RLast= 2.42D-01 DXMaxT set to 1.50D-01
 ITU= -1  1  0
 Use linear search instead of GDIIS.
 Energy rises -- skip Quadratic/GDIIS search.
 Quartic linear search produced a step of -0.89483.
 Iteration  1 RMS(Cart)=  0.02701594 RMS(Int)=  0.00190737
 Iteration  2 RMS(Cart)=  0.00207181 RMS(Int)=  0.00017471
 Iteration  3 RMS(Cart)=  0.00000601 RMS(Int)=  0.00017464
 Iteration  4 RMS(Cart)=  0.00000000 RMS(Int)=  0.00017464
 Variable       Old X    -DE/DX   Delta X   Delta X   Delta X     New X
                                 (Linear)    (Quad)   (Total)
    R1        2.62687   0.00249   0.00458   0.00000   0.00458   2.63144
    R2        2.61080   0.00212   0.00094   0.00000   0.00094   2.61173
    R3        2.04854  -0.00042  -0.00062   0.00000  -0.00062   2.04792
    R4        2.62687   0.00249   0.00458   0.00000   0.00458   2.63144
    R5        2.74676   0.00588  -0.00626   0.00000  -0.00626   2.74050
    R6        2.61080   0.00212   0.00094   0.00000   0.00094   2.61174
    R7        2.04854  -0.00042  -0.00062   0.00000  -0.00062   2.04792
    R8        2.65847   0.00194   0.00318   0.00000   0.00318   2.66166
    R9        2.05153   0.00016   0.00007   0.00000   0.00007   2.05160
   R10        2.65847   0.00194   0.00318   0.00000   0.00318   2.66166
   R11        2.57799   0.00280   0.00218   0.00000   0.00218   2.58017
   R12        2.05153   0.00016   0.00007   0.00000   0.00007   2.05160
   R13        1.89906   0.00032   0.00069   0.00000   0.00069   1.89975
   R14        1.89906   0.00032   0.00069   0.00000   0.00069   1.89975
   R15        2.29564   0.01303   0.01478   0.00000   0.01478   2.31042
   R16        2.29564   0.01303   0.01478   0.00000   0.01478   2.31042
    A1        2.08025   0.00049   0.00169   0.00000   0.00169   2.08193
    A2        2.08524  -0.00016  -0.00046   0.00000  -0.00046   2.08478
    A3        2.11770  -0.00033  -0.00122   0.00000  -0.00122   2.11648
    A4        2.12135  -0.00107  -0.00306   0.00000  -0.00306   2.11829
    A5        2.08092   0.00054   0.00153   0.00000   0.00153   2.08245
    A6        2.08092   0.00054   0.00153   0.00000   0.00153   2.08245
    A7        2.08025   0.00049   0.00169   0.00000   0.00169   2.08193
    A8        2.08524  -0.00016  -0.00047   0.00000  -0.00047   2.08478
    A9        2.11770  -0.00033  -0.00122   0.00000  -0.00122   2.11648
   A10        2.10375   0.00027   0.00007   0.00000   0.00007   2.10383
   A11        2.09329  -0.00014  -0.00101   0.00000  -0.00101   2.09228
   A12        2.08614  -0.00013   0.00093   0.00000   0.00093   2.08707
   A13        2.07702  -0.00044  -0.00046   0.00000  -0.00046   2.07656
   A14        2.10308   0.00022   0.00023   0.00000   0.00023   2.10331
   A15        2.10308   0.00022   0.00023   0.00000   0.00023   2.10331
   A16        2.10375   0.00027   0.00007   0.00000   0.00007   2.10383
   A17        2.09329  -0.00014  -0.00101   0.00000  -0.00101   2.09228
   A18        2.08614  -0.00013   0.00093   0.00000   0.00093   2.08707
   A19        2.11202   0.00012   0.00057   0.00000   0.00057   2.11258
   A20        2.11202   0.00012   0.00057   0.00000   0.00057   2.11258
   A21        2.05915  -0.00025  -0.00113   0.00000  -0.00113   2.05802
   A22        2.05028   0.00250   0.00808   0.00000   0.00894   2.05922
   A23        2.05028   0.00250   0.00808   0.00000   0.00894   2.05922
   A24        2.16045   0.00052   0.00344   0.00000   0.00429   2.16474
    D1       -0.00260   0.00060   0.00261   0.00000   0.00261   0.00001
    D2        3.14033   0.00036   0.00127   0.00000   0.00127  -3.14158
    D3        3.14050   0.00023   0.00108   0.00000   0.00108   3.14159
    D4        0.00025  -0.00001  -0.00025   0.00000  -0.00025  -0.00000
    D5        0.00120  -0.00028  -0.00121   0.00000  -0.00121  -0.00000
    D6       -3.14020  -0.00033  -0.00140   0.00000  -0.00140   3.14158
    D7        3.14126   0.00009   0.00035   0.00000   0.00035  -3.14158
    D8       -0.00015   0.00004   0.00015   0.00000   0.00015   0.00001
    D9        0.00260  -0.00060  -0.00261   0.00000  -0.00261  -0.00001
   D10       -3.14050  -0.00023  -0.00109   0.00000  -0.00109  -3.14159
   D11       -3.14033  -0.00036  -0.00127   0.00000  -0.00127   3.14158
   D12       -0.00025   0.00001   0.00025   0.00000   0.00025   0.00000
   D13        3.03294   0.01339   0.10788   0.00000   0.10788   3.14083
   D14        0.10735  -0.01315  -0.10658   0.00000  -0.10658   0.00077
   D15       -0.10734   0.01315   0.10658   0.00000   0.10658  -0.00076
   D16       -3.03294  -0.01339  -0.10788   0.00000  -0.10788  -3.14082
   D17       -0.00120   0.00028   0.00120   0.00000   0.00120   0.00000
   D18        3.14020   0.00033   0.00140   0.00000   0.00140  -3.14158
   D19       -3.14126  -0.00009  -0.00035   0.00000  -0.00035   3.14158
   D20        0.00015  -0.00004  -0.00015   0.00000  -0.00015  -0.00001
   D21       -0.00014   0.00002   0.00014   0.00000   0.00014  -0.00000
   D22        3.14135   0.00005   0.00024   0.00000   0.00024   3.14159
   D23       -3.14154  -0.00003  -0.00006   0.00000  -0.00006   3.14159
   D24       -0.00006   0.00000   0.00004   0.00000   0.00004  -0.00001
   D25        0.00014  -0.00002  -0.00014   0.00000  -0.00014   0.00000
   D26        3.14154   0.00003   0.00006   0.00000   0.00006  -3.14159
   D27       -3.14135  -0.00005  -0.00024   0.00000  -0.00024  -3.14159
   D28        0.00006  -0.00000  -0.00004   0.00000  -0.00004   0.00001
   D29       -3.14145  -0.00004  -0.00016   0.00000  -0.00016   3.14158
   D30       -0.00004   0.00001   0.00005   0.00000   0.00005   0.00001
   D31        0.00003  -0.00001  -0.00005   0.00000  -0.00005  -0.00002
   D32        3.14144   0.00004   0.00015   0.00000   0.00016  -3.14159
         Item               Value     Threshold  Converged?
 Maximum Force            0.013389     0.000450     NO 
 RMS     Force            0.003968     0.000300     NO 
 Maximum Displacement     0.119321     0.001800     NO 
 RMS     Displacement     0.027056     0.001200     NO 
 Predicted change in Energy=-1.162167D-04
 GradGradGradGradGradGradGradGradGradGradGradGradGradGradGradGradGradGrad

                          Input orientation:                          
 ---------------------------------------------------------------------
 Center     Atomic      Atomic             Coordinates (Angstroms)
 Number     Number       Type             X           Y           Z
 ---------------------------------------------------------------------
      1          6           0       -0.021551    1.214171    0.000176
      2          6           0       -0.703342   -0.000001    0.000254
      3          6           0       -0.021550   -1.214172    0.000246
      4          6           0        1.360521   -1.213459    0.000150
      5          6           0        2.075611   -0.000000    0.000066
      6          6           0        1.360519    1.213459    0.000080
      7          7           0        3.440977    0.000001   -0.000022
      8          7           0       -2.153551    0.000000    0.000341
      9          8           0       -2.727251   -1.079661   -0.000420
     10          8           0       -2.727243    1.079666   -0.000489
     11          1           0       -0.583520    2.140790    0.000177
     12          1           0       -0.583518   -2.140792    0.000302
     13          1           0        1.901849   -2.154530    0.000135
     14          1           0        1.901848    2.154530    0.000010
     15          1           0        3.959380    0.861332   -0.000092
     16          1           0        3.959381   -0.861330   -0.000039
 ---------------------------------------------------------------------
                    Distance matrix (angstroms):
                    1          2          3          4          5
     1  C    0.000000
     2  C    1.392499   0.000000
     3  C    2.428343   1.392499   0.000000
     4  C    2.793476   2.394162   1.382071   0.000000
     5  C    2.423283   2.778953   2.423282   1.408488   0.000000
     6  C    1.382070   2.394161   2.793476   2.426918   1.408488
     7  N    3.669238   4.144319   3.669238   2.408482   1.365366
     8  N    2.453495   1.450209   2.453497   3.717686   4.229162
     9  O    3.547179   2.293877   2.709043   4.089961   4.922718
    10  O    2.709034   2.293874   3.547178   4.687028   4.922711
    11  H    1.083712   2.144142   3.401703   3.876891   3.413790
    12  H    3.401703   2.144141   1.083712   2.153888   3.413789
    13  H    3.879126   3.380683   2.140967   1.085657   2.161526
    14  H    2.140967   3.380683   3.879126   3.411215   2.161526
    15  H    3.996536   4.741610   4.489490   3.325482   2.071347
    16  H    4.489490   4.741611   3.996537   2.622607   2.071347
                    6          7          8          9         10
     6  C    0.000000
     7  N    2.408482   0.000000
     8  N    3.717684   5.594528   0.000000
     9  O    4.687031   6.262005   1.222620   0.000000
    10  O    4.089952   6.261998   1.222620   2.159326   0.000000
    11  H    2.153888   4.558460   2.654803   3.868706   2.391973
    12  H    3.876890   4.558459   2.654806   2.391984   3.868708
    13  H    3.411215   2.647814   4.592198   4.752254   5.646993
    14  H    1.085657   2.647813   4.592196   5.646994   4.752244
    15  H    2.622607   1.005303   6.173315   6.962649   6.690187
    16  H    3.325482   1.005303   6.173316   6.690195   6.962644
                   11         12         13         14         15
    11  H    0.000000
    12  H    4.281581   0.000000
    13  H    4.962544   2.485406   0.000000
    14  H    2.485406   4.962543   4.309061   0.000000
    15  H    4.719635   5.445243   3.650871   2.430185   0.000000
    16  H    5.445243   4.719635   2.430186   3.650870   1.722662
                   16
    16  H    0.000000
 Stoichiometry    C6H6N2O2
 Framework group  C1[X(C6H6N2O2)]
 Deg. of freedom    42
 Full point group                 C1      NOp   1
 Largest Abelian subgroup         C1      NOp   1
 Largest concise Abelian subgroup C1      NOp   1
                         Standard orientation:                         
 ---------------------------------------------------------------------
 Center     Atomic      Atomic             Coordinates (Angstroms)
 Number     Number       Type             X           Y           Z
 ---------------------------------------------------------------------
      1          6           0        0.024783   -1.214170    0.000158
      2          6           0        0.706574    0.000002    0.000236
      3          6           0        0.024781    1.214173    0.000228
      4          6           0       -1.357289    1.213459    0.000133
      5          6           0       -2.072379    0.000000    0.000048
      6          6           0       -1.357287   -1.213459    0.000062
      7          7           0       -3.437745   -0.000001   -0.000040
      8          7           0        2.156783    0.000001    0.000324
      9          8           0        2.730483    1.079662   -0.000437
     10          8           0        2.730475   -1.079665   -0.000507
     11          1           0        0.586752   -2.140789    0.000160
     12          1           0        0.586750    2.140792    0.000284
     13          1           0       -1.898618    2.154531    0.000117
     14          1           0       -1.898616   -2.154530   -0.000008
     15          1           0       -3.956148   -0.861333   -0.000110
     16          1           0       -3.956149    0.861330   -0.000057
 ---------------------------------------------------------------------
 Rotational constants (GHZ):      3.9451881      0.8290269      0.6850691
 Standard basis: 6-31+G(d,p) (6D, 7F)
 There are   220 symmetry adapted cartesian basis functions of A   symmetry.
 There are   220 symmetry adapted basis functions of A   symmetry.
   220 basis functions,   362 primitive gaussians,   220 cartesian basis functions
    36 alpha electrons       36 beta electrons
       nuclear repulsion energy       496.9589369531 Hartrees.
 NAtoms=   16 NActive=   16 NUniq=   16 SFac= 1.00D+00 NAtFMM=   60 NAOKFM=F Big=F
 Integral buffers will be    131072 words long.
 Raffenetti 2 integral format.
 Two-electron integral symmetry is turned on.
 One-electron integrals computed using PRISM.
 NBasis=   220 RedAO= T EigKep=  3.19D-06  NBF=   220
 NBsUse=   220 1.00D-06 EigRej= -1.00D+00 NBFU=   220
 Lowest energy guess from the checkpoint file:  "m062xPNA.chk"
 B after Tr=     0.000000    0.000000   -0.000000
         Rot=    1.000000   -0.000015   -0.000023    0.000000 Ang=  -0.00 deg.
 B after Tr=     0.000000   -0.000000    0.000000
         Rot=    1.000000   -0.000015   -0.000012   -0.000000 Ang=  -0.00 deg.
 Keep R1 ints in memory in canonical form, NReq=301066375.
 Requested convergence on RMS density matrix=1.00D-08 within 128 cycles.
 Requested convergence on MAX density matrix=1.00D-06.
 Requested convergence on             energy=1.00D-06.
 No special actions if energy rises.
 SCF Done:  E(RM062X) =  -491.930677781     A.U. after   10 cycles
            NFock= 10  Conv=0.54D-08     -V/T= 2.0083
 Calling FoFJK, ICntrl=      2127 FMM=F ISym2X=0 I1Cent= 0 IOpClX= 0 NMat=1 NMatS=1 NMatT=0.
 ***** Axes restored to original set *****
 -------------------------------------------------------------------
 Center     Atomic                   Forces (Hartrees/Bohr)
 Number     Number              X              Y              Z
 -------------------------------------------------------------------
      1        6          -0.000683926    0.000453132    0.000008722
      2        6           0.002827447   -0.000000180    0.000057620
      3        6          -0.000683972   -0.000452968    0.000008721
      4        6           0.000494806   -0.000316146   -0.000002969
      5        6          -0.000073534    0.000000227    0.000002259
      6        6           0.000495110    0.000315953   -0.000002956
      7        7           0.000932285   -0.000000094   -0.000000038
      8        7          -0.005441918    0.000000888   -0.000249485
      9        8           0.000805551    0.000490804    0.000089429
     10        8           0.000804923   -0.000491409    0.000089457
     11        1           0.000070751   -0.000131362    0.000000746
     12        1           0.000070561    0.000131120    0.000000729
     13        1           0.000136035   -0.000026463   -0.000000895
     14        1           0.000135985    0.000026449   -0.000000890
     15        1           0.000054947   -0.000006178   -0.000000236
     16        1           0.000054946    0.000006227   -0.000000214
[...]
 ! A23   A(2,8,10)             117.8421         -DE/DX =    0.0001              !
 ! A24   A(9,8,10)             124.3157         -DE/DX =   -0.0002              !
 ! D1    D(6,1,2,3)             -0.0001         -DE/DX =    0.0                 !
 ! D2    D(6,1,2,8)           -179.9997         -DE/DX =    0.0                 !
 ! D3    D(11,1,2,3)          -180.0002         -DE/DX =    0.0                 !
 ! D4    D(11,1,2,8)             0.0002         -DE/DX =    0.0                 !
 ! D5    D(2,1,6,5)              0.0001         -DE/DX =    0.0                 !
 ! D6    D(2,1,6,14)           180.0            -DE/DX =    0.0                 !
 ! D7    D(11,1,6,5)          -179.9998         -DE/DX =    0.0                 !
 ! D8    D(11,1,6,14)            0.0001         -DE/DX =    0.0                 !
 ! D9    D(1,2,3,4)              0.0001         -DE/DX =    0.0                 !
 ! D10   D(1,2,3,12)          -179.9997         -DE/DX =    0.0                 !
 ! D11   D(8,2,3,4)            179.9997         -DE/DX =    0.0                 !
 ! D12   D(8,2,3,12)            -0.0001         -DE/DX =    0.0                 !
 ! D13   D(1,2,8,9)            179.9861         -DE/DX =    0.0                 !
 ! D14   D(1,2,8,10)             0.014          -DE/DX =    0.0                 !
 ! D15   D(3,2,8,9)             -0.0136         -DE/DX =    0.0                 !
 ! D16   D(3,2,8,10)          -179.9856         -DE/DX =    0.0                 !
 ! D17   D(2,3,4,5)             -0.0001         -DE/DX =    0.0                 !
 ! D18   D(2,3,4,13)          -180.0            -DE/DX =    0.0                 !
 ! D19   D(12,3,4,5)           179.9998         -DE/DX =    0.0                 !
 ! D20   D(12,3,4,13)           -0.0001         -DE/DX =    0.0                 !
 ! D21   D(3,4,5,6)              0.0            -DE/DX =    0.0                 !
 ! D22   D(3,4,5,7)            179.9998         -DE/DX =    0.0                 !
 ! D23   D(13,4,5,6)          -180.0001         -DE/DX =    0.0                 !
 ! D24   D(13,4,5,7)            -0.0003         -DE/DX =    0.0                 !
 ! D25   D(4,5,6,1)              0.0            -DE/DX =    0.0                 !
 ! D26   D(4,5,6,14)           180.0001         -DE/DX =    0.0                 !
 ! D27   D(7,5,6,1)           -179.9998         -DE/DX =    0.0                 !
 ! D28   D(7,5,6,14)             0.0003         -DE/DX =    0.0                 !
 ! D29   D(4,5,7,15)           179.9991         -DE/DX =    0.0                 !
 ! D30   D(4,5,7,16)             0.0008         -DE/DX =    0.0                 !
 ! D31   D(6,5,7,15)            -0.0011         -DE/DX =    0.0                 !
 ! D32   D(6,5,7,16)          -179.9993         -DE/DX =    0.0                 !
 --------------------------------------------------------------------------------
 GradGradGradGradGradGradGradGradGradGradGradGradGradGradGradGradGradGrad

 1\1\ WCSS.PL-BEM-QINLAB\Freq\RM062X\6-31+G(d,p)\C6H6N2O2\PHZD\13-Jun-2
 024\0\\#N Geom=AllCheck Guess=TCheck SCRF=Check GenChk RM062X/6-31+G(d
 ,p) Freq\\[No Title]\\0,1\C,-0.0217208958,1.214350062,0.0000640656\C,-
 0.70335251,-0.0000002592,0.0001096132\C,-0.0217205419,-1.214350525,0.0
 001344331\C,1.3615203716,-1.2135662523,0.0001160456\C,2.0773218606,0.0
 000001057,0.0000711152\C,1.3615199519,1.2135662288,0.0000457468\N,3.44
 38781737,0.0000003997,0.0000564597\N,-2.1608004113,0.0000004637,0.0001
 228662\O,-2.7312490153,-1.0800227456,-0.0000998793\O,-2.7312462326,1.0
 800249973,-0.000171401\H,-0.5834484207,2.1409463888,0.0000418119\H,-0.
 5834475973,-2.1409470485,0.000165605\H,1.9032775462,-2.1545502461,0.00
 01348173\H,1.9032768685,2.1545503718,0.0000099275\H,3.9623747249,0.861
 280431,0.0000102103\H,3.9623751274,-0.8612793813,0.0000645629\\Version
 =ES64L-G09RevE.01\State=1-A\HF=-491.9307131\RMSD=3.666e-09\RMSF=6.809e
 -05\ZeroPoint=0.1203069\Thermal=0.1282451\Dipole=2.9584707,-0.000001,0
 .0002138\DipoleDeriv=0.5375862,0.1142236,-0.0000044,0.2794655,0.077092
 9,0.0000066,0.0000152,-0.0000126,-0.049953,-1.0662362,0.,-0.000017,0.0
 000001,-0.2070834,0.0000069,0.0001258,0.0000072,-0.0120551,0.5375866,-
 0.1142235,0.0000012,-0.2794654,0.0770932,-0.0000148,0.000033,0.0000048
 ,-0.0499528,-0.6639896,-0.0157307,-0.0000058,-0.586501,0.0193012,-0.00
 00043,0.0000333,-0.0000035,-0.2071992,2.17441,0.0000003,-0.0000027,0.0
 000005,0.0945414,0.0000033,-0.0000263,0.0000023,0.1549021,-0.6639899,0
 .0157305,-0.0000075,0.5865008,0.0193013,-0.0000099,-0.0000024,-0.00000
 96,-0.2071992,-1.9652345,-0.0000002,-0.0000059,-0.0000004,-0.1844704,-
 0.0000139,-0.0000073,-0.0000134,-0.6280563,2.4907973,0.0000011,0.00004
 28,0.0000003,1.7294276,-0.0000484,0.0000558,-0.0000492,0.2713364,-1.02
 05124,-0.4203639,0.0000086,-0.4450476,-1.0217262,0.0000702,-0.0001019,
 -0.0001551,-0.2669593,-1.020511,0.4203627,-0.0000189,0.4450473,-1.0217
 28,-0.0000207,-0.0001301,0.0002052,-0.2669593,0.1134899,0.0315234,0.00
 00014,0.0193545,0.0681855,-0.0000008,0.0000017,0.0000029,0.1437004,0.1
 134895,-0.0315235,0.000003,-0.0193546,0.0681852,0.0000051,0.000002,0.0
 000013,0.1437004,-0.0059799,0.0715584,-0.0000024,0.0675742,-0.0198013,
 0.0000036,-0.0000121,-0.0000011,0.147712,-0.0059799,-0.0715583,0.00000
 19,-0.0675742,-0.0198013,0.000006,-0.0000082,0.0000102,0.147712,0.2225
 369,0.0509677,0.0000013,0.0935862,0.160741,0.000007,0.0000083,0.000005
 9,0.3396354,0.222537,-0.0509676,0.0000045,-0.0935862,0.160741,0.000004
 ,0.0000131,0.0000047,0.3396354\Polar=143.4292226,0.0000103,97.6299579,
 0.0018187,-0.0014507,49.0902309\PG=C01 [X(C6H6N2O2)]\NImag=1\\0.744704
 83,-0.03673667,0.74418764,-0.00000742,-0.00001672,0.13829012,-0.149922
 36,-0.11811201,0.00000628,0.59258740,-0.05362069,-0.30716312,0.0000077
 6,0.,0.78661779,0.00000514,0.00000870,-0.05506041,0.00000863,-0.000018
 87,0.11584797,0.05891488,0.02591722,-0.00000213,-0.14992234,0.05362056
 ,0.00000283,0.74470426,-0.02591717,-0.05768348,0.00000328,0.11811182,-
 0.30716283,0.00000509,0.03673696,0.74418754,-0.00000064,0.00000029,0.0
 0380464,0.00000003,0.00000609,-0.05506027,-0.00001024,-0.00001611,0.13
 828997,-0.04744798,-0.03333513,0.00000193,-0.03832411,0.07824394,-0.00
 000235,-0.39029673,-0.03459502,0.00000691,0.75102566,-0.02061746,-0.01
 864298,0.00000089,0.01819319,0.03353995,-0.00000228,0.03628614,-0.1294
 0270,0.00000204,-0.04081061,0.70429074,0.00000156,0.00000153,-0.000915
 25,0.00000081,-0.00000263,0.00397607,0.00000347,0.00000333,-0.05558835
 ,-0.00000700,-0.00001391,0.12174173,-0.03425144,0.02934828,-0.00000108
 ,0.01819075,0.,-0.00000029,-0.03425141,-0.02934831,0.00000061,-0.15572
 594,-0.10066627,0.00000391,0.74981837,0.08308797,0.04647233,-0.0000026
 2,0.00000001,-0.08036324,0.00000231,-0.08308800,0.04647228,-0.00000024
 ,-0.03310453,-0.27979627,0.00000518,0.00000002,0.70459922,-0.00000260,
 -0.00000250,-0.00129537,-0.00000019,0.00000226,-0.00333648,0.00000225,
 -0.00000025,-0.00129541,0.00000262,0.00000697,-0.06700027,-0.00000809,
 -0.00001494,0.16237640,-0.39029696,0.03459494,0.00000480,-0.03832409,-
 0.07824394,0.00000229,-0.04744800,0.03333510,-0.00000003,0.06059070,0.
 01623225,-0.00000174,-0.15572598,0.03310457,0.00000122,0.75102588,-0.0
 3628625,-0.12940271,0.00000231,-0.01819318,0.03353993,0.00000052,0.020
 61745,-0.01864297,0.00000014,-0.01623221,-0.04097403,0.00000138,0.1006
 6631,-0.27979622,0.00000449,0.04081064,0.70429070,0.00000572,0.0000009
 4,-0.05558836,0.00000187,0.00000087,0.00397606,0.00000030,-0.00000047,
 -0.00091519,-0.00000083,0.00000126,0.00498070,-0.00000146,0.00000627,-
 0.06700027,-0.00001013,-0.00001783,0.12174169,0.01288254,0.00191330,0.
 00000046,-0.02024752,0.,-0.00000003,0.01288253,-0.00191328,0.00000060,
 -0.04666798,-0.01975235,0.00000138,-0.36454261,-0.00000004,0.00000359,
 -0.04666801,0.01975233,0.00000017,0.79505318,-0.00692708,-0.01097850,0
 .00000066,0.,0.00829982,-0.00000029,0.00692709,-0.01097849,0.00000026,
 -0.05042895,0.00168619,0.00000097,-0.00000005,-0.13074013,0.00000287,0
 .05042894,0.00168622,-0.00000048,-0.00000005,0.89344224,0.00000047,0.0
 0000058,0.00453823,-0.00000013,-0.00000026,-0.00105533,0.00000012,0.00
 000032,0.00453823,0.00000181,0.00000008,0.00950641,0.00000554,0.000002
 93,-0.03604855,-0.00000113,0.00000033,0.00950642,-0.00001719,-0.000026
 82,0.00591635,-0.04262886,-0.02099957,0.00000113,-0.14849322,-0.000000
 05,0.00001397,-0.04262877,0.02099956,-0.00000020,0.01495248,0.01003305
 ,-0.00000194,-0.01962780,0.,0.00000049,0.01495247,-0.01003305,-0.00000
 131,0.01848334,0.,0.00000011,0.71830292,-0.02520130,0.01525931,0.00000
 071,0.,-0.11707104,0.00000135,0.02520134,0.01525924,-0.00000207,0.0051
 0152,-0.00773058,-0.00000017,0.00000002,-0.00509136,0.00000008,-0.0051
 0153,-0.00773059,0.00000111,-0.00000001,0.00008618,-0.00000001,0.00000
 028,1.06203295,0.00000043,-0.00000329,-0.00733104,-0.00001439,0.000001
 26,-0.07114702,-0.00000095,0.00000198,-0.00733116,-0.00000013,-0.00000
 063,0.00844305,-0.00000039,0.00000008,-0.00214637,0.00000016,0.0000015
 6,0.00844304,0.00000007,-0.00000002,-0.00051980,0.00012860,-0.00002662
 ,0.23562477,-0.00264683,0.00780876,-0.00000160,-0.04173323,-0.05146366
 ,-0.00001337,-0.00144107,-0.00281151,-0.00000098,-0.00175019,-0.002550
 70,0.00000028,0.00518964,-0.00205104,-0.00000030,-0.00491807,0.0000934
 8,0.00000093,-0.00521273,0.00033425,0.00000003,-0.25767952,-0.20260541
 ,-0.00005011,0.26459502,0.00098513,0.00334403,-0.00000044,-0.03803351,
 -0.00998863,-0.00000927,0.01085855,-0.00905330,0.00000129,-0.00414716,
 0.00020786,0.00000045,0.00473362,-0.00000583,-0.00000016,-0.00263190,0
 .00273222,0.00000021,-0.00402773,0.00060990,-0.00000005,-0.20209820,-0
 .47388915,-0.00006206,0.24334244,0.61180326,-0.00000185,0.00000143,0.0
 0436403,0.00000079,-0.00000652,0.01819807,0.00000047,-0.00000114,0.001
 83566,-0.00000068,0.00000013,-0.00073811,0.00000056,0.00000025,0.00041
 086,0.00000019,-0.00000073,-0.00118233,-0.00000046,0.00000007,0.000052
 42,-0.00006408,-0.00007797,-0.07927244,0.00006098,0.00007170,0.0294560
 7,-0.00144122,0.00281148,-0.00000124,-0.04173326,0.05146384,-0.0000167
 5,-0.00264682,-0.00780877,-0.00000117,-0.00491808,-0.00009348,0.000000
 96,0.00518962,0.00205105,-0.00000041,-0.00175017,0.00255071,0.00000013
 ,-0.00521273,-0.00033426,0.00000005,-0.25767851,0.20260511,-0.00006419
 ,0.05094042,-0.01071046,0.00000529,0.26459423,-0.01085865,-0.00905335,
 -0.00000062,0.03803369,-0.00998883,0.00001115,-0.00098512,0.00334406,0
 .00000049,0.00263191,0.00273222,-0.00000047,-0.00473364,-0.00000583,0.
 00000019,0.00414717,0.00020788,-0.00000048,0.00402774,0.00060990,0.000
 00001,0.20209797,-0.47389063,0.00008763,0.01070999,-0.13015683,0.00001
 216,-0.24334183,0.61180492,0.00000115,0.00000180,0.00183564,-0.0000017
 2,0.00000837,0.01819816,-0.00000183,-0.00000140,0.00436405,0.00000002,
 0.00000052,-0.00118234,0.00000086,-0.00000023,0.00041086,-0.00000094,-
 0.00000017,-0.00073810,-0.00000070,-0.00000010,0.00005242,-0.00007826,
 0.00010358,-0.07927247,0.00000465,-0.00000173,0.02738930,0.00007788,-0
 .00010981,0.02945600,-0.13340616,0.13055916,-0.00000232,0.01297850,-0.
 01175489,-0.00000017,-0.00161120,-0.00366604,0.00000022,-0.00090053,-0
 .00069517,0.00000003,-0.00485400,-0.00094688,0.00000024,-0.00899951,0.
 02528602,-0.00000050,-0.00025335,0.00134200,-0.00000007,0.00111300,-0.
 00118671,0.00000037,0.00046095,0.00154556,0.00000011,-0.00496197,-0.00
 040249,-0.00000101,0.13895703,0.12825813,-0.27702053,0.00000489,0.0152
 9488,-0.01737459,0.00000026,-0.00394407,-0.00312313,0.00000044,-0.0006
 9567,0.00046698,-0.00000005,-0.00164008,0.00113529,0.00000030,-0.00268
 267,0.00653890,0.00000008,-0.00000442,0.00027524,0.,0.00269967,-0.0039
 0537,0.00000057,-0.00003948,0.00129498,0.00000006,0.00089000,0.0032453
 0,-0.00000069,-0.13915645,0.28874718,-0.00000209,0.00000653,-0.0407883
 3,-0.00000165,-0.00000012,0.00518808,0.00000012,0.00000042,0.00505656,
 0.00000027,0.00000002,-0.00102916,0.00000032,-0.00000007,0.00847846,-0
 .00000002,-0.00000067,0.00489331,0.,-0.00000001,-0.00015034,0.00000080
 ,0.00000001,-0.00413557,-0.00000017,-0.00000014,0.00037501,-0.00000060
 ,-0.00000027,-0.00014360,0.00000311,-0.00000561,0.02750700,-0.00161121
 ,0.00366604,0.,0.01297850,0.01175490,-0.00000086,-0.13340610,-0.130559
 12,0.00000529,-0.00899951,-0.02528605,0.00000097,-0.00485401,0.0009468
 9,0.00000019,-0.00090053,0.00069516,-0.00000001,-0.00025335,-0.0013420
 0,0.00000001,0.00111300,0.00118671,0.00000024,-0.00496192,0.00040246,-
 0.00000104,0.00046095,-0.00154555,0.00000022,0.00071996,0.00085473,0.0
 0000002,0.13895693,0.00394407,-0.00312313,0.,-0.01529488,-0.01737460,0
 .00000103,-0.12825814,-0.27702070,0.00000734,0.00268266,0.00653889,-0.
 00000022,0.00164008,0.00113530,0.00000010,0.00069567,0.00046698,-0.000
 00003,0.00000442,0.00027524,-0.00000001,-0.00269967,-0.00390535,-0.000
 00053,-0.00088999,0.00324527,0.00000058,0.00003949,0.00129497,-0.00000
 013,-0.00085473,-0.00086702,0.00000006,0.13915645,0.28874739,-0.000000
 10,0.00000005,0.00505656,-0.00000079,0.00000149,0.00518807,0.00000540,
 0.00000570,-0.04078828,-0.00000017,0.00000051,0.00489331,0.00000023,0.
 00000050,0.00847846,0.00000021,-0.00000011,-0.00102916,0.,-0.00000001,
 -0.00015034,0.00000096,-0.00000006,-0.00413557,-0.00000057,0.00000010,
 -0.00014361,-0.00000018,0.00000014,0.00037502,0.00000007,0.00000002,0.
 00049297,-0.00000496,-0.00000811,0.02750696,-0.00083356,-0.00070278,0.
 00000005,-0.00467790,-0.00207989,0.00000058,-0.01145974,0.02866386,-0.
 00000049,-0.12751999,0.12156770,-0.00000244,0.00987285,-0.01447786,0.0
 0000032,-0.00135002,-0.00297307,0.00000009,0.00210574,-0.00058155,-0.0
 0000004,0.00043278,0.00189874,0.00000012,-0.00021721,-0.00026379,-0.00
 000011,-0.00099142,0.00024666,-0.00000025,0.00002650,0.00008458,0.,0.0
 0110457,-0.00018213,-0.00000012,0.13329481,-0.00146230,-0.00020932,0.0
 0000002,-0.00082204,0.00223428,0.00000017,-0.00160003,0.00423080,-0.00
 000001,0.12145550,-0.27312571,0.00000446,0.01711153,-0.01781800,0.0000
 0031,-0.00371246,-0.00314491,0.00000026,0.00102144,0.00178589,-0.00000
 013,-0.00042642,0.00026281,0.00000006,0.00017556,0.00001388,0.00000001
 ,-0.00000394,-0.00002024,-0.00000002,0.00005538,-0.00001299,-0.0000000
 1,0.00016418,0.00058241,-0.00000018,-0.13095526,0.28668767,0.00000019,
 0.00000013,-0.00062689,0.00000020,-0.00000008,0.00736183,0.00000015,-0
 .00000058,0.00247169,-0.00000243,0.00000436,-0.03362557,-0.00000031,0.
 00000088,0.00404743,0.00000016,0.00000040,0.00519221,-0.00000031,-0.00
 000006,-0.00286500,-0.00000007,0.00000019,0.00144897,-0.00000003,-0.00
 000005,-0.00006168,0.00000020,-0.00000014,-0.00062886,-0.00000001,-0.0
 0000003,-0.00063939,-0.00000005,-0.00000008,-0.00485270,0.00000226,-0.
 00000498,0.02309525,-0.01145973,-0.02866387,0.00000118,-0.00467790,0.0
 0207988,0.00000046,-0.00083357,0.00070278,0.00000001,-0.00135002,0.002
 97307,-0.00000009,0.00987285,0.01447787,-0.00000050,-0.12751992,-0.121
 56765,0.00000489,0.00210574,0.00058155,-0.00000010,0.00043277,-0.00189
 875,0.00000023,-0.00099142,-0.00024666,-0.00000023,-0.00021721,0.00026
 379,-0.00000013,0.00110457,0.00018213,-0.00000013,0.00002650,-0.000084
 58,0.,0.00059189,0.00076990,-0.00000003,0.13329474,0.00160002,0.004230
 79,-0.00000012,0.00082204,0.00223427,0.00000012,0.00146229,-0.00020932
 ,-0.00000005,0.00371247,-0.00314491,0.00000019,-0.01711152,-0.01781800
 ,0.00000095,-0.12145546,-0.27312575,0.00000837,-0.00102144,0.00178589,
 -0.00000013,0.00042642,0.00026281,0.00000001,0.00000394,-0.00002024,-0
 .00000001,-0.00017556,0.00001388,-0.00000002,-0.00016418,0.00058241,-0
 .00000012,-0.00005538,-0.00001299,-0.00000002,-0.00076990,-0.00103745,
 0.00000005,0.13095521,0.28668772,0.00000005,0.00000044,0.00247169,0.00
 000013,0.00000037,0.00736183,0.00000009,-0.00000015,-0.00062689,-0.000
 00004,0.00000008,0.00519221,0.00000073,0.00000038,0.00404743,0.0000049
 1,0.00000847,-0.03362557,-0.00000025,-0.00000023,-0.00286500,-0.000000
 09,-0.00000013,0.00144897,0.00000019,0.00000010,-0.00062886,-0.0000000
 3,0.00000005,-0.00006167,-0.00000005,-0.00000022,-0.00485270,0.,-0.000
 00001,-0.00063939,0.00000002,0.,-0.00026733,-0.00000564,-0.00000919,0.
 02309524,-0.00062914,-0.00004175,0.,0.00066039,0.00045438,-0.00000006,
 0.00007322,-0.00197261,0.00000007,-0.00494324,0.00316892,0.00000003,-0
 .01215043,-0.03140454,0.00000159,0.00227544,-0.00201776,-0.00000007,-0
 .17722731,-0.17812768,0.00001054,-0.00052304,-0.00003243,-0.00000003,0
 .00022968,0.00027039,0.00000005,0.00013648,-0.00002124,0.,0.00000948,0
 .00001274,0.,-0.00038329,0.00011402,0.,0.00005755,-0.00021272,0.,-0.00
 043685,0.00155833,0.,0.17887123,-0.00111738,-0.00063625,-0.00000009,0.
 00161157,0.00001042,0.00000003,-0.00086962,0.00041928,0.00000001,0.002
 75222,0.00191549,0.,-0.00135976,0.00581023,-0.00000042,0.00323093,0.00
 143888,-0.00000016,-0.17597837,-0.37892287,0.00001794,-0.00156301,0.00
 002538,-0.00000002,0.00036620,0.00027776,0.00000002,0.00042283,-0.0004
 1518,0.00000008,0.00007721,-0.00000112,0.,0.00003779,0.00001848,0.,0.0
 0014454,0.00021833,-0.00000001,-0.00038015,-0.00064744,0.00000009,0.19
 043845,0.38356396,-0.00000006,-0.00000005,-0.00090378,0.00000002,0.000
 00007,0.00018168,0.00000008,-0.00000004,0.00214852,-0.00000014,0.,0.00
 318333,-0.00000060,-0.00000020,-0.00506360,0.,-0.00000016,-0.00183778,
 0.00001165,0.00001934,0.00477193,-0.00000002,0.,-0.00005868,0.00000004
 ,0.00000001,-0.00003311,0.,0.,-0.00002131,0.,0.,0.00011565,-0.00000004
 ,0.,-0.00036795,-0.00000001,0.,-0.00075430,0.00000007,0.00000002,0.000
 70434,-0.00001097,-0.00001849,0.00202337,0.00007322,0.00197261,-0.0000
 0003,0.00066039,-0.00045438,-0.00000003,-0.00062914,0.00004175,0.,0.00
 227544,0.00201776,-0.00000018,-0.01215045,0.03140453,-0.00000042,-0.00
 494324,-0.00316893,0.00000021,-0.17722748,0.17812779,-0.00000002,-0.00
 052304,0.00003243,-0.00000004,0.00013648,0.00002124,0.,0.00022968,-0.0
 0027039,0.00000007,-0.00038328,-0.00011402,0.,0.00000948,-0.00001274,0
 .,-0.00043685,-0.00155833,0.00000008,0.00005755,0.00021272,-0.00000001
 ,0.01397985,-0.01781347,-0.00000005,0.17887141,0.00086963,0.00041929,0
 .00000010,-0.00161157,0.00001042,-0.00000002,0.00111738,-0.00063624,0.
 00000007,-0.00323093,0.00143887,-0.00000003,0.00135975,0.00581025,-0.0
 0000025,-0.00275222,0.00191548,0.00000007,0.17597847,-0.37892273,0.000
 00522,0.00156301,0.00002538,0.00000001,-0.00042283,-0.00041518,-0.0000
 0005,-0.00036620,0.00027776,-0.00000004,-0.00003780,0.00001848,-0.0000
 0002,-0.00007721,-0.00000112,0.,0.00038015,-0.00064744,0.,-0.00014454,
 0.00021833,-0.00000004,0.01781348,-0.01307535,-0.00000050,-0.19043856,
 0.38356381,0.00000005,0.00000013,0.00214852,0.00000010,-0.00000006,0.0
 0018168,-0.00000011,0.00000004,-0.00090378,0.00000020,-0.00000005,-0.0
 0183778,-0.00000055,-0.00000047,-0.00506360,0.00000005,0.00000008,0.00
 318333,0.00000103,0.00000386,0.00477194,-0.00000010,0.,-0.00005868,0.0
 0000002,0.00000003,-0.00002131,0.00000006,-0.00000003,-0.00003311,-0.0
 0000003,-0.00000001,-0.00036795,0.00000002,0.,0.00011565,0.00000003,0.
 00000005,0.00070434,0.,-0.00000005,-0.00075430,-0.00000116,0.00000101,
 -0.00408832,0.00000041,-0.00000452,0.00202336\\0.00014745,-0.00001874,
 -0.00000306,-0.00024574,0.00000013,-0.00001781,0.00014755,0.00001860,-
 0.00000305,-0.00009412,-0.00003266,0.00000102,0.00008829,0.,-0.0000006
 9,-0.00009419,0.00003267,0.00000100,-0.00005339,0.,-0.00000016,-0.0001
 8063,0.00000009,0.00007851,0.00015051,-0.00001307,-0.00002810,0.000150
 87,0.00001294,-0.00002810,-0.00001628,0.00001214,-0.00000021,-0.000016
 21,-0.00001209,-0.00000020,0.00000155,-0.00000404,0.00000032,0.0000015
 5,0.00000404,0.00000031,0.00000640,0.00000098,0.00000012,0.00000639,-0
 .00000098,0.00000011\\\@


 RESEARCH IS WHAT I AM DOING WHEN I DON'T KNOW WHAT I AM DOING.
     -- WERNER VON BRAUN
 Job cpu time:       0 days  0 hours 25 minutes 59.7 seconds.
 File lengths (MBytes):  RWF=     85 Int=      0 D2E=      0 Chk=      5 Scr=      1
 Normal termination of Gaussian 09 at Thu Jun 13 22:05:28 2024.
