 Entering Gaussian System, Link 0=g09
 Input=pbePNAyang.gjf
 Output=pbePNAyang.log
 Initial command:
 /home/phzd/g09E/g09/l1.exe "/home/phzd/g09E/scratch/Gau-71300.inp" -scrdir="/home/phzd/g09E/scratch/"
 Default is to use a total of  18 processors:
                               18 via shared-memory
                                1 via Linda
 Entering Link 1 = /home/phzd/g09E/g09/l1.exe PID=     71302.
  
 Copyright (c) 1988,1990,1992,1993,1995,1998,2003,2009,2015,
            Gaussian, Inc.  All Rights Reserved.
  
 This is part of the Gaussian(R) 09 program.  It is based on
 the Gaussian(R) 03 system (copyright 2003, Gaussian, Inc.),
 the Gaussian(R) 98 system (copyright 1998, Gaussian, Inc.),
 the Gaussian(R) 94 system (copyright 1995, Gaussian, Inc.),
 the Gaussian 92(TM) system (copyright 1992, Gaussian, Inc.),
 the Gaussian 90(TM) system (copyright 1990, Gaussian, Inc.),
 the Gaussian 88(TM) system (copyright 1988, Gaussian, Inc.),
 the Gaussian 86(TM) system (copyright 1986, Carnegie Mellon
 University), and the Gaussian 82(TM) system (copyright 1983,
 Carnegie Mellon University). Gaussian is a federally registered
 trademark of Gaussian, Inc.
  
 This software contains proprietary and confidential information,
 including trade secrets, belonging to Gaussian, Inc.
  
 This software is provided under written license and may be
 used, copied, transmitted, or stored only in accord with that
 written license.
  
 The following legend is applicable only to US Government
 contracts under FAR:
  
                    RESTRICTED RIGHTS LEGEND
  
 Use, reproduction and disclosure by the US Government is
 subject to restrictions as set forth in subparagraphs (a)
 and (c) of the Commercial Computer Software - Restricted
 Rights clause in FAR 52.227-19.
  
 Gaussian, Inc.
 340 Quinnipiac St., Bldg. 40, Wallingford CT 06492
  
  
 ---------------------------------------------------------------
 Warning -- This program may not be used in any manner that
 competes with the business of Gaussian, Inc. or will provide
 assistance to any competitor of Gaussian, Inc.  The licensee
 of this program is prohibited from giving any competitor of
 Gaussian, Inc. access to this program.  By using this program,
 the user acknowledges that Gaussian, Inc. is engaged in the
 business of creating and licensing software in the field of
 computational chemistry and represents and warrants to the
 licensee that it is not a competitor of Gaussian, Inc. and that
 it will not use this program in any manner prohibited above.
 ---------------------------------------------------------------
  

 Cite this work as:
 Gaussian 09, Revision E.01,
 M. J. Frisch, G. W. Trucks, H. B. Schlegel, G. E. Scuseria, 
 M. A. Robb, J. R. Cheeseman, G. Scalmani, V. Barone, B. Mennucci, 
 G. A. Petersson, H. Nakatsuji, M. Caricato, X. Li, H. P. Hratchian, 
 A. F. Izmaylov, J. Bloino, G. Zheng, J. L. Sonnenberg, M. Hada, 
 M. Ehara, K. Toyota, R. Fukuda, J. Hasegawa, M. Ishida, T. Nakajima, 
 Y. Honda, O. Kitao, H. Nakai, T. Vreven, J. A. Montgomery, Jr., 
 J. E. Peralta, F. Ogliaro, M. Bearpark, J. J. Heyd, E. Brothers, 
 K. N. Kudin, V. N. Staroverov, T. Keith, R. Kobayashi, J. Normand, 
 K. Raghavachari, A. Rendell, J. C. Burant, S. S. Iyengar, J. Tomasi, 
 M. Cossi, N. Rega, J. M. Millam, M. Klene, J. E. Knox, J. B. Cross, 
 V. Bakken, C. Adamo, J. Jaramillo, R. Gomperts, R. E. Stratmann, 
 O. Yazyev, A. J. Austin, R. Cammi, C. Pomelli, J. W. Ochterski, 
 R. L. Martin, K. Morokuma, V. G. Zakrzewski, G. A. Voth, 
 P. Salvador, J. J. Dannenberg, S. Dapprich, A. D. Daniels, 
 O. Farkas, J. B. Foresman, J. V. Ortiz, J. Cioslowski, 
 and D. J. Fox, Gaussian, Inc., Wallingford CT, 2013.
 
 ******************************************
 Gaussian 09:  ES64L-G09RevE.01 30-Nov-2015
                13-Jun-2024 
 ******************************************
 %chk=pbePNAyang.chk
 -----------------------------
 # opt freq pbepbe/6-31+g(d,p)
 -----------------------------
 1/14=-1,18=20,19=15,26=3,38=1/1,3;
 2/9=110,12=2,17=6,18=5,40=1/2;
 3/5=1,6=6,7=111,11=2,16=1,25=1,30=1,71=1,74=1009/1,2,3;
 4//1;
 5/5=2,38=5/2;
 6/7=2,8=2,9=2,10=2,28=1/1;
 7//1,2,3,16;
 1/14=-1,18=20,19=15,26=3/3(2);
 2/9=110/2;
 99//99;
 2/9=110/2;
 3/5=1,6=6,7=111,11=2,16=1,25=1,30=1,71=1,74=1009/1,2,3;
 4/5=5,16=3,69=1/1;
 5/5=2,38=5/2;
 7//1,2,3,16;
 1/14=-1,18=20,19=15,26=3/3(-5);
 2/9=110/2;
 6/7=2,8=2,9=2,10=2,19=2,28=1/1;
 99/9=1/99;
 ----------
 [No Title]
 ----------
 Symbolic Z-matrix:
 Charge =  1 Multiplicity = 1
 C                    -0.06017   1.26451  0. 
 C                     0.66722   0.0387    0. 
 C                    -0.00646  -1.2169    0. 
 C                    -1.37234  -1.23943   0. 
 C                    -2.12014  -0.01853  0. 
 C                    -1.42463   1.23363  -0.00001 
 N                    -3.4557   -0.04642  0. 
 N                     2.03132   0.1101    0.00001 
 O                     2.67315  -1.10362   0. 
 O                     2.71015   1.12009   0. 
 H                     0.47887   2.20441  0. 
 H                     0.5588   -2.1397   0. 
 H                    -1.89983  -2.18732   0.00001 
 H                    -1.99069   2.15903  -0.00001 
 H                    -4.00226   0.80435  -0.00001 
 H                    -3.96667  -0.919     0.00001 
 H                     3.62522  -0.87117  -0.00013 
 

 GradGradGradGradGradGradGradGradGradGradGradGradGradGradGradGradGradGrad
 Berny optimization.
 Initialization pass.
                           ----------------------------
                           !    Initial Parameters    !
                           ! (Angstroms and Degrees)  !
 --------------------------                            --------------------------
 ! Name  Definition              Value          Derivative Info.                !
 --------------------------------------------------------------------------------
 ! R1    R(1,2)                  1.4254         estimate D2E/DX2                !
 ! R2    R(1,6)                  1.3648         estimate D2E/DX2                !
 ! R3    R(1,11)                 1.0835         estimate D2E/DX2                !
 ! R4    R(2,3)                  1.4249         estimate D2E/DX2                !
 ! R5    R(2,8)                  1.366          estimate D2E/DX2                !
 ! R6    R(3,4)                  1.3661         estimate D2E/DX2                !
 ! R7    R(3,12)                 1.0822         estimate D2E/DX2                !
 ! R8    R(4,5)                  1.4317         estimate D2E/DX2                !
 ! R9    R(4,13)                 1.0848         estimate D2E/DX2                !
 ! R10   R(5,6)                  1.4323         estimate D2E/DX2                !
 ! R11   R(5,7)                  1.3359         estimate D2E/DX2                !
 ! R12   R(6,14)                 1.0848         estimate D2E/DX2                !
 ! R13   R(7,15)                 1.0112         estimate D2E/DX2                !
 ! R14   R(7,16)                 1.0112         estimate D2E/DX2                !
 ! R15   R(8,9)                  1.373          estimate D2E/DX2                !
 ! R16   R(8,10)                 1.2169         estimate D2E/DX2                !
 ! R17   R(9,17)                 0.98           estimate D2E/DX2                !
 ! A1    A(2,1,6)              119.3876         estimate D2E/DX2                !
 ! A2    A(2,1,11)             119.481          estimate D2E/DX2                !
 ! A3    A(6,1,11)             121.1313         estimate D2E/DX2                !
 ! A4    A(1,2,3)              121.1003         estimate D2E/DX2                !
 ! A5    A(1,2,8)              117.6881         estimate D2E/DX2                !
 ! A6    A(3,2,8)              121.2115         estimate D2E/DX2                !
 ! A7    A(2,3,4)              119.1603         estimate D2E/DX2                !
 ! A8    A(2,3,12)             120.2948         estimate D2E/DX2                !
 ! A9    A(4,3,12)             120.5448         estimate D2E/DX2                !
 ! A10   A(3,4,5)              120.5419         estimate D2E/DX2                !
 ! A11   A(3,4,13)             120.0404         estimate D2E/DX2                !
 ! A12   A(5,4,13)             119.4177         estimate D2E/DX2                !
 ! A13   A(4,5,6)              119.4629         estimate D2E/DX2                !
 ! A14   A(4,5,7)              120.2907         estimate D2E/DX2                !
 ! A15   A(6,5,7)              120.2464         estimate D2E/DX2                !
 ! A16   A(1,6,5)              120.3468         estimate D2E/DX2                !
 ! A17   A(1,6,14)             120.1572         estimate D2E/DX2                !
 ! A18   A(5,6,14)             119.496          estimate D2E/DX2                !
 ! A19   A(5,7,15)             121.5216         estimate D2E/DX2                !
 ! A20   A(5,7,16)             121.5488         estimate D2E/DX2                !
 ! A21   A(15,7,16)            116.9296         estimate D2E/DX2                !
 ! A22   A(2,8,9)              114.874          estimate D2E/DX2                !
 ! A23   A(2,8,10)             126.9018         estimate D2E/DX2                !
 ! A24   A(9,8,10)             118.2242         estimate D2E/DX2                !
 ! A25   A(8,9,17)             104.1501         estimate D2E/DX2                !
 ! D1    D(6,1,2,3)              0.0001         estimate D2E/DX2                !
 ! D2    D(6,1,2,8)           -179.9997         estimate D2E/DX2                !
 ! D3    D(11,1,2,3)          -179.9998         estimate D2E/DX2                !
 ! D4    D(11,1,2,8)             0.0004         estimate D2E/DX2                !
 ! D5    D(2,1,6,5)              0.0003         estimate D2E/DX2                !
 ! D6    D(2,1,6,14)          -179.9997         estimate D2E/DX2                !
 ! D7    D(11,1,6,5)          -179.9998         estimate D2E/DX2                !
 ! D8    D(11,1,6,14)            0.0002         estimate D2E/DX2                !
 ! D9    D(1,2,3,4)             -0.0004         estimate D2E/DX2                !
 ! D10   D(1,2,3,12)           179.9997         estimate D2E/DX2                !
 ! D11   D(8,2,3,4)            179.9994         estimate D2E/DX2                !
 ! D12   D(8,2,3,12)            -0.0005         estimate D2E/DX2                !
 ! D13   D(1,2,8,9)           -179.9994         estimate D2E/DX2                !
 ! D14   D(1,2,8,10)            -0.001          estimate D2E/DX2                !
 ! D15   D(3,2,8,9)              0.0008         estimate D2E/DX2                !
 ! D16   D(3,2,8,10)           179.9992         estimate D2E/DX2                !
 ! D17   D(2,3,4,5)              0.0004         estimate D2E/DX2                !
 ! D18   D(2,3,4,13)          -179.9996         estimate D2E/DX2                !
 ! D19   D(12,3,4,5)          -179.9998         estimate D2E/DX2                !
 ! D20   D(12,3,4,13)            0.0002         estimate D2E/DX2                !
 ! D21   D(3,4,5,6)              0.0            estimate D2E/DX2                !
 ! D22   D(3,4,5,7)            179.9999         estimate D2E/DX2                !
 ! D23   D(13,4,5,6)           180.0            estimate D2E/DX2                !
 ! D24   D(13,4,5,7)            -0.0001         estimate D2E/DX2                !
 ! D25   D(4,5,6,1)             -0.0003         estimate D2E/DX2                !
 ! D26   D(4,5,6,14)           179.9997         estimate D2E/DX2                !
 ! D27   D(7,5,6,1)            179.9998         estimate D2E/DX2                !
 ! D28   D(7,5,6,14)            -0.0003         estimate D2E/DX2                !
 ! D29   D(4,5,7,15)          -179.9998         estimate D2E/DX2                !
 ! D30   D(4,5,7,16)             0.0004         estimate D2E/DX2                !
 ! D31   D(6,5,7,15)             0.0001         estimate D2E/DX2                !
 ! D32   D(6,5,7,16)          -179.9997         estimate D2E/DX2                !
 ! D33   D(2,8,9,17)           179.9913         estimate D2E/DX2                !
 ! D34   D(10,8,9,17)           -0.0072         estimate D2E/DX2                !
 --------------------------------------------------------------------------------
 Trust Radius=3.00D-01 FncErr=1.00D-07 GrdErr=1.00D-06
 Number of steps in this run=     86 maximum allowed number of steps=    102.
 GradGradGradGradGradGradGradGradGradGradGradGradGradGradGradGradGradGrad

                          Input orientation:                          
 ---------------------------------------------------------------------
 Center     Atomic      Atomic             Coordinates (Angstroms)
 Number     Number       Type             X           Y           Z
 ---------------------------------------------------------------------
      1          6           0       -0.060168    1.264512   -0.000001
      2          6           0        0.667215    0.038700    0.000003
      3          6           0       -0.006463   -1.216902    0.000000
      4          6           0       -1.372344   -1.239434    0.000002
      5          6           0       -2.120136   -0.018528   -0.000001
      6          6           0       -1.424625    1.233625   -0.000006
      7          7           0       -3.455699   -0.046419   -0.000001
      8          7           0        2.031320    0.110101    0.000014
      9          8           0        2.673146   -1.103617    0.000004
     10          8           0        2.710147    1.120092    0.000004
     11          1           0        0.478867    2.204406   -0.000002
     12          1           0        0.558802   -2.139695   -0.000001
     13          1           0       -1.899830   -2.187322    0.000006
     14          1           0       -1.990692    2.159031   -0.000014
     15          1           0       -4.002258    0.804349   -0.000006
     16          1           0       -3.966668   -0.919003    0.000007
     17          1           0        3.625215   -0.871171   -0.000130
 ---------------------------------------------------------------------
                    Distance matrix (angstroms):
                    1          2          3          4          5
     1  C    0.000000
     2  C    1.425378   0.000000
     3  C    2.481995   1.424913   0.000000
     4  C    2.826933   2.406954   1.366067   0.000000
     5  C    2.426862   2.787938   2.429756   1.431714   0.000000
     6  C    1.364807   2.409075   2.831301   2.473612   1.432349
     7  N    3.639804   4.123793   3.642425   2.400761   1.335854
     8  N    2.388930   1.365972   2.431768   3.661444   4.153448
     9  O    3.616496   2.308386   2.682003   4.047769   4.914567
    10  O    2.774077   2.311489   3.583505   4.715304   4.962670
    11  H    1.083494   2.173881   3.455560   3.909861   3.419978
    12  H    3.460022   2.181091   1.082161   2.130679   3.417025
    13  H    3.911459   3.397778   2.127570   1.084773   2.179955
    14  H    2.127695   3.400040   3.915876   3.454261   2.181403
    15  H    3.968857   4.731828   4.477927   3.330690   2.054145
    16  H    4.475319   4.731814   3.971394   2.614038   2.054394
    17  H    4.259482   3.094775   3.648097   5.011109   5.808275
                    6          7          8          9         10
     6  C    0.000000
     7  N    2.400786   0.000000
     8  N    3.633987   5.489251   0.000000
     9  O    4.717460   6.219358   1.372972   0.000000
    10  O    4.136330   6.275221   1.216917   2.224017   0.000000
    11  H    2.136749   4.532882   2.606957   3.969619   2.480796
    12  H    3.913217   4.527474   2.688846   2.354551   3.905701
    13  H    3.453795   2.646544   4.553251   4.699630   5.673700
    14  H    1.084808   2.647689   4.513834   5.691771   4.814279
    15  H    2.613134   1.011204   6.073388   6.942719   6.719827
    16  H    3.331034   1.011184   6.085632   6.642380   6.981244
    17  H    5.470928   7.128784   1.871736   0.980034   2.191456
                   11         12         13         14         15
    11  H    0.000000
    12  H    4.344836   0.000000
    13  H    4.994544   2.459093   0.000000
    14  H    2.469976   4.997896   4.347303   0.000000
    15  H    4.694746   5.428689   3.656542   2.425193   0.000000
    16  H    5.433090   4.687213   2.424964   3.657701   1.723719
    17  H    4.399850   3.318440   5.679646   6.381264   7.809335
                   16         17
    16  H    0.000000
    17  H    7.592034   0.000000
 Stoichiometry    C6H7N2O2(1+)
 Framework group  C1[X(C6H7N2O2)]
 Deg. of freedom    45
 Full point group                 C1      NOp   1
 Largest Abelian subgroup         C1      NOp   1
 Largest concise Abelian subgroup C1      NOp   1
                         Standard orientation:                         
 ---------------------------------------------------------------------
 Center     Atomic      Atomic             Coordinates (Angstroms)
 Number     Number       Type             X           Y           Z
 ---------------------------------------------------------------------
      1          6           0        0.060168    1.264512    0.000001
      2          6           0       -0.667215    0.038700   -0.000003
      3          6           0        0.006463   -1.216902   -0.000000
      4          6           0        1.372344   -1.239434   -0.000002
      5          6           0        2.120136   -0.018528    0.000001
      6          6           0        1.424625    1.233625    0.000006
      7          7           0        3.455699   -0.046419    0.000001
      8          7           0       -2.031320    0.110101   -0.000014
      9          8           0       -2.673146   -1.103617   -0.000004
     10          8           0       -2.710147    1.120092   -0.000004
     11          1           0       -0.478867    2.204406    0.000002
     12          1           0       -0.558802   -2.139695    0.000001
     13          1           0        1.899830   -2.187322   -0.000006
     14          1           0        1.990692    2.159031    0.000014
     15          1           0        4.002258    0.804349    0.000006
     16          1           0        3.966668   -0.919003   -0.000007
     17          1           0       -3.625215   -0.871171    0.000130
 ---------------------------------------------------------------------
 Rotational constants (GHZ):      3.7518842      0.8202376      0.6730872
 Standard basis: 6-31+G(d,p) (6D, 7F)
 There are   225 symmetry adapted cartesian basis functions of A   symmetry.
 There are   225 symmetry adapted basis functions of A   symmetry.
   225 basis functions,   369 primitive gaussians,   225 cartesian basis functions
    36 alpha electrons       36 beta electrons
       nuclear repulsion energy       507.8608013708 Hartrees.
 NAtoms=   17 NActive=   17 NUniq=   17 SFac= 1.00D+00 NAtFMM=   60 NAOKFM=F Big=F
 Integral buffers will be    131072 words long.
 Raffenetti 2 integral format.
 Two-electron integral symmetry is turned on.
 One-electron integrals computed using PRISM.
 NBasis=   225 RedAO= T EigKep=  3.39D-06  NBF=   225
 NBsUse=   225 1.00D-06 EigRej= -1.00D+00 NBFU=   225
 ExpMin= 4.38D-02 ExpMax= 5.48D+03 ExpMxC= 8.25D+02 IAcc=2 IRadAn=         4 AccDes= 0.00D+00
 Harris functional with IExCor= 1009 and IRadAn=       4 diagonalized for initial guess.
 HarFok:  IExCor= 1009 AccDes= 0.00D+00 IRadAn=         4 IDoV= 1 UseB2=F ITyADJ=14
 ICtDFT=  3500011 ScaDFX=  1.000000  1.000000  1.000000  1.000000
 FoFCou: FMM=F IPFlag=           0 FMFlag=      100000 FMFlg1=           0
         NFxFlg=           0 DoJE=T BraDBF=F KetDBF=T FulRan=T
         wScrn=  0.000000 ICntrl=     500 IOpCl=  0 I1Cent=   200000004 NGrid=           0
         NMat0=    1 NMatS0=      1 NMatT0=    0 NMatD0=    1 NMtDS0=    0 NMtDT0=    0
 Petite list used in FoFCou.
 Keep J ints in memory in canonical form, NReq=329175655.
 Requested convergence on RMS density matrix=1.00D-08 within 128 cycles.
 Requested convergence on MAX density matrix=1.00D-06.
 Requested convergence on             energy=1.00D-06.
 No special actions if energy rises.
 EnCoef did     2 forward-backward iterations
 EnCoef did     2 forward-backward iterations
 EnCoef did     3 forward-backward iterations
 SCF Done:  E(RPBE-PBE) =  -491.947111272     A.U. after   18 cycles
            NFock= 18  Conv=0.28D-08     -V/T= 2.0090

 **********************************************************************

            Population analysis using the SCF density.

 **********************************************************************

 Orbital symmetries:
       Occupied  (A) (A) (A) (A) (A) (A) (A) (A) (A) (A) (A) (A)
                 (A) (A) (A) (A) (A) (A) (A) (A) (A) (A) (A) (A)
                 (A) (A) (A) (A) (A) (A) (A) (A) (A) (A) (A) (A)
       Virtual   (A) (A) (A) (A) (A) (A) (A) (A) (A) (A) (A) (A)
                 (A) (A) (A) (A) (A) (A) (A) (A) (A) (A) (A) (A)
                 (A) (A) (A) (A) (A) (A) (A) (A) (A) (A) (A) (A)
                 (A) (A) (A) (A) (A) (A) (A) (A) (A) (A) (A) (A)
                 (A) (A) (A) (A) (A) (A) (A) (A) (A) (A) (A) (A)
                 (A) (A) (A) (A) (A) (A) (A) (A) (A) (A) (A) (A)
                 (A) (A) (A) (A) (A) (A) (A) (A) (A) (A) (A) (A)
                 (A) (A) (A) (A) (A) (A) (A) (A) (A) (A) (A) (A)
                 (A) (A) (A) (A) (A) (A) (A) (A) (A) (A) (A) (A)
                 (A) (A) (A) (A) (A) (A) (A) (A) (A) (A) (A) (A)
                 (A) (A) (A) (A) (A) (A) (A) (A) (A) (A) (A) (A)
                 (A) (A) (A) (A) (A) (A) (A) (A) (A) (A) (A) (A)
                 (A) (A) (A) (A) (A) (A) (A) (A) (A) (A) (A) (A)
                 (A) (A) (A) (A) (A) (A) (A) (A) (A) (A) (A) (A)
                 (A) (A) (A) (A) (A) (A) (A) (A) (A) (A) (A) (A)
                 (A) (A) (A) (A) (A) (A) (A) (A) (A)
 The electronic state is 1-A.
 Alpha  occ. eigenvalues --  -19.03723 -19.00345 -14.40808 -14.22786 -10.15327
 Alpha  occ. eigenvalues --  -10.13986 -10.10206 -10.10073 -10.09134 -10.09130
 Alpha  occ. eigenvalues --   -1.31624  -1.16395  -1.05297  -0.99719  -0.92575
 Alpha  occ. eigenvalues --   -0.87329  -0.82082  -0.76482  -0.74058  -0.69767
 Alpha  occ. eigenvalues --   -0.67585  -0.66409  -0.65774  -0.65229  -0.59008
 Alpha  occ. eigenvalues --   -0.57506  -0.56563  -0.55798  -0.54296  -0.53971
 Alpha  occ. eigenvalues --   -0.48628  -0.48129  -0.47431  -0.44374  -0.41863
 Alpha  occ. eigenvalues --   -0.38203
 Alpha virt. eigenvalues --   -0.30753  -0.21845  -0.19365  -0.15779  -0.14885
 Alpha virt. eigenvalues --   -0.12369  -0.11891  -0.11480  -0.10090  -0.08895
 Alpha virt. eigenvalues --   -0.08665  -0.07598  -0.07021  -0.05924  -0.04832
 Alpha virt. eigenvalues --   -0.04589  -0.03640  -0.03572  -0.02078  -0.00998
 Alpha virt. eigenvalues --   -0.00291  -0.00246   0.00173   0.00393   0.01179
 Alpha virt. eigenvalues --    0.02586   0.02891   0.03865   0.04402   0.04753
 Alpha virt. eigenvalues --    0.04950   0.05778   0.06022   0.06883   0.07703
 Alpha virt. eigenvalues --    0.08057   0.08064   0.09727   0.10150   0.10190
 Alpha virt. eigenvalues --    0.11107   0.11650   0.12356   0.12476   0.13509
 Alpha virt. eigenvalues --    0.14159   0.15557   0.16447   0.16728   0.17858
 Alpha virt. eigenvalues --    0.18525   0.19195   0.20749   0.22273   0.24995
 Alpha virt. eigenvalues --    0.25199   0.27008   0.30557   0.35427   0.35524
 Alpha virt. eigenvalues --    0.38737   0.44105   0.44728   0.45333   0.48311
 Alpha virt. eigenvalues --    0.50520   0.51594   0.52982   0.54753   0.57546
 Alpha virt. eigenvalues --    0.58557   0.61012   0.63284   0.64483   0.67221
 Alpha virt. eigenvalues --    0.68794   0.69814   0.72568   0.74427   0.75211
 Alpha virt. eigenvalues --    0.77050   0.77634   0.80343   0.80873   0.84033
 Alpha virt. eigenvalues --    0.85161   0.85343   0.87326   0.89795   0.91057
 Alpha virt. eigenvalues --    0.95087   0.95662   0.95696   0.97423   0.99456
 Alpha virt. eigenvalues --    1.01768   1.04098   1.04462   1.06936   1.06989
 Alpha virt. eigenvalues --    1.09879   1.10319   1.10406   1.13610   1.13675
 Alpha virt. eigenvalues --    1.15269   1.16308   1.21143   1.21404   1.24430
 Alpha virt. eigenvalues --    1.28628   1.29709   1.31838   1.43396   1.46869
 Alpha virt. eigenvalues --    1.49956   1.51462   1.56478   1.57300   1.59250
 Alpha virt. eigenvalues --    1.59981   1.65095   1.66197   1.67541   1.68504
 Alpha virt. eigenvalues --    1.70774   1.71480   1.72620   1.72703   1.78158
 Alpha virt. eigenvalues --    1.80828   1.84242   1.85981   1.87902   1.89665
 Alpha virt. eigenvalues --    1.92663   1.93661   1.95862   2.05482   2.05638
 Alpha virt. eigenvalues --    2.12760   2.13326   2.14862   2.15288   2.16764
 Alpha virt. eigenvalues --    2.19966   2.20031   2.23439   2.25477   2.29917
 Alpha virt. eigenvalues --    2.30952   2.32421   2.33058   2.34170   2.35347
 Alpha virt. eigenvalues --    2.37483   2.41960   2.42568   2.45210   2.50507
 Alpha virt. eigenvalues --    2.51659   2.55697   2.58781   2.59876   2.72528
 Alpha virt. eigenvalues --    2.74411   2.77940   2.82547   2.85153   2.90209
 Alpha virt. eigenvalues --    2.94623   3.04841   3.09207   3.09508   3.15942
 Alpha virt. eigenvalues --    3.24849   3.28223   3.42056   3.57983   3.88221
 Alpha virt. eigenvalues --    3.95445   4.02956   4.04695   4.08424   4.20501
 Alpha virt. eigenvalues --    4.22539   4.26565   4.52252   4.59686
          Condensed to atoms (all electrons):
               1          2          3          4          5          6
     1  C    8.809950   0.991857  -2.699194  -1.051220  -0.140370  -0.350697
     2  C    0.991857  11.664869  -2.024059  -1.482908  -0.936341  -0.643747
     3  C   -2.699194  -2.024059  11.044450  -0.473854   0.160912  -1.011451
     4  C   -1.051220  -1.482908  -0.473854   9.610032   0.434246  -1.297986
     5  C   -0.140370  -0.936341   0.160912   0.434246   6.048353   0.172323
     6  C   -0.350697  -0.643747  -1.011451  -1.297986   0.172323   8.789259
     7  N    0.080188  -0.020452   0.074680  -0.044017   0.057557  -0.053385
     8  N    0.370173  -1.141438   0.101779   0.028573   0.033891   0.084332
     9  O    0.004790  -0.290663   0.127486   0.060343  -0.006962   0.035747
    10  O   -0.250628  -0.196605   0.330711   0.002349   0.020697   0.013233
    11  H    0.074575   0.217561   0.068476  -0.007067  -0.036411   0.036209
    12  H    0.049032   0.277204  -0.009017   0.080528  -0.051702   0.007837
    13  H    0.000121   0.023060   0.131321   0.128178   0.032560   0.013622
    14  H    0.093275   0.019709  -0.013021   0.021163   0.030952   0.176664
    15  H    0.028088  -0.000397  -0.001906   0.047326  -0.010987  -0.074021
    16  H   -0.002814  -0.000485   0.027121  -0.073491  -0.009716   0.047609
    17  H    0.041790   0.028254  -0.056413  -0.003694  -0.001156   0.003801
               7          8          9         10         11         12
     1  C    0.080188   0.370173   0.004790  -0.250628   0.074575   0.049032
     2  C   -0.020452  -1.141438  -0.290663  -0.196605   0.217561   0.277204
     3  C    0.074680   0.101779   0.127486   0.330711   0.068476  -0.009017
     4  C   -0.044017   0.028573   0.060343   0.002349  -0.007067   0.080528
     5  C    0.057557   0.033891  -0.006962   0.020697  -0.036411  -0.051702
     6  C   -0.053385   0.084332   0.035747   0.013233   0.036209   0.007837
     7  N    6.818144   0.000924  -0.000151  -0.000545  -0.000255  -0.000108
     8  N    0.000924   7.420218   0.139611   0.414752  -0.055638  -0.059352
     9  O   -0.000151   0.139611   7.802621  -0.103427  -0.001807   0.019185
    10  O   -0.000545   0.414752  -0.103427   7.657798   0.021326  -0.002314
    11  H   -0.000255  -0.055638  -0.001807   0.021326   0.483009  -0.000092
    12  H   -0.000108  -0.059352   0.019185  -0.002314  -0.000092   0.488570
    13  H   -0.018953  -0.001055   0.000096   0.000036   0.000011  -0.005495
    14  H   -0.018391  -0.000888   0.000080  -0.000052  -0.005126   0.000011
    15  H    0.326471  -0.000006   0.000000   0.000001  -0.000010   0.000003
    16  H    0.326304   0.000004   0.000001  -0.000000   0.000003  -0.000010
    17  H    0.000004   0.040330   0.203235   0.011193   0.000004   0.000221
              13         14         15         16         17
     1  C    0.000121   0.093275   0.028088  -0.002814   0.041790
     2  C    0.023060   0.019709  -0.000397  -0.000485   0.028254
     3  C    0.131321  -0.013021  -0.001906   0.027121  -0.056413
     4  C    0.128178   0.021163   0.047326  -0.073491  -0.003694
     5  C    0.032560   0.030952  -0.010987  -0.009716  -0.001156
     6  C    0.013622   0.176664  -0.074021   0.047609   0.003801
     7  N   -0.018953  -0.018391   0.326471   0.326304   0.000004
     8  N   -0.001055  -0.000888  -0.000006   0.000004   0.040330
     9  O    0.000096   0.000080   0.000000   0.000001   0.203235
    10  O    0.000036  -0.000052   0.000001  -0.000000   0.011193
    11  H    0.000011  -0.005126  -0.000010   0.000003   0.000004
    12  H   -0.005495   0.000011   0.000003  -0.000010   0.000221
    13  H    0.513910  -0.000104  -0.000047   0.004955  -0.000000
    14  H   -0.000104   0.511218   0.004972  -0.000050  -0.000000
    15  H   -0.000047   0.004972   0.354282  -0.022806   0.000000
    16  H    0.004955  -0.000050  -0.022806   0.354560  -0.000000
    17  H   -0.000000  -0.000000   0.000000  -0.000000   0.347409
 Mulliken charges:
               1
     1  C   -0.048915
     2  C   -0.485418
     3  C    0.221981
     4  C    0.021498
     5  C    0.202155
     6  C    0.050651
     7  N   -0.528014
     8  N   -0.376210
     9  O    0.009815
    10  O    0.081476
    11  H    0.205232
    12  H    0.205499
    13  H    0.177785
    14  H    0.179588
    15  H    0.349037
    16  H    0.348817
    17  H    0.385022
 Sum of Mulliken charges =   1.00000
 Mulliken charges with hydrogens summed into heavy atoms:
               1
     1  C    0.156317
     2  C   -0.485418
     3  C    0.427481
     4  C    0.199283
     5  C    0.202155
     6  C    0.230240
     7  N    0.169840
     8  N   -0.376210
     9  O    0.394837
    10  O    0.081476
 Electronic spatial extent (au):  <R**2>=           1554.8760
 Charge=              1.0000 electrons
 Dipole moment (field-independent basis, Debye):
    X=              3.8230    Y=             -1.0570    Z=              0.0002  Tot=              3.9664
 Quadrupole moment (field-independent basis, Debye-Ang):
   XX=             -7.4271   YY=            -44.5711   ZZ=            -58.5067
   XY=              4.5321   XZ=             -0.0010   YZ=             -0.0002
 Traceless Quadrupole moment (field-independent basis, Debye-Ang):
   XX=             29.4079   YY=             -7.7361   ZZ=            -21.6718
   XY=              4.5321   XZ=             -0.0010   YZ=             -0.0002
 Octapole moment (field-independent basis, Debye-Ang**2):
  XXX=             45.4267  YYY=             -0.8696  ZZZ=              0.0000  XYY=             12.8452
  XXY=            -21.1614  XXZ=              0.0038  XZZ=            -10.7912  YZZ=              0.3505
  YYZ=              0.0002  XYZ=              0.0011
 Hexadecapole moment (field-independent basis, Debye-Ang**3):
 XXXX=           -669.1793 YYYY=           -339.7426 ZZZZ=            -58.6669 XXXY=             78.7434
 XXXZ=             -0.0152 YYYX=              2.9323 YYYZ=             -0.0001 ZZZX=             -0.0005
 ZZZY=             -0.0002 XXYY=           -246.3104 XXZZ=           -264.9298 YYZZ=            -81.9587
 XXYZ=             -0.0031 YYXZ=             -0.0009 ZZXY=             -0.5508
 N-N= 5.078608013708D+02 E-N=-2.149754232417D+03  KE= 4.875538482847D+02
 Calling FoFJK, ICntrl=      2527 FMM=F ISym2X=0 I1Cent= 0 IOpClX= 0 NMat=1 NMatS=1 NMatT=0.
 ***** Axes restored to original set *****
 -------------------------------------------------------------------
 Center     Atomic                   Forces (Hartrees/Bohr)
 Number     Number              X              Y              Z
 -------------------------------------------------------------------
      1        6           0.004490231   -0.002114464    0.000000577
      2        6          -0.007542218   -0.001430275    0.000001273
      3        6           0.004067056    0.002560965    0.000000349
      4        6          -0.004099135    0.002057445    0.000000024
      5        6           0.003678059    0.000076427    0.000000033
      6        6          -0.004013115   -0.002431957   -0.000000157
      7        7          -0.001819771   -0.000039256    0.000000019
      8        7           0.002697430    0.000215462   -0.000003653
      9        8          -0.004593120   -0.013615441    0.000000466
     10        8           0.006318330    0.012185494    0.000000412
     11        1           0.003156423    0.005320073    0.000000045
     12        1           0.003243559   -0.005340491    0.000000035
     13        1          -0.002815069   -0.005393758   -0.000000181
     14        1          -0.002998858    0.005287881    0.000000001
     15        1          -0.003677109    0.005300239    0.000000014
     16        1          -0.003460275   -0.005443076   -0.000000033
     17        1           0.007367581    0.002804732    0.000000774
 -------------------------------------------------------------------
 Cartesian Forces:  Max     0.013615441 RMS     0.004119335

 GradGradGradGradGradGradGradGradGradGradGradGradGradGradGradGradGradGrad
 Berny optimization.
 FormGI is forming the generalized inverse of G from B-inverse, IUseBI=4.
 GSVD:  received Info=                   1 from GESDD.
 Internal  Forces:  Max     0.013635724 RMS     0.003775323
 Search for a local minimum.
 Step number   1 out of a maximum of   86
 All quantities printed in internal units (Hartrees-Bohrs-Radians)
 Mixed Optimization -- RFO/linear search
 Second derivative matrix not updated -- first step.
 ITU=  0
     Eigenvalues ---    0.01652   0.01699   0.01815   0.01919   0.01989
     Eigenvalues ---    0.01999   0.02036   0.02130   0.02134   0.02142
     Eigenvalues ---    0.02259   0.02276   0.02540   0.02540   0.16000
     Eigenvalues ---    0.16000   0.16000   0.16000   0.16000   0.16000
     Eigenvalues ---    0.16000   0.22000   0.22949   0.24000   0.25000
     Eigenvalues ---    0.25000   0.25000   0.25000   0.35420   0.35424
     Eigenvalues ---    0.35575   0.35735   0.38065   0.39554   0.41257
     Eigenvalues ---    0.41341   0.45772   0.45775   0.48887   0.50410
     Eigenvalues ---    0.51378   0.51758   0.51868   0.58144   0.96762
 RFO step:  Lambda=-2.13756459D-03 EMin= 1.65233406D-02
 Linear search not attempted -- first point.
 Iteration  1 RMS(Cart)=  0.01462017 RMS(Int)=  0.00001864
 Iteration  2 RMS(Cart)=  0.00002903 RMS(Int)=  0.00000060
 Iteration  3 RMS(Cart)=  0.00000000 RMS(Int)=  0.00000060
 Variable       Old X    -DE/DX   Delta X   Delta X   Delta X     New X
                                 (Linear)    (Quad)   (Total)
    R1        2.69357   0.00338   0.00000   0.00802   0.00802   2.70159
    R2        2.57911   0.00960   0.00000   0.01839   0.01839   2.59750
    R3        2.04751   0.00619   0.00000   0.01728   0.01728   2.06479
    R4        2.69270   0.00366   0.00000   0.00869   0.00869   2.70139
    R5        2.58131   0.01186   0.00000   0.02281   0.02281   2.60413
    R6        2.58149   0.00961   0.00000   0.01851   0.01851   2.60000
    R7        2.04499   0.00625   0.00000   0.01738   0.01738   2.06237
    R8        2.70555   0.00413   0.00000   0.01013   0.01013   2.71568
    R9        2.04992   0.00608   0.00000   0.01707   0.01707   2.06699
   R10        2.70675   0.00413   0.00000   0.01014   0.01014   2.71689
   R11        2.52440   0.00896   0.00000   0.01535   0.01535   2.53975
   R12        2.04999   0.00608   0.00000   0.01705   0.01705   2.06704
   R13        1.91090   0.00645   0.00000   0.01403   0.01403   1.92492
   R14        1.91086   0.00644   0.00000   0.01401   0.01401   1.92487
   R15        2.59454   0.01086   0.00000   0.02145   0.02145   2.61599
   R16        2.29964   0.01364   0.00000   0.01406   0.01406   2.31370
   R17        1.85200   0.00782   0.00000   0.01516   0.01516   1.86715
    A1        2.08371   0.00028   0.00000   0.00104   0.00104   2.08475
    A2        2.08534  -0.00024   0.00000  -0.00111  -0.00111   2.08422
    A3        2.11414  -0.00004   0.00000   0.00007   0.00007   2.11421
    A4        2.11360  -0.00047   0.00000  -0.00211  -0.00211   2.11149
    A5        2.05405  -0.00030   0.00000  -0.00107  -0.00107   2.05297
    A6        2.11554   0.00077   0.00000   0.00319   0.00319   2.11873
    A7        2.07974   0.00036   0.00000   0.00143   0.00143   2.08117
    A8        2.09954  -0.00015   0.00000  -0.00055  -0.00055   2.09899
    A9        2.10390  -0.00021   0.00000  -0.00088  -0.00088   2.10302
   A10        2.10385   0.00030   0.00000   0.00133   0.00133   2.10519
   A11        2.09510  -0.00032   0.00000  -0.00168  -0.00168   2.09342
   A12        2.08423   0.00001   0.00000   0.00034   0.00034   2.08458
   A13        2.08502  -0.00092   0.00000  -0.00361  -0.00361   2.08141
   A14        2.09947   0.00049   0.00000   0.00194   0.00194   2.10140
   A15        2.09870   0.00043   0.00000   0.00168   0.00167   2.10037
   A16        2.10045   0.00044   0.00000   0.00192   0.00192   2.10237
   A17        2.09714  -0.00043   0.00000  -0.00225  -0.00225   2.09489
   A18        2.08560  -0.00001   0.00000   0.00033   0.00033   2.08593
   A19        2.12095   0.00014   0.00000   0.00084   0.00084   2.12179
   A20        2.12143   0.00016   0.00000   0.00099   0.00099   2.12241
   A21        2.04081  -0.00030   0.00000  -0.00182  -0.00182   2.03898
   A22        2.00493  -0.00212   0.00000  -0.00841  -0.00841   1.99652
   A23        2.21485  -0.00072   0.00000  -0.00287  -0.00287   2.21199
   A24        2.06340   0.00284   0.00000   0.01127   0.01127   2.07467
   A25        1.81776  -0.00180   0.00000  -0.01111  -0.01111   1.80665
    D1        0.00000  -0.00000   0.00000  -0.00001  -0.00001  -0.00001
    D2       -3.14159  -0.00000   0.00000  -0.00000  -0.00000  -3.14159
    D3       -3.14159  -0.00000   0.00000  -0.00001  -0.00001   3.14159
    D4        0.00001   0.00000   0.00000  -0.00000  -0.00000   0.00001
    D5        0.00001   0.00000   0.00000   0.00000   0.00000   0.00001
    D6       -3.14159   0.00000   0.00000   0.00000   0.00000  -3.14159
    D7       -3.14159  -0.00000   0.00000  -0.00000  -0.00000  -3.14159
    D8        0.00000  -0.00000   0.00000  -0.00000  -0.00000   0.00000
    D9       -0.00001   0.00000   0.00000   0.00001   0.00001   0.00000
   D10        3.14159   0.00000   0.00000   0.00000   0.00000   3.14159
   D11        3.14158   0.00000   0.00000   0.00000   0.00000   3.14159
   D12       -0.00001  -0.00000   0.00000  -0.00000  -0.00000  -0.00001
   D13       -3.14158  -0.00000   0.00000  -0.00007  -0.00007   3.14154
   D14       -0.00002   0.00000   0.00000   0.00003   0.00003   0.00002
   D15        0.00001  -0.00000   0.00000  -0.00006  -0.00006  -0.00005
   D16        3.14158   0.00000   0.00000   0.00004   0.00004  -3.14157
   D17        0.00001  -0.00000   0.00000  -0.00001  -0.00001  -0.00000
   D18       -3.14159  -0.00000   0.00000  -0.00001  -0.00001   3.14159
   D19       -3.14159   0.00000   0.00000   0.00000   0.00000  -3.14159
   D20        0.00000  -0.00000   0.00000  -0.00000  -0.00000   0.00000
   D21       -0.00000   0.00000   0.00000   0.00000   0.00000   0.00000
   D22        3.14159   0.00000   0.00000   0.00000   0.00000   3.14159
   D23        3.14159   0.00000   0.00000   0.00000   0.00000  -3.14159
   D24       -0.00000   0.00000   0.00000   0.00000   0.00000   0.00000
   D25       -0.00001   0.00000   0.00000   0.00000   0.00000  -0.00000
   D26        3.14159   0.00000   0.00000   0.00000   0.00000   3.14159
   D27        3.14159   0.00000   0.00000   0.00000   0.00000   3.14159
   D28       -0.00000   0.00000   0.00000   0.00000   0.00000  -0.00000
   D29       -3.14159  -0.00000   0.00000  -0.00000  -0.00000  -3.14159
   D30        0.00001  -0.00000   0.00000  -0.00000  -0.00000   0.00000
   D31        0.00000  -0.00000   0.00000  -0.00000  -0.00000   0.00000
   D32       -3.14159  -0.00000   0.00000  -0.00000  -0.00000  -3.14159
   D33        3.14144   0.00000   0.00000   0.00014   0.00014   3.14158
   D34       -0.00013   0.00000   0.00000   0.00004   0.00004  -0.00008
         Item               Value     Threshold  Converged?
 Maximum Force            0.013636     0.000450     NO 
 RMS     Force            0.003775     0.000300     NO 
 Maximum Displacement     0.045625     0.001800     NO 
 RMS     Displacement     0.014608     0.001200     NO 
 Predicted change in Energy=-1.073735D-03
 GradGradGradGradGradGradGradGradGradGradGradGradGradGradGradGradGradGrad

                          Input orientation:                          
 ---------------------------------------------------------------------
 Center     Atomic      Atomic             Coordinates (Angstroms)
 Number     Number       Type             X           Y           Z
 ---------------------------------------------------------------------
      1          6           0       -0.056315    1.267571   -0.000015
      2          6           0        0.674343    0.038767   -0.000030
      3          6           0       -0.003034   -1.220069   -0.000025
      4          6           0       -1.378703   -1.243067   -0.000009
      5          6           0       -2.131202   -0.018756    0.000003
      6          6           0       -1.430503    1.236653   -0.000002
      7          7           0       -3.474897   -0.046306    0.000017
      8          7           0        2.050358    0.113518   -0.000038
      9          8           0        2.689609   -1.114370    0.000017
     10          8           0        2.728406    1.132981   -0.000018
     11          1           0        0.487471    2.215283   -0.000016
     12          1           0        0.566420   -2.151082   -0.000037
     13          1           0       -1.908764   -2.199854   -0.000007
     14          1           0       -1.999050    2.171116    0.000003
     15          1           0       -4.025860    0.810453    0.000023
     16          1           0       -3.990812   -0.924584    0.000023
     17          1           0        3.648363   -0.875529   -0.000013
 ---------------------------------------------------------------------
                    Distance matrix (angstroms):
                    1          2          3          4          5
     1  C    0.000000
     2  C    1.429622   0.000000
     3  C    2.488210   1.429513   0.000000
     4  C    2.837606   2.420350   1.375861   0.000000
     5  C    2.441268   2.806134   2.443819   1.437077   0.000000
     6  C    1.374536   2.421840   2.841329   2.480260   1.437717
     7  N    3.662373   4.150112   3.664908   2.413765   1.343978
     8  N    2.402063   1.378044   2.448443   3.687653   4.183651
     9  O    3.635071   2.321858   2.694717   4.070348   4.943742
    10  O    2.787972   2.327333   3.605220   4.744886   4.994225
    11  H    1.092640   2.184524   3.470193   3.929731   3.442147
    12  H    3.474907   2.192507   1.091358   2.146624   3.438600
    13  H    3.931234   3.418167   2.142845   1.093804   2.192412
    14  H    2.142571   3.419640   3.934998   3.470082   2.193855
    15  H    3.995778   4.763130   4.506235   3.350282   2.068168
    16  H    4.503976   4.763582   3.998710   2.631453   2.068496
    17  H    4.279896   3.111387   3.667616   5.040484   5.842724
                    6          7          8          9         10
     6  C    0.000000
     7  N    2.413613   0.000000
     8  N    3.657571   5.527566   0.000000
     9  O    4.743694   6.256349   1.384324   0.000000
    10  O    4.160201   6.314403   1.224358   2.247686   0.000000
    11  H    2.153217   4.562362   2.619166   3.991993   2.488608
    12  H    3.932486   4.556569   2.707487   2.362775   3.931825
    13  H    3.469627   2.662807   4.585449   4.724755   5.710616
    14  H    1.093831   2.663660   4.542181   5.725203   4.840100
    15  H    2.630119   1.018626   6.116057   6.985877   6.761963
    16  H    3.350541   1.018597   6.129713   6.683116   7.027194
    17  H    5.500563   7.171362   1.879317   0.988055   2.209170
                   11         12         13         14         15
    11  H    0.000000
    12  H    4.367079   0.000000
    13  H    5.023483   2.475664   0.000000
    14  H    2.486913   5.026234   4.371902   0.000000
    15  H    4.726913   5.464406   3.680224   2.441180   0.000000
    16  H    5.469349   4.719391   2.441565   3.681096   1.735391
    17  H    4.420900   3.335477   5.712749   6.416799   7.857241
                   16         17
    16  H    0.000000
    17  H    7.639332   0.000000
 Stoichiometry    C6H7N2O2(1+)
 Framework group  C1[X(C6H7N2O2)]
 Deg. of freedom    45
 Full point group                 C1      NOp   1
 Largest Abelian subgroup         C1      NOp   1
 Largest concise Abelian subgroup C1      NOp   1
                         Standard orientation:                         
 ---------------------------------------------------------------------
 Center     Atomic      Atomic             Coordinates (Angstroms)
 Number     Number       Type             X           Y           Z
 ---------------------------------------------------------------------
      1          6           0        0.058437    1.267163    0.000006
      2          6           0       -0.671653    0.038022    0.000021
      3          6           0        0.006305   -1.220501    0.000016
      4          6           0        1.381985   -1.242864    0.000000
      5          6           0        2.133917   -0.018206   -0.000012
      6          6           0        1.432639    1.236879   -0.000007
      7          7           0        3.477625   -0.045135   -0.000025
      8          7           0       -2.047703    0.112138    0.000029
      9          8           0       -2.686387   -1.116046   -0.000026
     10          8           0       -2.726222    1.131287    0.000009
     11          1           0       -0.485786    2.214624    0.000008
     12          1           0       -0.562719   -2.151777    0.000028
     13          1           0        1.912487   -2.199406   -0.000002
     14          1           0        2.000755    2.171605   -0.000012
     15          1           0        4.028193    0.811879   -0.000032
     16          1           0        3.993946   -0.923175   -0.000032
     17          1           0       -3.645251   -0.877647    0.000004
 ---------------------------------------------------------------------
 Rotational constants (GHZ):      3.7113831      0.8101983      0.6650232
 Standard basis: 6-31+G(d,p) (6D, 7F)
 There are   225 symmetry adapted cartesian basis functions of A   symmetry.
 There are   225 symmetry adapted basis functions of A   symmetry.
   225 basis functions,   369 primitive gaussians,   225 cartesian basis functions
    36 alpha electrons       36 beta electrons
       nuclear repulsion energy       504.8224948853 Hartrees.
 NAtoms=   17 NActive=   17 NUniq=   17 SFac= 1.00D+00 NAtFMM=   60 NAOKFM=F Big=F
 Integral buffers will be    131072 words long.
 Raffenetti 2 integral format.
 Two-electron integral symmetry is turned on.
 One-electron integrals computed using PRISM.
 NBasis=   225 RedAO= T EigKep=  3.53D-06  NBF=   225
 NBsUse=   225 1.00D-06 EigRej= -1.00D+00 NBFU=   225
 Initial guess from the checkpoint file:  "pbePNAyang.chk"
 B after Tr=    -0.000000   -0.000000   -0.000000
         Rot=    1.000000   -0.000001   -0.000002   -0.000177 Ang=  -0.02 deg.
 ExpMin= 4.38D-02 ExpMax= 5.48D+03 ExpMxC= 8.25D+02 IAcc=2 IRadAn=         4 AccDes= 0.00D+00
 Harris functional with IExCor= 1009 and IRadAn=       4 diagonalized for initial guess.
 HarFok:  IExCor= 1009 AccDes= 0.00D+00 IRadAn=         4 IDoV= 1 UseB2=F ITyADJ=14
 ICtDFT=  3500011 ScaDFX=  1.000000  1.000000  1.000000  1.000000
 FoFCou: FMM=F IPFlag=           0 FMFlag=      100000 FMFlg1=           0
         NFxFlg=           0 DoJE=T BraDBF=F KetDBF=T FulRan=T
         wScrn=  0.000000 ICntrl=     500 IOpCl=  0 I1Cent=   200000004 NGrid=           0
         NMat0=    1 NMatS0=      1 NMatT0=    0 NMatD0=    1 NMtDS0=    0 NMtDT0=    0
 Petite list used in FoFCou.
 Keep J ints in memory in canonical form, NReq=329175655.
 Requested convergence on RMS density matrix=1.00D-08 within 128 cycles.
 Requested convergence on MAX density matrix=1.00D-06.
 Requested convergence on             energy=1.00D-06.
 No special actions if energy rises.
 EnCoef did     4 forward-backward iterations
 SCF Done:  E(RPBE-PBE) =  -491.948185993     A.U. after   13 cycles
            NFock= 13  Conv=0.56D-08     -V/T= 2.0096
 Calling FoFJK, ICntrl=      2527 FMM=F ISym2X=0 I1Cent= 0 IOpClX= 0 NMat=1 NMatS=1 NMatT=0.
 ***** Axes restored to original set *****
 -------------------------------------------------------------------
 Center     Atomic                   Forces (Hartrees/Bohr)
 Number     Number              X              Y              Z
 -------------------------------------------------------------------
      1        6           0.000659330   -0.000292390   -0.000001094
      2        6          -0.003151075   -0.000473623   -0.000000590
      3        6           0.000726025    0.000415413   -0.000000746
      4        6          -0.000423540    0.000583925    0.000000107
      5        6           0.001474057    0.000100572   -0.000000209
      6        6          -0.000482484   -0.000601801    0.000000032
      7        7          -0.000163832   -0.000012578    0.000000042
      8        7          -0.001080643    0.003185923    0.000007394
      9        8           0.000644263   -0.003190507   -0.000002528
     10        8           0.000473378   -0.000149330   -0.000003057
     11        1          -0.000198944   -0.000013867    0.000000015
     12        1          -0.000216876   -0.000000675    0.000000032
     13        1           0.000277639   -0.000028813    0.000000081
     14        1           0.000246981    0.000038088    0.000000282
     15        1           0.000137274    0.000006403    0.000000019
     16        1           0.000134857   -0.000003214   -0.000000037
     17        1           0.000943590    0.000436474    0.000000256
 -------------------------------------------------------------------
 Cartesian Forces:  Max     0.003190507 RMS     0.000865489

 GradGradGradGradGradGradGradGradGradGradGradGradGradGradGradGradGradGrad
 Berny optimization.
 Using GEDIIS/GDIIS optimizer.
 FormGI is forming the generalized inverse of G from B-inverse, IUseBI=4.
 GSVD:  received Info=                   1 from GESDD.
 Internal  Forces:  Max     0.003182076 RMS     0.000499925
 Search for a local minimum.
 Step number   2 out of a maximum of   86
 All quantities printed in internal units (Hartrees-Bohrs-Radians)
 Mixed Optimization -- En-DIIS/RFO-DIIS
 Update second derivatives using D2CorX and points    1    2
 DE= -1.07D-03 DEPred=-1.07D-03 R= 1.00D+00
 TightC=F SS=  1.41D+00  RLast= 6.81D-02 DXNew= 5.0454D-01 2.0423D-01
 Trust test= 1.00D+00 RLast= 6.81D-02 DXMaxT set to 3.00D-01
 ITU=  1  0
 Use linear search instead of GDIIS.
     Eigenvalues ---    0.01652   0.01699   0.01816   0.01919   0.01988
     Eigenvalues ---    0.01997   0.02037   0.02130   0.02134   0.02142
     Eigenvalues ---    0.02260   0.02276   0.02540   0.02540   0.15890
     Eigenvalues ---    0.16000   0.16000   0.16000   0.16000   0.16000
     Eigenvalues ---    0.16027   0.22001   0.22938   0.24051   0.24964
     Eigenvalues ---    0.25000   0.25000   0.25254   0.35418   0.35431
     Eigenvalues ---    0.35580   0.35737   0.38098   0.39556   0.41337
     Eigenvalues ---    0.42350   0.44937   0.45773   0.47006   0.48902
     Eigenvalues ---    0.51271   0.51654   0.54003   0.58693   0.96867
 RFO step:  Lambda=-4.74067166D-05 EMin= 1.65233404D-02
 Quartic linear search produced a step of  0.01554.
 Iteration  1 RMS(Cart)=  0.00130643 RMS(Int)=  0.00000140
 Iteration  2 RMS(Cart)=  0.00000175 RMS(Int)=  0.00000013
 Iteration  3 RMS(Cart)=  0.00000000 RMS(Int)=  0.00000013
 Variable       Old X    -DE/DX   Delta X   Delta X   Delta X     New X
                                 (Linear)    (Quad)   (Total)
    R1        2.70159  -0.00087   0.00012  -0.00207  -0.00195   2.69964
    R2        2.59750  -0.00059   0.00029  -0.00103  -0.00074   2.59676
    R3        2.06479  -0.00011   0.00027  -0.00019   0.00008   2.06487
    R4        2.70139  -0.00105   0.00014  -0.00250  -0.00236   2.69903
    R5        2.60413   0.00099   0.00035   0.00211   0.00246   2.60659
    R6        2.60000  -0.00061   0.00029  -0.00107  -0.00078   2.59922
    R7        2.06237  -0.00011   0.00027  -0.00020   0.00007   2.06244
    R8        2.71568  -0.00072   0.00016  -0.00171  -0.00156   2.71412
    R9        2.06699  -0.00011   0.00027  -0.00019   0.00007   2.06706
   R10        2.71689  -0.00083   0.00016  -0.00198  -0.00182   2.71507
   R11        2.53975  -0.00011   0.00024  -0.00008   0.00016   2.53991
   R12        2.06704  -0.00010   0.00026  -0.00015   0.00011   2.06715
   R13        1.92492  -0.00007   0.00022  -0.00005   0.00017   1.92509
   R14        1.92487  -0.00007   0.00022  -0.00005   0.00016   1.92503
   R15        2.61599   0.00318   0.00033   0.00656   0.00689   2.62289
   R16        2.31370   0.00014   0.00022   0.00024   0.00046   2.31416
   R17        1.86715   0.00102   0.00024   0.00212   0.00236   1.86951
    A1        2.08475  -0.00036   0.00002  -0.00156  -0.00154   2.08321
    A2        2.08422   0.00035  -0.00002   0.00184   0.00183   2.08605
    A3        2.11421   0.00001   0.00000  -0.00028  -0.00028   2.11393
    A4        2.11149   0.00076  -0.00003   0.00314   0.00311   2.11459
    A5        2.05297  -0.00046  -0.00002  -0.00189  -0.00191   2.05106
    A6        2.11873  -0.00031   0.00005  -0.00125  -0.00120   2.11753
    A7        2.08117  -0.00042   0.00002  -0.00185  -0.00182   2.07935
    A8        2.09899   0.00040  -0.00001   0.00215   0.00214   2.10114
    A9        2.10302   0.00002  -0.00001  -0.00031  -0.00032   2.10270
   A10        2.10519  -0.00018   0.00002  -0.00068  -0.00066   2.10453
   A11        2.09342  -0.00017  -0.00003  -0.00133  -0.00136   2.09206
   A12        2.08458   0.00035   0.00001   0.00201   0.00202   2.08660
   A13        2.08141   0.00046  -0.00006   0.00197   0.00191   2.08332
   A14        2.10140  -0.00022   0.00003  -0.00096  -0.00093   2.10047
   A15        2.10037  -0.00023   0.00003  -0.00101  -0.00098   2.09939
   A16        2.10237  -0.00026   0.00003  -0.00102  -0.00099   2.10137
   A17        2.09489  -0.00011  -0.00003  -0.00103  -0.00107   2.09382
   A18        2.08593   0.00037   0.00001   0.00205   0.00206   2.08799
   A19        2.12179  -0.00008   0.00001  -0.00052  -0.00050   2.12129
   A20        2.12241  -0.00007   0.00002  -0.00043  -0.00042   2.12199
   A21        2.03898   0.00015  -0.00003   0.00095   0.00092   2.03991
   A22        1.99652   0.00010  -0.00013   0.00033   0.00020   1.99673
   A23        2.21199   0.00051  -0.00004   0.00204   0.00199   2.21398
   A24        2.07467  -0.00060   0.00018  -0.00237  -0.00219   2.07248
   A25        1.80665  -0.00036  -0.00017  -0.00235  -0.00253   1.80412
    D1       -0.00001   0.00000  -0.00000   0.00002   0.00002   0.00001
    D2       -3.14159   0.00000  -0.00000  -0.00000  -0.00000  -3.14159
    D3        3.14159   0.00000  -0.00000   0.00001   0.00001  -3.14159
    D4        0.00001  -0.00000  -0.00000  -0.00001  -0.00001  -0.00000
    D5        0.00001  -0.00000   0.00000  -0.00001  -0.00001  -0.00000
    D6       -3.14159  -0.00000   0.00000  -0.00001  -0.00001   3.14159
    D7       -3.14159   0.00000  -0.00000   0.00000   0.00000  -3.14159
    D8        0.00000  -0.00000  -0.00000  -0.00000  -0.00000   0.00000
    D9        0.00000  -0.00000   0.00000  -0.00001  -0.00001  -0.00001
   D10        3.14159  -0.00000   0.00000  -0.00001  -0.00001   3.14158
   D11        3.14159   0.00000   0.00000   0.00000   0.00000   3.14159
   D12       -0.00001   0.00000  -0.00000   0.00001   0.00001  -0.00000
   D13        3.14154   0.00000  -0.00000   0.00011   0.00011  -3.14154
   D14        0.00002  -0.00000   0.00000  -0.00009  -0.00009  -0.00007
   D15       -0.00005   0.00000  -0.00000   0.00009   0.00009   0.00004
   D16       -3.14157  -0.00000   0.00000  -0.00011  -0.00010   3.14151
   D17       -0.00000   0.00000  -0.00000   0.00000   0.00000   0.00000
   D18        3.14159   0.00000  -0.00000   0.00001   0.00001  -3.14159
   D19       -3.14159  -0.00000   0.00000  -0.00000  -0.00000  -3.14159
   D20        0.00000   0.00000  -0.00000   0.00000   0.00000   0.00000
   D21        0.00000   0.00000   0.00000   0.00000   0.00000   0.00000
   D22        3.14159   0.00000   0.00000   0.00000   0.00000  -3.14159
   D23       -3.14159  -0.00000   0.00000   0.00000   0.00000  -3.14159
   D24        0.00000   0.00000   0.00000   0.00000   0.00000   0.00000
   D25       -0.00000   0.00000   0.00000   0.00000   0.00000  -0.00000
   D26        3.14159   0.00000   0.00000   0.00000   0.00000  -3.14159
   D27        3.14159   0.00000   0.00000   0.00000   0.00000   3.14159
   D28       -0.00000   0.00000   0.00000   0.00000   0.00000   0.00000
   D29       -3.14159  -0.00000  -0.00000  -0.00000  -0.00000  -3.14159
   D30        0.00000  -0.00000  -0.00000  -0.00000  -0.00000   0.00000
   D31        0.00000  -0.00000  -0.00000  -0.00000  -0.00000   0.00000
   D32       -3.14159  -0.00000  -0.00000  -0.00000  -0.00000  -3.14159
   D33        3.14158  -0.00000   0.00000  -0.00007  -0.00007   3.14151
   D34       -0.00008   0.00000   0.00000   0.00011   0.00011   0.00003
         Item               Value     Threshold  Converged?
 Maximum Force            0.003182     0.000450     NO 
 RMS     Force            0.000500     0.000300     NO 
 Maximum Displacement     0.005951     0.001800     NO 
 RMS     Displacement     0.001306     0.001200     NO 
 Predicted change in Energy=-2.393107D-05
 GradGradGradGradGradGradGradGradGradGradGradGradGradGradGradGradGradGrad

                          Input orientation:                          
 ---------------------------------------------------------------------
 Center     Atomic      Atomic             Coordinates (Angstroms)
 Number     Number       Type             X           Y           Z
 ---------------------------------------------------------------------
      1          6           0       -0.057107    1.267698    0.000005
      2          6           0        0.671194    0.038695    0.000016
      3          6           0       -0.003555   -1.220134    0.000009
      4          6           0       -1.378815   -1.242842    0.000002
      5          6           0       -2.129819   -0.018582   -0.000001
      6          6           0       -1.430902    1.236716   -0.000001
      7          7           0       -3.473596   -0.046217   -0.000006
      8          7           0        2.048478    0.114092    0.000025
      9          8           0        2.690176   -1.116636   -0.000029
     10          8           0        2.728265    1.132687   -0.000045
     11          1           0        0.486381    2.215627    0.000007
     12          1           0        0.565429   -2.151480    0.000009
     13          1           0       -1.907791   -2.200274    0.000000
     14          1           0       -1.998531    2.171807   -0.000003
     15          1           0       -4.024230    0.810861   -0.000009
     16          1           0       -3.989132   -0.924818   -0.000004
     17          1           0        3.649383   -0.874475   -0.000097
 ---------------------------------------------------------------------
                    Distance matrix (angstroms):
                    1          2          3          4          5
     1  C    0.000000
     2  C    1.428590   0.000000
     3  C    2.488408   1.428263   0.000000
     4  C    2.837203   2.417617   1.375447   0.000000
     5  C    2.439396   2.801599   2.442279   1.436253   0.000000
     6  C    1.374144   2.419517   2.841379   2.480106   1.436753
     7  N    3.660433   4.145659   3.663231   2.412472   1.344061
     8  N    2.400895   1.379347   2.447652   3.686137   4.180404
     9  O    3.637665   2.326173   2.695719   4.070948   4.943489
    10  O    2.788642   2.329884   3.605358   4.744601   4.992635
    11  H    1.092680   2.184764   3.470518   3.929373   3.440378
    12  H    3.475388   2.192726   1.091397   2.146090   3.437094
    13  H    3.930885   3.415281   2.141679   1.093843   2.192961
    14  H    2.141621   3.417250   3.935123   3.470429   2.194319
    15  H    3.993340   4.758492   4.504528   3.349018   2.068034
    16  H    4.501994   4.758886   3.996503   2.629620   2.068407
    17  H    4.281001   3.115043   3.669255   5.041673   5.842237
                    6          7          8          9         10
     6  C    0.000000
     7  N    2.412160   0.000000
     8  N    3.656005   5.524401   0.000000
     9  O    4.745688   6.256028   1.387972   0.000000
    10  O    4.160468   6.312915   1.224600   2.249645   0.000000
    11  H    2.152729   4.560413   2.618511   3.995083   2.489740
    12  H    3.932583   4.554761   2.707813   2.363356   3.932380
    13  H    3.469918   2.663026   4.583487   4.723936   5.709785
    14  H    1.093891   2.663728   4.540097   5.726939   4.839667
    15  H    2.628061   1.018716   6.112550   6.985592   6.760160
    16  H    3.349145   1.018684   6.126343   6.682062   7.025436
    17  H    5.501493   7.170972   1.881531   0.989302   2.208429
                   11         12         13         14         15
    11  H    0.000000
    12  H    4.367822   0.000000
    13  H    5.023171   2.473701   0.000000
    14  H    2.485299   5.026400   4.373022   0.000000
    15  H    4.724297   5.462639   3.680523   2.440415   0.000000
    16  H    5.467415   4.716856   2.441060   3.681247   1.736034
    17  H    4.421913   3.337890   5.713136   6.417068   7.856506
                   16         17
    16  H    0.000000
    17  H    7.638681   0.000000
 Stoichiometry    C6H7N2O2(1+)
 Framework group  C1[X(C6H7N2O2)]
 Deg. of freedom    45
 Full point group                 C1      NOp   1
 Largest Abelian subgroup         C1      NOp   1
 Largest concise Abelian subgroup C1      NOp   1
                         Standard orientation:                         
 ---------------------------------------------------------------------
 Center     Atomic      Atomic             Coordinates (Angstroms)
 Number     Number       Type             X           Y           Z
 ---------------------------------------------------------------------
      1          6           0        0.059305    1.267434   -0.000010
      2          6           0       -0.668747    0.038284   -0.000022
      3          6           0        0.006257   -1.220408   -0.000014
      4          6           0        1.381521   -1.242837   -0.000007
      5          6           0        2.132278   -0.018425   -0.000004
      6          6           0        1.433106    1.236732   -0.000004
      7          7           0        3.476060   -0.045788    0.000001
      8          7           0       -2.046047    0.113402   -0.000031
      9          8           0       -2.687495   -1.117455    0.000024
     10          8           0       -2.726040    1.131859    0.000040
     11          1           0       -0.484376    2.215254   -0.000013
     12          1           0       -0.562538   -2.151869   -0.000014
     13          1           0        1.910691   -2.200162   -0.000005
     14          1           0        2.000546    2.171937   -0.000002
     15          1           0        4.026520    0.811402    0.000004
     16          1           0        3.991775   -0.924284   -0.000001
     17          1           0       -3.646751   -0.875489    0.000091
 ---------------------------------------------------------------------
 Rotational constants (GHZ):      3.7091451      0.8106214      0.6652362
 Standard basis: 6-31+G(d,p) (6D, 7F)
 There are   225 symmetry adapted cartesian basis functions of A   symmetry.
 There are   225 symmetry adapted basis functions of A   symmetry.
   225 basis functions,   369 primitive gaussians,   225 cartesian basis functions
    36 alpha electrons       36 beta electrons
       nuclear repulsion energy       504.8147759016 Hartrees.
 NAtoms=   17 NActive=   17 NUniq=   17 SFac= 1.00D+00 NAtFMM=   60 NAOKFM=F Big=F
 Integral buffers will be    131072 words long.
 Raffenetti 2 integral format.
 Two-electron integral symmetry is turned on.
 One-electron integrals computed using PRISM.
 NBasis=   225 RedAO= T EigKep=  3.52D-06  NBF=   225
 NBsUse=   225 1.00D-06 EigRej= -1.00D+00 NBFU=   225
 Initial guess from the checkpoint file:  "pbePNAyang.chk"
 B after Tr=     0.000000    0.000000    0.000000
         Rot=    1.000000    0.000000   -0.000000    0.000087 Ang=   0.01 deg.
 Keep J ints in memory in canonical form, NReq=329175655.
 Requested convergence on RMS density matrix=1.00D-08 within 128 cycles.
 Requested convergence on MAX density matrix=1.00D-06.
 Requested convergence on             energy=1.00D-06.
 No special actions if energy rises.
 EnCoef did     2 forward-backward iterations
 SCF Done:  E(RPBE-PBE) =  -491.948216633     A.U. after   11 cycles
            NFock= 11  Conv=0.79D-08     -V/T= 2.0096
 Calling FoFJK, ICntrl=      2527 FMM=F ISym2X=0 I1Cent= 0 IOpClX= 0 NMat=1 NMatS=1 NMatT=0.
 ***** Axes restored to original set *****
 -------------------------------------------------------------------
 Center     Atomic                   Forces (Hartrees/Bohr)
 Number     Number              X              Y              Z
 -------------------------------------------------------------------
      1        6           0.000425563    0.000122747    0.000001644
      2        6          -0.000532711   -0.000226250    0.000002059
      3        6           0.000495471   -0.000060563    0.000001456
      4        6          -0.000309665    0.000054508   -0.000000168
      5        6           0.000342307    0.000007530    0.000000201
      6        6          -0.000308143   -0.000042745   -0.000000142
      7        7          -0.000308308   -0.000019458    0.000000015
      8        7          -0.000132253    0.002120269   -0.000013816
      9        8           0.000559864   -0.001418547    0.000003282
     10        8          -0.000342321   -0.000683758    0.000005297
     11        1          -0.000101154   -0.000128981   -0.000000049
     12        1          -0.000096611    0.000135796    0.000000148
     13        1           0.000098914    0.000109873   -0.000000274
     14        1           0.000100329   -0.000109805   -0.000000311
     15        1           0.000108612   -0.000122656    0.000000006
     16        1           0.000104019    0.000119824   -0.000000029
     17        1          -0.000103911    0.000142215    0.000000680
 -------------------------------------------------------------------
 Cartesian Forces:  Max     0.002120269 RMS     0.000415248

 GradGradGradGradGradGradGradGradGradGradGradGradGradGradGradGradGradGrad
 Berny optimization.
 Using GEDIIS/GDIIS optimizer.
 FormGI is forming the generalized inverse of G from B-inverse, IUseBI=4.
 GSVD:  received Info=                   1 from GESDD.
 Internal  Forces:  Max     0.001348720 RMS     0.000199635
 Search for a local minimum.
 Step number   3 out of a maximum of   86
 All quantities printed in internal units (Hartrees-Bohrs-Radians)
 Mixed Optimization -- En-DIIS/RFO-DIIS
 Swapping is turned off.
 Update second derivatives using D2CorX and points    1    2    3
 DE= -3.06D-05 DEPred=-2.39D-05 R= 1.28D+00
 TightC=F SS=  1.41D+00  RLast= 1.18D-02 DXNew= 5.0454D-01 3.5375D-02
 Trust test= 1.28D+00 RLast= 1.18D-02 DXMaxT set to 3.00D-01
 ITU=  1  1  0
     Eigenvalues ---    0.01652   0.01699   0.01815   0.01919   0.01988
     Eigenvalues ---    0.01998   0.02036   0.02129   0.02134   0.02142
     Eigenvalues ---    0.02259   0.02276   0.02540   0.02540   0.14401
     Eigenvalues ---    0.16000   0.16000   0.16000   0.16000   0.16001
     Eigenvalues ---    0.16242   0.21492   0.22015   0.23241   0.24784
     Eigenvalues ---    0.25000   0.25008   0.25840   0.34817   0.35422
     Eigenvalues ---    0.35503   0.35657   0.36180   0.38172   0.39569
     Eigenvalues ---    0.41346   0.43271   0.45773   0.46100   0.48902
     Eigenvalues ---    0.51544   0.52648   0.55141   0.58896   1.00511
 En-DIIS/RFO-DIIS IScMMF=        0 using points:     3    2
 RFO step:  Lambda=-5.41022128D-06.
 DidBck=F Rises=F RFO-DIIS coefs:    1.38578   -0.38578
 Iteration  1 RMS(Cart)=  0.00084288 RMS(Int)=  0.00000070
 Iteration  2 RMS(Cart)=  0.00000114 RMS(Int)=  0.00000011
 Iteration  3 RMS(Cart)=  0.00000000 RMS(Int)=  0.00000011
 Variable       Old X    -DE/DX   Delta X   Delta X   Delta X     New X
                                 (Linear)    (Quad)   (Total)
    R1        2.69964  -0.00018  -0.00075   0.00002  -0.00073   2.69891
    R2        2.59676   0.00008  -0.00029   0.00062   0.00033   2.59709
    R3        2.06487  -0.00016   0.00003  -0.00047  -0.00044   2.06443
    R4        2.69903  -0.00027  -0.00091  -0.00017  -0.00108   2.69795
    R5        2.60659  -0.00001   0.00095  -0.00046   0.00049   2.60708
    R6        2.59922   0.00009  -0.00030   0.00064   0.00034   2.59956
    R7        2.06244  -0.00017   0.00003  -0.00048  -0.00045   2.06199
    R8        2.71412  -0.00015  -0.00060   0.00003  -0.00057   2.71356
    R9        2.06706  -0.00014   0.00003  -0.00040  -0.00037   2.06669
   R10        2.71507  -0.00014  -0.00070   0.00012  -0.00058   2.71449
   R11        2.53991   0.00010   0.00006   0.00035   0.00041   2.54031
   R12        2.06715  -0.00015   0.00004  -0.00042  -0.00038   2.06678
   R13        1.92509  -0.00016   0.00007  -0.00038  -0.00031   1.92478
   R14        1.92503  -0.00016   0.00006  -0.00038  -0.00031   1.92472
   R15        2.62289   0.00135   0.00266   0.00204   0.00470   2.62759
   R16        2.31416  -0.00076   0.00018  -0.00107  -0.00089   2.31327
   R17        1.86951  -0.00007   0.00091  -0.00067   0.00024   1.86975
    A1        2.08321  -0.00011  -0.00059  -0.00025  -0.00084   2.08236
    A2        2.08605   0.00008   0.00070   0.00002   0.00072   2.08677
    A3        2.11393   0.00004  -0.00011   0.00023   0.00012   2.11405
    A4        2.11459   0.00021   0.00120   0.00033   0.00153   2.11612
    A5        2.05106  -0.00008  -0.00074   0.00005  -0.00069   2.05037
    A6        2.11753  -0.00013  -0.00046  -0.00037  -0.00084   2.11669
    A7        2.07935  -0.00012  -0.00070  -0.00023  -0.00093   2.07841
    A8        2.10114   0.00008   0.00083  -0.00009   0.00074   2.10187
    A9        2.10270   0.00005  -0.00012   0.00032   0.00020   2.10290
   A10        2.10453  -0.00001  -0.00026   0.00017  -0.00008   2.10444
   A11        2.09206  -0.00003  -0.00052   0.00009  -0.00043   2.09163
   A12        2.08660   0.00004   0.00078  -0.00026   0.00052   2.08711
   A13        2.08332   0.00006   0.00074  -0.00017   0.00057   2.08389
   A14        2.10047  -0.00004  -0.00036   0.00002  -0.00033   2.10014
   A15        2.09939  -0.00002  -0.00038   0.00014  -0.00024   2.09915
   A16        2.10137  -0.00003  -0.00038   0.00015  -0.00024   2.10114
   A17        2.09382  -0.00002  -0.00041   0.00006  -0.00036   2.09347
   A18        2.08799   0.00005   0.00079  -0.00020   0.00059   2.08858
   A19        2.12129  -0.00002  -0.00019  -0.00002  -0.00021   2.12107
   A20        2.12199  -0.00002  -0.00016  -0.00001  -0.00017   2.12182
   A21        2.03991   0.00003   0.00036   0.00003   0.00039   2.04029
   A22        1.99673  -0.00021   0.00008  -0.00132  -0.00124   1.99549
   A23        2.21398   0.00022   0.00077   0.00064   0.00141   2.21539
   A24        2.07248  -0.00001  -0.00085   0.00068  -0.00017   2.07231
   A25        1.80412  -0.00030  -0.00097  -0.00200  -0.00297   1.80115
    D1        0.00001  -0.00000   0.00001  -0.00005  -0.00004  -0.00003
    D2       -3.14159  -0.00000  -0.00000  -0.00001  -0.00001   3.14159
    D3       -3.14159  -0.00000   0.00000  -0.00002  -0.00002   3.14158
    D4       -0.00000   0.00000  -0.00000   0.00002   0.00002   0.00001
    D5       -0.00000   0.00000  -0.00000   0.00002   0.00002   0.00001
    D6        3.14159   0.00000  -0.00001   0.00003   0.00002  -3.14158
    D7       -3.14159  -0.00000   0.00000  -0.00001  -0.00001   3.14159
    D8        0.00000   0.00000  -0.00000   0.00000   0.00000   0.00000
    D9       -0.00001   0.00000  -0.00001   0.00005   0.00004   0.00003
   D10        3.14158   0.00000  -0.00000   0.00003   0.00002  -3.14158
   D11        3.14159   0.00000   0.00000   0.00000   0.00000  -3.14159
   D12       -0.00000  -0.00000   0.00000  -0.00002  -0.00001  -0.00001
   D13       -3.14154  -0.00000   0.00004  -0.00029  -0.00025   3.14140
   D14       -0.00007   0.00000  -0.00003   0.00026   0.00022   0.00015
   D15        0.00004  -0.00000   0.00003  -0.00025  -0.00021  -0.00017
   D16        3.14151   0.00000  -0.00004   0.00030   0.00026  -3.14141
   D17        0.00000  -0.00000   0.00000  -0.00002  -0.00002  -0.00001
   D18       -3.14159  -0.00000   0.00000  -0.00002  -0.00002   3.14158
   D19       -3.14159  -0.00000  -0.00000  -0.00000  -0.00000  -3.14159
   D20        0.00000  -0.00000   0.00000  -0.00001  -0.00000  -0.00000
   D21        0.00000  -0.00000   0.00000  -0.00000  -0.00000  -0.00000
   D22       -3.14159  -0.00000   0.00000  -0.00000  -0.00000   3.14159
   D23       -3.14159   0.00000   0.00000  -0.00000  -0.00000  -3.14159
   D24        0.00000   0.00000   0.00000  -0.00000   0.00000   0.00000
   D25       -0.00000   0.00000   0.00000   0.00000   0.00000   0.00000
   D26       -3.14159  -0.00000   0.00000  -0.00000  -0.00000   3.14159
   D27        3.14159   0.00000   0.00000   0.00000   0.00000  -3.14159
   D28        0.00000  -0.00000   0.00000  -0.00000  -0.00000  -0.00000
   D29       -3.14159   0.00000  -0.00000  -0.00000  -0.00000  -3.14159
   D30        0.00000  -0.00000  -0.00000  -0.00000  -0.00000   0.00000
   D31        0.00000  -0.00000  -0.00000  -0.00000  -0.00000   0.00000
   D32       -3.14159  -0.00000  -0.00000  -0.00000  -0.00000  -3.14159
   D33        3.14151   0.00000  -0.00003   0.00030   0.00027  -3.14141
   D34        0.00003  -0.00000   0.00004  -0.00020  -0.00016  -0.00013
         Item               Value     Threshold  Converged?
 Maximum Force            0.001349     0.000450     NO 
 RMS     Force            0.000200     0.000300     YES
 Maximum Displacement     0.004180     0.001800     NO 
 RMS     Displacement     0.000843     0.001200     YES
 Predicted change in Energy=-5.237366D-06
 GradGradGradGradGradGradGradGradGradGradGradGradGradGradGradGradGradGrad

                          Input orientation:                          
 ---------------------------------------------------------------------
 Center     Atomic      Atomic             Coordinates (Angstroms)
 Number     Number       Type             X           Y           Z
 ---------------------------------------------------------------------
      1          6           0       -0.057195    1.268286   -0.000044
      2          6           0        0.670218    0.039208   -0.000098
      3          6           0       -0.003046   -1.219769   -0.000071
      4          6           0       -1.378486   -1.242523   -0.000027
      5          6           0       -2.129271   -0.018480    0.000009
      6          6           0       -1.431156    1.236912    0.000000
      7          7           0       -3.473254   -0.046501    0.000050
      8          7           0        2.047750    0.114798   -0.000145
      9          8           0        2.689231   -1.118847    0.000051
     10          8           0        2.728575    1.132132    0.000004
     11          1           0        0.486027    2.216102   -0.000054
     12          1           0        0.566027   -2.150779   -0.000099
     13          1           0       -1.906921   -2.200027   -0.000022
     14          1           0       -1.998613    2.171874    0.000025
     15          1           0       -4.023858    0.810399    0.000076
     16          1           0       -3.988307   -0.925193    0.000058
     17          1           0        3.648108   -0.874866    0.000163
 ---------------------------------------------------------------------
                    Distance matrix (angstroms):
                    1          2          3          4          5
     1  C    0.000000
     2  C    1.428202   0.000000
     3  C    2.488644   1.427693   0.000000
     4  C    2.837247   2.416613   1.375628   0.000000
     5  C    2.439112   2.800083   2.442115   1.435952   0.000000
     6  C    1.374319   2.418732   2.841615   2.479995   1.436446
     7  N    3.660345   4.144358   3.663182   2.412162   1.344275
     8  N    2.400277   1.379605   2.446800   3.685297   4.179147
     9  O    3.638855   2.327554   2.694168   4.069596   4.942547
    10  O    2.789096   2.330519   3.604608   4.744148   4.992252
    11  H    1.092449   2.184672   3.470504   3.929185   3.439933
    12  H    3.475401   2.192464   1.091157   2.146173   3.436761
    13  H    3.930736   3.414062   2.141412   1.093644   2.192849
    14  H    2.141396   3.416273   3.935165   3.470254   2.194248
    15  H    3.993004   4.757004   4.504277   3.348505   2.067970
    16  H    4.501666   4.757302   3.996133   2.629043   2.068367
    17  H    4.280464   3.115022   3.667409   5.040022   5.840506
                    6          7          8          9         10
     6  C    0.000000
     7  N    2.411912   0.000000
     8  N    3.655397   5.523360   0.000000
     9  O    4.746282   6.255090   1.390460   0.000000
    10  O    4.161051   6.312834   1.224130   2.251324   0.000000
    11  H    2.152766   4.560184   2.618102   3.996998   2.490786
    12  H    3.932581   4.554534   2.707091   2.360694   3.931173
    13  H    3.469713   2.662907   4.582340   4.721606   5.708863
    14  H    1.093691   2.663786   4.539231   5.727542   4.840184
    15  H    2.627550   1.018550   6.111325   6.984809   6.760094
    16  H    3.348690   1.018518   6.124995   6.680345   7.024891
    17  H    5.500776   7.169379   1.881643   0.989430   2.207620
                   11         12         13         14         15
    11  H    0.000000
    12  H    4.367613   0.000000
    13  H    5.022787   2.473439   0.000000
    14  H    2.485034   5.026202   4.372862   0.000000
    15  H    4.723882   5.462200   3.680229   2.440334   0.000000
    16  H    5.466936   4.716356   2.440772   3.681128   1.735956
    17  H    4.421859   3.335742   5.710902   6.416237   7.854883
                   16         17
    16  H    0.000000
    17  H    7.636581   0.000000
 Stoichiometry    C6H7N2O2(1+)
 Framework group  C1[X(C6H7N2O2)]
 Deg. of freedom    45
 Full point group                 C1      NOp   1
 Largest Abelian subgroup         C1      NOp   1
 Largest concise Abelian subgroup C1      NOp   1
                         Standard orientation:                         
 ---------------------------------------------------------------------
 Center     Atomic      Atomic             Coordinates (Angstroms)
 Number     Number       Type             X           Y           Z
 ---------------------------------------------------------------------
      1          6           0        0.059531    1.268100    0.000025
      2          6           0       -0.667852    0.039005    0.000078
      3          6           0        0.005442   -1.219956    0.000051
      4          6           0        1.380882   -1.242677    0.000007
      5          6           0        2.131638   -0.018617   -0.000029
[...]
 ! D29   D(4,5,7,15)           180.0            -DE/DX =    0.0                 !
 ! D30   D(4,5,7,16)             0.0            -DE/DX =    0.0                 !
 ! D31   D(6,5,7,15)             0.0            -DE/DX =    0.0                 !
 ! D32   D(6,5,7,16)          -180.0            -DE/DX =    0.0                 !
 ! D33   D(2,8,9,17)          -180.022          -DE/DX =    0.0                 !
 ! D34   D(10,8,9,17)            0.0155         -DE/DX =    0.0                 !
 --------------------------------------------------------------------------------
 GradGradGradGradGradGradGradGradGradGradGradGradGradGradGradGradGradGrad

 1\1\ WCSS.PL-BEM-QINLAB\Freq\RPBEPBE\6-31+G(d,p)\C6H7N2O2(1+)\PHZD\13-
 Jun-2024\0\\#N Geom=AllCheck Guess=TCheck SCRF=Check GenChk RPBEPBE/6-
 31+G(d,p) Freq\\[No Title]\\1,1\C,-0.0572842632,1.2683515511,0.0000664
 961\C,0.6702343522,0.0392541076,0.0001626279\C,-0.0030891785,-1.219775
 7378,0.0001118643\C,-1.3785685333,-1.2424841152,0.0000408346\C,-2.1293
 636026,-0.018458684,-0.0000146091\C,-1.4312717203,1.2369499973,-0.0000
 020415\N,-3.4733641,-0.04649767,-0.0000777443\N,2.0477052396,0.1151451
 613,0.0002364197\O,2.6899432209,-1.1190500059,-0.000160102\O,2.7285104
 301,1.1320152998,-0.0000969482\H,0.4858539476,2.2161598417,0.000082534
 \H,0.5659058908,-2.1507400353,0.0001544099\H,-1.9070633295,-2.19991252
 86,0.000031468\H,-1.9987805546,2.1718342712,-0.0000384349\H,-4.0239410
 952,0.8103725641,-0.0001178361\H,-3.9883453327,-0.9251836036,-0.000087
 114\H,3.6487476288,-0.8752554136,-0.0004138245\\Version=ES64L-G09RevE.
 01\State=1-A\HF=-491.9482233\RMSD=5.006e-09\RMSF=7.116e-05\ZeroPoint=0
 .1287155\Thermal=0.1374449\Dipole=-1.5143147,-0.3998222,-0.0001335\Dip
 oleDeriv=0.6220457,0.0041141,0.0000144,-0.3395079,0.0340366,-0.0000051
 ,0.0000123,0.0000028,-0.0323091,-1.3119416,-0.0649105,0.0000487,0.0239
 821,-0.0555377,-0.0000039,0.0001902,-0.000036,0.0755859,0.6242533,0.05
 00899,0.0000112,0.3431829,0.0491094,0.0000022,0.000026,0.0000197,-0.02
 03468,-0.6207231,0.0907739,-0.0000066,0.5875819,-0.0167041,0.000014,-0
 .0000773,-0.0000064,-0.1286425,1.8767686,0.0411331,0.0000466,0.0317414
 ,0.3245666,-0.0000023,0.0000803,0.0000051,0.2110226,-0.5850685,-0.1343
 681,-0.0000022,-0.5954387,-0.062839,-0.0000157,-0.0000567,-0.0000067,-
 0.1250497,-1.762164,-0.0431943,-0.0000316,-0.0329949,-0.1623454,-0.000
 0047,-0.0000619,-0.0000067,-0.42147,2.9366852,-0.0074732,-0.0000769,0.
 2073278,1.3324335,0.0001466,-0.0014471,0.0000841,0.1894007,-1.017138,0
 .4831126,0.000061,0.9169208,-0.7051737,-0.0000304,0.0006168,-0.0002432
 ,-0.2225111,-1.2744282,-0.3007294,-0.0000288,-1.0279507,-0.6816775,-0.
 0001157,0.0007536,0.0001745,-0.1241465,0.077231,-0.02061,-0.0000022,0.
 0209438,0.1095514,0.0000028,0.000007,-0.000003,0.1451144,0.0851691,0.0
 130448,-0.0000041,-0.0090735,0.1026363,0.,0.0000088,0.0000043,0.145295
 3,0.0364777,-0.0347713,-0.0000026,-0.0144279,0.0503521,-0.0000024,0.00
 00134,-0.0000037,0.1491145,0.0337869,0.0357313,-0.0000041,0.0113411,0.
 0549707,0.000006,0.0000201,0.0000052,0.1499561,0.3408205,-0.0583051,-0
 .000001,-0.2120755,0.1919211,-0.0000026,0.0000041,-0.0000016,0.3218149
 ,0.3295965,0.0653389,-0.0000032,0.2173546,0.2065745,0.0000065,-0.00000
 15,0.0000061,0.3213316,0.6086288,-0.1189768,-0.0000185,-0.128907,0.228
 1251,0.0000048,-0.0000883,0.0000056,0.3658398\Polar=198.4108805,3.7653
 343,92.0862898,0.0000178,-0.0002372,45.7387197\PG=C01 [X(C6H7N2O2)]\NI
 mag=0\\0.73395798,0.05341997,0.65956725,0.00003463,-0.00000948,0.12378
 426,-0.11504471,0.07708920,-0.00000330,0.61543835,0.05087624,-0.250098
 83,0.00001115,0.00689095,0.67133019,-0.00000951,0.00000951,-0.05243971
 ,-0.00000077,-0.00000637,0.11552872,0.02988450,-0.00508076,0.00000261,
 -0.11170200,-0.04640443,-0.00000799,0.72786053,0.00806402,-0.04374668,
 0.00000234,-0.07181974,-0.25865579,-0.00000352,-0.05245812,0.66273866,
 0.00000225,-0.00000061,0.00485482,-0.00000043,-0.00000414,-0.05176037,
 0.00003518,-0.00000657,0.12436680,-0.02011644,0.01552210,-0.00000212,-
 0.03922377,-0.04047492,-0.00000139,-0.41078425,0.01248163,-0.00002058,
 0.73494535,0.00744416,-0.00669616,0.00000070,-0.02068805,0.01077474,-0
 .00000332,-0.02547307,-0.11265593,-0.00000190,0.05225153,0.64637430,-0
 .00000118,0.00000161,-0.00071867,-0.00000386,-0.00000242,0.00501838,-0
 .00001877,0.00000154,-0.04984111,0.00003172,-0.00000332,0.11331730,-0.
 03349215,-0.02881167,-0.00000017,0.01765626,0.00053307,0.00000065,-0.0
 3661791,0.02631656,-0.00000150,-0.13052029,0.07663347,-0.00000443,0.74
 758168,-0.04682455,0.02055078,-0.00000398,0.00116521,-0.02459970,-0.00
 000016,0.04488655,0.02329908,0.00000318,0.03872725,-0.24190997,0.00000
 301,0.00197112,0.62916192,0.00000086,-0.00000311,-0.00035216,0.0000014
 6,0.00000011,-0.00732080,-0.00000093,0.00000266,-0.00019960,-0.0000057
 2,0.00000662,-0.06337431,0.00002906,-0.00000729,0.15591526,-0.41469786
 ,-0.02394031,-0.00002007,-0.04208476,0.03826258,-0.00000282,-0.0191125
 5,-0.01584153,-0.00000137,0.03538228,-0.00100925,0.00000212,-0.1253255
 3,-0.03360988,-0.00000445,0.74213053,0.01320279,-0.11261290,0.00000352
 ,0.01835863,0.01380900,0.00000327,-0.00822601,-0.00763152,-0.00000049,
 0.00389707,-0.03417677,0.00000054,-0.07146917,-0.24631606,-0.00000079,
 -0.04953343,0.64174421,-0.00001925,-0.00000006,-0.04904139,-0.00000468
 ,0.00000173,0.00420659,-0.00000078,-0.00000138,-0.00074498,0.00000201,
 0.00000077,0.00486522,-0.00000192,0.00000287,-0.06323169,0.00003256,-0
 .00001235,0.11321397,0.01336802,-0.00300034,0.00000012,-0.01858951,0.0
 0015505,0.00000055,0.01332597,0.00374177,0.00000012,-0.04880619,0.0184
 7669,-0.00000338,-0.40935798,-0.00571768,-0.00001780,-0.04630073,-0.02
 042902,-0.00000248,0.81177905,0.00284874,-0.00871975,0.00000064,-0.000
 45310,0.00136967,0.00000016,-0.00209309,-0.00860791,-0.00000028,0.0438
 1894,0.00353521,0.00000262,-0.00572323,-0.13076608,0.00000108,-0.04580
 481,0.00084996,-0.00000246,-0.00014663,0.82333185,0.00000005,0.0000003
 3,0.00332161,-0.00000078,0.00000002,-0.00064220,0.00000018,0.00000005,
 0.00334631,-0.00000311,0.00000080,0.00844893,-0.00001741,0.00000111,-0
 .04078901,-0.00000150,-0.00000062,0.00842265,0.00003658,-0.00001307,0.
 04027483,-0.05909163,0.02895110,-0.00000817,-0.24794205,-0.00901968,-0
 .00001363,-0.04688959,-0.02722410,-0.00000937,0.01685139,-0.00974783,0
 .00000239,-0.01913048,-0.00049957,-0.00000147,0.01650590,0.01045234,0.
 00000234,0.01849750,0.00034342,0.00000088,0.78803645,0.02977731,0.0100
 7666,0.00000089,0.00233567,-0.11731846,0.00000083,-0.03379441,0.008284
 67,-0.00000501,-0.00369650,-0.00825245,-0.00000034,-0.00075479,-0.0054
 8009,0.,0.00473175,-0.00567285,0.00000176,0.00104157,0.00069378,-0.000
 00001,0.16580437,0.65640026,-0.00000071,0.00000019,-0.00507155,0.00001
 870,0.00000080,-0.05489234,-0.00000002,-0.00000047,-0.00905615,0.00000
 155,0.00000282,0.00513002,0.00000249,0.00000163,-0.00161343,0.00000108
 ,-0.00000336,0.00482929,-0.00000465,-0.00000053,-0.00021560,-0.0001253
 9,-0.00006954,0.16588558,-0.00136335,-0.00865360,0.00000264,-0.0327345
 2,0.04700392,0.00001651,-0.00267773,0.00281939,0.00000068,-0.00166554,
 0.00147883,-0.00000046,0.00406045,0.00330240,0.00000052,-0.00399998,0.
 00044794,-0.00000142,-0.00413104,-0.00081905,-0.00000020,-0.16007139,0
 .03481440,0.00002736,0.57622482,-0.00655540,0.00432268,-0.00000224,0.0
 2561669,-0.00038490,-0.00001022,-0.00593706,-0.00395179,0.00000094,0.0
 0316618,-0.00175909,0.00000087,-0.00425700,-0.00119369,-0.00000031,0.0
 0257612,0.00343613,0.00000040,0.00469580,0.00060471,0.00000019,-0.0074
 7186,-0.12871821,0.00000894,0.07343175,0.29725679,-0.00000074,0.000001
 86,0.00403947,-0.00000072,-0.00000552,0.00632229,0.00000058,-0.0000007
 7,0.00063475,0.00000040,-0.00000093,-0.00069771,-0.00000175,-0.0000015
 0,-0.00001445,0.00000055,0.00000131,0.00025689,0.00000241,0.00000049,0
 .00010279,0.00003443,-0.00003051,-0.04209950,-0.00014025,0.00000079,0.
 01963910,0.00380491,-0.00588736,-0.00000062,-0.04270942,-0.04966427,0.
 00001743,0.00044367,0.00938663,0.00000442,-0.00508540,0.00098535,-0.00
 000132,0.00560221,-0.00328676,0.00000091,-0.00228036,-0.00278023,-0.00
 000025,-0.00595561,0.00063480,-0.00000039,-0.27705644,-0.20665375,0.00
 007056,0.03900160,0.00311185,-0.00000515,0.28415518,0.01144596,-0.0064
 2223,0.00000009,-0.03955084,-0.00797289,0.00001104,0.00490699,0.004429
 42,0.00000403,-0.00288274,0.00419405,-0.00000091,0.00527499,-0.0009370
 3,0.00000038,-0.00337528,-0.00214113,-0.00000110,-0.00575496,0.0005224
 6,-0.00000022,-0.21472835,-0.41747895,0.00007739,-0.01312447,-0.090482
 98,0.00000807,0.26288906,0.51412558,-0.00000157,0.00000124,-0.00063020
 ,-0.00000290,0.00000485,0.01190633,0.00000004,-0.00000137,0.00867638,-
 0.00000026,-0.00000122,-0.00070430,-0.00000194,-0.00000005,0.00027427,
 0.00000050,0.00000157,-0.00056217,0.00000275,-0.00000007,0.00005825,0.
 00009414,0.00010178,-0.06091269,-0.00000700,-0.00001006,0.01782024,-0.
 00008217,-0.00010066,0.02807185,-0.12024194,-0.12164892,-0.00000341,0.
 01022875,0.01425078,0.00000066,-0.00209770,0.00305020,-0.00000020,-0.0
 0057590,0.00036923,0.00000003,-0.00450400,0.00124892,-0.00000117,-0.00
 982629,-0.02475009,-0.00000071,-0.00027883,-0.00143211,0.00000013,0.00
 267834,0.00258799,-0.00000112,0.00013675,-0.00100871,0.00000017,-0.003
 04365,-0.00113809,0.00000083,0.12627027,-0.12071479,-0.26936472,-0.000
 00288,-0.01164353,-0.01668344,-0.00000086,0.00362143,-0.00201492,0.000
 00058,0.00020568,0.00050142,-0.00000004,0.00137206,0.00033034,0.000000
 33,0.00242563,0.00573962,0.00000023,0.00029689,0.00047956,0.,-0.003214
 09,-0.00295787,0.00000100,0.00007648,0.00037174,-0.00000006,0.00001329
 ,0.00283706,-0.00000080,0.12797850,0.28060214,-0.00000408,-0.00000265,
 -0.03635229,0.00000236,0.00000089,0.00316551,-0.00000082,0.00000040,0.
 00306129,-0.00000006,-0.00000022,-0.00109019,-0.00000085,0.00000005,0.
 00972647,-0.00000052,-0.00000157,0.00527476,0.00000008,-0.00000006,-0.
 00038121,-0.00000097,0.00000001,-0.00221617,0.,0.,-0.00025903,0.000000
 28,0.00000032,0.00018594,0.00000428,0.00000279,0.02397787,-0.00180865,
 -0.00323795,-0.00000017,0.00991014,-0.01366097,0.00000125,-0.12824978,
 0.12752049,-0.00000748,-0.01076661,0.02441462,-0.00000143,-0.00456430,
 -0.00138709,-0.00000096,-0.00052457,-0.00034904,0.,-0.00025574,0.00142
 826,0.00000005,0.00363603,-0.00107316,-0.00000157,-0.00529946,-0.00025
 273,0.00000153,-0.00040254,0.00049739,0.00000047,0.00064367,-0.0007072
 3,-0.00000002,0.13701329,-0.00364735,-0.00219665,-0.00000047,0.0127271
 5,-0.01607752,0.00000143,0.12618225,-0.26417413,0.00000980,-0.00293071
 ,0.00635949,-0.00000038,-0.00155896,0.00025663,-0.00000009,-0.00020852
 ,0.00050383,-0.00000002,-0.00026730,0.00049955,-0.00000001,0.00292869,
 -0.00185012,-0.00000116,0.00021797,0.00113539,0.00000030,-0.00044948,0
 .00023095,0.00000032,0.00075763,-0.00062364,0.00000009,-0.13353685,0.2
 7430231,-0.00000065,-0.00000025,0.00319613,0.00000206,-0.00000014,0.00
 247790,-0.00000800,0.00000871,-0.03589353,-0.00000045,0.00000153,0.005
 40376,-0.00000093,0.00000050,0.00960333,-0.00000017,0.00000014,-0.0010
 4978,0.00000016,0.,-0.00036672,-0.00000115,-0.00000018,-0.00233748,0.0
 0000095,-0.00000025,0.00090596,0.00000021,0.00000016,0.00006392,-0.000
 00010,-0.00000003,0.00103754,0.00000793,-0.00001003,0.02343555,-0.0005
 9708,0.00043664,-0.00000011,-0.00421983,0.00183567,-0.00000106,-0.0117
 2545,-0.02676043,-0.00000110,-0.11695602,-0.11618620,-0.00000167,0.009
 13369,0.01570999,0.00000021,-0.00194275,0.00289011,-0.00000016,0.00221
 046,0.00069419,0.00000013,-0.00000178,-0.00192431,0.00000032,-0.000090
 87,0.00000519,-0.00000001,-0.00071722,0.00008926,0.00000007,0.00005140
 ,-0.00008685,0.00000002,0.00093904,-0.00021028,0.00000034,0.12365011,0
 .00083397,-0.00000488,0.00000008,0.00125582,0.00141394,0.00000030,0.00
 172700,0.00398772,0.00000019,-0.11692999,-0.26808896,-0.00000244,-0.01
 366474,-0.01729536,-0.00000061,0.00353747,-0.00209219,0.00000022,-0.00
 133373,0.00173055,-0.00000007,-0.00007559,0.00039849,0.00000028,-0.000
 02554,-0.00006418,-0.00000003,0.00036003,0.00019987,-0.00000021,-0.000
 06947,0.00000364,0.,0.00017567,0.00082554,-0.00000019,0.12321656,0.280
 10786,-0.00000015,0.00000009,-0.00066481,-0.00000206,-0.00000055,0.007
 81101,-0.00000048,-0.00000154,0.00304198,-0.00000155,-0.00000199,-0.03
 226018,-0.00000002,0.00000126,0.00280643,-0.00000042,0.00000040,0.0037
 1052,0.00000045,0.00000003,-0.00188540,0.00000125,0.00000034,0.0021247
 6,0.00000008,-0.00000008,0.00007064,-0.00000054,-0.00000047,-0.0013320
 3,0.,-0.00000002,-0.00045738,0.00000041,0.00000003,-0.00517293,0.00000
 311,0.00000241,0.02199417,-0.01265146,0.02607675,-0.00000203,-0.004085
 13,-0.00201969,-0.00000103,-0.00055768,-0.00045660,-0.00000007,-0.0016
 5904,-0.00289039,-0.00000005,0.00914150,-0.01446432,0.00000066,-0.1269
 0630,0.12207065,-0.00000531,0.00223112,-0.00067617,0.00000015,-0.00002
 898,0.00156810,0.00000036,-0.00085343,-0.00007591,0.00000008,-0.000012
 24,0.00011209,-0.00000011,0.00098715,0.00019442,0.00000031,0.00004302,
 0.00008419,0.00000001,0.00061579,-0.00070933,0.00000002,0.13421381,-0.
 00234525,0.00502002,-0.00000033,-0.00152558,0.00129337,-0.00000024,-0.
 00083151,-0.00005297,-0.00000008,-0.00352839,-0.00232080,-0.00000005,0
 .01475991,-0.01727629,0.00000128,0.12276881,-0.25829884,0.00000919,0.0
 0137522,0.00172414,-0.00000003,0.00021869,0.00044172,-0.00000024,-0.00
 041653,0.00021736,0.00000018,-0.00000856,-0.00013240,0.00000006,-0.000
 17371,0.00080380,0.00000002,0.00006471,0.00000594,-0.00000002,0.000765
 09,-0.00075621,0.00000006,-0.12943626,0.26973404,-0.00000046,0.0000013
 0,0.00305106,-0.00000203,0.00000075,0.00797629,-0.00000020,-0.00000016
 ,-0.00066100,-0.00000023,-0.00000021,0.00371872,-0.00000060,-0.0000005
 4,0.00279510,-0.00000497,0.00000853,-0.03242268,0.00000042,-0.00000013
 ,-0.00186274,0.00000078,0.00000035,0.00188348,-0.00000008,0.00000002,-
 0.00085755,0.00000003,0.,0.00008469,0.00000052,-0.00000018,-0.00522491
 ,0.00000003,0.00000001,-0.00049861,-0.00000001,-0.00000002,0.00006957,
 0.00000703,-0.00000973,0.02207606,-0.00036973,-0.00009272,-0.00000004,
 0.00105472,0.00005839,-0.00000019,-0.00039698,0.00173040,-0.00000014,-
 0.00375830,-0.00340495,-0.00000038,-0.01468992,0.02971412,-0.00000106,
 0.00196823,0.00200050,0.00000031,-0.17130278,0.16450636,-0.00001043,-0
 .00123350,-0.00027562,0.00000098,0.00045544,-0.00051043,-0.00000037,0.
 00047770,0.00055243,-0.00000041,0.00005215,-0.00005761,-0.00000003,-0.
 00038065,-0.00012256,0.,0.00000412,0.00017835,0.00000001,-0.00047806,-
 0.00151369,-0.00000007,0.17507395,0.00129015,-0.00082162,0.00000010,-0
 .00181599,0.00020255,0.00000030,0.00092468,0.00045370,0.00000009,-0.00
 281083,0.00176201,-0.00000021,0.00102650,0.00695947,-0.00000017,-0.003
 60198,0.00164643,-0.00000029,0.16300186,-0.33705830,0.00001340,0.00236
 526,0.00036316,-0.00000145,-0.00047004,0.00068559,0.00000050,-0.000967
 08,-0.00119010,0.00000074,-0.00010060,0.00004881,0.00000001,-0.0000491
 4,-0.00002151,0.00000003,-0.00016084,0.00019064,0.,0.00028159,-0.00064
 832,0.,-0.17649632,0.34021893,0.00000017,-0.00000018,-0.00054805,0.000
 00015,0.00000041,0.00019097,-0.00000056,-0.00000031,0.00157394,0.00000
 020,-0.00000032,0.00610801,-0.00000055,0.00000130,-0.00233359,-0.00000
 005,-0.00000002,-0.00361655,-0.00001043,0.00001355,-0.00884845,-0.0000
 0022,-0.00000013,-0.00014781,0.00000001,0.00000001,0.00014774,0.000000
 11,0.00000004,0.00003459,-0.00000008,0.,0.00039885,0.00000011,0.,-0.00
 090402,0.00000002,0.00000006,-0.00044014,-0.00000009,0.,0.00057923,0.0
 0001079,-0.00001389,0.00943659,-0.00029380,-0.00176946,-0.00000009,0.0
 0097498,-0.00007859,-0.00000010,-0.00035298,0.00011572,-0.00000005,0.0
 0187666,-0.00197600,0.00000037,-0.01345166,-0.03064198,-0.00000005,-0.
 00399010,0.00316465,-0.00000048,-0.15808351,-0.15721589,-0.00000436,-0
 .00115487,-0.00015124,0.00000081,0.00026532,-0.00033734,-0.00000024,0.
 00061494,0.00071335,-0.00000043,-0.00037653,0.00011110,0.00000001,0.00
 004622,0.00005444,-0.00000004,-0.00038694,0.00155201,-0.00000010,0.000
 00483,-0.00018619,0.00000001,0.01368780,0.01734520,0.00000042,0.160768
 03,-0.00095362,0.00036027,-0.00000003,0.00186100,0.00012744,-0.0000003
 3,-0.00126264,-0.00084658,-0.00000009,0.00358516,0.00167407,0.00000015
 ,-0.00183262,0.00564476,-0.00000014,0.00256746,0.00200021,0.00000031,-
 0.15573740,-0.35032866,-0.00000181,-0.00242869,-0.00038894,0.00000153,
 0.00062718,-0.00082525,-0.00000057,0.00088266,0.00108418,-0.00000072,0
 .00004339,-0.00002575,-0.00000005,0.00008320,0.00004419,-0.00000001,-0
 .00030245,-0.00057930,0.,0.00015728,0.00019205,-0.00000002,-0.01627391
 ,-0.01272889,-0.00000053,0.16924133,0.35454311,-0.00000058,0.00000030,
 0.00151894,0.00000015,-0.00000042,0.00032896,0.00000018,0.00000021,-0.
 00059010,-0.00000012,-0.00000018,-0.00359582,-0.00000063,-0.00000167,-
 0.00231850,0.00000017,0.00000054,0.00614328,-0.00000431,-0.00000193,-0
 .00885658,-0.00000008,0.00000006,-0.00002750,-0.00000002,-0.00000004,-
 0.00014156,-0.00000008,0.00000003,-0.00000387,0.00000014,-0.00000002,-
 0.00092488,-0.00000006,0.,0.00039456,-0.00000008,0.00000003,0.00058486
 ,0.00000002,-0.00000009,-0.00043362,0.00000098,0.00000094,-0.00155455,
 0.00000430,0.00000223,0.00939424,-0.00124659,0.00062733,0.00000029,0.0
 0307250,0.00145589,0.00000144,-0.00035007,-0.00066629,-0.00000037,0.00
 086207,-0.00067815,0.00000030,-0.00152156,-0.00029373,-0.00000008,0.00
 100484,0.00105231,0.00000022,0.00164983,0.00008937,0.00000003,-0.03360
 490,0.00566263,0.00000923,-0.40725707,-0.08619714,0.00010907,0.0031626
 6,-0.00592679,-0.00000200,-0.00010365,0.00012861,0.,0.00002089,-0.0000
 2032,-0.00000019,0.00003332,-0.00002849,-0.00000002,-0.00000491,0.0000
 1325,-0.00000015,-0.00016419,0.00023758,-0.00000002,-0.00014839,-0.000
 25734,0.00000001,0.43459523,0.00183766,0.00078674,-0.00000011,0.000196
 51,-0.00852936,-0.00000181,-0.00068780,-0.00085503,0.00000036,-0.00040
 145,0.00068484,-0.00000023,0.00018449,-0.00042870,0.00000006,0.0000551
 5,-0.00078712,0.00000018,-0.00039777,0.00013926,-0.00000002,0.06334589
 ,0.01145922,-0.00001782,-0.14071104,-0.08065030,0.00002638,-0.00856619
 ,-0.00086585,0.00000459,0.00003506,-0.00004778,-0.00000005,0.00006983,
 0.00077975,0.,-0.00001136,0.00002283,0.00000002,0.00018360,0.00005342,
 0.00000001,0.00000726,-0.00006254,0.,0.00005888,0.00005308,0.,0.084801
 28,0.07824754,0.00000091,-0.00000010,0.00205252,-0.00000336,-0.0000011
 5,0.00212250,-0.00000023,0.00000017,-0.00080943,-0.00000030,0.00000034
 ,0.00027195,0.00000049,0.00000026,0.00042669,-0.00000063,-0.00000062,-
 0.00025394,-0.00000060,-0.00000004,-0.00012745,0.00002422,-0.00000030,
 -0.00126290,0.00010066,0.00001102,-0.00587005,-0.00000343,0.00000182,-
 0.00303119,0.00000002,-0.00000002,0.00007782,-0.00000008,0.00000018,-0
 .00029558,-0.00000002,0.,-0.00000106,0.00000004,0.00000002,-0.00027311
 ,0.00000003,-0.00000009,-0.00007674,0.00000003,0.00000008,0.00008213,-
 0.00011776,-0.00001157,0.00696785\\0.00010298,-0.00001479,-0.00000998,
 -0.00028153,0.00004073,-0.00001063,0.00011006,0.00001656,-0.00000855,-
 0.00008050,0.00003017,0.00000102,0.00011582,0.00001319,-0.00000121,-0.
 00007836,-0.00003958,0.00000069,-0.00004883,-0.00000041,0.,-0.00008371
 ,-0.00023766,0.00007904,-0.00000323,0.00006040,-0.00002063,0.00013862,
 0.00013472,-0.00003008,-0.00000969,-0.00000907,0.00000019,-0.00002709,
 0.00000336,-0.00000045,0.00001452,0.00000296,0.00000155,0.00001878,0.0
 0000156,0.00000199,0.00001071,0.00000052,0.,0.00000798,0.00000927,0.00
 000003,0.00009345,-0.00001191,-0.00000297\\\@


 IT CANNOT BE MY BEAUTY, FOR I HAVE NONE; AND IT CANNOT BE MY WIT,
 FOR HE HAS NOT ENOUGH TO KNOW THAT I HAVE ANY.
 -- CATHARINE SEDLEY, PUZZLED ABOUT WHY SHE WAS MISTRESS TO JAMES II
 Job cpu time:       0 days  0 hours 19 minutes 49.5 seconds.
 File lengths (MBytes):  RWF=     93 Int=      0 D2E=      0 Chk=      5 Scr=      1
 Normal termination of Gaussian 09 at Thu Jun 13 22:31:21 2024.
