 Entering Gaussian System, Link 0=g09
 Input=pbePNA.gjf
 Output=pbePNA.log
 Initial command:
 /home/phzd/g09E/g09/l1.exe "/home/phzd/g09E/scratch/Gau-58075.inp" -scrdir="/home/phzd/g09E/scratch/"
 Default is to use a total of  18 processors:
                               18 via shared-memory
                                1 via Linda
 Entering Link 1 = /home/phzd/g09E/g09/l1.exe PID=     58077.
  
 Copyright (c) 1988,1990,1992,1993,1995,1998,2003,2009,2015,
            Gaussian, Inc.  All Rights Reserved.
  
 This is part of the Gaussian(R) 09 program.  It is based on
 the Gaussian(R) 03 system (copyright 2003, Gaussian, Inc.),
 the Gaussian(R) 98 system (copyright 1998, Gaussian, Inc.),
 the Gaussian(R) 94 system (copyright 1995, Gaussian, Inc.),
 the Gaussian 92(TM) system (copyright 1992, Gaussian, Inc.),
 the Gaussian 90(TM) system (copyright 1990, Gaussian, Inc.),
 the Gaussian 88(TM) system (copyright 1988, Gaussian, Inc.),
 the Gaussian 86(TM) system (copyright 1986, Carnegie Mellon
 University), and the Gaussian 82(TM) system (copyright 1983,
 Carnegie Mellon University). Gaussian is a federally registered
 trademark of Gaussian, Inc.
  
 This software contains proprietary and confidential information,
 including trade secrets, belonging to Gaussian, Inc.
  
 This software is provided under written license and may be
 used, copied, transmitted, or stored only in accord with that
 written license.
  
 The following legend is applicable only to US Government
 contracts under FAR:
  
                    RESTRICTED RIGHTS LEGEND
  
 Use, reproduction and disclosure by the US Government is
 subject to restrictions as set forth in subparagraphs (a)
 and (c) of the Commercial Computer Software - Restricted
 Rights clause in FAR 52.227-19.
  
 Gaussian, Inc.
 340 Quinnipiac St., Bldg. 40, Wallingford CT 06492
  
  
 ---------------------------------------------------------------
 Warning -- This program may not be used in any manner that
 competes with the business of Gaussian, Inc. or will provide
 assistance to any competitor of Gaussian, Inc.  The licensee
 of this program is prohibited from giving any competitor of
 Gaussian, Inc. access to this program.  By using this program,
 the user acknowledges that Gaussian, Inc. is engaged in the
 business of creating and licensing software in the field of
 computational chemistry and represents and warrants to the
 licensee that it is not a competitor of Gaussian, Inc. and that
 it will not use this program in any manner prohibited above.
 ---------------------------------------------------------------
  

 Cite this work as:
 Gaussian 09, Revision E.01,
 M. J. Frisch, G. W. Trucks, H. B. Schlegel, G. E. Scuseria, 
 M. A. Robb, J. R. Cheeseman, G. Scalmani, V. Barone, B. Mennucci, 
 G. A. Petersson, H. Nakatsuji, M. Caricato, X. Li, H. P. Hratchian, 
 A. F. Izmaylov, J. Bloino, G. Zheng, J. L. Sonnenberg, M. Hada, 
 M. Ehara, K. Toyota, R. Fukuda, J. Hasegawa, M. Ishida, T. Nakajima, 
 Y. Honda, O. Kitao, H. Nakai, T. Vreven, J. A. Montgomery, Jr., 
 J. E. Peralta, F. Ogliaro, M. Bearpark, J. J. Heyd, E. Brothers, 
 K. N. Kudin, V. N. Staroverov, T. Keith, R. Kobayashi, J. Normand, 
 K. Raghavachari, A. Rendell, J. C. Burant, S. S. Iyengar, J. Tomasi, 
 M. Cossi, N. Rega, J. M. Millam, M. Klene, J. E. Knox, J. B. Cross, 
 V. Bakken, C. Adamo, J. Jaramillo, R. Gomperts, R. E. Stratmann, 
 O. Yazyev, A. J. Austin, R. Cammi, C. Pomelli, J. W. Ochterski, 
 R. L. Martin, K. Morokuma, V. G. Zakrzewski, G. A. Voth, 
 P. Salvador, J. J. Dannenberg, S. Dapprich, A. D. Daniels, 
 O. Farkas, J. B. Foresman, J. V. Ortiz, J. Cioslowski, 
 and D. J. Fox, Gaussian, Inc., Wallingford CT, 2013.
 
 ******************************************
 Gaussian 09:  ES64L-G09RevE.01 30-Nov-2015
                13-Jun-2024 
 ******************************************
 %chk=pbePNA.chk
 -----------------------------
 # opt freq pbepbe/6-31+g(d,p)
 -----------------------------
 1/14=-1,18=20,19=15,26=3,38=1/1,3;
 2/9=110,12=2,17=6,18=5,40=1/2;
 3/5=1,6=6,7=111,11=2,16=1,25=1,30=1,71=1,74=1009/1,2,3;
 4//1;
 5/5=2,38=5/2;
 6/7=2,8=2,9=2,10=2,28=1/1;
 7//1,2,3,16;
 1/14=-1,18=20,19=15,26=3/3(2);
 2/9=110/2;
 99//99;
 2/9=110/2;
 3/5=1,6=6,7=111,11=2,16=1,25=1,30=1,71=1,74=1009/1,2,3;
 4/5=5,16=3,69=1/1;
 5/5=2,38=5/2;
 7//1,2,3,16;
 1/14=-1,18=20,19=15,26=3/3(-5);
 2/9=110/2;
 6/7=2,8=2,9=2,10=2,19=2,28=1/1;
 99/9=1/99;
 ----------
 [No Title]
 ----------
 Symbolic Z-matrix:
 Charge =  0 Multiplicity = 1
 C                    -0.0218    1.21641   0.00023 
 C                    -0.71134   0.        0.00039 
 C                    -0.0218   -1.2164    0.0003 
 C                     1.36325  -1.2161    0.00016 
 C                     2.08217  0.         0.00006 
 C                     1.36325   1.2161    0.00009 
 N                     3.4515    0.       -0.00007 
 N                    -2.16391   0.        0.00061 
 O                    -2.7452   -1.0916   -0.0007 
 O                    -2.74521   1.0916   -0.00077 
 H                    -0.58095   2.14355   0.00027 
 H                    -0.58095  -2.14355   0.0004 
 H                     1.90326  -2.15827   0.00014 
 H                     1.90326   2.15827   0.00002 
 H                     3.9715    0.86123  -0.00016 
 H                     3.9715   -0.86123  -0.0001 
 

 GradGradGradGradGradGradGradGradGradGradGradGradGradGradGradGradGradGrad
 Berny optimization.
 Initialization pass.
                           ----------------------------
                           !    Initial Parameters    !
                           ! (Angstroms and Degrees)  !
 --------------------------                            --------------------------
 ! Name  Definition              Value          Derivative Info.                !
 --------------------------------------------------------------------------------
 ! R1    R(1,2)                  1.3983         estimate D2E/DX2                !
 ! R2    R(1,6)                  1.3851         estimate D2E/DX2                !
 ! R3    R(1,11)                 1.0827         estimate D2E/DX2                !
 ! R4    R(2,3)                  1.3983         estimate D2E/DX2                !
 ! R5    R(2,8)                  1.4526         estimate D2E/DX2                !
 ! R6    R(3,4)                  1.3851         estimate D2E/DX2                !
 ! R7    R(3,12)                 1.0827         estimate D2E/DX2                !
 ! R8    R(4,5)                  1.4127         estimate D2E/DX2                !
 ! R9    R(4,13)                 1.086          estimate D2E/DX2                !
 ! R10   R(5,6)                  1.4127         estimate D2E/DX2                !
 ! R11   R(5,7)                  1.3693         estimate D2E/DX2                !
 ! R12   R(6,14)                 1.086          estimate D2E/DX2                !
 ! R13   R(7,15)                 1.006          estimate D2E/DX2                !
 ! R14   R(7,16)                 1.006          estimate D2E/DX2                !
 ! R15   R(8,9)                  1.2367         estimate D2E/DX2                !
 ! R16   R(8,10)                 1.2367         estimate D2E/DX2                !
 ! A1    A(2,1,6)              119.5352         estimate D2E/DX2                !
 ! A2    A(2,1,11)             119.3587         estimate D2E/DX2                !
 ! A3    A(6,1,11)             121.1062         estimate D2E/DX2                !
 ! A4    A(1,2,3)              120.9048         estimate D2E/DX2                !
 ! A5    A(1,2,8)              119.5476         estimate D2E/DX2                !
 ! A6    A(3,2,8)              119.5475         estimate D2E/DX2                !
 ! A7    A(2,3,4)              119.5353         estimate D2E/DX2                !
 ! A8    A(2,3,12)             119.3585         estimate D2E/DX2                !
 ! A9    A(4,3,12)             121.1062         estimate D2E/DX2                !
 ! A10   A(3,4,5)              120.6023         estimate D2E/DX2                !
 ! A11   A(3,4,13)             119.8071         estimate D2E/DX2                !
 ! A12   A(5,4,13)             119.5906         estimate D2E/DX2                !
 ! A13   A(4,5,6)              118.8201         estimate D2E/DX2                !
 ! A14   A(4,5,7)              120.5901         estimate D2E/DX2                !
 ! A15   A(6,5,7)              120.5898         estimate D2E/DX2                !
 ! A16   A(1,6,5)              120.6024         estimate D2E/DX2                !
 ! A17   A(1,6,14)             119.8071         estimate D2E/DX2                !
 ! A18   A(5,6,14)             119.5905         estimate D2E/DX2                !
 ! A19   A(5,7,15)             121.1236         estimate D2E/DX2                !
 ! A20   A(5,7,16)             121.1233         estimate D2E/DX2                !
 ! A21   A(15,7,16)            117.7531         estimate D2E/DX2                !
 ! A22   A(2,8,9)              118.0358         estimate D2E/DX2                !
 ! A23   A(2,8,10)             118.0364         estimate D2E/DX2                !
 ! A24   A(9,8,10)             123.9276         estimate D2E/DX2                !
 ! D1    D(6,1,2,3)             -0.0059         estimate D2E/DX2                !
 ! D2    D(6,1,2,8)            179.9966         estimate D2E/DX2                !
 ! D3    D(11,1,2,3)           179.9978         estimate D2E/DX2                !
 ! D4    D(11,1,2,8)             0.0004         estimate D2E/DX2                !
 ! D5    D(2,1,6,5)              0.0029         estimate D2E/DX2                !
 ! D6    D(2,1,6,14)          -179.9966         estimate D2E/DX2                !
 ! D7    D(11,1,6,5)           179.999          estimate D2E/DX2                !
 ! D8    D(11,1,6,14)           -0.0004         estimate D2E/DX2                !
 ! D9    D(1,2,3,4)              0.0059         estimate D2E/DX2                !
 ! D10   D(1,2,3,12)          -179.9979         estimate D2E/DX2                !
 ! D11   D(8,2,3,4)           -179.9966         estimate D2E/DX2                !
 ! D12   D(8,2,3,12)            -0.0004         estimate D2E/DX2                !
 ! D13   D(1,2,8,9)            179.9235         estimate D2E/DX2                !
 ! D14   D(1,2,8,10)             0.0742         estimate D2E/DX2                !
 ! D15   D(3,2,8,9)             -0.074          estimate D2E/DX2                !
 ! D16   D(3,2,8,10)          -179.9233         estimate D2E/DX2                !
 ! D17   D(2,3,4,5)             -0.0029         estimate D2E/DX2                !
 ! D18   D(2,3,4,13)           179.9966         estimate D2E/DX2                !
 ! D19   D(12,3,4,5)          -179.999          estimate D2E/DX2                !
 ! D20   D(12,3,4,13)            0.0005         estimate D2E/DX2                !
 ! D21   D(3,4,5,6)             -0.0001         estimate D2E/DX2                !
 ! D22   D(3,4,5,7)            179.9996         estimate D2E/DX2                !
 ! D23   D(13,4,5,6)          -179.9996         estimate D2E/DX2                !
 ! D24   D(13,4,5,7)             0.0002         estimate D2E/DX2                !
 ! D25   D(4,5,6,1)              0.0001         estimate D2E/DX2                !
 ! D26   D(4,5,6,14)           179.9996         estimate D2E/DX2                !
 ! D27   D(7,5,6,1)           -179.9996         estimate D2E/DX2                !
 ! D28   D(7,5,6,14)            -0.0002         estimate D2E/DX2                !
 ! D29   D(4,5,7,15)           179.9994         estimate D2E/DX2                !
 ! D30   D(4,5,7,16)             0.0007         estimate D2E/DX2                !
 ! D31   D(6,5,7,15)            -0.0008         estimate D2E/DX2                !
 ! D32   D(6,5,7,16)          -179.9995         estimate D2E/DX2                !
 --------------------------------------------------------------------------------
 Trust Radius=3.00D-01 FncErr=1.00D-07 GrdErr=1.00D-06
 Number of steps in this run=     82 maximum allowed number of steps=    100.
 GradGradGradGradGradGradGradGradGradGradGradGradGradGradGradGradGradGrad

                          Input orientation:                          
 ---------------------------------------------------------------------
 Center     Atomic      Atomic             Coordinates (Angstroms)
 Number     Number       Type             X           Y           Z
 ---------------------------------------------------------------------
      1          6           0       -0.021796    1.216405    0.000228
      2          6           0       -0.711339    0.000001    0.000394
      3          6           0       -0.021797   -1.216402    0.000299
      4          6           0        1.363253   -1.216104    0.000162
      5          6           0        2.082168   -0.000001    0.000057
      6          6           0        1.363254    1.216104    0.000091
      7          7           0        3.451498    0.000001   -0.000071
      8          7           0       -2.163906    0.000000    0.000613
      9          8           0       -2.745196   -1.091600   -0.000701
     10          8           0       -2.745209    1.091597   -0.000768
     11          1           0       -0.580949    2.143553    0.000271
     12          1           0       -0.580954   -2.143550    0.000397
     13          1           0        1.903261   -2.158272    0.000144
     14          1           0        1.903264    2.158270    0.000018
     15          1           0        3.971504    0.861227   -0.000155
     16          1           0        3.971503   -0.861226   -0.000103
 ---------------------------------------------------------------------
                    Distance matrix (angstroms):
                    1          2          3          4          5
     1  C    0.000000
     2  C    1.398252   0.000000
     3  C    2.432807   1.398250   0.000000
     4  C    2.799189   2.404754   1.385050   0.000000
     5  C    2.430290   2.793507   2.430288   1.412708   0.000000
     6  C    1.385050   2.404754   2.799188   2.432208   1.412710
     7  N    3.680137   4.162837   3.680138   2.416543   1.369330
     8  N    2.463387   1.452567   2.463385   3.730919   4.246074
     9  O    3.569845   2.308283   2.726257   4.110335   4.949246
    10  O    2.726272   2.308292   3.569851   4.712212   4.949258
    11  H    1.082707   2.147514   3.406163   3.881651   3.418628
    12  H    3.406164   2.147513   1.082710   2.154088   3.418629
    13  H    3.885137   3.390321   2.143121   1.085951   2.165673
    14  H    2.143121   3.390321   3.885135   3.417311   2.165673
    15  H    4.009064   4.761379   4.501444   3.334408   2.076368
    16  H    4.501443   4.761378   4.009064   2.632282   2.076366
                    6          7          8          9         10
     6  C    0.000000
     7  N    2.416541   0.000000
     8  N    3.730920   5.615404   0.000000
     9  O    4.712203   6.292107   1.236726   0.000000
    10  O    4.110349   6.292119   1.236729   2.183197   0.000000
    11  H    2.154086   4.566776   2.664690   3.892323   2.406374
    12  H    3.881652   4.566780   2.664685   2.406355   3.892323
    13  H    3.417312   2.656159   4.604344   4.769271   5.671854
    14  H    1.085950   2.656154   4.604346   5.671846   4.769286
    15  H    2.632281   1.006040   6.195560   6.994826   6.720662
    16  H    3.334406   1.006040   6.195559   6.720649   6.994837
                   11         12         13         14         15
    11  H    0.000000
    12  H    4.287103   0.000000
    13  H    4.967595   2.484259   0.000000
    14  H    2.484257   4.967594   4.316542   0.000000
    15  H    4.729608   5.454682   3.659918   2.441298   0.000000
    16  H    5.454678   4.729611   2.441302   3.659914   1.722453
                   16
    16  H    0.000000
 Stoichiometry    C6H6N2O2
 Framework group  C1[X(C6H6N2O2)]
 Deg. of freedom    42
 Full point group                 C1      NOp   1
 Largest Abelian subgroup         C1      NOp   1
 Largest concise Abelian subgroup C1      NOp   1
                         Standard orientation:                         
 ---------------------------------------------------------------------
 Center     Atomic      Atomic             Coordinates (Angstroms)
 Number     Number       Type             X           Y           Z
 ---------------------------------------------------------------------
      1          6           0        0.021796   -1.216405    0.000228
      2          6           0        0.711339   -0.000001    0.000394
      3          6           0        0.021797    1.216402    0.000299
      4          6           0       -1.363253    1.216104    0.000162
      5          6           0       -2.082168    0.000001    0.000057
      6          6           0       -1.363254   -1.216104    0.000091
      7          7           0       -3.451498   -0.000001   -0.000071
      8          7           0        2.163906    0.000000    0.000613
      9          8           0        2.745196    1.091600   -0.000701
     10          8           0        2.745209   -1.091597   -0.000768
     11          1           0        0.580949   -2.143553    0.000271
     12          1           0        0.580954    2.143550    0.000397
     13          1           0       -1.903261    2.158272    0.000144
     14          1           0       -1.903264   -2.158270    0.000018
     15          1           0       -3.971504   -0.861227   -0.000155
     16          1           0       -3.971503    0.861226   -0.000103
 ---------------------------------------------------------------------
 Rotational constants (GHZ):      3.9094978      0.8215452      0.6788840
 Standard basis: 6-31+G(d,p) (6D, 7F)
 There are   220 symmetry adapted cartesian basis functions of A   symmetry.
 There are   220 symmetry adapted basis functions of A   symmetry.
   220 basis functions,   362 primitive gaussians,   220 cartesian basis functions
    36 alpha electrons       36 beta electrons
       nuclear repulsion energy       494.6945858361 Hartrees.
 NAtoms=   16 NActive=   16 NUniq=   16 SFac= 1.00D+00 NAtFMM=   60 NAOKFM=F Big=F
 Integral buffers will be    131072 words long.
 Raffenetti 2 integral format.
 Two-electron integral symmetry is turned on.
 One-electron integrals computed using PRISM.
 NBasis=   220 RedAO= T EigKep=  3.27D-06  NBF=   220
 NBsUse=   220 1.00D-06 EigRej= -1.00D+00 NBFU=   220
 ExpMin= 4.38D-02 ExpMax= 5.48D+03 ExpMxC= 8.25D+02 IAcc=2 IRadAn=         4 AccDes= 0.00D+00
 Harris functional with IExCor= 1009 and IRadAn=       4 diagonalized for initial guess.
 HarFok:  IExCor= 1009 AccDes= 0.00D+00 IRadAn=         4 IDoV= 1 UseB2=F ITyADJ=14
 ICtDFT=  3500011 ScaDFX=  1.000000  1.000000  1.000000  1.000000
 FoFCou: FMM=F IPFlag=           0 FMFlag=      100000 FMFlg1=           0
         NFxFlg=           0 DoJE=T BraDBF=F KetDBF=T FulRan=T
         wScrn=  0.000000 ICntrl=     500 IOpCl=  0 I1Cent=   200000004 NGrid=           0
         NMat0=    1 NMatS0=      1 NMatT0=    0 NMatD0=    1 NMtDS0=    0 NMtDT0=    0
 Petite list used in FoFCou.
 Keep J ints in memory in canonical form, NReq=301066375.
 Requested convergence on RMS density matrix=1.00D-08 within 128 cycles.
 Requested convergence on MAX density matrix=1.00D-06.
 Requested convergence on             energy=1.00D-06.
 No special actions if energy rises.
 SCF Done:  E(RPBE-PBE) =  -491.598581950     A.U. after   16 cycles
            NFock= 16  Conv=0.74D-08     -V/T= 2.0091

 **********************************************************************

            Population analysis using the SCF density.

 **********************************************************************

 Orbital symmetries:
       Occupied  (A) (A) (A) (A) (A) (A) (A) (A) (A) (A) (A) (A)
                 (A) (A) (A) (A) (A) (A) (A) (A) (A) (A) (A) (A)
                 (A) (A) (A) (A) (A) (A) (A) (A) (A) (A) (A) (A)
       Virtual   (A) (A) (A) (A) (A) (A) (A) (A) (A) (A) (A) (A)
                 (A) (A) (A) (A) (A) (A) (A) (A) (A) (A) (A) (A)
                 (A) (A) (A) (A) (A) (A) (A) (A) (A) (A) (A) (A)
                 (A) (A) (A) (A) (A) (A) (A) (A) (A) (A) (A) (A)
                 (A) (A) (A) (A) (A) (A) (A) (A) (A) (A) (A) (A)
                 (A) (A) (A) (A) (A) (A) (A) (A) (A) (A) (A) (A)
                 (A) (A) (A) (A) (A) (A) (A) (A) (A) (A) (A) (A)
                 (A) (A) (A) (A) (A) (A) (A) (A) (A) (A) (A) (A)
                 (A) (A) (A) (A) (A) (A) (A) (A) (A) (A) (A) (A)
                 (A) (A) (A) (A) (A) (A) (A) (A) (A) (A) (A) (A)
                 (A) (A) (A) (A) (A) (A) (A) (A) (A) (A) (A) (A)
                 (A) (A) (A) (A) (A) (A) (A) (A) (A) (A) (A) (A)
                 (A) (A) (A) (A) (A) (A) (A) (A) (A) (A) (A) (A)
                 (A) (A) (A) (A) (A) (A) (A) (A) (A) (A) (A) (A)
                 (A) (A) (A) (A) (A) (A) (A) (A) (A) (A) (A) (A)
                 (A) (A) (A) (A)
 The electronic state is 1-A.
 Alpha  occ. eigenvalues --  -18.79614 -18.79614 -14.21871 -14.05750  -9.98089
 Alpha  occ. eigenvalues --   -9.95424  -9.93225  -9.93225  -9.92839  -9.92839
 Alpha  occ. eigenvalues --   -1.12001  -0.95457  -0.88121  -0.80373  -0.72414
 Alpha  occ. eigenvalues --   -0.70536  -0.63160  -0.58641  -0.54475  -0.50869
 Alpha  occ. eigenvalues --   -0.50408  -0.48205  -0.47038  -0.44621  -0.41733
 Alpha  occ. eigenvalues --   -0.40995  -0.39960  -0.37645  -0.37395  -0.32577
 Alpha  occ. eigenvalues --   -0.30623  -0.26578  -0.25228  -0.25224  -0.22945
 Alpha  occ. eigenvalues --   -0.20939
 Alpha virt. eigenvalues --   -0.10921  -0.06171  -0.03356  -0.02546  -0.00485
 Alpha virt. eigenvalues --   -0.00162   0.02449   0.03079   0.04288   0.04736
 Alpha virt. eigenvalues --    0.06116   0.06792   0.07097   0.07468   0.08881
 Alpha virt. eigenvalues --    0.10492   0.10763   0.11678   0.11713   0.12218
 Alpha virt. eigenvalues --    0.12267   0.13228   0.13944   0.14875   0.14907
 Alpha virt. eigenvalues --    0.16148   0.16335   0.17099   0.17149   0.18430
 Alpha virt. eigenvalues --    0.18513   0.19713   0.20128   0.20668   0.21016
 Alpha virt. eigenvalues --    0.21340   0.22390   0.23432   0.23576   0.24686
 Alpha virt. eigenvalues --    0.24904   0.25166   0.25443   0.26920   0.27132
 Alpha virt. eigenvalues --    0.28763   0.30838   0.31452   0.32333   0.32400
 Alpha virt. eigenvalues --    0.34291   0.35425   0.36381   0.38612   0.39648
 Alpha virt. eigenvalues --    0.39753   0.43543   0.50991   0.53156   0.55137
 Alpha virt. eigenvalues --    0.59628   0.60062   0.60717   0.64751   0.65676
 Alpha virt. eigenvalues --    0.66603   0.68190   0.70220   0.72351   0.72752
 Alpha virt. eigenvalues --    0.76372   0.78717   0.79498   0.82467   0.84607
 Alpha virt. eigenvalues --    0.85294   0.88111   0.88520   0.91019   0.93904
 Alpha virt. eigenvalues --    0.94069   0.97073   0.98535   1.01612   1.01822
 Alpha virt. eigenvalues --    1.03802   1.05022   1.10231   1.12227   1.12994
 Alpha virt. eigenvalues --    1.14260   1.14305   1.14716   1.18126   1.19677
 Alpha virt. eigenvalues --    1.20576   1.25465   1.25969   1.26553   1.28367
 Alpha virt. eigenvalues --    1.28999   1.29889   1.30549   1.32270   1.34990
 Alpha virt. eigenvalues --    1.37918   1.38157   1.38798   1.41004   1.47162
 Alpha virt. eigenvalues --    1.56012   1.62323   1.64843   1.67737   1.73572
 Alpha virt. eigenvalues --    1.74168   1.74406   1.76692   1.77873   1.79755
 Alpha virt. eigenvalues --    1.83987   1.84897   1.85761   1.88279   1.88334
 Alpha virt. eigenvalues --    1.88994   1.89304   1.94867   1.99238   2.00244
 Alpha virt. eigenvalues --    2.04602   2.05136   2.05242   2.09507   2.10644
 Alpha virt. eigenvalues --    2.13681   2.14336   2.21009   2.28790   2.29817
 Alpha virt. eigenvalues --    2.30839   2.33320   2.34575   2.34806   2.39647
 Alpha virt. eigenvalues --    2.43799   2.44039   2.46373   2.47954   2.48241
 Alpha virt. eigenvalues --    2.50483   2.51902   2.57539   2.61353   2.63779
 Alpha virt. eigenvalues --    2.64189   2.71047   2.73426   2.74862   2.75900
 Alpha virt. eigenvalues --    2.89999   2.93893   2.94655   2.98109   3.02379
 Alpha virt. eigenvalues --    3.02722   3.11017   3.19822   3.24946   3.25386
 Alpha virt. eigenvalues --    3.32561   3.43741   3.55600   3.73876   4.03697
 Alpha virt. eigenvalues --    4.11931   4.19315   4.19677   4.23906   4.38370
 Alpha virt. eigenvalues --    4.40057   4.43079   4.71346   4.75744
          Condensed to atoms (all electrons):
               1          2          3          4          5          6
     1  C   10.026778   0.086287  -3.109115  -0.390578  -0.297365  -0.843924
     2  C    0.086287   9.651556   0.086189  -1.039521  -0.428370  -1.039533
     3  C   -3.109115   0.086189  10.026856  -0.843945  -0.297350  -0.390578
     4  C   -0.390578  -1.039521  -0.843945  10.647881   0.215980  -2.834100
     5  C   -0.297365  -0.428370  -0.297350   0.215980   6.394817   0.216029
     6  C   -0.843924  -1.039533  -0.390578  -2.834100   0.216029  10.647812
     7  N    0.043390  -0.020447   0.043389  -0.018226  -0.030682  -0.018227
     8  N    0.253209  -1.016593   0.253233   0.029350  -0.027247   0.029357
     9  O    0.165924  -0.287676  -0.122747   0.180871   0.015072  -0.027814
    10  O   -0.122747  -0.287674   0.165928  -0.027815   0.015072   0.180865
    11  H    0.003434   0.292896   0.116209  -0.015120  -0.040222  -0.011694
    12  H    0.116208   0.292899   0.003429  -0.011692  -0.040222  -0.015119
    13  H   -0.019815   0.012821   0.113641   0.114449   0.052036   0.045305
    14  H    0.113641   0.012820  -0.019816   0.045305   0.052034   0.114452
    15  H    0.029707  -0.001769  -0.001064   0.087000   0.012687  -0.134718
    16  H   -0.001064  -0.001769   0.029707  -0.134719   0.012689   0.087000
               7          8          9         10         11         12
     1  C    0.043390   0.253209   0.165924  -0.122747   0.003434   0.116208
     2  C   -0.020447  -1.016593  -0.287676  -0.287674   0.292896   0.292899
     3  C    0.043389   0.253233  -0.122747   0.165928   0.116209   0.003429
     4  C   -0.018226   0.029350   0.180871  -0.027815  -0.015120  -0.011692
     5  C   -0.030682  -0.027247   0.015072   0.015072  -0.040222  -0.040222
     6  C   -0.018227   0.029357  -0.027814   0.180865  -0.011694  -0.015119
     7  N    7.018071   0.001258  -0.000318  -0.000318  -0.000490  -0.000490
     8  N    0.001258   7.211580   0.340041   0.340053  -0.056177  -0.056179
     9  O   -0.000318   0.340041   7.835355  -0.087915  -0.002922   0.024001
    10  O   -0.000318   0.340053  -0.087915   7.835349   0.024001  -0.002922
    11  H   -0.000490  -0.056177  -0.002922   0.024001   0.519650  -0.000150
    12  H   -0.000490  -0.056179   0.024001  -0.002922  -0.000150   0.519650
    13  H   -0.022653  -0.000548   0.000061   0.000069   0.000014  -0.005846
    14  H   -0.022653  -0.000548   0.000069   0.000061  -0.005846   0.000014
    15  H    0.327072   0.000007   0.000000   0.000001  -0.000011   0.000003
    16  H    0.327072   0.000007   0.000001   0.000000   0.000003  -0.000011
              13         14         15         16
     1  C   -0.019815   0.113641   0.029707  -0.001064
     2  C    0.012821   0.012820  -0.001769  -0.001769
     3  C    0.113641  -0.019816  -0.001064   0.029707
     4  C    0.114449   0.045305   0.087000  -0.134719
     5  C    0.052036   0.052034   0.012687   0.012689
     6  C    0.045305   0.114452  -0.134718   0.087000
     7  N   -0.022653  -0.022653   0.327072   0.327072
     8  N   -0.000548  -0.000548   0.000007   0.000007
     9  O    0.000061   0.000069   0.000000   0.000001
    10  O    0.000069   0.000061   0.000001   0.000000
    11  H    0.000014  -0.005846  -0.000011   0.000003
    12  H   -0.005846   0.000014   0.000003  -0.000011
    13  H    0.571753  -0.000155  -0.000071   0.005749
    14  H   -0.000155   0.571753   0.005749  -0.000071
    15  H   -0.000071   0.005749   0.391323  -0.029202
    16  H    0.005749  -0.000071  -0.029202   0.391324
 Mulliken charges:
               1
     1  C   -0.053970
     2  C   -0.312116
     3  C   -0.053966
     4  C   -0.005119
     5  C    0.175042
     6  C   -0.005113
     7  N   -0.625748
     8  N   -0.300802
     9  O   -0.032004
    10  O   -0.032008
    11  H    0.176426
    12  H    0.176426
    13  H    0.133191
    14  H    0.133191
    15  H    0.313285
    16  H    0.313285
 Sum of Mulliken charges =  -0.00000
 Mulliken charges with hydrogens summed into heavy atoms:
               1
     1  C    0.122456
     2  C   -0.312116
     3  C    0.122460
     4  C    0.128072
     5  C    0.175042
     6  C    0.128077
     7  N    0.000822
     8  N   -0.300802
     9  O   -0.032004
    10  O   -0.032008
 Electronic spatial extent (au):  <R**2>=           1562.0947
 Charge=             -0.0000 electrons
 Dipole moment (field-independent basis, Debye):
    X=             -7.9602    Y=              0.0000    Z=              0.0023  Tot=              7.9602
 Quadrupole moment (field-independent basis, Debye-Ang):
   XX=            -55.7006   YY=            -53.1984   ZZ=            -60.6878
   XY=              0.0000   XZ=              0.0089   YZ=              0.0002
 Traceless Quadrupole moment (field-independent basis, Debye-Ang):
   XX=              0.8283   YY=              3.3305   ZZ=             -4.1588
   XY=              0.0000   XZ=              0.0089   YZ=              0.0002
 Octapole moment (field-independent basis, Debye-Ang**2):
  XXX=           -112.1773  YYY=              0.0000  ZZZ=             -0.0069  XYY=            -16.7508
  XXY=              0.0001  XXZ=              0.0171  XZZ=             13.0777  YZZ=              0.0000
  YYZ=             -0.0006  XYZ=             -0.0009
 Hexadecapole moment (field-independent basis, Debye-Ang**3):
 XXXX=          -1360.4677 YYYY=           -372.7574 ZZZZ=            -66.2658 XXXY=              0.0007
 XXXZ=              0.1305 YYYX=              0.0001 YYYZ=             -0.0035 ZZZX=              0.0419
 ZZZY=             -0.0056 XXYY=           -301.3528 XXZZ=           -280.5477 YYZZ=            -85.2394
 XXYZ=             -0.0006 YYXZ=              0.0162 ZZXY=              0.0000
 N-N= 4.946945858361D+02 E-N=-2.135843024046D+03  KE= 4.871859945391D+02
 Calling FoFJK, ICntrl=      2527 FMM=F ISym2X=0 I1Cent= 0 IOpClX= 0 NMat=1 NMatS=1 NMatT=0.
 ***** Axes restored to original set *****
 -------------------------------------------------------------------
 Center     Atomic                   Forces (Hartrees/Bohr)
 Number     Number              X              Y              Z
 -------------------------------------------------------------------
      1        6           0.000632896    0.000201697    0.000023229
      2        6          -0.001592504    0.000001704    0.000082604
      3        6           0.000632241   -0.000203780    0.000023294
      4        6           0.000197124   -0.000396214   -0.000006423
      5        6           0.003556794    0.000001177    0.000002495
      6        6           0.000196802    0.000395275   -0.000006408
      7        7          -0.002915015   -0.000000886    0.000000729
      8        7           0.006491005    0.000002368   -0.000361814
      9        8          -0.006495588   -0.014475888    0.000124845
     10        8          -0.006492318    0.014472599    0.000123963
     11        1          -0.003545187    0.005296938    0.000000747
     12        1          -0.003544206   -0.005295780    0.000001021
     13        1           0.002950730   -0.005268563   -0.000003461
     14        1           0.002950964    0.005269012   -0.000003778
     15        1           0.003488060    0.005522431   -0.000000691
     16        1           0.003488202   -0.005522091   -0.000000353
 -------------------------------------------------------------------
 Cartesian Forces:  Max     0.014475888 RMS     0.004108182

 GradGradGradGradGradGradGradGradGradGradGradGradGradGradGradGradGradGrad
 Berny optimization.
 FormGI is forming the generalized inverse of G from B-inverse, IUseBI=4.
 Internal  Forces:  Max     0.015830137 RMS     0.003886123
 Search for a local minimum.
 Step number   1 out of a maximum of   82
 All quantities printed in internal units (Hartrees-Bohrs-Radians)
 Mixed Optimization -- RFO/linear search
 Second derivative matrix not updated -- first step.
 ITU=  0
     Eigenvalues ---    0.00996   0.00996   0.01774   0.01947   0.02015
     Eigenvalues ---    0.02078   0.02097   0.02097   0.02106   0.02155
     Eigenvalues ---    0.02167   0.02210   0.02216   0.16000   0.16000
     Eigenvalues ---    0.16000   0.16000   0.16000   0.16000   0.22000
     Eigenvalues ---    0.22969   0.24000   0.25000   0.25000   0.25000
     Eigenvalues ---    0.25000   0.35285   0.35285   0.35669   0.35669
     Eigenvalues ---    0.37911   0.40804   0.41759   0.44815   0.45017
     Eigenvalues ---    0.46642   0.46642   0.46706   0.48191   0.51106
     Eigenvalues ---    0.88339   0.88341
 RFO step:  Lambda=-1.96880832D-03 EMin= 9.96419452D-03
 Linear search not attempted -- first point.
 Iteration  1 RMS(Cart)=  0.01377457 RMS(Int)=  0.00004556
 Iteration  2 RMS(Cart)=  0.00004487 RMS(Int)=  0.00001896
 Iteration  3 RMS(Cart)=  0.00000000 RMS(Int)=  0.00001896
 Variable       Old X    -DE/DX   Delta X   Delta X   Delta X     New X
                                 (Linear)    (Quad)   (Total)
    R1        2.64231   0.00677   0.00000   0.01471   0.01471   2.65703
    R2        2.61737   0.00696   0.00000   0.01438   0.01438   2.63174
    R3        2.04602   0.00637   0.00000   0.01775   0.01775   2.06377
    R4        2.64231   0.00677   0.00000   0.01472   0.01472   2.65703
    R5        2.74495   0.00650   0.00000   0.01705   0.01705   2.76200
    R6        2.61737   0.00696   0.00000   0.01438   0.01438   2.63174
    R7        2.04602   0.00637   0.00000   0.01775   0.01775   2.06377
    R8        2.66963   0.00682   0.00000   0.01555   0.01555   2.68519
    R9        2.05215   0.00604   0.00000   0.01702   0.01702   2.06917
   R10        2.66963   0.00682   0.00000   0.01555   0.01555   2.68519
   R11        2.58766   0.00406   0.00000   0.00792   0.00792   2.59557
   R12        2.05215   0.00604   0.00000   0.01702   0.01702   2.06917
   R13        1.90114   0.00653   0.00000   0.01394   0.01394   1.91508
   R14        1.90114   0.00653   0.00000   0.01394   0.01394   1.91508
   R15        2.33707   0.01583   0.00000   0.01788   0.01788   2.35495
   R16        2.33708   0.01583   0.00000   0.01787   0.01787   2.35495
    A1        2.08628   0.00044   0.00000   0.00194   0.00194   2.08822
    A2        2.08320  -0.00053   0.00000  -0.00287  -0.00287   2.08033
    A3        2.11370   0.00009   0.00000   0.00093   0.00093   2.11463
    A4        2.11019  -0.00078   0.00000  -0.00309  -0.00309   2.10709
    A5        2.08650   0.00039   0.00000   0.00154   0.00154   2.08804
    A6        2.08650   0.00039   0.00000   0.00155   0.00155   2.08805
    A7        2.08628   0.00044   0.00000   0.00194   0.00194   2.08822
    A8        2.08320  -0.00053   0.00000  -0.00286  -0.00286   2.08033
    A9        2.11370   0.00009   0.00000   0.00092   0.00093   2.11463
   A10        2.10491   0.00021   0.00000   0.00076   0.00076   2.10567
   A11        2.09103  -0.00017   0.00000  -0.00076  -0.00076   2.09027
   A12        2.08725  -0.00004   0.00000  -0.00000  -0.00000   2.08725
   A13        2.07380  -0.00053   0.00000  -0.00232  -0.00232   2.07149
   A14        2.10469   0.00026   0.00000   0.00116   0.00116   2.10585
   A15        2.10469   0.00026   0.00000   0.00116   0.00116   2.10585
   A16        2.10491   0.00021   0.00000   0.00076   0.00076   2.10567
   A17        2.09103  -0.00017   0.00000  -0.00076  -0.00076   2.09027
   A18        2.08725  -0.00004   0.00000  -0.00000  -0.00000   2.08725
   A19        2.11400   0.00008   0.00000   0.00051   0.00051   2.11452
   A20        2.11400   0.00008   0.00000   0.00052   0.00052   2.11452
   A21        2.05518  -0.00017   0.00000  -0.00103  -0.00103   2.05415
   A22        2.06011  -0.00083   0.00000  -0.00329  -0.00338   2.05674
   A23        2.06012  -0.00084   0.00000  -0.00330  -0.00339   2.05673
   A24        2.16294   0.00167   0.00000   0.00664   0.00655   2.16950
    D1       -0.00010   0.00001   0.00000   0.00041   0.00041   0.00030
    D2        3.14153   0.00001   0.00000   0.00021   0.00021  -3.14145
    D3        3.14155   0.00000   0.00000   0.00016   0.00016  -3.14147
    D4        0.00001  -0.00000   0.00000  -0.00004  -0.00004  -0.00003
    D5        0.00005  -0.00000   0.00000  -0.00019  -0.00019  -0.00014
    D6       -3.14153  -0.00001   0.00000  -0.00023  -0.00023   3.14142
    D7        3.14158   0.00000   0.00000   0.00006   0.00006  -3.14155
    D8       -0.00001   0.00000   0.00000   0.00002   0.00002   0.00001
    D9        0.00010  -0.00001   0.00000  -0.00041  -0.00041  -0.00030
   D10       -3.14156  -0.00000   0.00000  -0.00016  -0.00016   3.14147
   D11       -3.14153  -0.00001   0.00000  -0.00021  -0.00021   3.14144
   D12       -0.00001   0.00000   0.00000   0.00004   0.00004   0.00003
   D13        3.14026   0.00015   0.00000   0.01224   0.01224  -3.13069
   D14        0.00129  -0.00014   0.00000  -0.01204  -0.01204  -0.01075
   D15       -0.00129   0.00014   0.00000   0.01204   0.01204   0.01075
   D16       -3.14025  -0.00015   0.00000  -0.01224  -0.01224   3.13069
   D17       -0.00005   0.00000   0.00000   0.00019   0.00019   0.00014
   D18        3.14153   0.00001   0.00000   0.00023   0.00023  -3.14142
   D19       -3.14157  -0.00000   0.00000  -0.00006  -0.00006   3.14155
   D20        0.00001  -0.00000   0.00000  -0.00002  -0.00002  -0.00001
   D21       -0.00000   0.00000   0.00000   0.00001   0.00001   0.00001
   D22        3.14159   0.00000   0.00000   0.00002   0.00002  -3.14158
   D23       -3.14159  -0.00000   0.00000  -0.00002  -0.00002   3.14158
   D24        0.00000  -0.00000   0.00000  -0.00002  -0.00002  -0.00001
   D25        0.00000  -0.00000   0.00000  -0.00001  -0.00001  -0.00001
   D26        3.14159   0.00000   0.00000   0.00002   0.00002  -3.14158
   D27       -3.14159  -0.00000   0.00000  -0.00002  -0.00002   3.14158
   D28       -0.00000   0.00000   0.00000   0.00002   0.00002   0.00001
   D29        3.14158  -0.00000   0.00000  -0.00001  -0.00001   3.14157
   D30        0.00001  -0.00000   0.00000   0.00000   0.00000   0.00001
   D31       -0.00001   0.00000   0.00000  -0.00000  -0.00000  -0.00002
   D32       -3.14158   0.00000   0.00000   0.00001   0.00001  -3.14158
         Item               Value     Threshold  Converged?
 Maximum Force            0.015830     0.000450     NO 
 RMS     Force            0.003886     0.000300     NO 
 Maximum Displacement     0.035322     0.001800     NO 
 RMS     Displacement     0.013766     0.001200     NO 
 Predicted change in Energy=-9.889591D-04
 GradGradGradGradGradGradGradGradGradGradGradGradGradGradGradGradGradGrad

                          Input orientation:                          
 ---------------------------------------------------------------------
 Center     Atomic      Atomic             Coordinates (Angstroms)
 Number     Number       Type             X           Y           Z
 ---------------------------------------------------------------------
      1          6           0       -0.024766    1.222103   -0.002090
      2          6           0       -0.720038   -0.000001   -0.002976
      3          6           0       -0.024765   -1.222104   -0.002018
      4          6           0        1.367893   -1.222351   -0.000536
      5          6           0        2.092410   -0.000000    0.000194
      6          6           0        1.367892    1.222351   -0.000608
      7          7           0        3.465928    0.000001    0.001641
      8          7           0       -2.181626   -0.000000   -0.004719
      9          8           0       -2.763659   -1.101859    0.006550
     10          8           0       -2.763653    1.101864    0.006482
     11          1           0       -0.590005    2.156549   -0.002751
     12          1           0       -0.590003   -2.156551   -0.002625
     13          1           0        1.911282   -2.172960    0.000050
     14          1           0        1.911281    2.172960   -0.000077
     15          1           0        3.990194    0.867274    0.002153
     16          1           0        3.990194   -0.867271    0.002206
 ---------------------------------------------------------------------
                    Distance matrix (angstroms):
                    1          2          3          4          5
     1  C    0.000000
     2  C    1.406038   0.000000
     3  C    2.444208   1.406038   0.000000
     4  C    2.813336   2.419422   1.392658   0.000000
     5  C    2.444581   2.812450   2.444580   1.420939   0.000000
     6  C    1.392658   2.419422   2.813335   2.444702   1.420940
     7  N    3.698445   4.185969   3.698445   2.428148   1.373519
     8  N    2.479030   1.461589   2.479031   3.754097   4.274039
     9  O    3.591993   2.321760   2.741546   4.133315   4.979512
    10  O    2.741538   2.321757   3.591992   4.740432   4.979507
    11  H    1.092101   2.160467   3.425609   3.905168   3.441811
    12  H    3.425609   2.160466   1.092101   2.169352   3.441811
    13  H    3.908291   3.412566   2.156944   1.094956   2.180496
    14  H    2.156944   3.412566   3.908291   3.438518   2.180496
    15  H    4.030610   4.789413   4.526081   3.353058   2.086564
    16  H    4.526081   4.789413   4.030611   2.646234   2.086564
                    6          7          8          9         10
     6  C    0.000000
     7  N    2.428148   0.000000
     8  N    3.754096   5.647558   0.000000
     9  O    4.740434   6.326285   1.246187   0.000000
    10  O    4.133307   6.326279   1.246188   2.203723   0.000000
    11  H    2.169352   4.593617   2.680292   3.916897   2.416028
    12  H    3.905167   4.593617   2.680294   2.416038   3.916899
    13  H    3.438518   2.671832   4.633970   4.796080   5.707848
    14  H    1.094956   2.671831   4.633969   5.707850   4.796071
    15  H    2.646234   1.013418   6.232461   7.035057   6.757921
    16  H    3.353058   1.013418   6.232461   6.757928   7.035052
                   11         12         13         14         15
    11  H    0.000000
    12  H    4.313100   0.000000
    13  H    5.000109   2.501341   0.000000
    14  H    2.501341   5.000109   4.345919   0.000000
    15  H    4.758200   5.488328   3.683055   2.454933   0.000000
    16  H    5.488327   4.758201   2.454935   3.683054   1.734545
                   16
    16  H    0.000000
 Stoichiometry    C6H6N2O2
 Framework group  C1[X(C6H6N2O2)]
 Deg. of freedom    42
 Full point group                 C1      NOp   1
 Largest Abelian subgroup         C1      NOp   1
 Largest concise Abelian subgroup C1      NOp   1
                         Standard orientation:                         
 ---------------------------------------------------------------------
 Center     Atomic      Atomic             Coordinates (Angstroms)
 Number     Number       Type             X           Y           Z
 ---------------------------------------------------------------------
      1          6           0        0.021241   -1.222103   -0.002528
      2          6           0        0.716513    0.000002   -0.003763
      3          6           0        0.021240    1.222105   -0.002529
      4          6           0       -1.371417    1.222351   -0.000420
      5          6           0       -2.095933    0.000000    0.000672
      6          6           0       -1.371415   -1.222351   -0.000419
      7          7           0       -3.469451   -0.000001    0.002738
      8          7           0        2.178100    0.000001   -0.006164
      9          8           0        2.760138    1.101860    0.004810
     10          8           0        2.760132   -1.101863    0.004808
     11          1           0        0.586480   -2.156549   -0.003416
     12          1           0        0.586478    2.156551   -0.003417
     13          1           0       -1.914806    2.172960    0.000383
     14          1           0       -1.914804   -2.172959    0.000384
     15          1           0       -3.993716   -0.867274    0.003511
     16          1           0       -3.993717    0.867271    0.003512
 ---------------------------------------------------------------------
 Rotational constants (GHZ):      3.8592521      0.8123039      0.6710612
 Standard basis: 6-31+G(d,p) (6D, 7F)
 There are   220 symmetry adapted cartesian basis functions of A   symmetry.
 There are   220 symmetry adapted basis functions of A   symmetry.
   220 basis functions,   362 primitive gaussians,   220 cartesian basis functions
    36 alpha electrons       36 beta electrons
       nuclear repulsion energy       491.7225863116 Hartrees.
 NAtoms=   16 NActive=   16 NUniq=   16 SFac= 1.00D+00 NAtFMM=   60 NAOKFM=F Big=F
 Integral buffers will be    131072 words long.
 Raffenetti 2 integral format.
 Two-electron integral symmetry is turned on.
 One-electron integrals computed using PRISM.
 NBasis=   220 RedAO= T EigKep=  3.44D-06  NBF=   220
 NBsUse=   220 1.00D-06 EigRej= -1.00D+00 NBFU=   220
 Initial guess from the checkpoint file:  "pbePNA.chk"
 B after Tr=     0.000000   -0.000000   -0.000000
         Rot=    1.000000    0.000015    0.000033    0.000000 Ang=   0.00 deg.
 ExpMin= 4.38D-02 ExpMax= 5.48D+03 ExpMxC= 8.25D+02 IAcc=2 IRadAn=         4 AccDes= 0.00D+00
 Harris functional with IExCor= 1009 and IRadAn=       4 diagonalized for initial guess.
 HarFok:  IExCor= 1009 AccDes= 0.00D+00 IRadAn=         4 IDoV= 1 UseB2=F ITyADJ=14
 ICtDFT=  3500011 ScaDFX=  1.000000  1.000000  1.000000  1.000000
 FoFCou: FMM=F IPFlag=           0 FMFlag=      100000 FMFlg1=           0
         NFxFlg=           0 DoJE=T BraDBF=F KetDBF=T FulRan=T
         wScrn=  0.000000 ICntrl=     500 IOpCl=  0 I1Cent=   200000004 NGrid=           0
         NMat0=    1 NMatS0=      1 NMatT0=    0 NMatD0=    1 NMtDS0=    0 NMtDT0=    0
 Petite list used in FoFCou.
 Keep J ints in memory in canonical form, NReq=301066375.
 Requested convergence on RMS density matrix=1.00D-08 within 128 cycles.
 Requested convergence on MAX density matrix=1.00D-06.
 Requested convergence on             energy=1.00D-06.
 No special actions if energy rises.
 SCF Done:  E(RPBE-PBE) =  -491.599517304     A.U. after   13 cycles
            NFock= 13  Conv=0.20D-08     -V/T= 2.0096
 Calling FoFJK, ICntrl=      2527 FMM=F ISym2X=0 I1Cent= 0 IOpClX= 0 NMat=1 NMatS=1 NMatT=0.
 ***** Axes restored to original set *****
 -------------------------------------------------------------------
 Center     Atomic                   Forces (Hartrees/Bohr)
 Number     Number              X              Y              Z
 -------------------------------------------------------------------
      1        6           0.000516847   -0.000184607   -0.000157664
      2        6           0.000388081   -0.000000017   -0.000681790
      3        6           0.000516699    0.000184546   -0.000157632
      4        6          -0.000553330    0.000317187    0.000041688
      5        6           0.000232365    0.000000305   -0.000021645
      6        6          -0.000553126   -0.000317458    0.000041676
      7        7          -0.000806306   -0.000000181   -0.000002220
      8        7           0.003238012    0.000001163    0.003087448
      9        8          -0.001296733   -0.001596207   -0.001092726
     10        8          -0.001296968    0.001595283   -0.001092814
     11        1          -0.000048592   -0.000117249   -0.000004923
     12        1          -0.000048618    0.000117123   -0.000004941
     13        1          -0.000078816    0.000064235    0.000021730
     14        1          -0.000078847   -0.000064210    0.000021745
     15        1          -0.000065337   -0.000064031    0.000001048
     16        1          -0.000065331    0.000064117    0.000001020
 -------------------------------------------------------------------
 Cartesian Forces:  Max     0.003238012 RMS     0.000838170

 GradGradGradGradGradGradGradGradGradGradGradGradGradGradGradGradGradGrad
 Berny optimization.
 Using GEDIIS/GDIIS optimizer.
 FormGI is forming the generalized inverse of G from B-inverse, IUseBI=4.
 Internal  Forces:  Max     0.002007099 RMS     0.000511292
 Search for a local minimum.
 Step number   2 out of a maximum of   82
 All quantities printed in internal units (Hartrees-Bohrs-Radians)
 Mixed Optimization -- En-DIIS/RFO-DIIS
 Update second derivatives using D2CorX and points    1    2
 DE= -9.35D-04 DEPred=-9.89D-04 R= 9.46D-01
 TightC=F SS=  1.41D+00  RLast= 6.80D-02 DXNew= 5.0454D-01 2.0411D-01
 Trust test= 9.46D-01 RLast= 6.80D-02 DXMaxT set to 3.00D-01
 ITU=  1  0
 Use linear search instead of GDIIS.
     Eigenvalues ---    0.00996   0.01052   0.01773   0.01947   0.02016
     Eigenvalues ---    0.02078   0.02097   0.02097   0.02106   0.02155
     Eigenvalues ---    0.02167   0.02210   0.02216   0.15985   0.16000
     Eigenvalues ---    0.16000   0.16000   0.16000   0.16001   0.22000
     Eigenvalues ---    0.22972   0.24051   0.25000   0.25000   0.25000
     Eigenvalues ---    0.25124   0.35221   0.35285   0.35593   0.35669
     Eigenvalues ---    0.38211   0.40837   0.41778   0.44821   0.45665
     Eigenvalues ---    0.46469   0.46642   0.46712   0.49589   0.52167
     Eigenvalues ---    0.81832   0.88340
 RFO step:  Lambda=-4.97162749D-04 EMin= 9.96419452D-03
 Quartic linear search produced a step of -0.03992.
 Iteration  1 RMS(Cart)=  0.02636663 RMS(Int)=  0.00224663
 Iteration  2 RMS(Cart)=  0.00197480 RMS(Int)=  0.00138358
 Iteration  3 RMS(Cart)=  0.00000647 RMS(Int)=  0.00138357
 Iteration  4 RMS(Cart)=  0.00000002 RMS(Int)=  0.00138357
 Variable       Old X    -DE/DX   Delta X   Delta X   Delta X     New X
                                 (Linear)    (Quad)   (Total)
    R1        2.65703  -0.00060  -0.00059   0.00308   0.00249   2.65952
    R2        2.63174  -0.00098  -0.00057   0.00229   0.00171   2.63346
    R3        2.06377  -0.00008  -0.00071   0.00504   0.00433   2.06810
    R4        2.65703  -0.00060  -0.00059   0.00308   0.00249   2.65952
    R5        2.76200  -0.00065  -0.00068   0.00340   0.00272   2.76472
    R6        2.63174  -0.00098  -0.00057   0.00229   0.00171   2.63346
    R7        2.06377  -0.00008  -0.00071   0.00504   0.00433   2.06810
    R8        2.68519  -0.00043  -0.00062   0.00367   0.00305   2.68824
    R9        2.06917  -0.00009  -0.00068   0.00476   0.00409   2.07325
   R10        2.68519  -0.00043  -0.00062   0.00367   0.00305   2.68824
   R11        2.59557  -0.00094  -0.00032   0.00058   0.00026   2.59584
   R12        2.06917  -0.00009  -0.00068   0.00477   0.00409   2.07325
   R13        1.91508  -0.00009  -0.00056   0.00394   0.00338   1.91846
   R14        1.91508  -0.00009  -0.00056   0.00394   0.00338   1.91846
   R15        2.35495   0.00201  -0.00071   0.00748   0.00676   2.36171
   R16        2.35495   0.00201  -0.00071   0.00747   0.00676   2.36171
    A1        2.08822  -0.00016  -0.00008  -0.00013  -0.00021   2.08802
    A2        2.08033  -0.00002   0.00011  -0.00112  -0.00101   2.07933
    A3        2.11463   0.00019  -0.00004   0.00125   0.00122   2.11584
    A4        2.10709   0.00035   0.00012   0.00043   0.00055   2.10765
    A5        2.08804  -0.00018  -0.00006  -0.00021  -0.00028   2.08777
    A6        2.08805  -0.00018  -0.00006  -0.00022  -0.00028   2.08777
    A7        2.08822  -0.00016  -0.00008  -0.00013  -0.00021   2.08802
    A8        2.08033  -0.00002   0.00011  -0.00112  -0.00101   2.07933
    A9        2.11463   0.00019  -0.00004   0.00125   0.00122   2.11584
   A10        2.10567  -0.00009  -0.00003  -0.00010  -0.00014   2.10554
   A11        2.09027   0.00001   0.00003  -0.00029  -0.00025   2.09001
   A12        2.08725   0.00008   0.00000   0.00039   0.00039   2.08764
   A13        2.07149   0.00016   0.00009   0.00004   0.00013   2.07162
   A14        2.10585  -0.00008  -0.00005  -0.00002  -0.00007   2.10578
   A15        2.10585  -0.00008  -0.00005  -0.00002  -0.00006   2.10578
   A16        2.10567  -0.00009  -0.00003  -0.00010  -0.00014   2.10554
   A17        2.09027   0.00001   0.00003  -0.00029  -0.00025   2.09001
   A18        2.08725   0.00008   0.00000   0.00039   0.00039   2.08764
   A19        2.11452  -0.00001  -0.00002   0.00006   0.00004   2.11456
   A20        2.11452  -0.00001  -0.00002   0.00006   0.00004   2.11456
   A21        2.05415   0.00003   0.00004  -0.00013  -0.00009   2.05406
   A22        2.05674   0.00034   0.00013   0.00166  -0.00490   2.05184
   A23        2.05673   0.00034   0.00014   0.00167  -0.00490   2.05183
   A24        2.16950  -0.00063  -0.00026   0.00090  -0.00619   2.16331
    D1        0.00030  -0.00006  -0.00002  -0.00272  -0.00274  -0.00244
    D2       -3.14145  -0.00003  -0.00001  -0.00122  -0.00123   3.14051
    D3       -3.14147  -0.00002  -0.00001  -0.00116  -0.00116   3.14055
    D4       -0.00003   0.00001   0.00000   0.00034   0.00034   0.00031
    D5       -0.00014   0.00003   0.00001   0.00130   0.00131   0.00116
    D6        3.14142   0.00004   0.00001   0.00150   0.00151  -3.14025
    D7       -3.14155  -0.00001  -0.00000  -0.00030  -0.00030   3.14133
    D8        0.00001  -0.00000  -0.00000  -0.00009  -0.00010  -0.00008
    D9       -0.00030   0.00006   0.00002   0.00272   0.00274   0.00243
   D10        3.14147   0.00002   0.00001   0.00116   0.00116  -3.14055
   D11        3.14144   0.00003   0.00001   0.00122   0.00123  -3.14051
   D12        0.00003  -0.00001  -0.00000  -0.00034  -0.00034  -0.00031
   D13       -3.13069  -0.00118  -0.00049  -0.10404  -0.10393   3.04856
   D14       -0.01075   0.00115   0.00048   0.10256   0.10244   0.09169
   D15        0.01075  -0.00115  -0.00048  -0.10256  -0.10244  -0.09169
   D16        3.13069   0.00118   0.00049   0.10404   0.10393  -3.04856
   D17        0.00014  -0.00003  -0.00001  -0.00130  -0.00131  -0.00116
   D18       -3.14142  -0.00004  -0.00001  -0.00150  -0.00151   3.14025
   D19        3.14155   0.00001   0.00000   0.00029   0.00030  -3.14133
   D20       -0.00001   0.00000   0.00000   0.00009   0.00010   0.00008
   D21        0.00001  -0.00000  -0.00000  -0.00009  -0.00009  -0.00008
   D22       -3.14158  -0.00000  -0.00000  -0.00014  -0.00014   3.14146
   D23        3.14158   0.00000   0.00000   0.00011   0.00011  -3.14150
   D24       -0.00001   0.00000   0.00000   0.00006   0.00006   0.00005
   D25       -0.00001   0.00000   0.00000   0.00009   0.00009   0.00008
   D26       -3.14158  -0.00000  -0.00000  -0.00011  -0.00011   3.14150
   D27        3.14158   0.00000   0.00000   0.00014   0.00014  -3.14146
   D28        0.00001  -0.00000  -0.00000  -0.00006  -0.00006  -0.00005
   D29        3.14157   0.00000   0.00000   0.00007   0.00007  -3.14154
   D30        0.00001   0.00000  -0.00000  -0.00002  -0.00002  -0.00000
   D31       -0.00002  -0.00000   0.00000   0.00002   0.00002   0.00000
   D32       -3.14158  -0.00000  -0.00000  -0.00007  -0.00007   3.14154
         Item               Value     Threshold  Converged?
 Maximum Force            0.002007     0.000450     NO 
 RMS     Force            0.000511     0.000300     NO 
 Maximum Displacement     0.117894     0.001800     NO 
 RMS     Displacement     0.026400     0.001200     NO 
 Predicted change in Energy=-2.487625D-04
 GradGradGradGradGradGradGradGradGradGradGradGradGradGradGradGradGradGrad

                          Input orientation:                          
 ---------------------------------------------------------------------
 Center     Atomic      Atomic             Coordinates (Angstroms)
 Number     Number       Type             X           Y           Z
 ---------------------------------------------------------------------
      1          6           0       -0.025323    1.223443    0.018135
      2          6           0       -0.720866    0.000001    0.025934
      3          6           0       -0.025323   -1.223441    0.018207
      4          6           0        1.368185   -1.223787    0.005604
      5          6           0        2.093418    0.000000   -0.000940
      6          6           0        1.368185    1.223788    0.005533
      7          7           0        3.467022   -0.000000   -0.013209
      8          7           0       -2.183821    0.000001    0.040538
      9          8           0       -2.763081   -1.103214   -0.055837
     10          8           0       -2.763078    1.103212   -0.055904
     11          1           0       -0.592927    2.159120    0.023445
     12          1           0       -0.592926   -2.159118    0.023572
     13          1           0        1.912318   -2.176450    0.000840
     14          1           0        1.912317    2.176450    0.000713
     15          1           0        3.992230    0.868780   -0.017903
     16          1           0        3.992230   -0.868781   -0.017851
 ---------------------------------------------------------------------
                    Distance matrix (angstroms):
                    1          2          3          4          5
     1  C    0.000000
     2  C    1.407356   0.000000
     3  C    2.446884   1.407356   0.000000
     4  C    2.816195   2.421200   1.393565   0.000000
     5  C    2.446679   2.814413   2.446679   1.422554   0.000000
     6  C    1.393565   2.421199   2.816195   2.447574   1.422554
     7  N    3.700577   4.188071   3.700577   2.429634   1.373659
     8  N    2.481215   1.463028   2.481215   3.757077   4.277440
     9  O    3.593622   2.322587   2.741397   4.133482   4.980530
    10  O    2.741394   2.322585   3.593621   4.741945   4.980527
    11  H    1.094392   2.162908   3.429857   3.910286   3.446569
    12  H    3.429857   2.162908   1.094391   2.172815   3.446569
    13  H    3.913313   3.416317   2.159393   1.097118   2.183972
    14  H    2.159393   3.416317   3.913313   3.443503   2.183972
    15  H    4.033338   4.792700   4.529838   3.356337   2.088194
    16  H    4.529838   4.792701   4.033339   2.648054   2.088195
                    6          7          8          9         10
     6  C    0.000000
     7  N    2.429634   0.000000
     8  N    3.757077   5.651099   0.000000
     9  O    4.741947   6.327170   1.249765   0.000000
    10  O    4.133479   6.327167   1.249765   2.206426   0.000000
    11  H    2.172815   4.598513   2.681983   3.919015   2.414704
    12  H    3.910285   4.598512   2.681983   2.414708   3.919014
    13  H    3.443503   2.674740   4.638628   4.797333   5.711280
    14  H    1.097119   2.674740   4.638628   5.711282   4.797329
    15  H    2.648054   1.015207   6.237131   7.037360   6.759482
    16  H    3.356338   1.015207   6.237131   6.759485   7.037357
                   11         12         13         14         15
    11  H    0.000000
    12  H    4.318238   0.000000
    13  H    5.007387   2.505406   0.000000
    14  H    2.505407   5.007386   4.352900   0.000000
    15  H    4.763439   5.494865   3.687792   2.456905   0.000000
    16  H    5.494866   4.763438   2.456905   3.687793   1.737561
                   16
    16  H    0.000000
 Stoichiometry    C6H6N2O2
 Framework group  C1[X(C6H6N2O2)]
 Deg. of freedom    42
 Full point group                 C1      NOp   1
 Largest Abelian subgroup         C1      NOp   1
 Largest concise Abelian subgroup C1      NOp   1
                         Standard orientation:                         
 ---------------------------------------------------------------------
 Center     Atomic      Atomic             Coordinates (Angstroms)
 Number     Number       Type             X           Y           Z
 ---------------------------------------------------------------------
      1          6           0        0.021709   -1.223442    0.021799
      2          6           0        0.717216    0.000000    0.032339
      3          6           0        0.021709    1.223442    0.021799
      4          6           0       -1.371738    1.223787    0.003633
      5          6           0       -2.096939    0.000000   -0.005771
      6          6           0       -1.371738   -1.223787    0.003633
      7          7           0       -3.470483    0.000000   -0.023524
      8          7           0        2.180101    0.000000    0.052784
      9          8           0        2.759741    1.103212   -0.041310
     10          8           0        2.759738   -1.103213   -0.041312
     11          1           0        0.589287   -2.159119    0.029403
     12          1           0        0.589286    2.159119    0.029402
     13          1           0       -1.915847    2.176450   -0.003332
     14          1           0       -1.915847   -2.176450   -0.003330
     15          1           0       -3.995668   -0.868781   -0.030289
     16          1           0       -3.995669    0.868781   -0.030289
 ---------------------------------------------------------------------
 Rotational constants (GHZ):      3.8462065      0.8117679      0.6705275
 Standard basis: 6-31+G(d,p) (6D, 7F)
 There are   220 symmetry adapted cartesian basis functions of A   symmetry.
 There are   220 symmetry adapted basis functions of A   symmetry.
   220 basis functions,   362 primitive gaussians,   220 cartesian basis functions
    36 alpha electrons       36 beta electrons
       nuclear repulsion energy       491.2542744140 Hartrees.
 NAtoms=   16 NActive=   16 NUniq=   16 SFac= 1.00D+00 NAtFMM=   60 NAOKFM=F Big=F
 Integral buffers will be    131072 words long.
 Raffenetti 2 integral format.
 Two-electron integral symmetry is turned on.
 One-electron integrals computed using PRISM.
 NBasis=   220 RedAO= T EigKep=  3.47D-06  NBF=   220
 NBsUse=   220 1.00D-06 EigRej= -1.00D+00 NBFU=   220
 Initial guess from the checkpoint file:  "pbePNA.chk"
 B after Tr=    -0.000000   -0.000000   -0.000000
         Rot=    1.000000   -0.000000   -0.000002   -0.000000 Ang=  -0.00 deg.
 ExpMin= 4.38D-02 ExpMax= 5.48D+03 ExpMxC= 8.25D+02 IAcc=2 IRadAn=         4 AccDes= 0.00D+00
 Harris functional with IExCor= 1009 and IRadAn=       4 diagonalized for initial guess.
 HarFok:  IExCor= 1009 AccDes= 0.00D+00 IRadAn=         4 IDoV= 1 UseB2=F ITyADJ=14
 ICtDFT=  3500011 ScaDFX=  1.000000  1.000000  1.000000  1.000000
 FoFCou: FMM=F IPFlag=           0 FMFlag=      100000 FMFlg1=           0
         NFxFlg=           0 DoJE=T BraDBF=F KetDBF=T FulRan=T
         wScrn=  0.000000 ICntrl=     500 IOpCl=  0 I1Cent=   200000004 NGrid=           0
         NMat0=    1 NMatS0=      1 NMatT0=    0 NMatD0=    1 NMtDS0=    0 NMtDT0=    0
 Petite list used in FoFCou.
 Keep J ints in memory in canonical form, NReq=301066375.
 Requested convergence on RMS density matrix=1.00D-08 within 128 cycles.
 Requested convergence on MAX density matrix=1.00D-06.
 Requested convergence on             energy=1.00D-06.
 No special actions if energy rises.
 SCF Done:  E(RPBE-PBE) =  -491.597664553     A.U. after   13 cycles
            NFock= 13  Conv=0.53D-08     -V/T= 2.0098
 Calling FoFJK, ICntrl=      2527 FMM=F ISym2X=0 I1Cent= 0 IOpClX= 0 NMat=1 NMatS=1 NMatT=0.
 ***** Axes restored to original set *****
 -------------------------------------------------------------------
 Center     Atomic                   Forces (Hartrees/Bohr)
 Number     Number              X              Y              Z
 -------------------------------------------------------------------
      1        6           0.000065357    0.000001359    0.001322705
      2        6           0.000920228   -0.000000093    0.005854548
      3        6           0.000065635   -0.000001013    0.001322689
      4        6          -0.000242093    0.000209854   -0.000345236
      5        6          -0.000665086   -0.000000090    0.000184413
      6        6          -0.000241817   -0.000209791   -0.000345246
      7        7           0.000446363    0.000000142    0.000007758
      8        7           0.001913998   -0.000000560   -0.026799985
      9        8          -0.000366045    0.000993441    0.009546659
     10        8          -0.000366471   -0.000992855    0.009546711
     11        1           0.000823047   -0.001395817    0.000032004
     12        1           0.000822848    0.001395569    0.000031929
     13        1          -0.000724864    0.001328549   -0.000177409
     14        1          -0.000724944   -0.001328650   -0.000177331
     15        1          -0.000863058   -0.001394516   -0.000002055
     16        1          -0.000863098    0.001394471   -0.000002152
 -------------------------------------------------------------------
 Cartesian Forces:  Max     0.026799985 RMS     0.004475505

 GradGradGradGradGradGradGradGradGradGradGradGradGradGradGradGradGradGrad
 Berny optimization.
 Using GEDIIS/GDIIS optimizer.
 FormGI is forming the generalized inverse of G from B-inverse, IUseBI=4.
 Internal  Forces:  Max     0.010049057 RMS     0.002495365
 Search for a local minimum.
 Step number   3 out of a maximum of   82
 All quantities printed in internal units (Hartrees-Bohrs-Radians)
 Mixed Optimization -- RFO/linear search
 Update second derivatives using D2CorX and points    1    3    2
 DE=  1.85D-03 DEPred=-2.49D-04 R=-7.45D+00
 Trust test=-7.45D+00 RLast= 2.07D-01 DXMaxT set to 1.50D-01
 ITU= -1  1  0
 Use linear search instead of GDIIS.
 Energy rises -- skip Quadratic/GDIIS search.
 Quartic linear search produced a step of -0.89434.
 Iteration  1 RMS(Cart)=  0.02357449 RMS(Int)=  0.00144377
 Iteration  2 RMS(Cart)=  0.00158405 RMS(Int)=  0.00013006
 Iteration  3 RMS(Cart)=  0.00000361 RMS(Int)=  0.00013003
 Iteration  4 RMS(Cart)=  0.00000000 RMS(Int)=  0.00013003
 Variable       Old X    -DE/DX   Delta X   Delta X   Delta X     New X
                                 (Linear)    (Quad)   (Total)
    R1        2.65952  -0.00178  -0.00223   0.00000  -0.00223   2.65729
    R2        2.63346  -0.00194  -0.00153   0.00000  -0.00153   2.63192
    R3        2.06810  -0.00162  -0.00387   0.00000  -0.00387   2.06423
    R4        2.65952  -0.00178  -0.00223   0.00000  -0.00223   2.65729
    R5        2.76472  -0.00126  -0.00243   0.00000  -0.00243   2.76229
    R6        2.63346  -0.00194  -0.00153   0.00000  -0.00153   2.63192
    R7        2.06810  -0.00162  -0.00387   0.00000  -0.00387   2.06423
    R8        2.68824  -0.00177  -0.00273   0.00000  -0.00273   2.68551
    R9        2.07325  -0.00151  -0.00365   0.00000  -0.00365   2.06960
   R10        2.68824  -0.00177  -0.00273   0.00000  -0.00273   2.68551
   R11        2.59584  -0.00128  -0.00024   0.00000  -0.00024   2.59560
   R12        2.07325  -0.00151  -0.00365   0.00000  -0.00365   2.06960
   R13        1.91846  -0.00164  -0.00302   0.00000  -0.00302   1.91544
   R14        1.91846  -0.00164  -0.00302   0.00000  -0.00302   1.91544
   R15        2.36171  -0.00144  -0.00605   0.00000  -0.00605   2.35567
   R16        2.36171  -0.00144  -0.00605   0.00000  -0.00605   2.35567
    A1        2.08802  -0.00014   0.00019   0.00000   0.00019   2.08820
    A2        2.07933   0.00005   0.00090   0.00000   0.00090   2.08023
    A3        2.11584   0.00009  -0.00109   0.00000  -0.00109   2.11476
    A4        2.10765   0.00024  -0.00050   0.00000  -0.00050   2.10715
    A5        2.08777  -0.00012   0.00025   0.00000   0.00025   2.08802
    A6        2.08777  -0.00012   0.00025   0.00000   0.00025   2.08802
    A7        2.08802  -0.00014   0.00019   0.00000   0.00019   2.08820
    A8        2.07933   0.00005   0.00090   0.00000   0.00090   2.08023
    A9        2.11584   0.00009  -0.00109   0.00000  -0.00109   2.11476
   A10        2.10554  -0.00004   0.00012   0.00000   0.00012   2.10566
   A11        2.09001   0.00005   0.00023   0.00000   0.00023   2.09024
   A12        2.08764  -0.00001  -0.00035   0.00000  -0.00035   2.08729
   A13        2.07162   0.00012  -0.00012   0.00000  -0.00012   2.07150
   A14        2.10578  -0.00006   0.00006   0.00000   0.00006   2.10584
   A15        2.10578  -0.00006   0.00006   0.00000   0.00006   2.10584
   A16        2.10554  -0.00004   0.00012   0.00000   0.00012   2.10566
   A17        2.09001   0.00005   0.00023   0.00000   0.00023   2.09024
   A18        2.08764  -0.00001  -0.00035   0.00000  -0.00035   2.08729
   A19        2.11456  -0.00001  -0.00004   0.00000  -0.00004   2.11452
   A20        2.11456  -0.00001  -0.00004   0.00000  -0.00004   2.11452
   A21        2.05406   0.00002   0.00008   0.00000   0.00008   2.05414
   A22        2.05184   0.00219   0.00438   0.00000   0.00502   2.05686
   A23        2.05183   0.00219   0.00438   0.00000   0.00502   2.05685
   A24        2.16331  -0.00084   0.00554   0.00000   0.00617   2.16948
    D1       -0.00244   0.00052   0.00245   0.00000   0.00245   0.00001
    D2        3.14051   0.00027   0.00110   0.00000   0.00110  -3.14157
    D3        3.14055   0.00021   0.00104   0.00000   0.00104   3.14159
    D4        0.00031  -0.00004  -0.00031   0.00000  -0.00031   0.00000
    D5        0.00116  -0.00025  -0.00117   0.00000  -0.00117  -0.00001
    D6       -3.14025  -0.00030  -0.00135   0.00000  -0.00135   3.14158
    D7        3.14133   0.00007   0.00027   0.00000   0.00027  -3.14158
    D8       -0.00008   0.00002   0.00009   0.00000   0.00009   0.00000
    D9        0.00243  -0.00052  -0.00245   0.00000  -0.00245  -0.00001
   D10       -3.14055  -0.00021  -0.00104   0.00000  -0.00104  -3.14159
   D11       -3.14051  -0.00027  -0.00110   0.00000  -0.00110   3.14157
   D12       -0.00031   0.00004   0.00031   0.00000   0.00031  -0.00000
   D13        3.04856   0.01005   0.09295   0.00000   0.09295   3.14151
   D14        0.09169  -0.00980  -0.09162   0.00000  -0.09162   0.00008
   D15       -0.09169   0.00980   0.09162   0.00000   0.09162  -0.00007
   D16       -3.04856  -0.01005  -0.09295   0.00000  -0.09295  -3.14151
   D17       -0.00116   0.00025   0.00117   0.00000   0.00117   0.00001
   D18        3.14025   0.00030   0.00135   0.00000   0.00135  -3.14158
   D19       -3.14133  -0.00007  -0.00027   0.00000  -0.00027   3.14159
   D20        0.00008  -0.00002  -0.00009   0.00000  -0.00009  -0.00000
   D21       -0.00008   0.00001   0.00008   0.00000   0.00008  -0.00000
   D22        3.14146   0.00003   0.00013   0.00000   0.00013   3.14159
   D23       -3.14150  -0.00004  -0.00010   0.00000  -0.00010   3.14159
   D24        0.00005  -0.00002  -0.00005   0.00000  -0.00005  -0.00001
   D25        0.00008  -0.00001  -0.00008   0.00000  -0.00008   0.00000
   D26        3.14150   0.00004   0.00010   0.00000   0.00010  -3.14159
   D27       -3.14146  -0.00003  -0.00013   0.00000  -0.00013  -3.14159
   D28       -0.00005   0.00002   0.00005   0.00000   0.00005   0.00001
   D29       -3.14154  -0.00002  -0.00006   0.00000  -0.00006   3.14158
   D30       -0.00000  -0.00000   0.00001   0.00000   0.00001   0.00001
   D31        0.00000   0.00000  -0.00001   0.00000  -0.00001  -0.00001
   D32        3.14154   0.00002   0.00006   0.00000   0.00006  -3.14158
         Item               Value     Threshold  Converged?
 Maximum Force            0.010049     0.000450     NO 
 RMS     Force            0.002495     0.000300     NO 
 Maximum Displacement     0.105494     0.001800     NO 
 RMS     Displacement     0.023622     0.001200     NO 
 Predicted change in Energy=-2.844381D-05
 GradGradGradGradGradGradGradGradGradGradGradGradGradGradGradGradGradGrad

                          Input orientation:                          
 ---------------------------------------------------------------------
 Center     Atomic      Atomic             Coordinates (Angstroms)
 Number     Number       Type             X           Y           Z
 ---------------------------------------------------------------------
      1          6           0       -0.024754    1.222245    0.000039
      2          6           0       -0.720060   -0.000001    0.000069
      3          6           0       -0.024753   -1.222246    0.000111
      4          6           0        1.368001   -1.222503    0.000109
      5          6           0        2.092597   -0.000000    0.000073
      6          6           0        1.368000    1.222503    0.000038
      7          7           0        3.466131    0.000001    0.000075
      8          7           0       -2.181801   -0.000000    0.000048
      9          8           0       -2.764129   -1.102189   -0.000012
     10          8           0       -2.764122    1.102193   -0.000080
     11          1           0       -0.590246    2.156821    0.000005
     12          1           0       -0.590244   -2.156822    0.000132
     13          1           0        1.911472   -2.173329    0.000132
     14          1           0        1.911470    2.173328    0.000005
     15          1           0        3.990498    0.867433    0.000039
     16          1           0        3.990499   -0.867431    0.000092
 ---------------------------------------------------------------------
                    Distance matrix (angstroms):
                    1          2          3          4          5
     1  C    0.000000
     2  C    1.406178   0.000000
     3  C    2.444490   1.406177   0.000000
     4  C    2.813638   2.419610   1.392754   0.000000
     5  C    2.444802   2.812658   2.444802   1.421110   0.000000
     6  C    1.392754   2.419609   2.813637   2.445006   1.421110
     7  N    3.698670   4.186191   3.698670   2.428305   1.373534
     8  N    2.479261   1.461741   2.479262   3.754412   4.274399
     9  O    3.592654   2.322290   2.742005   4.133881   4.980221
    10  O    2.741998   2.322288   3.592653   4.741166   4.980216
    11  H    1.092343   2.160725   3.426058   3.905709   3.442314
    12  H    3.426058   2.160725   1.092343   2.169718   3.442313
    13  H    3.908822   3.412963   2.157203   1.095185   2.180863
    14  H    2.157203   3.412963   3.908821   3.439045   2.180863
    15  H    4.030899   4.789760   4.526478   3.353405   2.086736
    16  H    4.526478   4.789760   4.030899   2.646427   2.086736
                    6          7          8          9         10
     6  C    0.000000
     7  N    2.428305   0.000000
     8  N    3.754411   5.647932   0.000000
     9  O    4.741168   6.327002   1.246565   0.000000
    10  O    4.133873   6.326997   1.246566   2.204381   0.000000
    11  H    2.169718   4.594134   2.680471   3.917513   2.416191
    12  H    3.905708   4.594134   2.680473   2.416201   3.917515
    13  H    3.439045   2.672139   4.634462   4.796726   5.708784
    14  H    1.095185   2.672138   4.634461   5.708786   4.796718
    15  H    2.646426   1.013607   6.232955   7.035936   6.758699
    16  H    3.353405   1.013607   6.232955   6.758706   7.035931
                   11         12         13         14         15
    11  H    0.000000
    12  H    4.313643   0.000000
    13  H    5.000878   2.501770   0.000000
    14  H    2.501771   5.000878   4.346657   0.000000
    15  H    4.758754   5.489018   3.683556   2.455142   0.000000
    16  H    5.489018   4.758754   2.455143   3.683555   1.734864
                   16
    16  H    0.000000
 Stoichiometry    C6H6N2O2
 Framework group  C1[X(C6H6N2O2)]
 Deg. of freedom    42
 Full point group                 C1      NOp   1
 Largest Abelian subgroup         C1      NOp   1
 Largest concise Abelian subgroup C1      NOp   1
                         Standard orientation:                         
 ---------------------------------------------------------------------
 Center     Atomic      Atomic             Coordinates (Angstroms)
 Number     Number       Type             X           Y           Z
 ---------------------------------------------------------------------
      1          6           0        0.021170   -1.222244   -0.000005
      2          6           0        0.716476    0.000001    0.000025
      3          6           0        0.021169    1.222246    0.000067
      4          6           0       -1.371585    1.222503    0.000065
      5          6           0       -2.096182    0.000000    0.000029
      6          6           0       -1.371584   -1.222502   -0.000006
      7          7           0       -3.469715   -0.000001    0.000031
      8          7           0        2.178217    0.000001    0.000004
      9          8           0        2.760544    1.102189   -0.000056
     10          8           0        2.760538   -1.102192   -0.000124
     11          1           0        0.586662   -2.156821   -0.000039
     12          1           0        0.586660    2.156823    0.000088
     13          1           0       -1.915056    2.173329    0.000088
     14          1           0       -1.915054   -2.173328   -0.000039
     15          1           0       -3.994083   -0.867433   -0.000005
     16          1           0       -3.994084    0.867431    0.000048
 ---------------------------------------------------------------------
 Rotational constants (GHZ):      3.8579319      0.8121292      0.6708989
 Standard basis: 6-31+G(d,p) (6D, 7F)
 There are   220 symmetry adapted cartesian basis functions of A   symmetry.
 There are   220 symmetry adapted basis functions of A   symmetry.
   220 basis functions,   362 primitive gaussians,   220 cartesian basis functions
    36 alpha electrons       36 beta electrons
       nuclear repulsion energy       491.6548206340 Hartrees.
 NAtoms=   16 NActive=   16 NUniq=   16 SFac= 1.00D+00 NAtFMM=   60 NAOKFM=F Big=F
 Integral buffers will be    131072 words long.
 Raffenetti 2 integral format.
 Two-electron integral symmetry is turned on.
 One-electron integrals computed using PRISM.
 NBasis=   220 RedAO= T EigKep=  3.44D-06  NBF=   220
 NBsUse=   220 1.00D-06 EigRej= -1.00D+00 NBFU=   220
 Lowest energy guess from the checkpoint file:  "pbePNA.chk"
 B after Tr=    -0.000000    0.000000    0.000000
         Rot=    1.000000   -0.000015   -0.000009   -0.000000 Ang=  -0.00 deg.
 B after Tr=     0.000000    0.000000    0.000000
         Rot=    1.000000   -0.000015   -0.000006    0.000000 Ang=  -0.00 deg.
 Keep J ints in memory in canonical form, NReq=301066375.
 Requested convergence on RMS density matrix=1.00D-08 within 128 cycles.
 Requested convergence on MAX density matrix=1.00D-06.
 Requested convergence on             energy=1.00D-06.
 No special actions if energy rises.
 SCF Done:  E(RPBE-PBE) =  -491.599543451     A.U. after   10 cycles
            NFock= 10  Conv=0.31D-08     -V/T= 2.0097
 Calling FoFJK, ICntrl=      2527 FMM=F ISym2X=0 I1Cent= 0 IOpClX= 0 NMat=1 NMatS=1 NMatT=0.
 ***** Axes restored to original set *****
 -------------------------------------------------------------------
 Center     Atomic                   Forces (Hartrees/Bohr)
 Number     Number              X              Y              Z
 -------------------------------------------------------------------
      1        6           0.000467786   -0.000161184   -0.000000069
      2        6           0.000334656   -0.000000026    0.000005443
      3        6           0.000467705    0.000161165   -0.000000081
      4        6          -0.000525775    0.000301170   -0.000000097
      5        6           0.000142687    0.000000266    0.000000289
      6        6          -0.000525579   -0.000301406   -0.000000066
      7        7          -0.000679813   -0.000000146    0.000000003
      8        7           0.002921066    0.000001038   -0.000021387
      9        8          -0.001045634   -0.001140283    0.000007755
     10        8          -0.001045863    0.001139470    0.000007690
     11        1           0.000041961   -0.000251590    0.000000219
     12        1           0.000041912    0.000251444    0.000000193
     13        1          -0.000147585    0.000198791    0.000000099
     14        1          -0.000147622   -0.000198782    0.000000109
     15        1          -0.000149953   -0.000205043   -0.000000047
     16        1          -0.000149951    0.000205114   -0.000000055
[...]
 ! A23   A(2,8,10)             117.9297         -DE/DX =    0.0                 !
 ! A24   A(9,8,10)             124.1405         -DE/DX =   -0.0001              !
 ! D1    D(6,1,2,3)             -0.0002         -DE/DX =    0.0                 !
 ! D2    D(6,1,2,8)           -180.0001         -DE/DX =    0.0                 !
 ! D3    D(11,1,2,3)           179.9998         -DE/DX =    0.0                 !
 ! D4    D(11,1,2,8)             0.0            -DE/DX =    0.0                 !
 ! D5    D(2,1,6,5)              0.0001         -DE/DX =    0.0                 !
 ! D6    D(2,1,6,14)          -179.9999         -DE/DX =    0.0                 !
 ! D7    D(11,1,6,5)          -180.0            -DE/DX =    0.0                 !
 ! D8    D(11,1,6,14)            0.0            -DE/DX =    0.0                 !
 ! D9    D(1,2,3,4)              0.0002         -DE/DX =    0.0                 !
 ! D10   D(1,2,3,12)          -179.9999         -DE/DX =    0.0                 !
 ! D11   D(8,2,3,4)            180.0001         -DE/DX =    0.0                 !
 ! D12   D(8,2,3,12)             0.0            -DE/DX =    0.0                 !
 ! D13   D(1,2,8,9)           -180.0097         -DE/DX =    0.0                 !
 ! D14   D(1,2,8,10)             0.0097         -DE/DX =    0.0                 !
 ! D15   D(3,2,8,9)             -0.0095         -DE/DX =    0.0                 !
 ! D16   D(3,2,8,10)          -179.9902         -DE/DX =    0.0                 !
 ! D17   D(2,3,4,5)             -0.0001         -DE/DX =    0.0                 !
 ! D18   D(2,3,4,13)           179.9999         -DE/DX =    0.0                 !
 ! D19   D(12,3,4,5)           180.0            -DE/DX =    0.0                 !
 ! D20   D(12,3,4,13)            0.0            -DE/DX =    0.0                 !
 ! D21   D(3,4,5,6)              0.0            -DE/DX =    0.0                 !
 ! D22   D(3,4,5,7)            179.9999         -DE/DX =    0.0                 !
 ! D23   D(13,4,5,6)          -180.0            -DE/DX =    0.0                 !
 ! D24   D(13,4,5,7)            -0.0001         -DE/DX =    0.0                 !
 ! D25   D(4,5,6,1)              0.0            -DE/DX =    0.0                 !
 ! D26   D(4,5,6,14)           180.0            -DE/DX =    0.0                 !
 ! D27   D(7,5,6,1)           -179.9999         -DE/DX =    0.0                 !
 ! D28   D(7,5,6,14)             0.0001         -DE/DX =    0.0                 !
 ! D29   D(4,5,7,15)           179.9991         -DE/DX =    0.0                 !
 ! D30   D(4,5,7,16)             0.0009         -DE/DX =    0.0                 !
 ! D31   D(6,5,7,15)            -0.001          -DE/DX =    0.0                 !
 ! D32   D(6,5,7,16)          -179.9993         -DE/DX =    0.0                 !
 --------------------------------------------------------------------------------
 GradGradGradGradGradGradGradGradGradGradGradGradGradGradGradGradGradGrad

 1\1\ WCSS.PL-BEM-QINLAB\Freq\RPBEPBE\6-31+G(d,p)\C6H6N2O2\PHZD\13-Jun-
 2024\0\\#N Geom=AllCheck Guess=TCheck SCRF=Check GenChk RPBEPBE/6-31+G
 (d,p) Freq\\[No Title]\\0,1\C,-0.0240243397,1.2221178277,0.0000450934\
 C,-0.7179929238,0.0000000664,0.000086374\C,-0.0240242872,-1.2221176697
 ,0.0001165565\C,1.3675231533,-1.2222466093,0.0001105579\C,2.0914281429
 ,0.0000001257,0.0000716337\C,1.3675230512,1.2222468236,0.0000391264\N,
 3.4638589235,0.0000002598,0.00006849\N,-2.1777826478,0.000000212,0.000
 0946333\O,-2.7623270631,-1.1026259813,-0.0000542373\O,-2.7623261556,1.
 1026269934,-0.0001215523\H,-0.5907603982,2.1555065633,0.0000198196\H,-
 0.5907602157,-2.1555064551,0.000146029\H,1.9110181563,-2.1726370368,0.
 0001361298\H,1.911018093,2.1726372393,0.000008889\H,3.9880936567,0.867
 1850348,0.0000277999\H,3.9880938542,-0.8671843884,0.0000806569\\Versio
 n=ES64L-G09RevE.01\State=1-A\HF=-491.5995571\RMSD=4.870e-09\RMSF=6.137
 e-05\ZeroPoint=0.1155378\Thermal=0.1237457\Dipole=3.172513,-0.0000004,
 0.000137\DipoleDeriv=0.5255572,0.0876447,-0.0000003,0.2882955,0.057461
 8,0.0000023,0.0000209,-0.0000111,-0.0593905,-1.1812802,0.,-0.0000342,0
 .,-0.1571294,0.0000052,0.0000138,0.0000052,0.0164896,0.5255574,-0.0876
 448,0.0000047,-0.2882956,0.0574619,-0.000009,0.0000382,0.000004,-0.059
 3905,-0.593492,-0.015362,-0.0000056,-0.5494066,0.0337039,-0.0000078,0.
 0000291,-0.000006,-0.1881141,1.9259116,0.0000001,0.0000069,0.0000002,0
 .1020767,0.0000007,-0.0000038,0.0000006,0.1184206,-0.593492,0.015362,-
 0.0000065,0.5494065,0.033704,-0.0000052,-0.0000041,-0.0000073,-0.18811
 4,-1.788863,0.,-0.0000115,-0.0000001,-0.1235429,-0.0000129,-0.0000198,
 -0.000013,-0.5516319,2.5564173,0.0000004,0.0000465,0.0000001,1.4056352
 ,-0.0000376,0.0001887,-0.0000374,0.1855115,-0.9858711,-0.3364718,0.000
 0076,-0.5908366,-0.8576363,0.0000428,-0.0001114,-0.0000855,-0.2394171,
 -0.9858706,0.3364714,-0.0000131,0.5908365,-0.8576366,-0.0000049,-0.000
 1473,0.0001233,-0.2394171,0.1023939,0.0459205,0.0000004,0.018546,0.049
 9929,0.0000012,-0.0000021,0.0000029,0.1383309,0.1023938,-0.0459205,0.0
 00003,-0.0185461,0.0499928,0.0000039,-0.0000012,0.0000025,0.1383309,-0
 .0163458,0.0823007,-0.0000034,0.0746586,-0.0384136,0.0000048,-0.000012
 3,0.0000017,0.1424636,-0.0163458,-0.0823007,0.0000015,-0.0746586,-0.03
 84136,0.0000058,-0.0000077,0.0000091,0.1424636,0.2116646,0.0422636,0.0
 000006,0.0924542,0.1413717,0.0000078,0.0000073,0.0000069,0.3217322,0.2
 116646,-0.0422636,0.0000033,-0.0924542,0.1413717,0.000003,0.0000118,0.
 000004,0.3217323\Polar=170.1739768,0.0000005,102.6800405,0.0021353,-0.
 0015102,51.6332711\PG=C01 [X(C6H6N2O2)]\NImag=1\\0.69307875,-0.0356270
 8,0.68499402,-0.00000274,-0.00001649,0.12288418,-0.13470524,-0.0999485
 1,0.00000442,0.52811413,-0.05880291,-0.27663945,0.00000717,-0.00000003
 ,0.71427648,0.00000463,0.00000730,-0.05141182,0.00000566,-0.00001774,0
 .11034533,0.04127032,0.01523039,-0.00000091,-0.13470526,0.05880291,0.0
 0000117,0.69307859,-0.01523038,-0.05024018,0.00000222,0.09994851,-0.27
 663944,0.00000588,0.03562711,0.68499408,-0.00000004,0.00000092,0.00403
 235,-0.00000148,0.00000603,-0.05141181,-0.00000483,-0.00001633,0.12288
 417,-0.03145000,-0.02228517,0.00000098,-0.03620299,0.05684071,-0.00000
 189,-0.36435903,-0.02363770,0.00000289,0.69962525,-0.01419207,-0.01228
 223,0.00000049,0.01996540,0.02089429,-0.00000156,0.02499232,-0.1130818
 9,0.00000197,-0.03583854,0.65502712,0.00000074,0.00000080,-0.00101773,
 0.00000018,-0.00000102,0.00415448,0.00000071,0.00000233,-0.04869564,-0
 .00000159,-0.00001504,0.10867311,-0.03023442,0.02803558,-0.00000108,0.
 01293187,0.,0.00000015,-0.03023442,-0.02803559,0.00000057,-0.14433482,
 -0.09358799,0.00000313,0.71102182,0.06164850,0.03081619,-0.00000129,0.
 ,-0.05284003,0.00000144,-0.06164850,0.03081618,-0.00000055,-0.04100001
 ,-0.25508953,0.00000526,0.00000004,0.65147721,-0.00000222,-0.00000157,
 -0.00038118,0.00000006,0.00000143,-0.00415536,0.00000136,-0.00000024,-
 0.00038118,0.00000216,0.00000612,-0.06162363,-0.00000281,-0.00001472,0
 .14950684,-0.36435916,0.02363769,0.00000146,-0.03620299,-0.05684071,0.
 00000141,-0.03145000,0.02228517,-0.00000034,0.04357311,0.01058660,-0.0
 0000074,-0.14433481,0.04100000,-0.00000022,0.69962540,-0.02499233,-0.1
 1308190,0.00000177,-0.01996540,0.02089429,0.00000057,0.01419207,-0.012
 28223,0.00000016,-0.01058659,-0.03973228,0.00000123,0.09358799,-0.2550
 8949,0.00000518,0.03583856,0.65502705,0.00000222,0.00000139,-0.0486956
 4,0.00000137,0.00000002,0.00415448,-0.00000012,-0.00000013,-0.00101773
 ,-0.00000015,0.00000135,0.00528510,-0.00000234,0.00000604,-0.06162364,
 -0.00000373,-0.00001681,0.10867311,0.00917093,0.00122663,0.00000038,-0
 .01515352,0.,-0.00000044,0.00917093,-0.00122662,0.00000046,-0.04187682
 ,-0.01583304,0.00000070,-0.35064753,-0.00000002,0.00000079,-0.04187684
 ,0.01583304,-0.00000023,0.75310541,-0.00517859,-0.00934365,0.00000048,
 0.,0.00574214,-0.00000019,0.00517859,-0.00934364,0.00000028,-0.0456420
 1,0.00105649,0.00000047,-0.00000002,-0.12152844,0.00000267,0.04564201,
 0.00105649,-0.00000002,-0.00000003,0.83480868,0.00000042,0.00000048,0.
 00357340,-0.00000025,-0.00000018,-0.00085534,0.00000015,0.00000027,0.0
 0357340,0.00000128,0.00000003,0.00862908,0.00000236,0.00000270,-0.0327
 5671,-0.00000139,0.00000040,0.00862909,-0.00000977,-0.00002521,0.00642
 428,-0.04029680,-0.02161648,0.00000098,-0.12045755,0.,0.00000980,-0.04
 029678,0.02161648,-0.00000029,0.01285808,0.00693857,-0.00000120,-0.014
 65002,0.,0.00000018,0.01285807,-0.00693858,-0.00000078,0.01451365,0.,0
 .00000023,0.59563817,-0.02360931,0.01193770,0.00000077,0.,-0.09894896,
 0.00000100,0.02360933,0.01193768,-0.00000185,0.00458313,-0.00661667,-0
 .00000012,0.,-0.00509846,0.00000009,-0.00458313,-0.00661668,0.00000093
 ,0.,0.00030721,-0.00000002,0.00000032,0.84575839,-0.00000049,-0.000002
 72,-0.00644041,-0.00000427,0.00000095,-0.06404949,-0.00000186,0.000001
 65,-0.00644042,0.00000010,0.00000019,0.00718718,-0.00000072,0.00000009
 ,-0.00203694,0.00000038,0.00000061,0.00718717,0.00000069,-0.00000002,-
 0.00037520,0.00006272,-0.00001955,0.20686389,-0.00296741,0.00722218,-0
 .00000114,-0.03962961,-0.04723772,-0.00000878,-0.00102480,-0.00312919,
 -0.00000014,-0.00181033,-0.00213534,0.00000014,0.00377708,-0.00178551,
 -0.00000014,-0.00379735,-0.00060945,0.00000059,-0.00408336,0.00032259,
 -0.00000003,-0.21159191,-0.15819945,-0.00002363,0.22305946,0.00083787,
 0.00361315,-0.00000062,-0.03962109,-0.01264102,-0.00000622,0.01121616,
 -0.00761117,0.00000112,-0.00409531,-0.00004876,0.00000042,0.00383276,0
 .00033073,-0.00000007,-0.00203715,0.00204656,0.00000020,-0.00364608,0.
 00050495,-0.00000009,-0.14862107,-0.37313004,-0.00002672,0.19377750,0.
 48823948,-0.00000105,0.00000116,0.00451689,-0.00000099,-0.00000413,0.0
 1549726,0.00000053,-0.00000087,0.00165589,-0.00000045,-0.00000008,-0.0
 0059267,0.00000042,0.00000016,0.00041739,0.00000010,-0.00000042,-0.001
 07786,-0.00000042,0.00000004,0.00002177,-0.00003171,-0.00003974,-0.068
 80558,0.00003119,0.00003411,0.02563244,-0.00102484,0.00312918,-0.00000
 035,-0.03962961,0.04723776,-0.00001163,-0.00296741,-0.00722218,-0.0000
 0073,-0.00379735,0.00060945,0.00000057,0.00377708,0.00178551,-0.000000
 24,-0.00181033,0.00213535,0.00000002,-0.00408336,-0.00032259,-0.000000
 01,-0.21159158,0.15819912,-0.00003348,0.04219471,-0.01252238,0.0000028
 9,0.22305919,-0.01121618,-0.00761118,-0.00000057,0.03962114,-0.0126410
 8,0.00000797,-0.00083787,0.00361316,0.00000068,0.00203715,0.00204656,-
 0.00000039,-0.00383277,0.00033073,0.00000008,0.00409532,-0.00004876,-0
 .00000045,0.00364608,0.00050495,0.00000006,0.14862076,-0.37312996,0.00
 004545,0.01252225,-0.10535533,0.00000959,-0.19377708,0.48823946,0.0000
 0121,0.00000142,0.00165589,-0.00000343,0.00000585,0.01549728,-0.000001
 00,-0.00000112,0.00451689,-0.00000002,0.00000024,-0.00107786,0.0000006
 5,-0.00000016,0.00041739,-0.00000070,0.00000005,-0.00059267,-0.0000006
 4,-0.00000007,0.00002177,-0.00004098,0.00005843,-0.06880563,0.00000213
 ,-0.00000174,0.02335736,0.00004325,-0.00006247,0.02563246,-0.12329819,
 0.12371679,-0.00000290,0.01146775,-0.01167005,-0.00000002,-0.00177923,
 -0.00319527,0.00000014,-0.00068732,-0.00055532,0.00000002,-0.00429422,
 -0.00135464,0.00000016,-0.01008964,0.02397180,-0.00000057,-0.00030139,
 0.00128335,-0.00000006,0.00155745,-0.00106958,0.00000033,0.00027802,0.
 00138485,0.,-0.00356097,0.00047963,-0.00000042,0.12922877,0.12242436,-
 0.26168758,0.00000605,0.01397574,-0.01783838,0.00000039,-0.00386353,-0
 .00304430,0.00000037,-0.00072821,0.00036786,-0.00000005,-0.00139749,0.
 00120313,0.00000025,-0.00281251,0.00522408,0.00000001,-0.00011661,0.00
 024724,0.,0.00343688,-0.00333289,0.00000048,-0.00022220,0.00099233,-0.
 00000002,0.00061089,0.00313258,-0.00000040,-0.13225804,0.27484152,-0.0
 0000263,0.00000692,-0.03545933,-0.00000123,0.00000015,0.00405536,0.000
 00013,0.00000034,0.00435107,0.00000015,-0.00000002,-0.00092435,0.00000
 017,0.,0.00796998,-0.00000003,-0.00000033,0.00364730,-0.00000001,0.000
 00001,0.00005125,0.00000062,0.00000005,-0.00365796,-0.00000015,-0.0000
 0015,0.00038760,-0.00000029,0.00000002,-0.00016840,0.00000330,-0.00000
 688,0.02448601,-0.00177923,0.00319527,-0.00000005,0.01146775,0.0116700
 6,-0.00000070,-0.12329819,-0.12371679,0.00000438,-0.01008964,-0.023971
 81,0.00000084,-0.00429422,0.00135464,0.00000008,-0.00068732,0.00055532
 ,-0.00000001,-0.00030139,-0.00128335,0.00000002,0.00155745,0.00106958,
 0.00000026,-0.00356095,-0.00047964,-0.00000037,0.00027802,-0.00138485,
 0.00000009,0.00073182,0.00086553,0.00000002,0.12922875,0.00386353,-0.0
 0304430,0.00000006,-0.01397574,-0.01783838,0.00000087,-0.12242437,-0.2
 6168764,0.00000719,0.00281251,0.00522408,-0.00000011,0.00139749,0.0012
 0313,0.00000015,0.00072821,0.00036786,-0.00000002,0.00011661,0.0002472
 4,0.,-0.00343688,-0.00333288,-0.00000050,-0.00061089,0.00313258,0.0000
 0022,0.00022220,0.00099233,-0.00000002,-0.00086553,-0.00089646,0.00000
 006,0.13225804,0.27484158,-0.00000009,0.00000010,0.00435107,-0.0000004
 5,0.00000118,0.00405535,0.00000461,0.00000632,-0.03545932,-0.00000020,
 0.00000022,0.00364730,0.00000008,0.00000039,0.00796998,0.00000011,-0.0
 0000005,-0.00092435,-0.00000002,-0.00000002,0.00005125,0.00000082,-0.0
 0000006,-0.00365796,-0.00000022,-0.00000028,-0.00016840,-0.00000016,0.
 00000012,0.00038760,0.00000007,0.00000003,0.00062435,-0.00000451,-0.00
 000775,0.02448600,-0.00079170,-0.00062024,0.00000004,-0.00443966,-0.00
 217242,0.00000040,-0.01197590,0.02734981,-0.00000062,-0.11771890,0.114
 82527,-0.00000319,0.00812454,-0.01392633,0.00000036,-0.00121048,-0.002
 75925,0.00000004,0.00238041,-0.00091980,0.00000002,0.00057280,0.001861
 32,0.00000002,-0.00019816,-0.00021963,-0.00000007,-0.00101804,0.000247
 09,-0.00000016,0.00002209,0.00009683,0.,0.00111518,-0.00011102,-0.0000
 0005,0.12477648,-0.00102780,-0.00003266,-0.00000001,-0.00067955,0.0019
 7940,0.00000016,-0.00153225,0.00310370,-0.00000003,0.11476237,-0.25879
 841,0.00000608,0.01628417,-0.01787189,0.00000047,-0.00397775,-0.002641
 17,0.00000023,0.00109269,0.00172569,-0.00000013,-0.00044845,0.00014794
 ,0.00000007,0.00015512,0.00001612,0.00000001,0.00002395,0.00000374,-0.
 00000003,0.00007037,-0.00001085,-0.00000001,0.00003350,0.00076776,-0.0
 0000018,-0.12368908,0.27303759,0.00000013,0.00000006,-0.00057163,0.000
 00019,-0.00000007,0.00689073,0.,-0.00000024,0.00162561,-0.00000317,0.0
 0000607,-0.02942445,-0.00000032,0.00000069,0.00300760,0.00000013,0.000
 00032,0.00450057,-0.00000020,-0.00000005,-0.00231072,-0.00000013,0.000
 00017,0.00161626,-0.00000002,-0.00000004,-0.00005917,0.00000014,-0.000
 00009,-0.00075267,0.,-0.00000002,-0.00063900,-0.00000002,-0.00000012,-
 0.00443031,0.00000320,-0.00000669,0.02072086,-0.01197589,-0.02734980,0
 .00000099,-0.00443966,0.00217242,0.00000027,-0.00079170,0.00062024,0.,
 -0.00121048,0.00275925,-0.00000013,0.00812454,0.01392633,-0.00000046,-
 0.11771890,-0.11482527,0.00000357,0.00238041,0.00091980,-0.00000005,0.
 00057280,-0.00186132,0.00000013,-0.00101804,-0.00024709,-0.00000015,-0
 .00019816,0.00021963,-0.00000008,0.00111518,0.00011102,-0.00000006,0.0
 0002209,-0.00009683,0.,0.00054853,0.00075547,-0.00000002,0.12477649,0.
 00153225,0.00310370,-0.00000006,0.00067955,0.00197940,0.00000013,0.001
 02780,-0.00003266,-0.00000002,0.00397775,-0.00264117,0.00000019,-0.016
 28417,-0.01787189,0.00000076,-0.11476236,-0.25879838,0.00000735,-0.001
 09269,0.00172569,-0.00000011,0.00044845,0.00014794,0.00000002,-0.00002
 395,0.00000374,-0.00000001,-0.00015512,0.00001612,-0.00000002,-0.00003
 350,0.00076776,-0.00000013,-0.00007037,-0.00001085,-0.00000002,-0.0007
 5547,-0.00103105,0.00000004,0.12368907,0.27303757,-0.00000010,0.000000
 14,0.00162561,0.00000015,0.00000036,0.00689073,0.00000007,-0.00000009,
 -0.00057163,-0.00000010,0.00000010,0.00450057,0.00000066,0.00000053,0.
 00300760,0.00000361,0.00000738,-0.02942446,-0.00000014,-0.00000019,-0.
 00231072,-0.00000016,-0.00000008,0.00161626,0.00000014,0.00000005,-0.0
 0075267,-0.00000001,0.00000004,-0.00005917,-0.00000002,-0.00000019,-0.
 00443031,0.,-0.00000001,-0.00063900,0.00000003,0.00000002,-0.00001793,
 -0.00000409,-0.00000808,0.02072087,-0.00056410,0.00009474,-0.00000002,
 0.00079230,0.00022646,-0.00000001,-0.00007302,-0.00195884,0.00000005,-
 0.00470452,0.00335861,-0.00000005,-0.01236623,-0.03049324,0.00000140,0
 .00218576,-0.00207865,-0.00000002,-0.16619871,-0.16744038,0.00000864,-
 0.00062191,-0.00002994,-0.00000009,0.00023049,0.00034756,0.00000005,0.
 00014216,-0.00009274,0.00000003,0.00001684,0.00000751,0.,-0.00040696,0
 .00013017,0.,0.00008435,-0.00021125,0.,-0.00027155,0.00161151,-0.00000
 002,0.16918153,-0.00103621,-0.00071711,-0.00000007,0.00144237,0.000130
 37,0.00000008,-0.00060637,0.00021548,0.00000002,0.00203790,0.00193059,
 0.00000002,-0.00091740,0.00460620,-0.00000035,0.00323796,0.00174397,-0
 .00000015,-0.16506742,-0.35385555,0.00001560,-0.00151372,-0.00001516,-
 0.00000015,0.00034150,0.00039926,0.00000005,0.00038746,-0.00049258,0.0
 0000010,0.00009624,0.00001187,0.,0.00000110,0.00002209,0.,0.00017041,0
 .00023946,-0.00000001,-0.00062250,-0.00063536,0.00000007,0.17928858,0.
 35949417,-0.00000004,-0.00000005,-0.00076209,0.,0.00000007,0.00017141,
 0.00000008,-0.00000005,0.00210044,-0.00000020,0.,0.00318818,-0.0000004
 7,-0.00000039,-0.00466906,0.00000002,-0.00000015,-0.00190865,0.0000094
 9,0.00001682,0.00381670,0.,0.,-0.00010058,0.00000003,0.00000001,-0.000
 01641,0.,0.,-0.00001381,0.00000001,0.,0.00014102,-0.00000003,-0.000000
 01,-0.00043458,0.,0.,-0.00067186,0.00000006,0.00000003,0.00051611,-0.0
 0000908,-0.00001602,0.00258665,-0.00007302,0.00195885,-0.00000006,0.00
 079230,-0.00022647,0.,-0.00056410,-0.00009474,0.,0.00218576,0.00207864
 ,-0.00000014,-0.01236624,0.03049324,-0.00000047,-0.00470452,-0.0033586
 1,0.00000015,-0.16619880,0.16744044,-0.00000156,-0.00062191,0.00002994
 ,-0.00000009,0.00014216,0.00009274,0.00000002,0.00023049,-0.00034756,0
 .00000007,-0.00040696,-0.00013017,0.,0.00001684,-0.00000751,0.,-0.0002
 7155,-0.00161151,0.00000008,0.00008435,0.00021125,0.,0.01257359,-0.017
 23990,0.00000014,0.16918161,0.00060637,0.00021548,0.00000010,-0.001442
 37,0.00013037,-0.00000008,0.00103621,-0.00071711,0.00000006,-0.0032379
 6,0.00174396,-0.00000007,0.00091740,0.00460620,-0.00000022,-0.00203790
 ,0.00193059,0.00000006,0.16506748,-0.35385549,0.00000621,0.00151372,-0
 .00001516,0.00000014,-0.00038746,-0.00049258,-0.00000007,-0.00034150,0
 .00039926,-0.00000008,-0.00000110,0.00002209,-0.00000002,-0.00009624,0
 .00001187,0.,0.00062250,-0.00063536,0.,-0.00017041,0.00023946,-0.00000
 004,0.01723990,-0.01307769,-0.00000025,-0.17928863,0.35949410,0.000000
 06,0.00000016,0.00210044,0.00000007,-0.00000007,0.00017141,-0.00000010
 ,0.00000005,-0.00076209,0.00000021,-0.00000007,-0.00190865,-0.00000044
 ,-0.00000019,-0.00466906,-0.00000008,0.00000008,0.00318818,-0.00000064
 ,0.00000501,0.00381671,-0.00000009,0.,-0.00010058,0.00000002,0.0000000
 3,-0.00001381,0.00000005,-0.00000003,-0.00001641,-0.00000003,-0.000000
 01,-0.00043458,0.00000002,0.,0.00014102,0.00000001,0.00000003,0.000516
 11,0.,-0.00000005,-0.00067186,-0.00000091,0.00000080,-0.00394346,0.000
 00185,-0.00000573,0.00258665\\-0.00008066,-0.00006032,-0.00000240,0.00
 031662,0.00000004,-0.00001060,-0.00008067,0.00006029,-0.00000240,0.000
 01597,0.00002523,0.00000068,-0.00002089,0.,-0.00000036,0.00001593,-0.0
 0002522,0.00000068,0.00000253,0.,-0.00000012,-0.00022545,-0.00000012,0
 .00004841,0.00004052,0.00000510,-0.00001722,0.00004057,-0.00000502,-0.
 00001723,0.00000929,0.00000696,-0.00000010,0.00000930,-0.00000694,-0.0
 0000010,-0.00001217,0.00000122,0.00000032,-0.00001216,-0.00000122,0.00
 000032,-0.00000936,-0.00000370,0.00000006,-0.00000936,0.00000371,0.000
 00006\\\@


 HAPPINESS IS NOT HAVING WHAT YOU WANT --
 HAPPINESS IS WANTING WHAT YOU HAVE!

              -- FROM MRS. SEVERN'S DESK
 Job cpu time:       0 days  0 hours 18 minutes 31.4 seconds.
 File lengths (MBytes):  RWF=     85 Int=      0 D2E=      0 Chk=      5 Scr=      1
 Normal termination of Gaussian 09 at Thu Jun 13 21:55:35 2024.
