 Entering Gaussian System, Link 0=g09
 Input=WB97XDPNA.gjf
 Output=WB97XDPNA.log
 Initial command:
 /home/phzd/g09E/g09/l1.exe "/home/phzd/g09E/scratch/Gau-59680.inp" -scrdir="/home/phzd/g09E/scratch/"
 Default is to use a total of  18 processors:
                               18 via shared-memory
                                1 via Linda
 Entering Link 1 = /home/phzd/g09E/g09/l1.exe PID=     59682.
  
 Copyright (c) 1988,1990,1992,1993,1995,1998,2003,2009,2015,
            Gaussian, Inc.  All Rights Reserved.
  
 This is part of the Gaussian(R) 09 program.  It is based on
 the Gaussian(R) 03 system (copyright 2003, Gaussian, Inc.),
 the Gaussian(R) 98 system (copyright 1998, Gaussian, Inc.),
 the Gaussian(R) 94 system (copyright 1995, Gaussian, Inc.),
 the Gaussian 92(TM) system (copyright 1992, Gaussian, Inc.),
 the Gaussian 90(TM) system (copyright 1990, Gaussian, Inc.),
 the Gaussian 88(TM) system (copyright 1988, Gaussian, Inc.),
 the Gaussian 86(TM) system (copyright 1986, Carnegie Mellon
 University), and the Gaussian 82(TM) system (copyright 1983,
 Carnegie Mellon University). Gaussian is a federally registered
 trademark of Gaussian, Inc.
  
 This software contains proprietary and confidential information,
 including trade secrets, belonging to Gaussian, Inc.
  
 This software is provided under written license and may be
 used, copied, transmitted, or stored only in accord with that
 written license.
  
 The following legend is applicable only to US Government
 contracts under FAR:
  
                    RESTRICTED RIGHTS LEGEND
  
 Use, reproduction and disclosure by the US Government is
 subject to restrictions as set forth in subparagraphs (a)
 and (c) of the Commercial Computer Software - Restricted
 Rights clause in FAR 52.227-19.
  
 Gaussian, Inc.
 340 Quinnipiac St., Bldg. 40, Wallingford CT 06492
  
  
 ---------------------------------------------------------------
 Warning -- This program may not be used in any manner that
 competes with the business of Gaussian, Inc. or will provide
 assistance to any competitor of Gaussian, Inc.  The licensee
 of this program is prohibited from giving any competitor of
 Gaussian, Inc. access to this program.  By using this program,
 the user acknowledges that Gaussian, Inc. is engaged in the
 business of creating and licensing software in the field of
 computational chemistry and represents and warrants to the
 licensee that it is not a competitor of Gaussian, Inc. and that
 it will not use this program in any manner prohibited above.
 ---------------------------------------------------------------
  

 Cite this work as:
 Gaussian 09, Revision E.01,
 M. J. Frisch, G. W. Trucks, H. B. Schlegel, G. E. Scuseria, 
 M. A. Robb, J. R. Cheeseman, G. Scalmani, V. Barone, B. Mennucci, 
 G. A. Petersson, H. Nakatsuji, M. Caricato, X. Li, H. P. Hratchian, 
 A. F. Izmaylov, J. Bloino, G. Zheng, J. L. Sonnenberg, M. Hada, 
 M. Ehara, K. Toyota, R. Fukuda, J. Hasegawa, M. Ishida, T. Nakajima, 
 Y. Honda, O. Kitao, H. Nakai, T. Vreven, J. A. Montgomery, Jr., 
 J. E. Peralta, F. Ogliaro, M. Bearpark, J. J. Heyd, E. Brothers, 
 K. N. Kudin, V. N. Staroverov, T. Keith, R. Kobayashi, J. Normand, 
 K. Raghavachari, A. Rendell, J. C. Burant, S. S. Iyengar, J. Tomasi, 
 M. Cossi, N. Rega, J. M. Millam, M. Klene, J. E. Knox, J. B. Cross, 
 V. Bakken, C. Adamo, J. Jaramillo, R. Gomperts, R. E. Stratmann, 
 O. Yazyev, A. J. Austin, R. Cammi, C. Pomelli, J. W. Ochterski, 
 R. L. Martin, K. Morokuma, V. G. Zakrzewski, G. A. Voth, 
 P. Salvador, J. J. Dannenberg, S. Dapprich, A. D. Daniels, 
 O. Farkas, J. B. Foresman, J. V. Ortiz, J. Cioslowski, 
 and D. J. Fox, Gaussian, Inc., Wallingford CT, 2013.
 
 ******************************************
 Gaussian 09:  ES64L-G09RevE.01 30-Nov-2015
                13-Jun-2024 
 ******************************************
 %chk=WB97XDPNA.chk
 -----------------------------
 # opt freq wb97xd/6-31+g(d,p)
 -----------------------------
 1/14=-1,18=20,19=15,26=3,38=1/1,3;
 2/9=110,12=2,17=6,18=5,40=1/2;
 3/5=1,6=6,7=111,11=2,16=1,25=1,30=1,71=1,74=-58/1,2,3;
 4//1;
 5/5=2,38=5/2;
 6/7=2,8=2,9=2,10=2,28=1/1;
 7//1,2,3,16;
 1/14=-1,18=20,19=15,26=3/3(2);
 2/9=110/2;
 99//99;
 2/9=110/2;
 3/5=1,6=6,7=111,11=2,16=1,25=1,30=1,71=1,74=-58/1,2,3;
 4/5=5,16=3,69=1/1;
 5/5=2,38=5/2;
 7//1,2,3,16;
 1/14=-1,18=20,19=15,26=3/3(-5);
 2/9=110/2;
 6/7=2,8=2,9=2,10=2,19=2,28=1/1;
 99/9=1/99;
 ----------
 [No Title]
 ----------
 Symbolic Z-matrix:
 Charge =  0 Multiplicity = 1
 C                    -0.0218    1.21641   0.00023 
 C                    -0.71134   0.        0.00039 
 C                    -0.0218   -1.2164    0.0003 
 C                     1.36325  -1.2161    0.00016 
 C                     2.08217  0.         0.00006 
 C                     1.36325   1.2161    0.00009 
 N                     3.4515    0.       -0.00007 
 N                    -2.16391   0.        0.00061 
 O                    -2.7452   -1.0916   -0.0007 
 O                    -2.74521   1.0916   -0.00077 
 H                    -0.58095   2.14355   0.00027 
 H                    -0.58095  -2.14355   0.0004 
 H                     1.90326  -2.15827   0.00014 
 H                     1.90326   2.15827   0.00002 
 H                     3.9715    0.86123  -0.00016 
 H                     3.9715   -0.86123  -0.0001 
 

 GradGradGradGradGradGradGradGradGradGradGradGradGradGradGradGradGradGrad
 Berny optimization.
 Initialization pass.
                           ----------------------------
                           !    Initial Parameters    !
                           ! (Angstroms and Degrees)  !
 --------------------------                            --------------------------
 ! Name  Definition              Value          Derivative Info.                !
 --------------------------------------------------------------------------------
 ! R1    R(1,2)                  1.3983         estimate D2E/DX2                !
 ! R2    R(1,6)                  1.3851         estimate D2E/DX2                !
 ! R3    R(1,11)                 1.0827         estimate D2E/DX2                !
 ! R4    R(2,3)                  1.3983         estimate D2E/DX2                !
 ! R5    R(2,8)                  1.4526         estimate D2E/DX2                !
 ! R6    R(3,4)                  1.3851         estimate D2E/DX2                !
 ! R7    R(3,12)                 1.0827         estimate D2E/DX2                !
 ! R8    R(4,5)                  1.4127         estimate D2E/DX2                !
 ! R9    R(4,13)                 1.086          estimate D2E/DX2                !
 ! R10   R(5,6)                  1.4127         estimate D2E/DX2                !
 ! R11   R(5,7)                  1.3693         estimate D2E/DX2                !
 ! R12   R(6,14)                 1.086          estimate D2E/DX2                !
 ! R13   R(7,15)                 1.006          estimate D2E/DX2                !
 ! R14   R(7,16)                 1.006          estimate D2E/DX2                !
 ! R15   R(8,9)                  1.2367         estimate D2E/DX2                !
 ! R16   R(8,10)                 1.2367         estimate D2E/DX2                !
 ! A1    A(2,1,6)              119.5352         estimate D2E/DX2                !
 ! A2    A(2,1,11)             119.3587         estimate D2E/DX2                !
 ! A3    A(6,1,11)             121.1062         estimate D2E/DX2                !
 ! A4    A(1,2,3)              120.9048         estimate D2E/DX2                !
 ! A5    A(1,2,8)              119.5476         estimate D2E/DX2                !
 ! A6    A(3,2,8)              119.5475         estimate D2E/DX2                !
 ! A7    A(2,3,4)              119.5353         estimate D2E/DX2                !
 ! A8    A(2,3,12)             119.3585         estimate D2E/DX2                !
 ! A9    A(4,3,12)             121.1062         estimate D2E/DX2                !
 ! A10   A(3,4,5)              120.6023         estimate D2E/DX2                !
 ! A11   A(3,4,13)             119.8071         estimate D2E/DX2                !
 ! A12   A(5,4,13)             119.5906         estimate D2E/DX2                !
 ! A13   A(4,5,6)              118.8201         estimate D2E/DX2                !
 ! A14   A(4,5,7)              120.5901         estimate D2E/DX2                !
 ! A15   A(6,5,7)              120.5898         estimate D2E/DX2                !
 ! A16   A(1,6,5)              120.6024         estimate D2E/DX2                !
 ! A17   A(1,6,14)             119.8071         estimate D2E/DX2                !
 ! A18   A(5,6,14)             119.5905         estimate D2E/DX2                !
 ! A19   A(5,7,15)             121.1236         estimate D2E/DX2                !
 ! A20   A(5,7,16)             121.1233         estimate D2E/DX2                !
 ! A21   A(15,7,16)            117.7531         estimate D2E/DX2                !
 ! A22   A(2,8,9)              118.0358         estimate D2E/DX2                !
 ! A23   A(2,8,10)             118.0364         estimate D2E/DX2                !
 ! A24   A(9,8,10)             123.9276         estimate D2E/DX2                !
 ! D1    D(6,1,2,3)             -0.0059         estimate D2E/DX2                !
 ! D2    D(6,1,2,8)            179.9966         estimate D2E/DX2                !
 ! D3    D(11,1,2,3)           179.9978         estimate D2E/DX2                !
 ! D4    D(11,1,2,8)             0.0004         estimate D2E/DX2                !
 ! D5    D(2,1,6,5)              0.0029         estimate D2E/DX2                !
 ! D6    D(2,1,6,14)          -179.9966         estimate D2E/DX2                !
 ! D7    D(11,1,6,5)           179.999          estimate D2E/DX2                !
 ! D8    D(11,1,6,14)           -0.0004         estimate D2E/DX2                !
 ! D9    D(1,2,3,4)              0.0059         estimate D2E/DX2                !
 ! D10   D(1,2,3,12)          -179.9979         estimate D2E/DX2                !
 ! D11   D(8,2,3,4)           -179.9966         estimate D2E/DX2                !
 ! D12   D(8,2,3,12)            -0.0004         estimate D2E/DX2                !
 ! D13   D(1,2,8,9)            179.9235         estimate D2E/DX2                !
 ! D14   D(1,2,8,10)             0.0742         estimate D2E/DX2                !
 ! D15   D(3,2,8,9)             -0.074          estimate D2E/DX2                !
 ! D16   D(3,2,8,10)          -179.9233         estimate D2E/DX2                !
 ! D17   D(2,3,4,5)             -0.0029         estimate D2E/DX2                !
 ! D18   D(2,3,4,13)           179.9966         estimate D2E/DX2                !
 ! D19   D(12,3,4,5)          -179.999          estimate D2E/DX2                !
 ! D20   D(12,3,4,13)            0.0005         estimate D2E/DX2                !
 ! D21   D(3,4,5,6)             -0.0001         estimate D2E/DX2                !
 ! D22   D(3,4,5,7)            179.9996         estimate D2E/DX2                !
 ! D23   D(13,4,5,6)          -179.9996         estimate D2E/DX2                !
 ! D24   D(13,4,5,7)             0.0002         estimate D2E/DX2                !
 ! D25   D(4,5,6,1)              0.0001         estimate D2E/DX2                !
 ! D26   D(4,5,6,14)           179.9996         estimate D2E/DX2                !
 ! D27   D(7,5,6,1)           -179.9996         estimate D2E/DX2                !
 ! D28   D(7,5,6,14)            -0.0002         estimate D2E/DX2                !
 ! D29   D(4,5,7,15)           179.9994         estimate D2E/DX2                !
 ! D30   D(4,5,7,16)             0.0007         estimate D2E/DX2                !
 ! D31   D(6,5,7,15)            -0.0008         estimate D2E/DX2                !
 ! D32   D(6,5,7,16)          -179.9995         estimate D2E/DX2                !
 --------------------------------------------------------------------------------
 Trust Radius=3.00D-01 FncErr=1.00D-07 GrdErr=1.00D-06
 Number of steps in this run=     82 maximum allowed number of steps=    100.
 GradGradGradGradGradGradGradGradGradGradGradGradGradGradGradGradGradGrad

                          Input orientation:                          
 ---------------------------------------------------------------------
 Center     Atomic      Atomic             Coordinates (Angstroms)
 Number     Number       Type             X           Y           Z
 ---------------------------------------------------------------------
      1          6           0       -0.021796    1.216405    0.000228
      2          6           0       -0.711339    0.000001    0.000394
      3          6           0       -0.021797   -1.216402    0.000299
      4          6           0        1.363253   -1.216104    0.000162
      5          6           0        2.082168   -0.000001    0.000057
      6          6           0        1.363254    1.216104    0.000091
      7          7           0        3.451498    0.000001   -0.000071
      8          7           0       -2.163906    0.000000    0.000613
      9          8           0       -2.745196   -1.091600   -0.000701
     10          8           0       -2.745209    1.091597   -0.000768
     11          1           0       -0.580949    2.143553    0.000271
     12          1           0       -0.580954   -2.143550    0.000397
     13          1           0        1.903261   -2.158272    0.000144
     14          1           0        1.903264    2.158270    0.000018
     15          1           0        3.971504    0.861227   -0.000155
     16          1           0        3.971503   -0.861226   -0.000103
 ---------------------------------------------------------------------
                    Distance matrix (angstroms):
                    1          2          3          4          5
     1  C    0.000000
     2  C    1.398252   0.000000
     3  C    2.432807   1.398250   0.000000
     4  C    2.799189   2.404754   1.385050   0.000000
     5  C    2.430290   2.793507   2.430288   1.412708   0.000000
     6  C    1.385050   2.404754   2.799188   2.432208   1.412710
     7  N    3.680137   4.162837   3.680138   2.416543   1.369330
     8  N    2.463387   1.452567   2.463385   3.730919   4.246074
     9  O    3.569845   2.308283   2.726257   4.110335   4.949246
    10  O    2.726272   2.308292   3.569851   4.712212   4.949258
    11  H    1.082707   2.147514   3.406163   3.881651   3.418628
    12  H    3.406164   2.147513   1.082710   2.154088   3.418629
    13  H    3.885137   3.390321   2.143121   1.085951   2.165673
    14  H    2.143121   3.390321   3.885135   3.417311   2.165673
    15  H    4.009064   4.761379   4.501444   3.334408   2.076368
    16  H    4.501443   4.761378   4.009064   2.632282   2.076366
                    6          7          8          9         10
     6  C    0.000000
     7  N    2.416541   0.000000
     8  N    3.730920   5.615404   0.000000
     9  O    4.712203   6.292107   1.236726   0.000000
    10  O    4.110349   6.292119   1.236729   2.183197   0.000000
    11  H    2.154086   4.566776   2.664690   3.892323   2.406374
    12  H    3.881652   4.566780   2.664685   2.406355   3.892323
    13  H    3.417312   2.656159   4.604344   4.769271   5.671854
    14  H    1.085950   2.656154   4.604346   5.671846   4.769286
    15  H    2.632281   1.006040   6.195560   6.994826   6.720662
    16  H    3.334406   1.006040   6.195559   6.720649   6.994837
                   11         12         13         14         15
    11  H    0.000000
    12  H    4.287103   0.000000
    13  H    4.967595   2.484259   0.000000
    14  H    2.484257   4.967594   4.316542   0.000000
    15  H    4.729608   5.454682   3.659918   2.441298   0.000000
    16  H    5.454678   4.729611   2.441302   3.659914   1.722453
                   16
    16  H    0.000000
 Stoichiometry    C6H6N2O2
 Framework group  C1[X(C6H6N2O2)]
 Deg. of freedom    42
 Full point group                 C1      NOp   1
 Largest Abelian subgroup         C1      NOp   1
 Largest concise Abelian subgroup C1      NOp   1
                         Standard orientation:                         
 ---------------------------------------------------------------------
 Center     Atomic      Atomic             Coordinates (Angstroms)
 Number     Number       Type             X           Y           Z
 ---------------------------------------------------------------------
      1          6           0        0.021796   -1.216405    0.000228
      2          6           0        0.711339   -0.000001    0.000394
      3          6           0        0.021797    1.216402    0.000299
      4          6           0       -1.363253    1.216104    0.000162
      5          6           0       -2.082168    0.000001    0.000057
      6          6           0       -1.363254   -1.216104    0.000091
      7          7           0       -3.451498   -0.000001   -0.000071
      8          7           0        2.163906    0.000000    0.000613
      9          8           0        2.745196    1.091600   -0.000701
     10          8           0        2.745209   -1.091597   -0.000768
     11          1           0        0.580949   -2.143553    0.000271
     12          1           0        0.580954    2.143550    0.000397
     13          1           0       -1.903261    2.158272    0.000144
     14          1           0       -1.903264   -2.158270    0.000018
     15          1           0       -3.971504   -0.861227   -0.000155
     16          1           0       -3.971503    0.861226   -0.000103
 ---------------------------------------------------------------------
 Rotational constants (GHZ):      3.9094978      0.8215452      0.6788840
 Standard basis: 6-31+G(d,p) (6D, 7F)
 There are   220 symmetry adapted cartesian basis functions of A   symmetry.
 There are   220 symmetry adapted basis functions of A   symmetry.
   220 basis functions,   362 primitive gaussians,   220 cartesian basis functions
    36 alpha electrons       36 beta electrons
       nuclear repulsion energy       494.6945858361 Hartrees.
 NAtoms=   16 NActive=   16 NUniq=   16 SFac= 1.00D+00 NAtFMM=   60 NAOKFM=F Big=F
 Integral buffers will be    131072 words long.
 Raffenetti 2 integral format.
 Two-electron integral symmetry is turned on.
 Nuclear repulsion after empirical dispersion term =      494.6874131474 Hartrees.
 One-electron integrals computed using PRISM.
 NBasis=   220 RedAO= T EigKep=  3.27D-06  NBF=   220
 NBsUse=   220 1.00D-06 EigRej= -1.00D+00 NBFU=   220
 ExpMin= 4.38D-02 ExpMax= 5.48D+03 ExpMxC= 8.25D+02 IAcc=2 IRadAn=         4 AccDes= 0.00D+00
 Harris functional with IExCor= 4639 and IRadAn=       4 diagonalized for initial guess.
 HarFok:  IExCor= 4639 AccDes= 0.00D+00 IRadAn=         4 IDoV= 1 UseB2=F ITyADJ=14
 ICtDFT=  3500011 ScaDFX=  1.000000  1.000000  1.000000  1.000000
 FoFCou: FMM=F IPFlag=           0 FMFlag=      100000 FMFlg1=           0
         NFxFlg=           0 DoJE=T BraDBF=F KetDBF=T FulRan=T
         wScrn=  0.000000 ICntrl=     500 IOpCl=  0 I1Cent=   200000004 NGrid=           0
         NMat0=    1 NMatS0=      1 NMatT0=    0 NMatD0=    1 NMtDS0=    0 NMtDT0=    0
 Petite list used in FoFCou.
 Keep R1 ints in memory in canonical form, NReq=596566580.
 Requested convergence on RMS density matrix=1.00D-08 within 128 cycles.
 Requested convergence on MAX density matrix=1.00D-06.
 Requested convergence on             energy=1.00D-06.
 No special actions if energy rises.
 SCF Done:  E(RwB97XD) =  -491.975604700     A.U. after   16 cycles
            NFock= 16  Conv=0.68D-08     -V/T= 2.0093

 **********************************************************************

            Population analysis using the SCF density.

 **********************************************************************

 Orbital symmetries:
       Occupied  (A) (A) (A) (A) (A) (A) (A) (A) (A) (A) (A) (A)
                 (A) (A) (A) (A) (A) (A) (A) (A) (A) (A) (A) (A)
                 (A) (A) (A) (A) (A) (A) (A) (A) (A) (A) (A) (A)
       Virtual   (A) (A) (A) (A) (A) (A) (A) (A) (A) (A) (A) (A)
                 (A) (A) (A) (A) (A) (A) (A) (A) (A) (A) (A) (A)
                 (A) (A) (A) (A) (A) (A) (A) (A) (A) (A) (A) (A)
                 (A) (A) (A) (A) (A) (A) (A) (A) (A) (A) (A) (A)
                 (A) (A) (A) (A) (A) (A) (A) (A) (A) (A) (A) (A)
                 (A) (A) (A) (A) (A) (A) (A) (A) (A) (A) (A) (A)
                 (A) (A) (A) (A) (A) (A) (A) (A) (A) (A) (A) (A)
                 (A) (A) (A) (A) (A) (A) (A) (A) (A) (A) (A) (A)
                 (A) (A) (A) (A) (A) (A) (A) (A) (A) (A) (A) (A)
                 (A) (A) (A) (A) (A) (A) (A) (A) (A) (A) (A) (A)
                 (A) (A) (A) (A) (A) (A) (A) (A) (A) (A) (A) (A)
                 (A) (A) (A) (A) (A) (A) (A) (A) (A) (A) (A) (A)
                 (A) (A) (A) (A) (A) (A) (A) (A) (A) (A) (A) (A)
                 (A) (A) (A) (A) (A) (A) (A) (A) (A) (A) (A) (A)
                 (A) (A) (A) (A) (A) (A) (A) (A) (A) (A) (A) (A)
                 (A) (A) (A) (A)
 The electronic state is 1-A.
 Alpha  occ. eigenvalues --  -19.30443 -19.30441 -14.69490 -14.49920 -10.38677
 Alpha  occ. eigenvalues --  -10.35879 -10.33808 -10.33807 -10.32810 -10.32810
 Alpha  occ. eigenvalues --   -1.32455  -1.14792  -1.05936  -0.98421  -0.89726
 Alpha  occ. eigenvalues --   -0.87818  -0.79427  -0.74250  -0.69839  -0.65692
 Alpha  occ. eigenvalues --   -0.64351  -0.63157  -0.62046  -0.59650  -0.55644
 Alpha  occ. eigenvalues --   -0.54622  -0.53532  -0.50909  -0.50604  -0.45311
 Alpha  occ. eigenvalues --   -0.42932  -0.39385  -0.39004  -0.37498  -0.35886
 Alpha  occ. eigenvalues --   -0.30750
 Alpha virt. eigenvalues --   -0.02044   0.03431   0.04723   0.06770   0.07441
 Alpha virt. eigenvalues --    0.07534   0.09546   0.09993   0.12176   0.12246
 Alpha virt. eigenvalues --    0.13702   0.14215   0.14905   0.15612   0.17131
 Alpha virt. eigenvalues --    0.18386   0.18562   0.19103   0.19401   0.19555
 Alpha virt. eigenvalues --    0.20313   0.22027   0.22628   0.22661   0.22837
 Alpha virt. eigenvalues --    0.23364   0.23530   0.25802   0.25927   0.26142
 Alpha virt. eigenvalues --    0.26408   0.27492   0.27706   0.29434   0.29584
 Alpha virt. eigenvalues --    0.29925   0.29959   0.31582   0.32500   0.33441
 Alpha virt. eigenvalues --    0.33872   0.34361   0.34976   0.37041   0.37855
 Alpha virt. eigenvalues --    0.38171   0.39896   0.40109   0.41485   0.43157
 Alpha virt. eigenvalues --    0.44409   0.46429   0.47070   0.48481   0.48997
 Alpha virt. eigenvalues --    0.51157   0.53686   0.60688   0.66427   0.68735
 Alpha virt. eigenvalues --    0.71891   0.72576   0.73557   0.77713   0.78053
 Alpha virt. eigenvalues --    0.79042   0.80979   0.82906   0.85661   0.86185
 Alpha virt. eigenvalues --    0.89232   0.91617   0.92872   0.95594   0.97981
 Alpha virt. eigenvalues --    0.98929   1.01530   1.01982   1.04372   1.07669
 Alpha virt. eigenvalues --    1.08027   1.10427   1.12412   1.14896   1.15229
 Alpha virt. eigenvalues --    1.16787   1.18260   1.24013   1.25068   1.27263
 Alpha virt. eigenvalues --    1.27303   1.28554   1.29197   1.31387   1.33029
 Alpha virt. eigenvalues --    1.35282   1.39185   1.39286   1.40489   1.42984
 Alpha virt. eigenvalues --    1.43425   1.44829   1.45340   1.45829   1.50005
 Alpha virt. eigenvalues --    1.51640   1.52771   1.53167   1.54820   1.61293
 Alpha virt. eigenvalues --    1.70450   1.76798   1.80058   1.83266   1.88337
 Alpha virt. eigenvalues --    1.89606   1.89971   1.92436   1.93653   1.95762
 Alpha virt. eigenvalues --    1.99637   2.00095   2.00982   2.03971   2.04027
 Alpha virt. eigenvalues --    2.04660   2.05598   2.10950   2.15184   2.16362
 Alpha virt. eigenvalues --    2.20748   2.21216   2.21227   2.25217   2.27009
 Alpha virt. eigenvalues --    2.29849   2.30690   2.37486   2.45420   2.46208
 Alpha virt. eigenvalues --    2.47188   2.49763   2.50690   2.51187   2.56410
 Alpha virt. eigenvalues --    2.59835   2.60869   2.62345   2.64270   2.65169
 Alpha virt. eigenvalues --    2.67090   2.68420   2.74705   2.77449   2.80824
 Alpha virt. eigenvalues --    2.81064   2.87232   2.90313   2.90956   2.92866
 Alpha virt. eigenvalues --    3.07344   3.10909   3.12066   3.15389   3.19668
 Alpha virt. eigenvalues --    3.19984   3.27717   3.37006   3.42577   3.42920
 Alpha virt. eigenvalues --    3.50256   3.61264   3.73835   3.91860   4.21557
 Alpha virt. eigenvalues --    4.30608   4.37854   4.37979   4.42250   4.56756
 Alpha virt. eigenvalues --    4.58282   4.61582   4.89487   4.94376
          Condensed to atoms (all electrons):
               1          2          3          4          5          6
     1  C   10.074342  -0.188733  -2.821770  -0.848119   0.090511  -0.879220
     2  C   -0.188733  10.107232  -0.188818  -0.922983  -0.608834  -0.922974
     3  C   -2.821770  -0.188818  10.074411  -0.879231   0.090521  -0.848120
     4  C   -0.848119  -0.922983  -0.879231   9.632992   0.181733  -1.383912
     5  C    0.090511  -0.608834   0.090521   0.181733   5.806205   0.181755
     6  C   -0.879220  -0.922974  -0.848120  -1.383912   0.181755   9.632941
     7  N    0.048380  -0.031429   0.048380  -0.077654   0.133852  -0.077654
     8  N    0.208915  -0.822555   0.208932   0.022903  -0.010359   0.022908
     9  O    0.134062  -0.336275  -0.044253   0.174191   0.012269  -0.021110
    10  O   -0.044255  -0.336271   0.134066  -0.021111   0.012270   0.174186
    11  H   -0.041692   0.333896   0.097665   0.001021  -0.048595   0.016898
    12  H    0.097664   0.333900  -0.041697   0.016900  -0.048595   0.001021
    13  H   -0.000486  -0.001377   0.136806   0.078060   0.100899   0.021339
    14  H    0.136805  -0.001377  -0.000487   0.021339   0.100897   0.078062
    15  H    0.021569   0.000114  -0.002747   0.068873   0.001040  -0.098922
    16  H   -0.002747   0.000114   0.021569  -0.098924   0.001041   0.068873
               7          8          9         10         11         12
     1  C    0.048380   0.208915   0.134062  -0.044255  -0.041692   0.097664
     2  C   -0.031429  -0.822555  -0.336275  -0.336271   0.333896   0.333900
     3  C    0.048380   0.208932  -0.044253   0.134066   0.097665  -0.041697
     4  C   -0.077654   0.022903   0.174191  -0.021111   0.001021   0.016900
     5  C    0.133852  -0.010359   0.012269   0.012270  -0.048595  -0.048595
     6  C   -0.077654   0.022908  -0.021110   0.174186   0.016898   0.001021
     7  N    6.983161   0.000839  -0.000228  -0.000228  -0.000283  -0.000283
     8  N    0.000839   6.857797   0.401917   0.401928  -0.051630  -0.051631
     9  O   -0.000228   0.401917   7.830265  -0.082746  -0.003059   0.020565
    10  O   -0.000228   0.401928  -0.082746   7.830260   0.020564  -0.003059
    11  H   -0.000283  -0.051630  -0.003059   0.020564   0.483746  -0.000119
    12  H   -0.000283  -0.051631   0.020565  -0.003059  -0.000119   0.483746
    13  H   -0.019042  -0.000450   0.000053   0.000039   0.000010  -0.003991
    14  H   -0.019042  -0.000450   0.000039   0.000053  -0.003991   0.000010
    15  H    0.337646   0.000003   0.000000   0.000000  -0.000007   0.000002
    16  H    0.337646   0.000003   0.000000   0.000000   0.000002  -0.000007
              13         14         15         16
     1  C   -0.000486   0.136805   0.021569  -0.002747
     2  C   -0.001377  -0.001377   0.000114   0.000114
     3  C    0.136806  -0.000487  -0.002747   0.021569
     4  C    0.078060   0.021339   0.068873  -0.098924
     5  C    0.100899   0.100897   0.001040   0.001041
     6  C    0.021339   0.078062  -0.098922   0.068873
     7  N   -0.019042  -0.019042   0.337646   0.337646
     8  N   -0.000450  -0.000450   0.000003   0.000003
     9  O    0.000053   0.000039   0.000000   0.000000
    10  O    0.000039   0.000053   0.000000   0.000000
    11  H    0.000010  -0.003991  -0.000007   0.000002
    12  H   -0.003991   0.000010   0.000002  -0.000007
    13  H    0.535150  -0.000120  -0.000050   0.004210
    14  H   -0.000120   0.535150   0.004210  -0.000050
    15  H   -0.000050   0.004210   0.367811  -0.023701
    16  H    0.004210  -0.000050  -0.023701   0.367812
 Mulliken charges:
               1
     1  C    0.014772
     2  C   -0.413630
     3  C    0.014772
     4  C    0.033923
     5  C    0.003391
     6  C    0.033929
     7  N   -0.664060
     8  N   -0.189070
     9  O   -0.085691
    10  O   -0.085695
    11  H    0.195572
    12  H    0.195572
    13  H    0.148950
    14  H    0.148950
    15  H    0.324158
    16  H    0.324157
 Sum of Mulliken charges =  -0.00000
 Mulliken charges with hydrogens summed into heavy atoms:
               1
     1  C    0.210344
     2  C   -0.413630
     3  C    0.210345
     4  C    0.182873
     5  C    0.003391
     6  C    0.182879
     7  N   -0.015745
     8  N   -0.189070
     9  O   -0.085691
    10  O   -0.085695
 Electronic spatial extent (au):  <R**2>=           1562.0252
 Charge=             -0.0000 electrons
 Dipole moment (field-independent basis, Debye):
    X=             -7.6748    Y=              0.0000    Z=              0.0026  Tot=              7.6748
 Quadrupole moment (field-independent basis, Debye-Ang):
   XX=            -56.4688   YY=            -52.3842   ZZ=            -60.6404
   XY=              0.0000   XZ=              0.0097   YZ=              0.0002
 Traceless Quadrupole moment (field-independent basis, Debye-Ang):
   XX=              0.0290   YY=              4.1136   ZZ=             -4.1426
   XY=              0.0000   XZ=              0.0097   YZ=              0.0002
 Octapole moment (field-independent basis, Debye-Ang**2):
  XXX=           -109.3063  YYY=              0.0000  ZZZ=             -0.0069  XYY=            -17.1544
  XXY=              0.0001  XXZ=              0.0182  XZZ=             13.5326  YZZ=              0.0000
  YYZ=             -0.0006  XYZ=             -0.0009
 Hexadecapole moment (field-independent basis, Debye-Ang**3):
 XXXX=          -1360.5930 YYYY=           -362.1767 ZZZZ=            -64.7073 XXXY=              0.0007
 XXXZ=              0.1322 YYYX=              0.0001 YYYZ=             -0.0033 ZZZX=              0.0421
 ZZZY=             -0.0055 XXYY=           -296.5104 XXZZ=           -279.3842 YYZZ=            -83.9511
 XXYZ=             -0.0005 YYXZ=              0.0161 ZZXY=              0.0000
 N-N= 4.946874131474D+02 E-N=-2.136001156870D+03  KE= 4.874351573200D+02
 Calling FoFJK, ICntrl=      2127 FMM=F ISym2X=0 I1Cent= 0 IOpClX= 0 NMat=1 NMatS=1 NMatT=0.
 ***** Axes restored to original set *****
 -------------------------------------------------------------------
 Center     Atomic                   Forces (Hartrees/Bohr)
 Number     Number              X              Y              Z
 -------------------------------------------------------------------
      1        6           0.000178282   -0.003989123    0.000024365
      2        6           0.003602435    0.000001679    0.000085963
      3        6           0.000177496    0.003987055    0.000024239
      4        6          -0.000583834    0.003076153   -0.000006615
      5        6          -0.001708020    0.000001179    0.000002465
      6        6          -0.000584260   -0.003077073   -0.000006397
      7        7          -0.000869134   -0.000000935    0.000000505
      8        7          -0.012191321    0.000002107   -0.000442331
      9        8           0.007111640    0.014204046    0.000161473
     10        8           0.007115218   -0.014207068    0.000162325
     11        1           0.000110630    0.000458571    0.000000043
     12        1           0.000111699   -0.000457419    0.000000012
     13        1          -0.000342387    0.000056207   -0.000002963
     14        1          -0.000342170   -0.000055736   -0.000002969
     15        1          -0.000893216   -0.001144542   -0.000000006
     16        1          -0.000893057    0.001144898   -0.000000110
 -------------------------------------------------------------------
 Cartesian Forces:  Max     0.014207068 RMS     0.003891015

 GradGradGradGradGradGradGradGradGradGradGradGradGradGradGradGradGradGrad
 Berny optimization.
 FormGI is forming the generalized inverse of G from B-inverse, IUseBI=4.
 Internal  Forces:  Max     0.015884410 RMS     0.002913110
 Search for a local minimum.
 Step number   1 out of a maximum of   82
 All quantities printed in internal units (Hartrees-Bohrs-Radians)
 Mixed Optimization -- RFO/linear search
 Second derivative matrix not updated -- first step.
 ITU=  0
     Eigenvalues ---    0.00996   0.00996   0.01774   0.01947   0.02015
     Eigenvalues ---    0.02078   0.02097   0.02097   0.02106   0.02155
     Eigenvalues ---    0.02167   0.02210   0.02216   0.16000   0.16000
     Eigenvalues ---    0.16000   0.16000   0.16000   0.16000   0.22000
     Eigenvalues ---    0.22969   0.24000   0.25000   0.25000   0.25000
     Eigenvalues ---    0.25000   0.35285   0.35285   0.35669   0.35669
     Eigenvalues ---    0.37911   0.40804   0.41759   0.44815   0.45017
     Eigenvalues ---    0.46642   0.46642   0.46706   0.48191   0.51106
     Eigenvalues ---    0.88339   0.88341
 RFO step:  Lambda=-8.18591685D-04 EMin= 9.96419452D-03
 Linear search not attempted -- first point.
 Iteration  1 RMS(Cart)=  0.00758204 RMS(Int)=  0.00004993
 Iteration  2 RMS(Cart)=  0.00004739 RMS(Int)=  0.00002453
 Iteration  3 RMS(Cart)=  0.00000000 RMS(Int)=  0.00002453
 Variable       Old X    -DE/DX   Delta X   Delta X   Delta X     New X
                                 (Linear)    (Quad)   (Total)
    R1        2.64231  -0.00448   0.00000  -0.00983  -0.00983   2.63248
    R2        2.61737  -0.00311   0.00000  -0.00644  -0.00644   2.61093
    R3        2.04602   0.00034   0.00000   0.00094   0.00094   2.04696
    R4        2.64231  -0.00448   0.00000  -0.00983  -0.00983   2.63248
    R5        2.74495  -0.00204   0.00000  -0.00536  -0.00536   2.73960
    R6        2.61737  -0.00311   0.00000  -0.00644  -0.00644   2.61093
    R7        2.04602   0.00033   0.00000   0.00093   0.00093   2.04696
    R8        2.66963  -0.00379   0.00000  -0.00858  -0.00858   2.66105
    R9        2.05215  -0.00022   0.00000  -0.00062  -0.00062   2.05153
   R10        2.66963  -0.00379   0.00000  -0.00858  -0.00858   2.66105
   R11        2.58766  -0.00266   0.00000  -0.00519  -0.00519   2.58247
   R12        2.05215  -0.00022   0.00000  -0.00062  -0.00062   2.05153
   R13        1.90114  -0.00144   0.00000  -0.00309  -0.00309   1.89805
   R14        1.90114  -0.00144   0.00000  -0.00309  -0.00309   1.89806
   R15        2.33707  -0.01588   0.00000  -0.01796  -0.01796   2.31911
   R16        2.33708  -0.01588   0.00000  -0.01796  -0.01796   2.31911
    A1        2.08628  -0.00027   0.00000  -0.00131  -0.00131   2.08497
    A2        2.08320   0.00047   0.00000   0.00276   0.00276   2.08596
    A3        2.11370  -0.00021   0.00000  -0.00146  -0.00146   2.11225
    A4        2.11019   0.00074   0.00000   0.00270   0.00270   2.11289
    A5        2.08650  -0.00037   0.00000  -0.00135  -0.00135   2.08515
    A6        2.08650  -0.00037   0.00000  -0.00135  -0.00135   2.08515
    A7        2.08628  -0.00027   0.00000  -0.00131  -0.00131   2.08497
    A8        2.08320   0.00047   0.00000   0.00277   0.00277   2.08596
    A9        2.11370  -0.00021   0.00000  -0.00146  -0.00146   2.11225
   A10        2.10491  -0.00018   0.00000  -0.00056  -0.00056   2.10435
   A11        2.09103  -0.00018   0.00000  -0.00144  -0.00144   2.08959
   A12        2.08725   0.00037   0.00000   0.00200   0.00200   2.08925
   A13        2.07380   0.00016   0.00000   0.00104   0.00104   2.07484
   A14        2.10469  -0.00008   0.00000  -0.00052  -0.00052   2.10417
   A15        2.10469  -0.00008   0.00000  -0.00052  -0.00052   2.10417
   A16        2.10491  -0.00018   0.00000  -0.00056  -0.00056   2.10435
   A17        2.09103  -0.00019   0.00000  -0.00144  -0.00144   2.08959
   A18        2.08725   0.00037   0.00000   0.00200   0.00200   2.08925
   A19        2.11400  -0.00011   0.00000  -0.00068  -0.00068   2.11332
   A20        2.11400  -0.00011   0.00000  -0.00068  -0.00068   2.11332
   A21        2.05518   0.00022   0.00000   0.00136   0.00136   2.05654
   A22        2.06011   0.00031   0.00000   0.00127   0.00115   2.06126
   A23        2.06012   0.00031   0.00000   0.00125   0.00113   2.06126
   A24        2.16294  -0.00062   0.00000  -0.00245  -0.00257   2.16037
    D1       -0.00010   0.00001   0.00000   0.00042   0.00042   0.00032
    D2        3.14153   0.00001   0.00000   0.00021   0.00021  -3.14145
    D3        3.14155   0.00000   0.00000   0.00016   0.00016  -3.14147
    D4        0.00001  -0.00000   0.00000  -0.00005  -0.00005  -0.00005
    D5        0.00005  -0.00000   0.00000  -0.00020  -0.00020  -0.00015
    D6       -3.14153  -0.00001   0.00000  -0.00023  -0.00023   3.14142
    D7        3.14158   0.00000   0.00000   0.00006   0.00006  -3.14155
    D8       -0.00001   0.00000   0.00000   0.00003   0.00003   0.00003
    D9        0.00010  -0.00001   0.00000  -0.00042  -0.00042  -0.00032
   D10       -3.14156  -0.00000   0.00000  -0.00016  -0.00016   3.14147
   D11       -3.14153  -0.00001   0.00000  -0.00021  -0.00021   3.14144
   D12       -0.00001   0.00000   0.00000   0.00005   0.00005   0.00005
   D13        3.14026   0.00015   0.00000   0.01398   0.01398  -3.12895
   D14        0.00129  -0.00015   0.00000  -0.01376  -0.01376  -0.01247
   D15       -0.00129   0.00015   0.00000   0.01377   0.01376   0.01247
   D16       -3.14025  -0.00015   0.00000  -0.01398  -0.01398   3.12896
   D17       -0.00005   0.00000   0.00000   0.00020   0.00020   0.00015
   D18        3.14153   0.00001   0.00000   0.00023   0.00023  -3.14142
   D19       -3.14157  -0.00000   0.00000  -0.00006  -0.00006   3.14155
   D20        0.00001  -0.00000   0.00000  -0.00003  -0.00003  -0.00003
   D21       -0.00000   0.00000   0.00000   0.00001   0.00001   0.00001
   D22        3.14159   0.00000   0.00000   0.00001   0.00001  -3.14159
   D23       -3.14159  -0.00000   0.00000  -0.00002  -0.00002   3.14158
   D24        0.00000  -0.00000   0.00000  -0.00002  -0.00002  -0.00001
   D25        0.00000  -0.00000   0.00000  -0.00001  -0.00001  -0.00001
   D26        3.14159   0.00000   0.00000   0.00002   0.00002  -3.14158
   D27       -3.14159  -0.00000   0.00000  -0.00001  -0.00001   3.14159
   D28       -0.00000   0.00000   0.00000   0.00002   0.00002   0.00001
   D29        3.14158  -0.00000   0.00000  -0.00000  -0.00001   3.14158
   D30        0.00001   0.00000   0.00000   0.00001   0.00001   0.00002
   D31       -0.00001  -0.00000   0.00000  -0.00000  -0.00000  -0.00002
   D32       -3.14158   0.00000   0.00000   0.00001   0.00001  -3.14158
         Item               Value     Threshold  Converged?
 Maximum Force            0.015884     0.000450     NO 
 RMS     Force            0.002913     0.000300     NO 
 Maximum Displacement     0.021689     0.001800     NO 
 RMS     Displacement     0.007595     0.001200     NO 
 Predicted change in Energy=-4.101036D-04
 GradGradGradGradGradGradGradGradGradGradGradGradGradGradGradGradGradGrad

                          Input orientation:                          
 ---------------------------------------------------------------------
 Center     Atomic      Atomic             Coordinates (Angstroms)
 Number     Number       Type             X           Y           Z
 ---------------------------------------------------------------------
      1          6           0       -0.020586    1.212804   -0.002402
      2          6           0       -0.705924   -0.000001   -0.003398
      3          6           0       -0.020585   -1.212806   -0.002331
      4          6           0        1.361057   -1.212566   -0.000637
      5          6           0        2.077030   -0.000000    0.000200
      6          6           0        1.361055    1.212566   -0.000707
      7          7           0        3.443614    0.000001    0.001869
      8          7           0       -2.155654    0.000000   -0.005362
      9          8           0       -2.733740   -1.082463    0.007481
     10          8           0       -2.733732    1.082469    0.007412
     11          1           0       -0.578686    2.141166   -0.003150
     12          1           0       -0.578684   -2.141168   -0.003025
     13          1           0        1.899509   -2.155247    0.000038
     14          1           0        1.899507    2.155246   -0.000088
     15          1           0        3.962189    0.860184    0.002462
     16          1           0        3.962190   -0.860181    0.002513
 ---------------------------------------------------------------------
                    Distance matrix (angstroms):
                    1          2          3          4          5
     1  C    0.000000
     2  C    1.393049   0.000000
     3  C    2.425610   1.393049   0.000000
     4  C    2.791301   2.396399   1.381643   0.000000
     5  C    2.422993   2.782956   2.422993   1.408167   0.000000
     6  C    1.381643   2.396399   2.791301   2.425132   1.408168
     7  N    3.670367   4.149541   3.670367   2.409848   1.366585
     8  N    2.455487   1.449732   2.455489   3.719892   4.232688
     9  O    3.553808   2.298669   2.716301   4.096871   4.931053
    10  O    2.716292   2.298666   3.553807   4.694097   4.931046
    11  H    1.083204   2.144944   3.400089   3.874290   3.411368
    12  H    3.400088   2.144944   1.083204   2.150558   3.411367
    13  H    3.876924   3.381327   2.138916   1.085623   2.162545
    14  H    2.138916   3.381327   3.876923   3.410585   2.162545
    15  H    3.998357   4.746707   4.489966   3.325987   2.072135
    16  H    4.489966   4.746707   3.998358   2.624896   2.072135
                    6          7          8          9         10
     6  C    0.000000
     7  N    2.409848   0.000000
     8  N    3.719890   5.599273   0.000000
     9  O    4.694099   6.271479   1.227222   0.000000
    10  O    4.096861   6.271472   1.227223   2.164932   0.000000
    11  H    2.150558   4.556699   2.659215   3.877648   2.401077
    12  H    3.874290   4.556699   2.659218   2.401089   3.877651
    13  H    3.410585   2.651293   4.592327   4.755829   5.652413
    14  H    1.085623   2.651292   4.592325   5.652415   4.755818
    15  H    2.624896   1.004407   6.178024   6.972041   6.699611
    16  H    3.325987   1.004408   6.178025   6.699619   6.972035
                   11         12         13         14         15
    11  H    0.000000
    12  H    4.282334   0.000000
    13  H    4.959901   2.478235   0.000000
    14  H    2.478235   4.959901   4.310493   0.000000
    15  H    4.718102   5.443130   3.653419   2.435539   0.000000
    16  H    5.443130   4.718103   2.435540   3.653419   1.720365
                   16
    16  H    0.000000
 Stoichiometry    C6H6N2O2
 Framework group  C1[X(C6H6N2O2)]
 Deg. of freedom    42
 Full point group                 C1      NOp   1
 Largest Abelian subgroup         C1      NOp   1
 Largest concise Abelian subgroup C1      NOp   1
                         Standard orientation:                         
 ---------------------------------------------------------------------
 Center     Atomic      Atomic             Coordinates (Angstroms)
 Number     Number       Type             X           Y           Z
 ---------------------------------------------------------------------
      1          6           0        0.022727   -1.212804   -0.002902
      2          6           0        0.708064    0.000002   -0.004293
      3          6           0        0.022726    1.212806   -0.002904
      4          6           0       -1.358915    1.212566   -0.000488
      5          6           0       -2.074887    0.000000    0.000760
      6          6           0       -1.358913   -1.212565   -0.000486
      7          7           0       -3.441470   -0.000001    0.003143
      8          7           0        2.157793    0.000001   -0.007015
      9          8           0        2.735885    1.082464    0.005494
     10          8           0        2.735878   -1.082468    0.005489
     11          1           0        0.580827   -2.141165   -0.003915
     12          1           0        0.580824    2.141168   -0.003918
     13          1           0       -1.897367    2.155247    0.000440
     14          1           0       -1.897364   -2.155246    0.000444
     15          1           0       -3.960045   -0.860184    0.004033
     16          1           0       -3.960046    0.860181    0.004032
 ---------------------------------------------------------------------
 Rotational constants (GHZ):      3.9430328      0.8267800      0.6834735
 Standard basis: 6-31+G(d,p) (6D, 7F)
 There are   220 symmetry adapted cartesian basis functions of A   symmetry.
 There are   220 symmetry adapted basis functions of A   symmetry.
   220 basis functions,   362 primitive gaussians,   220 cartesian basis functions
    36 alpha electrons       36 beta electrons
       nuclear repulsion energy       496.4704497958 Hartrees.
 NAtoms=   16 NActive=   16 NUniq=   16 SFac= 1.00D+00 NAtFMM=   60 NAOKFM=F Big=F
 Integral buffers will be    131072 words long.
 Raffenetti 2 integral format.
 Two-electron integral symmetry is turned on.
 Nuclear repulsion after empirical dispersion term =      496.4632704463 Hartrees.
 One-electron integrals computed using PRISM.
 NBasis=   220 RedAO= T EigKep=  3.18D-06  NBF=   220
 NBsUse=   220 1.00D-06 EigRej= -1.00D+00 NBFU=   220
 Initial guess from the checkpoint file:  "WB97XDPNA.chk"
 B after Tr=     0.000000   -0.000000    0.000000
         Rot=    1.000000    0.000015    0.000033    0.000000 Ang=   0.00 deg.
 ExpMin= 4.38D-02 ExpMax= 5.48D+03 ExpMxC= 8.25D+02 IAcc=2 IRadAn=         4 AccDes= 0.00D+00
 Harris functional with IExCor= 4639 and IRadAn=       4 diagonalized for initial guess.
 HarFok:  IExCor= 4639 AccDes= 0.00D+00 IRadAn=         4 IDoV= 1 UseB2=F ITyADJ=14
 ICtDFT=  3500011 ScaDFX=  1.000000  1.000000  1.000000  1.000000
 FoFCou: FMM=F IPFlag=           0 FMFlag=      100000 FMFlg1=           0
         NFxFlg=           0 DoJE=T BraDBF=F KetDBF=T FulRan=T
         wScrn=  0.000000 ICntrl=     500 IOpCl=  0 I1Cent=   200000004 NGrid=           0
         NMat0=    1 NMatS0=      1 NMatT0=    0 NMatD0=    1 NMtDS0=    0 NMtDT0=    0
 Petite list used in FoFCou.
 Keep R1 ints in memory in canonical form, NReq=596566580.
 Requested convergence on RMS density matrix=1.00D-08 within 128 cycles.
 Requested convergence on MAX density matrix=1.00D-06.
 Requested convergence on             energy=1.00D-06.
 No special actions if energy rises.
 SCF Done:  E(RwB97XD) =  -491.975987304     A.U. after   13 cycles
            NFock= 13  Conv=0.54D-08     -V/T= 2.0090
 Calling FoFJK, ICntrl=      2127 FMM=F ISym2X=0 I1Cent= 0 IOpClX= 0 NMat=1 NMatS=1 NMatT=0.
 ***** Axes restored to original set *****
 -------------------------------------------------------------------
 Center     Atomic                   Forces (Hartrees/Bohr)
 Number     Number              X              Y              Z
 -------------------------------------------------------------------
      1        6          -0.000650891    0.000043741   -0.000183437
      2        6           0.001517790   -0.000000126   -0.000897479
      3        6          -0.000651027   -0.000043695   -0.000183475
      4        6           0.000515744   -0.000121111    0.000053384
      5        6          -0.000043060    0.000000298   -0.000020341
      6        6           0.000516029    0.000120873    0.000053321
      7        7           0.000615293   -0.000000149   -0.000001001
      8        7          -0.004875820    0.000001207    0.004045049
      9        8           0.001357496    0.001206136   -0.001451324
     10        8           0.001356979   -0.001207060   -0.001451228
     11        1           0.000106969    0.000027476   -0.000003886
     12        1           0.000106815   -0.000027668   -0.000003870
     13        1           0.000004491   -0.000078081    0.000020993
     14        1           0.000004453    0.000078080    0.000020996
     15        1           0.000059369    0.000030350    0.000001151
     16        1           0.000059371   -0.000030271    0.000001148
 -------------------------------------------------------------------
 Cartesian Forces:  Max     0.004875820 RMS     0.001079802

 GradGradGradGradGradGradGradGradGradGradGradGradGradGradGradGradGradGrad
 Berny optimization.
 Using GEDIIS/GDIIS optimizer.
 FormGI is forming the generalized inverse of G from B-inverse, IUseBI=4.
 Internal  Forces:  Max     0.002159794 RMS     0.000568918
 Search for a local minimum.
 Step number   2 out of a maximum of   82
 All quantities printed in internal units (Hartrees-Bohrs-Radians)
 Mixed Optimization -- En-DIIS/RFO-DIIS
 Update second derivatives using D2CorX and points    1    2
 DE= -3.83D-04 DEPred=-4.10D-04 R= 9.33D-01
 TightC=F SS=  1.41D+00  RLast= 4.45D-02 DXNew= 5.0454D-01 1.3337D-01
 Trust test= 9.33D-01 RLast= 4.45D-02 DXMaxT set to 3.00D-01
 ITU=  1  0
 Use linear search instead of GDIIS.
     Eigenvalues ---    0.00996   0.01194   0.01775   0.01947   0.02015
     Eigenvalues ---    0.02077   0.02097   0.02097   0.02106   0.02155
     Eigenvalues ---    0.02167   0.02210   0.02216   0.15944   0.16000
     Eigenvalues ---    0.16000   0.16000   0.16000   0.16004   0.22000
     Eigenvalues ---    0.22971   0.24095   0.25000   0.25000   0.25000
     Eigenvalues ---    0.25139   0.35285   0.35289   0.35666   0.35669
     Eigenvalues ---    0.37959   0.40845   0.41747   0.44813   0.45565
     Eigenvalues ---    0.46630   0.46642   0.46703   0.49723   0.52427
     Eigenvalues ---    0.73756   0.88340
 RFO step:  Lambda=-7.10169921D-04 EMin= 9.96419452D-03
 Quartic linear search produced a step of -0.06832.
 Iteration  1 RMS(Cart)=  0.02899197 RMS(Int)=  0.00275253
 Iteration  2 RMS(Cart)=  0.00237521 RMS(Int)=  0.00168254
 Iteration  3 RMS(Cart)=  0.00000853 RMS(Int)=  0.00168253
 Iteration  4 RMS(Cart)=  0.00000002 RMS(Int)=  0.00168253
 Variable       Old X    -DE/DX   Delta X   Delta X   Delta X     New X
                                 (Linear)    (Quad)   (Total)
    R1        2.63248   0.00026   0.00067  -0.00879  -0.00812   2.62436
    R2        2.61093   0.00087   0.00044  -0.00443  -0.00399   2.60694
    R3        2.04696  -0.00003  -0.00006   0.00081   0.00074   2.04770
    R4        2.63248   0.00026   0.00067  -0.00879  -0.00812   2.62436
    R5        2.73960   0.00216   0.00037   0.00024   0.00061   2.74020
    R6        2.61093   0.00087   0.00044  -0.00443  -0.00399   2.60694
    R7        2.04696  -0.00003  -0.00006   0.00080   0.00074   2.04770
    R8        2.66105   0.00031   0.00059  -0.00748  -0.00689   2.65416
    R9        2.05153   0.00007   0.00004  -0.00040  -0.00036   2.05117
   R10        2.66105   0.00031   0.00059  -0.00748  -0.00689   2.65416
   R11        2.58247   0.00073   0.00035  -0.00358  -0.00322   2.57925
   R12        2.05153   0.00007   0.00004  -0.00040  -0.00036   2.05117
   R13        1.89805   0.00006   0.00021  -0.00281  -0.00260   1.89545
   R14        1.89806   0.00006   0.00021  -0.00281  -0.00260   1.89545
   R15        2.31911  -0.00172   0.00123  -0.01885  -0.01762   2.30149
   R16        2.31911  -0.00172   0.00123  -0.01885  -0.01762   2.30149
    A1        2.08497   0.00016   0.00009  -0.00061  -0.00052   2.08446
    A2        2.08596   0.00003  -0.00019   0.00294   0.00275   2.08871
    A3        2.11225  -0.00019   0.00010  -0.00233  -0.00223   2.11002
    A4        2.11289  -0.00030  -0.00018   0.00139   0.00121   2.11410
    A5        2.08515   0.00015   0.00009  -0.00070  -0.00060   2.08454
    A6        2.08515   0.00015   0.00009  -0.00070  -0.00061   2.08454
    A7        2.08497   0.00016   0.00009  -0.00061  -0.00052   2.08446
    A8        2.08596   0.00003  -0.00019   0.00294   0.00275   2.08871
    A9        2.11225  -0.00019   0.00010  -0.00233  -0.00223   2.11001
   A10        2.10435   0.00013   0.00004  -0.00003   0.00001   2.10435
   A11        2.08959  -0.00010   0.00010  -0.00182  -0.00172   2.08787
   A12        2.08925  -0.00003  -0.00014   0.00185   0.00172   2.09096
   A13        2.07484  -0.00029  -0.00007  -0.00012  -0.00019   2.07465
   A14        2.10417   0.00014   0.00004   0.00006   0.00009   2.10427
   A15        2.10417   0.00014   0.00004   0.00006   0.00010   2.10427
   A16        2.10435   0.00013   0.00004  -0.00003   0.00001   2.10435
   A17        2.08959  -0.00010   0.00010  -0.00182  -0.00172   2.08787
   A18        2.08925  -0.00003  -0.00014   0.00185   0.00172   2.09096
   A19        2.11332   0.00002   0.00005  -0.00052  -0.00047   2.11285
   A20        2.11332   0.00002   0.00005  -0.00051  -0.00047   2.11285
   A21        2.05654  -0.00004  -0.00009   0.00103   0.00094   2.05748
   A22        2.06126  -0.00046  -0.00008   0.00118  -0.00703   2.05423
   A23        2.06126  -0.00045  -0.00008   0.00117  -0.00703   2.05422
   A24        2.16037   0.00098   0.00018   0.00301  -0.00513   2.15524
    D1        0.00032  -0.00007  -0.00003  -0.00268  -0.00271  -0.00239
    D2       -3.14145  -0.00004  -0.00001  -0.00122  -0.00124   3.14050
    D3       -3.14147  -0.00003  -0.00001  -0.00114  -0.00115   3.14057
    D4       -0.00005   0.00001   0.00000   0.00032   0.00033   0.00028
    D5       -0.00015   0.00003   0.00001   0.00128   0.00129   0.00114
    D6        3.14142   0.00004   0.00002   0.00139   0.00140  -3.14036
    D7       -3.14155  -0.00001  -0.00000  -0.00029  -0.00030   3.14134
    D8        0.00003  -0.00001  -0.00000  -0.00018  -0.00018  -0.00016
    D9       -0.00032   0.00007   0.00003   0.00268   0.00271   0.00239
   D10        3.14147   0.00003   0.00001   0.00114   0.00115  -3.14057
   D11        3.14144   0.00004   0.00001   0.00122   0.00124  -3.14050
   D12        0.00005  -0.00001  -0.00000  -0.00032  -0.00033  -0.00028
   D13       -3.12895  -0.00148  -0.00096  -0.11477  -0.11494   3.03930
   D14       -0.01247   0.00144   0.00094   0.11334   0.11349   0.10102
   D15        0.01247  -0.00144  -0.00094  -0.11334  -0.11349  -0.10102
   D16        3.12896   0.00148   0.00095   0.11477   0.11494  -3.03929
   D17        0.00015  -0.00003  -0.00001  -0.00128  -0.00129  -0.00114
   D18       -3.14142  -0.00004  -0.00002  -0.00139  -0.00140   3.14036
   D19        3.14155   0.00001   0.00000   0.00029   0.00030  -3.14134
   D20       -0.00003   0.00001   0.00000   0.00018   0.00018   0.00016
   D21        0.00001  -0.00000  -0.00000  -0.00008  -0.00009  -0.00008
   D22       -3.14159  -0.00000  -0.00000  -0.00007  -0.00007   3.14153
   D23        3.14158   0.00000   0.00000   0.00003   0.00003  -3.14157
   D24       -0.00001   0.00000   0.00000   0.00004   0.00004   0.00003
   D25       -0.00001   0.00000   0.00000   0.00008   0.00009   0.00008
   D26       -3.14158  -0.00000  -0.00000  -0.00003  -0.00003   3.14157
   D27        3.14159   0.00000   0.00000   0.00007   0.00007  -3.14153
   D28        0.00001  -0.00000  -0.00000  -0.00004  -0.00004  -0.00003
   D29        3.14158   0.00000   0.00000   0.00002   0.00002  -3.14159
   D30        0.00002  -0.00000  -0.00000  -0.00003  -0.00003  -0.00001
   D31       -0.00002   0.00000   0.00000   0.00003   0.00003   0.00001
   D32       -3.14158  -0.00000  -0.00000  -0.00002  -0.00002   3.14159
         Item               Value     Threshold  Converged?
 Maximum Force            0.002160     0.000450     NO 
 RMS     Force            0.000569     0.000300     NO 
 Maximum Displacement     0.127415     0.001800     NO 
 RMS     Displacement     0.029146     0.001200     NO 
 Predicted change in Energy=-3.658493D-04
 GradGradGradGradGradGradGradGradGradGradGradGradGradGradGradGradGradGrad

                          Input orientation:                          
 ---------------------------------------------------------------------
 Center     Atomic      Atomic             Coordinates (Angstroms)
 Number     Number       Type             X           Y           Z
 ---------------------------------------------------------------------
      1          6           0       -0.020612    1.209476    0.019566
      2          6           0       -0.703057   -0.000000    0.027727
      3          6           0       -0.020611   -1.209477    0.019637
      4          6           0        1.358856   -1.209358    0.006087
      5          6           0        2.073055    0.000001   -0.000917
      6          6           0        1.358854    1.209358    0.006016
      7          7           0        3.437870   -0.000001   -0.014245
      8          7           0       -2.153026    0.000001    0.043348
      9          8           0       -2.720284   -1.072764   -0.059944
     10          8           0       -2.720270    1.072765   -0.060013
     11          1           0       -0.576896    2.139368    0.025201
     12          1           0       -0.576891   -2.139369    0.025326
     13          1           0        1.895481   -2.152846    0.000896
     14          1           0        1.895479    2.152848    0.000771
     15          1           0        3.955305    0.859247   -0.019315
     16          1           0        3.955307   -0.859247   -0.019265
 ---------------------------------------------------------------------
                    Distance matrix (angstroms):
                    1          2          3          4          5
     1  C    0.000000
     2  C    1.388751   0.000000
     3  C    2.418952   1.388751   0.000000
     4  C    2.784577   2.390502   1.379534   0.000000
     5  C    2.417993   2.776260   2.417994   1.404520   0.000000
     6  C    1.379533   2.390502   2.784578   2.418716   1.404520
     7  N    3.664024   4.141139   3.664024   2.405256   1.364880
     8  N    2.451649   1.450053   2.451651   3.714465   4.226313
     9  O    3.535982   2.286419   2.704304   4.081961   4.912271
    10  O    2.704288   2.286410   3.535976   4.674582   4.912258
    11  H    1.083598   2.143087   3.394738   3.868006   3.405850
    12  H    3.394737   2.143087   1.083596   2.147652   3.405849
    13  H    3.870009   3.374591   2.135816   1.085433   2.160159
    14  H    2.135816   3.374592   3.870011   3.404764   2.160159
    15  H    3.991502   4.737178   4.482080   3.319837   2.069180
    16  H    4.482081   4.737179   3.991503   2.620072   2.069182
                    6          7          8          9         10
     6  C    0.000000
     7  N    2.405257   0.000000
     8  N    3.714464   5.591192   0.000000
     9  O    4.674591   6.251061   1.217898   0.000000
    10  O    4.081944   6.251048   1.217896   2.145529   0.000000
    11  H    2.147654   4.549373   2.657331   3.862532   2.395611
    12  H    3.868005   4.549370   2.657336   2.395632   3.862533
    13  H    3.404764   2.648384   4.585517   4.740841   5.631468
    14  H    1.085433   2.648387   4.585515   5.631476   4.740823
    15  H    2.620072   1.003031   6.168788   6.949662   6.679112
    16  H    3.319839   1.003031   6.168789   6.679129   6.949651
                   11         12         13         14         15
    11  H    0.000000
    12  H    4.278737   0.000000
    13  H    4.953418   2.472530   0.000000
    14  H    2.472532   4.953417   4.305694   0.000000
    15  H    4.709728   5.434565   3.649108   2.432425   0.000000
    16  H    5.434568   4.709726   2.432424   3.649111   1.718494
                   16
    16  H    0.000000
 Stoichiometry    C6H6N2O2
 Framework group  C1[X(C6H6N2O2)]
 Deg. of freedom    42
 Full point group                 C1      NOp   1
 Largest Abelian subgroup         C1      NOp   1
 Largest concise Abelian subgroup C1      NOp   1
                         Standard orientation:                         
 ---------------------------------------------------------------------
 Center     Atomic      Atomic             Coordinates (Angstroms)
 Number     Number       Type             X           Y           Z
 ---------------------------------------------------------------------
      1          6           0        0.024624   -1.209475    0.023510
      2          6           0        0.707027    0.000002    0.034592
      3          6           0        0.024623    1.209478    0.023508
      4          6           0       -1.354773    1.209358    0.003979
      5          6           0       -2.068935   -0.000000   -0.006085
      6          6           0       -1.354771   -1.209358    0.003981
      7          7           0       -3.433679    0.000000   -0.025328
      8          7           0        2.156915    0.000000    0.056498
      9          8           0        2.724616    1.072762   -0.044367
     10          8           0        2.724601   -1.072767   -0.044372
     11          1           0        0.580878   -2.139367    0.031584
     12          1           0        0.580873    2.139370    0.031580
     13          1           0       -1.891370    2.152847   -0.003566
     14          1           0       -1.891367   -2.152848   -0.003562
     15          1           0       -3.951087   -0.859247   -0.032614
     16          1           0       -3.951089    0.859247   -0.032616
 ---------------------------------------------------------------------
 Rotational constants (GHZ):      3.9722148      0.8313917      0.6877763
 Standard basis: 6-31+G(d,p) (6D, 7F)
 There are   220 symmetry adapted cartesian basis functions of A   symmetry.
 There are   220 symmetry adapted basis functions of A   symmetry.
   220 basis functions,   362 primitive gaussians,   220 cartesian basis functions
    36 alpha electrons       36 beta electrons
       nuclear repulsion energy       498.0338074953 Hartrees.
 NAtoms=   16 NActive=   16 NUniq=   16 SFac= 1.00D+00 NAtFMM=   60 NAOKFM=F Big=F
 Integral buffers will be    131072 words long.
 Raffenetti 2 integral format.
 Two-electron integral symmetry is turned on.
 Nuclear repulsion after empirical dispersion term =      498.0266228550 Hartrees.
 One-electron integrals computed using PRISM.
 NBasis=   220 RedAO= T EigKep=  3.11D-06  NBF=   220
 NBsUse=   220 1.00D-06 EigRej= -1.00D+00 NBFU=   220
 Initial guess from the checkpoint file:  "WB97XDPNA.chk"
 B after Tr=     0.000000    0.000000   -0.000000
         Rot=    1.000000   -0.000000   -0.000008    0.000000 Ang=  -0.00 deg.
 ExpMin= 4.38D-02 ExpMax= 5.48D+03 ExpMxC= 8.25D+02 IAcc=2 IRadAn=         4 AccDes= 0.00D+00
 Harris functional with IExCor= 4639 and IRadAn=       4 diagonalized for initial guess.
 HarFok:  IExCor= 4639 AccDes= 0.00D+00 IRadAn=         4 IDoV= 1 UseB2=F ITyADJ=14
 ICtDFT=  3500011 ScaDFX=  1.000000  1.000000  1.000000  1.000000
 FoFCou: FMM=F IPFlag=           0 FMFlag=      100000 FMFlg1=           0
         NFxFlg=           0 DoJE=T BraDBF=F KetDBF=T FulRan=T
         wScrn=  0.000000 ICntrl=     500 IOpCl=  0 I1Cent=   200000004 NGrid=           0
         NMat0=    1 NMatS0=      1 NMatT0=    0 NMatD0=    1 NMtDS0=    0 NMtDT0=    0
 Petite list used in FoFCou.
 Keep R1 ints in memory in canonical form, NReq=596566580.
 Requested convergence on RMS density matrix=1.00D-08 within 128 cycles.
 Requested convergence on MAX density matrix=1.00D-06.
 Requested convergence on             energy=1.00D-06.
 No special actions if energy rises.
 SCF Done:  E(RwB97XD) =  -491.973245538     A.U. after   14 cycles
            NFock= 14  Conv=0.48D-08     -V/T= 2.0087
 Calling FoFJK, ICntrl=      2127 FMM=F ISym2X=0 I1Cent= 0 IOpClX= 0 NMat=1 NMatS=1 NMatT=0.
 ***** Axes restored to original set *****
 -------------------------------------------------------------------
 Center     Atomic                   Forces (Hartrees/Bohr)
 Number     Number              X              Y              Z
 -------------------------------------------------------------------
      1        6          -0.000998821    0.003409503    0.001427726
      2        6           0.000637002   -0.000001175    0.007748055
      3        6          -0.000998006   -0.003407820    0.001427807
      4        6           0.001166464   -0.002709890   -0.000438299
      5        6           0.001253749   -0.000000681    0.000143751
      6        6           0.001167227    0.002710419   -0.000438504
      7        7           0.001513064    0.000000669    0.000001845
      8        7           0.007181602   -0.000002066   -0.031552198
      9        8          -0.006632289   -0.013665503    0.010981118
     10        8          -0.006635295    0.013668285    0.010980007
     11        1           0.000084418   -0.000338254    0.000044717
     12        1           0.000083443    0.000337162    0.000044754
     13        1           0.000266063   -0.000146565   -0.000167978
     14        1           0.000265817    0.000146153   -0.000167976
     15        1           0.000822850    0.001038303   -0.000017448
     16        1           0.000822713   -0.001038539   -0.000017378
 -------------------------------------------------------------------
 Cartesian Forces:  Max     0.031552198 RMS     0.006233760

 GradGradGradGradGradGradGradGradGradGradGradGradGradGradGradGradGradGrad
 Berny optimization.
 Using GEDIIS/GDIIS optimizer.
 FormGI is forming the generalized inverse of G from B-inverse, IUseBI=4.
 Internal  Forces:  Max     0.014198338 RMS     0.004009957
 Search for a local minimum.
 Step number   3 out of a maximum of   82
 All quantities printed in internal units (Hartrees-Bohrs-Radians)
 Mixed Optimization -- RFO/linear search
 Update second derivatives using D2CorX and points    1    3    2
 DE=  2.74D-03 DEPred=-3.66D-04 R=-7.49D+00
 Trust test=-7.49D+00 RLast= 2.31D-01 DXMaxT set to 1.50D-01
 ITU= -1  1  0
 Use linear search instead of GDIIS.
 Energy rises -- skip Quadratic/GDIIS search.
 Quartic linear search produced a step of -0.89321.
 Iteration  1 RMS(Cart)=  0.02608735 RMS(Int)=  0.00171851
 Iteration  2 RMS(Cart)=  0.00186124 RMS(Int)=  0.00015958
 Iteration  3 RMS(Cart)=  0.00000487 RMS(Int)=  0.00015952
 Iteration  4 RMS(Cart)=  0.00000000 RMS(Int)=  0.00015952
 Variable       Old X    -DE/DX   Delta X   Delta X   Delta X     New X
                                 (Linear)    (Quad)   (Total)
    R1        2.62436   0.00408   0.00726   0.00000   0.00726   2.63161
    R2        2.60694   0.00364   0.00356   0.00000   0.00356   2.61050
    R3        2.04770  -0.00033  -0.00066   0.00000  -0.00066   2.04704
    R4        2.62436   0.00408   0.00725   0.00000   0.00725   2.63161
    R5        2.74020   0.00598  -0.00054   0.00000  -0.00054   2.73966
    R6        2.60694   0.00364   0.00356   0.00000   0.00356   2.61050
    R7        2.04770  -0.00033  -0.00066   0.00000  -0.00066   2.04704
    R8        2.65416   0.00351   0.00616   0.00000   0.00616   2.66031
    R9        2.05117   0.00026   0.00032   0.00000   0.00032   2.05149
   R10        2.65416   0.00351   0.00616   0.00000   0.00616   2.66032
   R11        2.57925   0.00316   0.00288   0.00000   0.00288   2.58213
   R12        2.05117   0.00026   0.00032   0.00000   0.00032   2.05149
   R13        1.89545   0.00131   0.00232   0.00000   0.00232   1.89778
   R14        1.89545   0.00131   0.00232   0.00000   0.00232   1.89778
   R15        2.30149   0.01420   0.01574   0.00000   0.01574   2.31723
   R16        2.30149   0.01420   0.01574   0.00000   0.01574   2.31723
    A1        2.08446   0.00040   0.00046   0.00000   0.00046   2.08492
    A2        2.08871  -0.00030  -0.00245   0.00000  -0.00245   2.08626
    A3        2.11002  -0.00010   0.00199   0.00000   0.00199   2.11201
    A4        2.11410  -0.00096  -0.00108   0.00000  -0.00108   2.11302
    A5        2.08454   0.00048   0.00054   0.00000   0.00054   2.08508
    A6        2.08454   0.00048   0.00054   0.00000   0.00054   2.08508
    A7        2.08446   0.00040   0.00046   0.00000   0.00046   2.08492
    A8        2.08871  -0.00030  -0.00246   0.00000  -0.00246   2.08626
    A9        2.11001  -0.00010   0.00199   0.00000   0.00199   2.11201
   A10        2.10435   0.00030  -0.00001   0.00000  -0.00001   2.10435
   A11        2.08787   0.00001   0.00154   0.00000   0.00154   2.08941
   A12        2.09096  -0.00032  -0.00153   0.00000  -0.00153   2.08943
   A13        2.07465  -0.00045   0.00017   0.00000   0.00017   2.07482
   A14        2.10427   0.00022  -0.00008   0.00000  -0.00008   2.10418
   A15        2.10427   0.00022  -0.00009   0.00000  -0.00009   2.10418
   A16        2.10435   0.00030  -0.00001   0.00000  -0.00001   2.10435
   A17        2.08787   0.00001   0.00154   0.00000   0.00154   2.08941
   A18        2.09096  -0.00032  -0.00153   0.00000  -0.00153   2.08943
   A19        2.11285   0.00011   0.00042   0.00000   0.00042   2.11327
   A20        2.11285   0.00011   0.00042   0.00000   0.00042   2.11327
   A21        2.05748  -0.00021  -0.00084   0.00000  -0.00084   2.05664
   A22        2.05423   0.00171   0.00628   0.00000   0.00706   2.06129
   A23        2.05422   0.00171   0.00628   0.00000   0.00706   2.06129
   A24        2.15524   0.00134   0.00458   0.00000   0.00537   2.16061
    D1       -0.00239   0.00055   0.00242   0.00000   0.00242   0.00003
    D2        3.14050   0.00031   0.00111   0.00000   0.00111  -3.14158
    D3        3.14057   0.00022   0.00102   0.00000   0.00102  -3.14159
    D4        0.00028  -0.00003  -0.00029   0.00000  -0.00029  -0.00001
    D5        0.00114  -0.00027  -0.00115   0.00000  -0.00115  -0.00001
    D6       -3.14036  -0.00030  -0.00125   0.00000  -0.00125   3.14157
    D7        3.14134   0.00007   0.00026   0.00000   0.00026  -3.14158
    D8       -0.00016   0.00004   0.00016   0.00000   0.00016   0.00001
    D9        0.00239  -0.00055  -0.00242   0.00000  -0.00242  -0.00003
   D10       -3.14057  -0.00022  -0.00102   0.00000  -0.00102   3.14159
   D11       -3.14050  -0.00031  -0.00111   0.00000  -0.00111   3.14158
   D12       -0.00028   0.00003   0.00029   0.00000   0.00029   0.00001
   D13        3.03930   0.01246   0.10266   0.00000   0.10266  -3.14122
   D14        0.10102  -0.01222  -0.10137   0.00000  -0.10137  -0.00035
   D15       -0.10102   0.01222   0.10137   0.00000   0.10137   0.00035
   D16       -3.03929  -0.01246  -0.10266   0.00000  -0.10266   3.14123
   D17       -0.00114   0.00027   0.00115   0.00000   0.00115   0.00002
   D18        3.14036   0.00030   0.00125   0.00000   0.00125  -3.14157
   D19       -3.14134  -0.00007  -0.00026   0.00000  -0.00026   3.14158
   D20        0.00016  -0.00004  -0.00016   0.00000  -0.00016  -0.00001
   D21       -0.00008   0.00001   0.00008   0.00000   0.00008   0.00000
   D22        3.14153   0.00001   0.00007   0.00000   0.00007   3.14159
   D23       -3.14157  -0.00002  -0.00003   0.00000  -0.00003   3.14159
   D24        0.00003  -0.00002  -0.00004   0.00000  -0.00004  -0.00001
   D25        0.00008  -0.00001  -0.00008   0.00000  -0.00008  -0.00000
   D26        3.14157   0.00002   0.00003   0.00000   0.00003  -3.14159
   D27       -3.14153  -0.00001  -0.00007   0.00000  -0.00007  -3.14159
   D28       -0.00003   0.00002   0.00004   0.00000   0.00004   0.00001
   D29       -3.14159  -0.00001  -0.00002   0.00000  -0.00002   3.14158
   D30       -0.00001   0.00000   0.00003   0.00000   0.00003   0.00001
   D31        0.00001  -0.00000  -0.00003   0.00000  -0.00003  -0.00001
   D32        3.14159   0.00001   0.00002   0.00000   0.00002  -3.14158
         Item               Value     Threshold  Converged?
 Maximum Force            0.014198     0.000450     NO 
 RMS     Force            0.004010     0.000300     NO 
 Maximum Displacement     0.113759     0.001800     NO 
 RMS     Displacement     0.026064     0.001200     NO 
 Predicted change in Energy=-1.063909D-04
 GradGradGradGradGradGradGradGradGradGradGradGradGradGradGradGradGradGrad

                          Input orientation:                          
 ---------------------------------------------------------------------
 Center     Atomic      Atomic             Coordinates (Angstroms)
 Number     Number       Type             X           Y           Z
 ---------------------------------------------------------------------
      1          6           0       -0.020505    1.212449   -0.000045
      2          6           0       -0.705539   -0.000001   -0.000056
      3          6           0       -0.020504   -1.212450    0.000026
      4          6           0        1.360914   -1.212224    0.000084
      5          6           0        2.076702   -0.000000    0.000078
      6          6           0        1.360913    1.212223    0.000013
      7          7           0        3.443105    0.000001    0.000137
      8          7           0       -2.155305    0.000000   -0.000136
      9          8           0       -2.732937   -1.081652    0.000255
     10          8           0       -2.732928    1.081658    0.000185
     11          1           0       -0.578414    2.140974   -0.000107
     12          1           0       -0.578412   -2.140976    0.000018
     13          1           0        1.899174   -2.154990    0.000127
     14          1           0        1.899172    2.154990    0.000002
     15          1           0        3.961561    0.860084    0.000122
     16          1           0        3.961562   -0.860081    0.000173
 ---------------------------------------------------------------------
                    Distance matrix (angstroms):
                    1          2          3          4          5
     1  C    0.000000
     2  C    1.392590   0.000000
     3  C    2.424899   1.392590   0.000000
     4  C    2.790583   2.395769   1.381418   0.000000
     5  C    2.422459   2.782241   2.422459   1.407778   0.000000
     6  C    1.381418   2.395769   2.790583   2.424447   1.407778
     7  N    3.669689   4.148644   3.669690   2.409358   1.366403
     8  N    2.455077   1.449766   2.455079   3.719312   4.232007
     9  O    3.552491   2.297893   2.715585   4.095933   4.929767
    10  O    2.715575   2.297889   3.552489   4.692701   4.929759
    11  H    1.083246   2.144746   3.399518   3.873620   3.410779
    12  H    3.399517   2.144746   1.083246   2.150248   3.410778
    13  H    3.876186   3.380608   2.138585   1.085603   2.162290
    14  H    2.138585   3.380608   3.876185   3.409964   2.162291
    15  H    3.997625   4.745689   4.489124   3.325330   2.071820
    16  H    4.489124   4.745689   3.997625   2.624380   2.071820
                    6          7          8          9         10
     6  C    0.000000
     7  N    2.409358   0.000000
     8  N    3.719311   5.598410   0.000000
     9  O    4.692704   6.270045   1.226226   0.000000
    10  O    4.095923   6.270037   1.226227   2.163310   0.000000
    11  H    2.150248   4.555917   2.659014   3.876505   2.400850
    12  H    3.873619   4.555917   2.659017   2.400864   3.876508
    13  H    3.409964   2.650983   4.591600   4.754841   5.650864
    14  H    1.085603   2.650982   4.591598   5.650867   4.754829
    15  H    2.624380   1.004260   6.177037   6.970412   6.698155
    16  H    3.325330   1.004260   6.177038   6.698165   6.970405
                   11         12         13         14         15
    11  H    0.000000
    12  H    4.281950   0.000000
    13  H    4.959209   2.477626   0.000000
    14  H    2.477626   4.959209   4.309981   0.000000
    15  H    4.717208   5.442216   3.652959   2.435206   0.000000
    16  H    5.442216   4.717208   2.435207   3.652959   1.720165
                   16
    16  H    0.000000
 Stoichiometry    C6H6N2O2
 Framework group  C1[X(C6H6N2O2)]
 Deg. of freedom    42
 Full point group                 C1      NOp   1
 Largest Abelian subgroup         C1      NOp   1
 Largest concise Abelian subgroup C1      NOp   1
                         Standard orientation:                         
 ---------------------------------------------------------------------
 Center     Atomic      Atomic             Coordinates (Angstroms)
 Number     Number       Type             X           Y           Z
 ---------------------------------------------------------------------
      1          6           0        0.022786   -1.212448   -0.000107
      2          6           0        0.707820    0.000002   -0.000118
      3          6           0        0.022784    1.212451   -0.000036
      4          6           0       -1.358634    1.212224    0.000022
      5          6           0       -2.074421    0.000000    0.000016
      6          6           0       -1.358632   -1.212223   -0.000049
      7          7           0       -3.440824   -0.000001    0.000075
      8          7           0        2.157586    0.000001   -0.000198
      9          8           0        2.735217    1.081653    0.000193
     10          8           0        2.735209   -1.081657    0.000123
     11          1           0        0.580695   -2.140974   -0.000169
     12          1           0        0.580692    2.140977   -0.000044
     13          1           0       -1.896894    2.154991    0.000065
     14          1           0       -1.896891   -2.154990   -0.000060
     15          1           0       -3.959280   -0.860084    0.000060
     16          1           0       -3.959281    0.860081    0.000111
 ---------------------------------------------------------------------
 Rotational constants (GHZ):      3.9462126      0.8271256      0.6838010
 Standard basis: 6-31+G(d,p) (6D, 7F)
 There are   220 symmetry adapted cartesian basis functions of A   symmetry.
 There are   220 symmetry adapted basis functions of A   symmetry.
   220 basis functions,   362 primitive gaussians,   220 cartesian basis functions
    36 alpha electrons       36 beta electrons
       nuclear repulsion energy       496.6143876240 Hartrees.
 NAtoms=   16 NActive=   16 NUniq=   16 SFac= 1.00D+00 NAtFMM=   60 NAOKFM=F Big=F
 Integral buffers will be    131072 words long.
 Raffenetti 2 integral format.
 Two-electron integral symmetry is turned on.
 Nuclear repulsion after empirical dispersion term =      496.6072077141 Hartrees.
 One-electron integrals computed using PRISM.
 NBasis=   220 RedAO= T EigKep=  3.17D-06  NBF=   220
 NBsUse=   220 1.00D-06 EigRej= -1.00D+00 NBFU=   220
 Lowest energy guess from the checkpoint file:  "WB97XDPNA.chk"
 B after Tr=    -0.000000    0.000000   -0.000000
         Rot=    1.000000   -0.000015    0.000001    0.000000 Ang=  -0.00 deg.
 B after Tr=    -0.000000    0.000000   -0.000000
         Rot=    1.000000   -0.000015    0.000010   -0.000000 Ang=  -0.00 deg.
 Keep R1 ints in memory in canonical form, NReq=596566580.
 Requested convergence on RMS density matrix=1.00D-08 within 128 cycles.
 Requested convergence on MAX density matrix=1.00D-06.
 Requested convergence on             energy=1.00D-06.
 No special actions if energy rises.
 SCF Done:  E(RwB97XD) =  -491.976025353     A.U. after   11 cycles
            NFock= 11  Conv=0.50D-08     -V/T= 2.0090
 Calling FoFJK, ICntrl=      2127 FMM=F ISym2X=0 I1Cent= 0 IOpClX= 0 NMat=1 NMatS=1 NMatT=0.
 ***** Axes restored to original set *****
 -------------------------------------------------------------------
 Center     Atomic                   Forces (Hartrees/Bohr)
 Number     Number              X              Y              Z
 -------------------------------------------------------------------
      1        6          -0.000686918    0.000405568   -0.000007297
      2        6           0.001262456   -0.000000237   -0.000023892
      3        6          -0.000686948   -0.000405348   -0.000007318
      4        6           0.000576263   -0.000403656    0.000001716
      5        6           0.000104392    0.000000195   -0.000000265
      6        6           0.000576598    0.000403499    0.000001676
      7        7           0.000697811   -0.000000062   -0.000000042
      8        7          -0.003837286    0.000000889    0.000115401
      9        8           0.000723544   -0.000095141   -0.000041265
     10        8           0.000722771    0.000094583   -0.000041285
     11        1           0.000100367   -0.000009683    0.000000339
[...]
 ! A23   A(2,8,10)             117.981          -DE/DX =    0.0                 !
 ! A24   A(9,8,10)             124.0378         -DE/DX =    0.0001              !
 ! D1    D(6,1,2,3)             -0.0001         -DE/DX =    0.0                 !
 ! D2    D(6,1,2,8)            180.0001         -DE/DX =    0.0                 !
 ! D3    D(11,1,2,3)           179.9998         -DE/DX =    0.0                 !
 ! D4    D(11,1,2,8)             0.0001         -DE/DX =    0.0                 !
 ! D5    D(2,1,6,5)              0.0001         -DE/DX =    0.0                 !
 ! D6    D(2,1,6,14)          -180.0            -DE/DX =    0.0                 !
 ! D7    D(11,1,6,5)          -179.9998         -DE/DX =    0.0                 !
 ! D8    D(11,1,6,14)            0.0001         -DE/DX =    0.0                 !
 ! D9    D(1,2,3,4)              0.0001         -DE/DX =    0.0                 !
 ! D10   D(1,2,3,12)          -179.9998         -DE/DX =    0.0                 !
 ! D11   D(8,2,3,4)           -180.0002         -DE/DX =    0.0                 !
 ! D12   D(8,2,3,12)             0.0            -DE/DX =    0.0                 !
 ! D13   D(1,2,8,9)           -180.0102         -DE/DX =    0.0                 !
 ! D14   D(1,2,8,10)             0.0104         -DE/DX =    0.0                 !
 ! D15   D(3,2,8,9)             -0.01           -DE/DX =    0.0                 !
 ! D16   D(3,2,8,10)          -179.9893         -DE/DX =    0.0                 !
 ! D17   D(2,3,4,5)              0.0            -DE/DX =    0.0                 !
 ! D18   D(2,3,4,13)           180.0            -DE/DX =    0.0                 !
 ! D19   D(12,3,4,5)          -180.0001         -DE/DX =    0.0                 !
 ! D20   D(12,3,4,13)           -0.0001         -DE/DX =    0.0                 !
 ! D21   D(3,4,5,6)              0.0            -DE/DX =    0.0                 !
 ! D22   D(3,4,5,7)            179.9998         -DE/DX =    0.0                 !
 ! D23   D(13,4,5,6)          -180.0001         -DE/DX =    0.0                 !
 ! D24   D(13,4,5,7)            -0.0002         -DE/DX =    0.0                 !
 ! D25   D(4,5,6,1)              0.0            -DE/DX =    0.0                 !
 ! D26   D(4,5,6,14)           180.0001         -DE/DX =    0.0                 !
 ! D27   D(7,5,6,1)           -179.9999         -DE/DX =    0.0                 !
 ! D28   D(7,5,6,14)             0.0002         -DE/DX =    0.0                 !
 ! D29   D(4,5,7,15)           179.9991         -DE/DX =    0.0                 !
 ! D30   D(4,5,7,16)             0.0011         -DE/DX =    0.0                 !
 ! D31   D(6,5,7,15)            -0.0011         -DE/DX =    0.0                 !
 ! D32   D(6,5,7,16)          -179.9991         -DE/DX =    0.0                 !
 --------------------------------------------------------------------------------
 GradGradGradGradGradGradGradGradGradGradGradGradGradGradGradGradGradGrad

 1\1\ WCSS.PL-BEM-QINLAB\Freq\RwB97XD\6-31+G(d,p)\C6H6N2O2\PHZD\13-Jun-
 2024\0\\#N Geom=AllCheck Guess=TCheck SCRF=Check GenChk RwB97XD/6-31+G
 (d,p) Freq\\[No Title]\\0,1\C,-0.0209311294,1.212508841,0.0000506274\C
 ,-0.7067221407,-0.0000002474,0.0000917123\C,-0.0209308009,-1.212509258
 ,0.0001214014\C,1.3617045614,-1.2123427342,0.0001115049\C,2.0785043596
 ,0.0000001034,0.0000712468\C,1.3617041726,1.2123427348,0.0000411984\N,
 3.4459218056,0.0000003926,0.0000648559\N,-2.1610719183,0.0000004161,0.
 0000984512\O,-2.7360811429,-1.0822935744,-0.0000580857\O,-2.7360784359
 ,1.0822957635,-0.0001299609\H,-0.5776063027,2.1417132535,0.000025017\H
 ,-0.5776055001,-2.1417138646,0.0001499784\H,1.8993093715,-2.155632284,
 0.0001339841\H,1.8993087289,2.155632435,0.0000087643\H,3.964566494,0.8
 601999588,0.0000228914\H,3.9645668774,-0.8601989361,0.0000724132\\Vers
 ion=ES64L-G09RevE.01\State=1-A\HF=-491.9760455\RMSD=1.556e-09\RMSF=4.8
 08e-05\ZeroPoint=0.1205631\Thermal=0.1284674\Dipole=2.967973,-0.000000
 7,0.0001569\DipoleDeriv=0.5528865,0.1102326,-0.0000022,0.3009619,0.085
 7741,0.0000026,0.0000148,-0.0000125,-0.0460842,-1.1215508,0.0000003,-0
 .0000222,0.0000002,-0.206811,0.0000059,0.0000783,0.0000062,-0.0129726,
 0.5528869,-0.1102326,0.000004,-0.3009617,0.0857745,-0.0000101,0.000034
 ,0.0000039,-0.0460842,-0.6705027,-0.0246698,-0.0000052,-0.5861885,0.02
 15904,-0.000007,0.0000255,-0.0000044,-0.2144384,2.1558866,0.0000002,0.
 0000041,0.0000006,0.1219654,0.000001,-0.0000111,0.0000009,0.1564737,-0
 .6705027,0.0246698,-0.0000066,0.5861882,0.0215905,-0.0000068,-0.000008
 3,-0.0000093,-0.2144383,-1.9273371,-0.0000002,-0.0000102,-0.0000004,-0
 .1628625,-0.0000134,-0.0000171,-0.0000134,-0.6259881,2.4684106,0.00000
 11,0.0000362,0.,1.6383653,-0.0000467,0.0000396,-0.0000461,0.2603934,-0
 .9805971,-0.3931395,0.0000103,-0.4378089,-0.9717964,0.0000573,-0.00006
 76,-0.0001033,-0.2633346,-0.9805961,0.3931384,-0.0000159,0.4378087,-0.
 9717977,-0.0000098,-0.0000962,0.0001506,-0.2633346,0.1088045,0.0410235
 ,0.0000008,0.0269441,0.0547628,0.0000009,0.0000006,0.0000045,0.144089,
 0.1088037,-0.0410237,0.000003,-0.0269442,0.0547625,0.0000042,0.0000017
 ,0.000001,0.144089,-0.0086202,0.0796911,-0.0000028,0.0768828,-0.035604
 1,0.0000047,-0.00001,0.0000012,0.1517119,-0.0086202,-0.0796911,0.00000
 17,-0.0768828,-0.0356041,0.0000061,-0.0000056,0.0000098,0.1517118,0.21
 03241,0.0462957,0.0000011,0.0780763,0.1499451,0.0000077,0.0000083,0.00
 00073,0.3391031,0.2103242,-0.0462957,0.0000038,-0.0780762,0.1499451,0.
 0000032,0.000013,0.0000038,0.3391031\Polar=145.2193735,0.0000072,97.62
 41446,0.0016993,-0.0014478,49.7266474\PG=C01 [X(C6H6N2O2)]\NImag=1\\0.
 73617072,-0.04057005,0.74226759,-0.00000357,-0.00001796,0.13948470,-0.
 15007192,-0.11129392,0.00000550,0.58832962,-0.05103551,-0.29917807,0.0
 0000767,-0.00000010,0.77064967,0.00000449,0.00000788,-0.05665257,0.000
 00703,-0.00001917,0.11920423,0.05767197,0.02399513,-0.00000138,-0.1500
 7197,0.05103545,0.00000130,0.73617029,-0.02399509,-0.05734070,0.000002
 72,0.11129382,-0.29917792,0.00000618,0.04057024,0.74226767,0.,0.000000
 88,0.00446805,-0.00000121,0.00000638,-0.05665258,-0.00000651,-0.000017
 21,0.13948469,-0.04643561,-0.03216903,0.00000149,-0.03839740,0.0752496
 3,-0.00000225,-0.38115329,-0.03270202,0.00000428,0.74488713,-0.0202055
 6,-0.01778994,0.00000069,0.01878881,0.03229763,-0.00000177,0.03515939,
 -0.13016377,0.00000217,-0.04214428,0.70869729,0.00000119,0.00000114,-0
 .00130984,0.00000044,-0.00000178,0.00491459,0.00000130,0.00000283,-0.0
 5628611,-0.00000341,-0.00001562,0.12201087,-0.03364693,0.03019246,-0.0
 0000111,0.01876633,0.00000002,-0.00000011,-0.03364689,-0.03019248,0.00
 000062,-0.15825383,-0.09839177,0.00000384,0.75620168,0.08079585,0.0448
 5726,-0.00000192,0.00000001,-0.07741099,0.00000217,-0.08079587,0.04485
 722,-0.00000077,-0.03278011,-0.27691638,0.00000562,0.00000003,0.700620
 53,-0.00000259,-0.00000202,-0.00058609,-0.00000003,0.00000212,-0.00398
 614,0.00000208,-0.00000059,-0.00058610,0.00000247,0.00000679,-0.068446
 08,-0.00000471,-0.00001557,0.16593872,-0.38115344,0.03270196,0.0000022
 1,-0.03839739,-0.07524965,0.00000214,-0.04643562,0.03216901,-0.0000003
 9,0.05936638,0.01541152,-0.00000121,-0.15825386,0.03278013,0.00000005,
 0.74488727,-0.03515945,-0.13016378,0.00000214,-0.01878881,0.03229761,0
 .00000015,0.02020555,-0.01778993,0.00000028,-0.01541149,-0.04154481,0.
 00000141,0.09839179,-0.27691632,0.00000535,0.04214430,0.70869726,0.000
 00327,0.00000145,-0.05628612,0.00000151,0.00000021,0.00491460,0.000000
 03,-0.00000018,-0.00130984,-0.00000034,0.00000135,0.00582966,-0.000002
 38,0.00000651,-0.06844610,-0.00000585,-0.00001856,0.12201088,0.0122463
 9,0.00207758,0.00000035,-0.01975391,0.,-0.00000009,0.01224638,-0.00207
 757,0.00000048,-0.04576456,-0.01851762,0.00000093,-0.36802436,-0.00000
 005,0.00000163,-0.04576460,0.01851761,-0.00000014,0.80204115,-0.006783
 77,-0.01083351,0.00000058,0.,0.00800722,-0.00000027,0.00678378,-0.0108
 3351,0.00000032,-0.05048202,0.00183304,0.00000060,-0.00000005,-0.13222
 357,0.00000274,0.05048200,0.00183306,-0.00000014,-0.00000005,0.8957873
 3,0.00000050,0.00000053,0.00459844,-0.00000026,-0.00000026,-0.00098181
 ,0.00000011,0.00000035,0.00459845,0.00000150,0.,0.00982615,0.00000375,
 0.00000276,-0.03737444,-0.00000142,0.00000046,0.00982615,-0.00001415,-
 0.00002590,0.00744789,-0.04261660,-0.02107439,0.00000082,-0.14663445,-
 0.00000003,0.00001051,-0.04261645,0.02107438,-0.00000046,0.01467793,0.
 00963328,-0.00000149,-0.01872619,0.,0.00000027,0.01467793,-0.00963330,
 -0.00000089,0.01765184,0.,0.00000021,0.70072295,-0.02580733,0.01470527
 ,0.00000058,0.00000003,-0.11473447,0.00000128,0.02580735,0.01470522,-0
 .00000187,0.00499663,-0.00757723,-0.00000008,0.00000001,-0.00468312,0.
 00000007,-0.00499664,-0.00757723,0.00000102,-0.00000001,0.00006527,-0.
 00000002,0.00000035,1.01149007,0.00000035,-0.00000272,-0.00696485,-0.0
 0001060,0.00000122,-0.07213257,-0.00000107,0.00000142,-0.00696488,-0.0
 0000016,-0.00000031,0.00827978,-0.00000035,0.00000010,-0.00195221,0.00
 000016,0.00000121,0.00827977,0.00000005,-0.00000002,-0.00054383,0.0000
 8722,-0.00002526,0.23318050,-0.00269386,0.00781190,-0.00000127,-0.0407
 2447,-0.05134023,-0.00000978,-0.00162257,-0.00312062,-0.00000041,-0.00
 185187,-0.00245351,0.00000019,0.00485132,-0.00193431,-0.00000016,-0.00
 463784,0.00000265,0.00000065,-0.00483400,0.00030524,-0.00000002,-0.249
 53039,-0.19197413,-0.00003166,0.25714780,0.00094086,0.00340370,-0.0000
 0052,-0.03781350,-0.01100092,-0.00000672,0.01091995,-0.00852441,0.0000
 0117,-0.00402143,0.00018220,0.00000040,0.00450260,-0.00004644,-0.00000
 009,-0.00245518,0.00255191,0.00000016,-0.00380936,0.00056668,-0.000000
 07,-0.19037346,-0.44942117,-0.00003840,0.23192110,0.58379425,-0.000001
 39,0.00000110,0.00434808,0.00000078,-0.00000461,0.01803454,0.00000018,
 -0.00000085,0.00183035,-0.00000041,0.00000008,-0.00069207,0.00000037,0
 .00000015,0.00035426,0.00000011,-0.00000055,-0.00116226,-0.00000028,0.
 00000005,0.00005115,-0.00004236,-0.00005144,-0.07786428,0.00003954,0.0
 0004506,0.02879200,-0.00162279,0.00312057,-0.00000067,-0.04072450,0.05
 134037,-0.00001313,-0.00269386,-0.00781190,-0.00000084,-0.00463785,-0.
 00000265,0.00000068,0.00485130,0.00193431,-0.00000026,-0.00185186,0.00
 245353,0.00000004,-0.00483399,-0.00030524,0.,-0.24952955,0.19197375,-0
 .00004445,0.04911014,-0.01143428,0.00000388,0.25714721,-0.01092003,-0.
 00852444,-0.00000056,0.03781365,-0.01100112,0.00000866,-0.00094085,0.0
 0340374,0.00000059,0.00245519,0.00255191,-0.00000040,-0.00450261,-0.00
 004644,0.00000012,0.00402144,0.00018221,-0.00000046,0.00380937,0.00056
 668,0.00000004,0.19037316,-0.44942230,0.00006265,0.01143383,-0.1259037
 1,0.00001081,-0.23192043,0.58379558,0.00000089,0.00000149,0.00183037,-
 0.00000170,0.00000657,0.01803457,-0.00000137,-0.00000108,0.00434810,-0
 .00000003,0.00000035,-0.00116227,0.00000066,-0.00000014,0.00035426,-0.
 00000067,-0.00000012,-0.00069207,-0.00000052,-0.00000008,0.00005115,-0
 .00005506,0.00007566,-0.07786426,0.00000313,-0.00000067,0.02683810,0.0
 0005504,-0.00008145,0.02879191,-0.13312819,0.12980757,-0.00000335,0.01
 296109,-0.01225296,-0.00000001,-0.00173773,-0.00354366,0.00000015,-0.0
 0081192,-0.00065232,0.00000003,-0.00492971,-0.00102810,0.00000014,-0.0
 0911029,0.02601028,-0.00000063,-0.00026422,0.00135963,-0.00000006,0.00
 095848,-0.00100080,0.00000018,0.00047378,0.00146443,0.00000007,-0.0048
 0160,-0.00040909,-0.00000029,0.13911353,0.12819692,-0.28199244,0.00000
 660,0.01553476,-0.01742462,0.00000045,-0.00393260,-0.00312280,0.000000
 40,-0.00067043,0.00045891,-0.00000005,-0.00159891,0.00114537,0.0000002
 8,-0.00305133,0.00623792,0.00000006,-0.00000344,0.00024931,0.,0.002855
 68,-0.00400337,0.00000047,-0.00009086,0.00126679,0.00000003,0.00065914
 ,0.00324329,-0.00000043,-0.13887530,0.29411489,-0.00000303,0.00000771,
 -0.04091082,-0.00000133,0.00000003,0.00521991,0.00000008,0.00000038,0.
 00499895,0.00000019,0.,-0.00103213,0.00000022,0.,0.00846824,-0.0000000
 2,-0.00000040,0.00498585,0.,-0.00000001,-0.00018436,0.00000064,0.00000
 002,-0.00408732,-0.00000012,-0.00000010,0.00035548,-0.00000032,0.00000
 005,-0.00017352,0.00000375,-0.00000757,0.02752587,-0.00173774,0.003543
 66,-0.00000006,0.01296112,0.01225299,-0.00000072,-0.13312823,-0.129807
 53,0.00000487,-0.00911029,-0.02601031,0.00000089,-0.00492972,0.0010281
 1,0.00000009,-0.00081192,0.00065232,-0.00000001,-0.00026422,-0.0013596
 3,0.00000002,0.00095846,0.00100080,0.00000010,-0.00480161,0.00040907,-
 0.00000027,0.00047377,-0.00146442,0.00000017,0.00071286,0.00083396,0.0
 0000002,0.13911358,0.00393260,-0.00312280,0.00000008,-0.01553475,-0.01
 742461,0.00000086,-0.12819694,-0.28199267,0.00000763,0.00305132,0.0062
 3791,-0.00000013,0.00159890,0.00114537,0.00000015,0.00067043,0.0004589
 1,-0.00000003,0.00000344,0.00024930,-0.00000002,-0.00285567,-0.0040033
 7,-0.00000044,-0.00065911,0.00324329,0.00000021,0.00009086,0.00126679,
 -0.00000009,-0.00083396,-0.00087880,0.00000005,0.13887527,0.29411512,-
 0.00000014,0.00000010,0.00499895,-0.00000047,0.00000133,0.00521990,0.0
 0000517,0.00000649,-0.04091077,-0.00000021,0.00000033,0.00498584,0.000
 00013,0.00000043,0.00846824,0.00000015,-0.00000011,-0.00103213,0.,-0.0
 0000002,-0.00018436,0.00000085,-0.00000003,-0.00408731,-0.00000027,-0.
 00000029,-0.00017352,-0.00000015,0.00000007,0.00035548,0.00000006,0.00
 000003,0.00052861,-0.00000506,-0.00000813,0.02752583,-0.00088162,-0.00
 072576,0.00000005,-0.00472690,-0.00194461,0.00000040,-0.01162290,0.029
 33115,-0.00000063,-0.12818066,0.12145647,-0.00000313,0.00975941,-0.015
 02681,0.00000037,-0.00133547,-0.00297534,0.00000007,0.00221930,-0.0007
 5515,-0.00000001,0.00044921,0.00186035,0.00000007,-0.00020979,-0.00024
 683,-0.00000008,-0.00098485,0.00024929,-0.00000019,0.00002485,0.000081
 16,0.,0.00091097,-0.00015858,-0.00000007,0.13451480,-0.00126045,-0.000
 13203,0.,-0.00072870,0.00201675,0.00000016,-0.00210540,0.00409995,0.,0
 .12148647,-0.27861829,0.00000587,0.01771831,-0.01809998,0.00000044,-0.
 00380645,-0.00295047,0.00000026,0.00072349,0.00181248,-0.00000014,-0.0
 0049871,0.00020510,0.00000005,0.00019247,0.00004303,0.00000001,0.00004
 555,-0.00003184,-0.00000002,0.00005380,-0.00000942,-0.00000001,0.00013
 891,0.00070277,-0.00000018,-0.13086939,0.29249511,0.00000014,0.0000000
 9,-0.00062998,0.00000011,-0.00000002,0.00726779,0.00000010,-0.00000036
 ,0.00241248,-0.00000314,0.00000578,-0.03334902,-0.00000035,0.00000081,
 0.00383916,0.00000014,0.00000034,0.00517389,-0.00000022,-0.00000006,-0
 .00285583,-0.00000005,0.00000015,0.00141969,-0.00000002,-0.00000003,-0
 .00006304,0.00000014,-0.00000010,-0.00060245,0.,-0.00000002,-0.0006051
 8,-0.00000003,-0.00000012,-0.00485563,0.00000312,-0.00000648,0.0230896
 2,-0.01162290,-0.02933116,0.00000107,-0.00472690,0.00194461,0.00000029
 ,-0.00088162,0.00072576,0.,-0.00133547,0.00297534,-0.00000010,0.009759
 41,0.01502682,-0.00000050,-0.12818060,-0.12145642,0.00000454,0.0022193
 0,0.00075515,-0.00000006,0.00044921,-0.00186035,0.00000018,-0.00098485
 ,-0.00024929,-0.00000017,-0.00020978,0.00024683,-0.00000010,0.00091097
 ,0.00015858,-0.00000008,0.00002485,-0.00008116,0.,0.00058060,0.0007486
 9,-0.00000002,0.13451473,0.00210539,0.00409994,-0.00000008,0.00072870,
 0.00201676,0.00000015,0.00126045,-0.00013203,-0.00000003,0.00380645,-0
 .00295046,0.00000021,-0.01771830,-0.01809999,0.00000083,-0.12148642,-0
 .27861835,0.00000845,-0.00072349,0.00181248,-0.00000013,0.00049871,0.0
 0020510,0.00000002,-0.00004555,-0.00003184,-0.00000002,-0.00019247,0.0
 0004303,-0.00000002,-0.00013890,0.00070276,-0.00000014,-0.00005380,-0.
 00000942,-0.00000002,-0.00074869,-0.00104816,0.00000004,0.13086934,0.2
 9249518,-0.00000004,0.00000024,0.00241248,0.00000008,0.00000031,0.0072
 6779,0.00000005,-0.00000011,-0.00062998,-0.00000007,0.00000014,0.00517
 389,0.00000068,0.00000049,0.00383916,0.00000455,0.00000853,-0.03334903
 ,-0.00000017,-0.00000020,-0.00285582,-0.00000010,-0.00000008,0.0014196
 9,0.00000014,0.00000007,-0.00060245,-0.00000001,0.00000002,-0.00006304
 ,-0.00000001,-0.00000021,-0.00485563,0.,-0.00000001,-0.00060519,0.0000
 0002,0.00000001,-0.00022450,-0.00000511,-0.00000924,0.02308962,-0.0005
 8788,-0.00004015,0.,0.00060582,0.00047637,-0.00000004,0.00011038,-0.00
 195364,0.00000006,-0.00503916,0.00307961,-0.00000001,-0.01188899,-0.03
 204801,0.00000150,0.00204048,-0.00187360,-0.00000004,-0.17956017,-0.17
 908850,0.00001037,-0.00044619,-0.00003130,-0.00000002,0.00019822,0.000
 24119,0.00000003,0.00010999,-0.00000415,0.,0.00001436,0.00000691,0.,-0
 .00038625,0.00010424,0.,0.00007160,-0.00018971,0.,-0.00058855,0.001648
 88,-0.00000001,0.18134829,-0.00103180,-0.00064986,-0.00000008,0.001490
 55,0.00003354,0.00000004,-0.00079742,0.00039382,0.00000001,0.00251106,
 0.00173379,0.00000003,-0.00049018,0.00590873,-0.00000041,0.00317594,0.
 00156821,-0.00000014,-0.17745789,-0.37944620,0.00001741,-0.00140651,0.
 00002311,0.,0.00031447,0.00024721,0.,0.00036335,-0.00037058,0.00000005
 ,0.00007317,-0.00000080,0.,0.00003378,0.00001302,0.,0.00015601,0.00024
 336,-0.00000001,-0.00031674,-0.00072837,0.00000008,0.19152704,0.384412
 58,-0.00000004,-0.00000004,-0.00089775,0.00000003,0.00000004,0.0001638
 8,0.00000003,-0.00000001,0.00209694,-0.00000012,0.00000004,0.00307596,
 -0.00000062,-0.00000040,-0.00494244,0.00000002,-0.00000016,-0.00181923
 ,0.00001145,0.00001885,0.00429053,-0.00000002,0.,-0.00005896,0.0000000
 3,0.00000001,-0.00002402,0.,0.,-0.00002233,0.,0.,0.00012543,-0.0000000
 3,0.,-0.00035937,0.,0.,-0.00069708,0.00000005,0.00000003,0.00068009,-0
 .00001079,-0.00001794,0.00246252,0.00011038,0.00195364,-0.00000005,0.0
 0060582,-0.00047637,-0.00000001,-0.00058788,0.00004015,-0.00000001,0.0
 0204048,0.00187360,-0.00000015,-0.01188900,0.03204800,-0.00000035,-0.0
 0503916,-0.00307961,0.00000016,-0.17956034,0.17908860,-0.00000050,-0.0
 0044619,0.00003130,-0.00000002,0.00010999,0.00000415,0.,0.00019822,-0.
 00024119,0.00000005,-0.00038625,-0.00010424,0.,0.00001436,-0.00000691,
 0.,-0.00058855,-0.00164888,0.00000008,0.00007160,0.00018971,0.,0.01399
 805,-0.01814482,0.,0.18134847,0.00079742,0.00039382,0.00000008,-0.0014
 9055,0.00003354,-0.00000003,0.00103180,-0.00064986,0.00000007,-0.00317
 594,0.00156821,-0.00000005,0.00049018,0.00590874,-0.00000022,-0.002511
 06,0.00173378,0.00000004,0.17745799,-0.37944606,0.00000498,0.00140651,
 0.00002311,0.,-0.00036335,-0.00037058,-0.00000003,-0.00031447,0.000247
 21,-0.00000003,-0.00003378,0.00001302,-0.00000001,-0.00007317,-0.00000
 080,0.,0.00031674,-0.00072837,0.,-0.00015601,0.00024336,-0.00000004,0.
 01814483,-0.01338155,-0.00000039,-0.19152714,0.38441243,-0.00000001,0.
 00000012,0.00209694,0.00000012,-0.00000004,0.00016388,-0.00000010,0.00
 000003,-0.00089775,0.00000020,-0.00000004,-0.00181923,-0.00000064,-0.0
 0000023,-0.00494244,0.00000003,0.00000003,0.00307596,0.00000068,0.0000
 0356,0.00429053,-0.00000011,0.,-0.00005896,0.00000003,0.00000003,-0.00
 002233,0.00000005,-0.00000003,-0.00002402,-0.00000002,-0.00000001,-0.0
 0035937,0.00000001,0.,0.00012543,0.00000003,0.00000005,0.00068009,0.,-
 0.00000005,-0.00069708,-0.00000105,0.00000095,-0.00407418,0.00000080,-
 0.00000438,0.00246252\\0.00012813,0.00001050,-0.00000224,-0.00023180,0
 .00000012,-0.00001308,0.00012820,-0.00001061,-0.00000223,-0.00004275,-
 0.00002445,0.00000076,0.00004390,-0.00000002,-0.00000042,-0.00004279,0
 .00002445,0.00000076,-0.00002799,0.,-0.00000014,0.00006111,-0.00000002
 ,0.00005739,-0.00001767,0.00006186,-0.00002055,-0.00001736,-0.00006189
 ,-0.00002054,-0.00000130,0.00000209,-0.00000016,-0.00000123,-0.0000020
 4,-0.00000016,0.00000249,-0.00000496,0.00000022,0.00000249,0.00000496,
 0.00000021,0.00000828,0.00000393,0.00000007,0.00000827,-0.00000393,0.0
 0000008\\\@


 I DON'T EXACTLY UNDERSTAND WHAT YOU ARE SAYING,
 BUT YOU ARE ABSOLUTELY RIGHT.
     M.S.GORDON, IN A NDSU FACULTY MEETING
 Job cpu time:       0 days  0 hours 25 minutes 28.3 seconds.
 File lengths (MBytes):  RWF=     85 Int=      0 D2E=      0 Chk=      5 Scr=      1
 Normal termination of Gaussian 09 at Thu Jun 13 21:59:22 2024.
