 Entering Gaussian System, Link 0=g09
 Input=B2PLYPD3BJ3HPA.gjf
 Output=B2PLYPD3BJ3HPA.log
 Initial command:
 /home/phzd/g09E/g09/l1.exe "/home/phzd/g09E/scratch/Gau-1458108.inp" -scrdir="/home/phzd/g09E/scratch/"
 Default is to use a total of  18 processors:
                               18 via shared-memory
                                1 via Linda
 Entering Link 1 = /home/phzd/g09E/g09/l1.exe PID=   1458110.
  
 Copyright (c) 1988,1990,1992,1993,1995,1998,2003,2009,2015,
            Gaussian, Inc.  All Rights Reserved.
  
 This is part of the Gaussian(R) 09 program.  It is based on
 the Gaussian(R) 03 system (copyright 2003, Gaussian, Inc.),
 the Gaussian(R) 98 system (copyright 1998, Gaussian, Inc.),
 the Gaussian(R) 94 system (copyright 1995, Gaussian, Inc.),
 the Gaussian 92(TM) system (copyright 1992, Gaussian, Inc.),
 the Gaussian 90(TM) system (copyright 1990, Gaussian, Inc.),
 the Gaussian 88(TM) system (copyright 1988, Gaussian, Inc.),
 the Gaussian 86(TM) system (copyright 1986, Carnegie Mellon
 University), and the Gaussian 82(TM) system (copyright 1983,
 Carnegie Mellon University). Gaussian is a federally registered
 trademark of Gaussian, Inc.
  
 This software contains proprietary and confidential information,
 including trade secrets, belonging to Gaussian, Inc.
  
 This software is provided under written license and may be
 used, copied, transmitted, or stored only in accord with that
 written license.
  
 The following legend is applicable only to US Government
 contracts under FAR:
  
                    RESTRICTED RIGHTS LEGEND
  
 Use, reproduction and disclosure by the US Government is
 subject to restrictions as set forth in subparagraphs (a)
 and (c) of the Commercial Computer Software - Restricted
 Rights clause in FAR 52.227-19.
  
 Gaussian, Inc.
 340 Quinnipiac St., Bldg. 40, Wallingford CT 06492
  
  
 ---------------------------------------------------------------
 Warning -- This program may not be used in any manner that
 competes with the business of Gaussian, Inc. or will provide
 assistance to any competitor of Gaussian, Inc.  The licensee
 of this program is prohibited from giving any competitor of
 Gaussian, Inc. access to this program.  By using this program,
 the user acknowledges that Gaussian, Inc. is engaged in the
 business of creating and licensing software in the field of
 computational chemistry and represents and warrants to the
 licensee that it is not a competitor of Gaussian, Inc. and that
 it will not use this program in any manner prohibited above.
 ---------------------------------------------------------------
  

 Cite this work as:
 Gaussian 09, Revision E.01,
 M. J. Frisch, G. W. Trucks, H. B. Schlegel, G. E. Scuseria, 
 M. A. Robb, J. R. Cheeseman, G. Scalmani, V. Barone, B. Mennucci, 
 G. A. Petersson, H. Nakatsuji, M. Caricato, X. Li, H. P. Hratchian, 
 A. F. Izmaylov, J. Bloino, G. Zheng, J. L. Sonnenberg, M. Hada, 
 M. Ehara, K. Toyota, R. Fukuda, J. Hasegawa, M. Ishida, T. Nakajima, 
 Y. Honda, O. Kitao, H. Nakai, T. Vreven, J. A. Montgomery, Jr., 
 J. E. Peralta, F. Ogliaro, M. Bearpark, J. J. Heyd, E. Brothers, 
 K. N. Kudin, V. N. Staroverov, T. Keith, R. Kobayashi, J. Normand, 
 K. Raghavachari, A. Rendell, J. C. Burant, S. S. Iyengar, J. Tomasi, 
 M. Cossi, N. Rega, J. M. Millam, M. Klene, J. E. Knox, J. B. Cross, 
 V. Bakken, C. Adamo, J. Jaramillo, R. Gomperts, R. E. Stratmann, 
 O. Yazyev, A. J. Austin, R. Cammi, C. Pomelli, J. W. Ochterski, 
 R. L. Martin, K. Morokuma, V. G. Zakrzewski, G. A. Voth, 
 P. Salvador, J. J. Dannenberg, S. Dapprich, A. D. Daniels, 
 O. Farkas, J. B. Foresman, J. V. Ortiz, J. Cioslowski, 
 and D. J. Fox, Gaussian, Inc., Wallingford CT, 2013.
 
 ******************************************
 Gaussian 09:  ES64L-G09RevE.01 30-Nov-2015
                18-Dec-2024 
 ******************************************
 %chk=B2PLYPD3BJ3HPA.chk
 -------------------------------------------------------
 # opt freq B2PLYP/6-31+g(d,p) EmpiricalDispersion=GD3BJ
 -------------------------------------------------------
 1/18=20,19=15,38=1/1,3;
 2/9=110,12=2,17=6,18=5,40=1/2;
 3/5=1,6=6,7=111,11=9,16=1,25=1,30=1,71=1,74=-47,124=41/1,2,3;
 4//1;
 5/5=2,38=5/2;
 8/6=4,10=2/1;
 9/15=2,16=-3/6;
 10/5=1/2;
 6/7=2,8=2,9=2,10=2/1;
 7/12=2/1,2,3,16;
 1/18=20,19=15/3(2);
 2/9=110/2;
 99//99;
 2/9=110/2;
 3/5=1,6=6,7=111,11=9,16=1,25=1,30=1,71=1,74=-47,124=41/1,2,3;
 4/5=5,16=3,69=1/1;
 5/5=2,38=5/2;
 8/6=4,10=2/1;
 9/15=2,16=-3/6;
 10/5=1/2;
 7/12=2/1,2,3,16;
 1/18=20,19=15/3(-8);
 2/9=110/2;
 6/7=2,8=2,9=2,10=2/1;
 99//99;
 ----------
 [No Title]
 ----------
 Symbolic Z-matrix:
 Charge =  0 Multiplicity = 1
 N                    -0.44313  -1.44944   0.00003 
 C                    -1.76628  -1.47649   0.00004 
 C                    -2.55143  -0.3107    0.00002 
 C                    -1.92965   0.92339   0. 
 C                    -0.52654   0.97374  0. 
 C                     0.17294  -0.25694   0.00001 
 C                     1.64752  -0.22649  -0.00001 
 O                     2.29205   0.82512  -0.00007 
 O                     2.24875  -1.41439   0. 
 O                     0.07468   2.16645  -0.00001 
 H                    -2.23201  -2.45928   0.00005 
 H                    -3.63517  -0.384     0.00003 
 H                    -2.48725   1.85457  -0.00001 
 H                     3.20385  -1.24105  -0.00003 
 H                     1.0492    1.99928   0.00001 
 

 GradGradGradGradGradGradGradGradGradGradGradGradGradGradGradGradGradGrad
 Berny optimization.
 Initialization pass.
                           ----------------------------
                           !    Initial Parameters    !
                           ! (Angstroms and Degrees)  !
 --------------------------                            --------------------------
 ! Name  Definition              Value          Derivative Info.                !
 --------------------------------------------------------------------------------
 ! R1    R(1,2)                  1.3234         estimate D2E/DX2                !
 ! R2    R(1,6)                  1.3422         estimate D2E/DX2                !
 ! R3    R(2,3)                  1.4055         estimate D2E/DX2                !
 ! R4    R(2,11)                 1.0876         estimate D2E/DX2                !
 ! R5    R(3,4)                  1.3819         estimate D2E/DX2                !
 ! R6    R(3,12)                 1.0862         estimate D2E/DX2                !
 ! R7    R(4,5)                  1.404          estimate D2E/DX2                !
 ! R8    R(4,13)                 1.0854         estimate D2E/DX2                !
 ! R9    R(5,6)                  1.4156         estimate D2E/DX2                !
 ! R10   R(5,10)                 1.3357         estimate D2E/DX2                !
 ! R11   R(6,7)                  1.4749         estimate D2E/DX2                !
 ! R12   R(7,8)                  1.2334         estimate D2E/DX2                !
 ! R13   R(7,9)                  1.3314         estimate D2E/DX2                !
 ! R14   R(9,14)                 0.9707         estimate D2E/DX2                !
 ! R15   R(10,15)                0.9888         estimate D2E/DX2                !
 ! A1    A(2,1,6)              118.4932         estimate D2E/DX2                !
 ! A2    A(1,2,3)              122.7888         estimate D2E/DX2                !
 ! A3    A(1,2,11)             116.5266         estimate D2E/DX2                !
 ! A4    A(3,2,11)             120.6846         estimate D2E/DX2                !
 ! A5    A(2,3,4)              119.2992         estimate D2E/DX2                !
 ! A6    A(2,3,12)             120.0908         estimate D2E/DX2                !
 ! A7    A(4,3,12)             120.61           estimate D2E/DX2                !
 ! A8    A(3,4,5)              118.7961         estimate D2E/DX2                !
 ! A9    A(3,4,13)             122.3456         estimate D2E/DX2                !
 ! A10   A(5,4,13)             118.8583         estimate D2E/DX2                !
 ! A11   A(4,5,6)              117.5572         estimate D2E/DX2                !
 ! A12   A(4,5,10)             118.8068         estimate D2E/DX2                !
 ! A13   A(6,5,10)             123.6359         estimate D2E/DX2                !
 ! A14   A(1,6,5)              123.0655         estimate D2E/DX2                !
 ! A15   A(1,6,7)              118.5047         estimate D2E/DX2                !
 ! A16   A(5,6,7)              118.4298         estimate D2E/DX2                !
 ! A17   A(6,7,8)              122.6868         estimate D2E/DX2                !
 ! A18   A(6,7,9)              115.6624         estimate D2E/DX2                !
 ! A19   A(8,7,9)              121.6508         estimate D2E/DX2                !
 ! A20   A(7,9,14)             106.5583         estimate D2E/DX2                !
 ! A21   A(5,10,15)            107.0177         estimate D2E/DX2                !
 ! D1    D(6,1,2,3)              0.0002         estimate D2E/DX2                !
 ! D2    D(6,1,2,11)          -180.0            estimate D2E/DX2                !
 ! D3    D(2,1,6,5)              0.0            estimate D2E/DX2                !
 ! D4    D(2,1,6,7)           -179.9995         estimate D2E/DX2                !
 ! D5    D(1,2,3,4)             -0.0001         estimate D2E/DX2                !
 ! D6    D(1,2,3,12)           179.9999         estimate D2E/DX2                !
 ! D7    D(11,2,3,4)          -180.0            estimate D2E/DX2                !
 ! D8    D(11,2,3,12)            0.0001         estimate D2E/DX2                !
 ! D9    D(2,3,4,5)              0.0            estimate D2E/DX2                !
 ! D10   D(2,3,4,13)          -179.9998         estimate D2E/DX2                !
 ! D11   D(12,3,4,5)           179.9999         estimate D2E/DX2                !
 ! D12   D(12,3,4,13)            0.0002         estimate D2E/DX2                !
 ! D13   D(3,4,5,6)              0.0002         estimate D2E/DX2                !
 ! D14   D(3,4,5,10)          -179.9995         estimate D2E/DX2                !
 ! D15   D(13,4,5,6)           179.9999         estimate D2E/DX2                !
 ! D16   D(13,4,5,10)            0.0002         estimate D2E/DX2                !
 ! D17   D(4,5,6,1)             -0.0002         estimate D2E/DX2                !
 ! D18   D(4,5,6,7)            179.9994         estimate D2E/DX2                !
 ! D19   D(10,5,6,1)           179.9995         estimate D2E/DX2                !
 ! D20   D(10,5,6,7)            -0.0009         estimate D2E/DX2                !
 ! D21   D(4,5,10,15)          179.9989         estimate D2E/DX2                !
 ! D22   D(6,5,10,15)           -0.0008         estimate D2E/DX2                !
 ! D23   D(1,6,7,8)            179.9978         estimate D2E/DX2                !
 ! D24   D(1,6,7,9)             -0.0003         estimate D2E/DX2                !
 ! D25   D(5,6,7,8)             -0.0018         estimate D2E/DX2                !
 ! D26   D(5,6,7,9)           -179.9999         estimate D2E/DX2                !
 ! D27   D(6,7,9,14)           179.9991         estimate D2E/DX2                !
 ! D28   D(8,7,9,14)             0.0009         estimate D2E/DX2                !
 --------------------------------------------------------------------------------
 Trust Radius=3.00D-01 FncErr=1.00D-07 GrdErr=1.00D-07
 Number of steps in this run=     74 maximum allowed number of steps=    100.
 GradGradGradGradGradGradGradGradGradGradGradGradGradGradGradGradGradGrad

                          Input orientation:                          
 ---------------------------------------------------------------------
 Center     Atomic      Atomic             Coordinates (Angstroms)
 Number     Number       Type             X           Y           Z
 ---------------------------------------------------------------------
      1          7           0       -0.443132   -1.449437    0.000028
      2          6           0       -1.766278   -1.476489    0.000035
      3          6           0       -2.551429   -0.310702    0.000021
      4          6           0       -1.929646    0.923389    0.000002
      5          6           0       -0.526538    0.973743   -0.000002
      6          6           0        0.172942   -0.256936    0.000010
      7          6           0        1.647524   -0.226491   -0.000008
      8          8           0        2.292053    0.825120   -0.000065
      9          8           0        2.248751   -1.414390    0.000002
     10          8           0        0.074676    2.166451   -0.000011
     11          1           0       -2.232005   -2.459282    0.000050
     12          1           0       -3.635166   -0.383999    0.000026
     13          1           0       -2.487249    1.854572   -0.000006
     14          1           0        3.203854   -1.241045   -0.000027
     15          1           0        1.049199    1.999280    0.000006
 ---------------------------------------------------------------------
                    Distance matrix (angstroms):
                    1          2          3          4          5
     1  N    0.000000
     2  C    1.323423   0.000000
     3  C    2.396171   1.405532   0.000000
     4  C    2.800005   2.405432   1.381881   0.000000
     5  C    2.424615   2.746014   2.397912   1.404011   0.000000
     6  C    1.342239   2.290826   2.724901   2.411233   1.415572
     7  C    2.422073   3.635456   4.199797   3.757442   2.483366
     8  O    3.557365   4.665560   4.974878   4.222843   2.822507
     9  O    2.692111   4.015509   4.925429   4.787924   3.661340
    10  O    3.652776   4.081681   3.610085   2.358497   1.335669
    11  H    2.054228   1.087559   2.172194   3.396157   3.833312
    12  H    3.365151   2.164781   1.086213   2.148968   3.392202
    13  H    3.885214   3.408191   2.166225   1.085368   2.149476
    14  H    3.652935   4.975706   5.829993   5.571140   4.338330
    15  H    3.757752   4.473017   4.277913   3.167185   1.880073
                    6          7          8          9         10
     6  C    0.000000
     7  C    1.474896   0.000000
     8  O    2.379386   1.233411   0.000000
     9  O    2.376696   1.331382   2.239929   0.000000
    10  O    2.425378   2.863568   2.591511   4.189156   0.000000
    11  H    3.260996   4.476170   5.590563   4.600975   5.168963
    12  H    3.810227   5.285038   6.049289   5.973457   4.501969
    13  H    3.396334   4.628949   4.888916   5.754634   2.580839
    14  H    3.186675   1.857817   2.258411   0.970706   4.626314
    15  H    2.420400   2.304788   1.709777   3.618296   0.988757
                   11         12         13         14         15
    11  H    0.000000
    12  H    2.505127   0.000000
    13  H    4.321399   2.515733   0.000000
    14  H    5.570697   6.892512   6.478541   0.000000
    15  H    5.535799   5.255787   3.539407   3.891304   0.000000
 Stoichiometry    C6H5NO3
 Framework group  C1[X(C6H5NO3)]
 Deg. of freedom    39
 Full point group                 C1      NOp   1
 Largest Abelian subgroup         C1      NOp   1
 Largest concise Abelian subgroup C1      NOp   1
                         Standard orientation:                         
 ---------------------------------------------------------------------
 Center     Atomic      Atomic             Coordinates (Angstroms)
 Number     Number       Type             X           Y           Z
 ---------------------------------------------------------------------
      1          7           0       -0.443132   -1.449437    0.000028
      2          6           0       -1.766278   -1.476489    0.000035
      3          6           0       -2.551429   -0.310702    0.000021
      4          6           0       -1.929646    0.923389    0.000002
      5          6           0       -0.526538    0.973743   -0.000002
      6          6           0        0.172942   -0.256936    0.000010
      7          6           0        1.647524   -0.226491   -0.000008
      8          8           0        2.292053    0.825120   -0.000065
      9          8           0        2.248751   -1.414390    0.000002
     10          8           0        0.074676    2.166451   -0.000011
     11          1           0       -2.232005   -2.459282    0.000050
     12          1           0       -3.635166   -0.383999    0.000026
     13          1           0       -2.487249    1.854572   -0.000006
     14          1           0        3.203854   -1.241045   -0.000027
     15          1           0        1.049199    1.999280    0.000006
 ---------------------------------------------------------------------
 Rotational constants (GHZ):      2.3726204      1.2629476      0.8242165
 Standard basis: 6-31+G(d,p) (6D, 7F)
 There are   215 symmetry adapted cartesian basis functions of A   symmetry.
 There are   215 symmetry adapted basis functions of A   symmetry.
   215 basis functions,   355 primitive gaussians,   215 cartesian basis functions
    36 alpha electrons       36 beta electrons
       nuclear repulsion energy       507.9639111222 Hartrees.
 NAtoms=   15 NActive=   15 NUniq=   15 SFac= 1.00D+00 NAtFMM=   60 NAOKFM=F Big=F
 Integral buffers will be    131072 words long.
 Regular integral format.
 Two-electron integral symmetry is turned on.
 Nuclear repulsion after empirical dispersion term =      507.9476708315 Hartrees.
 One-electron integrals computed using PRISM.
 NBasis=   215 RedAO= T EigKep=  5.81D-06  NBF=   215
 NBsUse=   215 1.00D-06 EigRej= -1.00D+00 NBFU=   215
 ExpMin= 4.38D-02 ExpMax= 5.48D+03 ExpMxC= 8.25D+02 IAcc=2 IRadAn=         4 AccDes= 0.00D+00
 Harris functional with IExCor=  419 and IRadAn=       4 diagonalized for initial guess.
 HarFok:  IExCor=  419 AccDes= 0.00D+00 IRadAn=         4 IDoV= 1 UseB2=F ITyADJ=14
 ICtDFT=  3500011 ScaDFX=  1.000000  1.000000  1.000000  1.000000
 FoFCou: FMM=F IPFlag=           0 FMFlag=      100000 FMFlg1=           0
         NFxFlg=           0 DoJE=T BraDBF=F KetDBF=T FulRan=T
         wScrn=  0.000000 ICntrl=     500 IOpCl=  0 I1Cent=   200000004 NGrid=           0
         NMat0=    1 NMatS0=      1 NMatT0=    0 NMatD0=    1 NMtDS0=    0 NMtDT0=    0
 Petite list used in FoFCou.
 Keep R1 ints in memory in canonical form, NReq=274797245.
 Requested convergence on RMS density matrix=1.00D-08 within 128 cycles.
 Requested convergence on MAX density matrix=1.00D-06.
 Requested convergence on             energy=1.00D-06.
 No special actions if energy rises.
 SCF Done:  E(RB2PLYP) =  -511.160755699     A.U. after   15 cycles
            NFock= 15  Conv=0.83D-08     -V/T= 2.0067
 DoSCS=T DFT=T ScalE2(SS,OS)=  0.270000  0.270000
 ExpMin= 4.38D-02 ExpMax= 5.48D+03 ExpMxC= 8.25D+02 IAcc=3 IRadAn=         5 AccDes= 0.00D+00
 HarFok:  IExCor=  205 AccDes= 0.00D+00 IRadAn=         5 IDoV=-2 UseB2=F ITyADJ=14
 ICtDFT= 12500011 ScaDFX=  1.000000  1.000000  1.000000  1.000000
 Range of M.O.s used for correlation:    11   215
 NBasis=   215 NAE=    36 NBE=    36 NFC=    10 NFV=     0
 NROrb=    205 NOA=    26 NOB=    26 NVA=   179 NVB=   179

 **** Warning!!: The largest alpha MO coefficient is  0.96968896D+02

 DoSCS=T DFT=T ScalE2(SS,OS)=  0.270000  0.270000
 Fully direct method using O(ONN) memory.
 JobTyp=1 Pass  1:  I=  11 to  19 NPSUse= 18 ParTrn=T ParDer=T DoDerP=T.
 JobTyp=1 Pass  2:  I=  20 to  28 NPSUse= 18 ParTrn=T ParDer=T DoDerP=T.
 JobTyp=1 Pass  3:  I=  29 to  36 NPSUse= 18 ParTrn=T ParDer=T DoDerP=T.
 Spin components of T(2) and E(2):
     alpha-alpha T2 =       0.1119150351D+00 E2=     -0.6936648490D-01
     alpha-beta  T2 =       0.5593383079D+00 E2=     -0.3603531131D+00
     beta-beta   T2 =       0.1119150351D+00 E2=     -0.6936648490D-01
 E2(B2PLYP) =    -0.4990860829D+00 E(B2PLYP) =    -0.51165984178195D+03
          IDoAtm=111111111111111
          Differentiating once with respect to electric field.
                with respect to dipole field.
          Differentiating once with respect to nuclear coordinates.
 Keep R1 ints in memory in canonical form, NReq=274636562.
          There are     1 degrees of freedom in the 1st order CPHF.  IDoFFX=0 NUNeed=     1.
 LinEq1:  Iter=  0 NonCon=     1 RMS=2.14D-03 Max=4.78D-02 NDo=     1
 AX will form     1 AO Fock derivatives at one time.
 LinEq1:  Iter=  1 NonCon=     1 RMS=9.26D-04 Max=1.73D-02 NDo=     1
 LinEq1:  Iter=  2 NonCon=     1 RMS=3.23D-04 Max=5.33D-03 NDo=     1
 LinEq1:  Iter=  3 NonCon=     1 RMS=2.40D-04 Max=6.70D-03 NDo=     1
 LinEq1:  Iter=  4 NonCon=     1 RMS=1.06D-04 Max=2.87D-03 NDo=     1
 LinEq1:  Iter=  5 NonCon=     1 RMS=4.77D-05 Max=1.01D-03 NDo=     1
 LinEq1:  Iter=  6 NonCon=     1 RMS=2.77D-05 Max=9.76D-04 NDo=     1
 LinEq1:  Iter=  7 NonCon=     1 RMS=1.37D-05 Max=5.63D-04 NDo=     1
 LinEq1:  Iter=  8 NonCon=     1 RMS=5.46D-06 Max=1.12D-04 NDo=     1
 LinEq1:  Iter=  9 NonCon=     1 RMS=3.36D-06 Max=1.07D-04 NDo=     1
 LinEq1:  Iter= 10 NonCon=     1 RMS=8.49D-07 Max=1.52D-05 NDo=     1
 LinEq1:  Iter= 11 NonCon=     1 RMS=4.52D-07 Max=9.36D-06 NDo=     1
 LinEq1:  Iter= 12 NonCon=     1 RMS=1.77D-07 Max=3.80D-06 NDo=     1
 LinEq1:  Iter= 13 NonCon=     1 RMS=8.08D-08 Max=1.90D-06 NDo=     1
 LinEq1:  Iter= 14 NonCon=     1 RMS=4.36D-08 Max=1.03D-06 NDo=     1
 LinEq1:  Iter= 15 NonCon=     1 RMS=2.01D-08 Max=6.81D-07 NDo=     1
 LinEq1:  Iter= 16 NonCon=     1 RMS=8.51D-09 Max=2.14D-07 NDo=     1
 LinEq1:  Iter= 17 NonCon=     1 RMS=2.55D-09 Max=4.96D-08 NDo=     1
 LinEq1:  Iter= 18 NonCon=     1 RMS=1.27D-09 Max=3.30D-08 NDo=     1
 LinEq1:  Iter= 19 NonCon=     1 RMS=3.73D-10 Max=4.86D-09 NDo=     1
 LinEq1:  Iter= 20 NonCon=     1 RMS=1.12D-10 Max=1.49D-09 NDo=     1
 LinEq1:  Iter= 21 NonCon=     0 RMS=4.88D-11 Max=5.35D-10 NDo=     1
 Linear equations converged to 1.000D-10 1.000D-09 after    21 iterations.
 End of Minotr F.D. properties file   721 does not exist.
 End of Minotr F.D. properties file   722 does not exist.
 End of Minotr F.D. properties file   788 does not exist.

 **********************************************************************

            Population analysis using the SCF density.

 **********************************************************************

 Orbital symmetries:
       Occupied  (A) (A) (A) (A) (A) (A) (A) (A) (A) (A) (A) (A)
                 (A) (A) (A) (A) (A) (A) (A) (A) (A) (A) (A) (A)
                 (A) (A) (A) (A) (A) (A) (A) (A) (A) (A) (A) (A)
       Virtual   (A) (A) (A) (A) (A) (A) (A) (A) (A) (A) (A) (A)
                 (A) (A) (A) (A) (A) (A) (A) (A) (A) (A) (A) (A)
                 (A) (A) (A) (A) (A) (A) (A) (A) (A) (A) (A) (A)
                 (A) (A) (A) (A) (A) (A) (A) (A) (A) (A) (A) (A)
                 (A) (A) (A) (A) (A) (A) (A) (A) (A) (A) (A) (A)
                 (A) (A) (A) (A) (A) (A) (A) (A) (A) (A) (A) (A)
                 (A) (A) (A) (A) (A) (A) (A) (A) (A) (A) (A) (A)
                 (A) (A) (A) (A) (A) (A) (A) (A) (A) (A) (A) (A)
                 (A) (A) (A) (A) (A) (A) (A) (A) (A) (A) (A) (A)
                 (A) (A) (A) (A) (A) (A) (A) (A) (A) (A) (A) (A)
                 (A) (A) (A) (A) (A) (A) (A) (A) (A) (A) (A) (A)
                 (A) (A) (A) (A) (A) (A) (A) (A) (A) (A) (A) (A)
                 (A) (A) (A) (A) (A) (A) (A) (A) (A) (A) (A) (A)
                 (A) (A) (A) (A) (A) (A) (A) (A) (A) (A) (A) (A)
                 (A) (A) (A) (A) (A) (A) (A) (A) (A) (A) (A)
 The electronic state is 1-A.
 Alpha  occ. eigenvalues --  -19.81923 -19.78697 -19.76824 -14.88048 -10.80171
 Alpha  occ. eigenvalues --  -10.73031 -10.69159 -10.67819 -10.66721 -10.66273
 Alpha  occ. eigenvalues --   -1.28829  -1.23056  -1.18393  -1.10016  -0.94260
 Alpha  occ. eigenvalues --   -0.90652  -0.80226  -0.74576  -0.72939  -0.64689
 Alpha  occ. eigenvalues --   -0.63793  -0.60941  -0.58309  -0.56084  -0.55851
 Alpha  occ. eigenvalues --   -0.50991  -0.50562  -0.49704  -0.48429  -0.47560
 Alpha  occ. eigenvalues --   -0.44753  -0.41405  -0.38902  -0.34486  -0.34256
 Alpha  occ. eigenvalues --   -0.29412
 Alpha virt. eigenvalues --   -0.02646   0.02560   0.02571   0.03262   0.05197
 Alpha virt. eigenvalues --    0.05742   0.07055   0.07422   0.08016   0.08971
 Alpha virt. eigenvalues --    0.09933   0.10359   0.11082   0.11651   0.12858
 Alpha virt. eigenvalues --    0.14406   0.15186   0.16318   0.16501   0.17493
 Alpha virt. eigenvalues --    0.17497   0.19593   0.20266   0.20772   0.21623
 Alpha virt. eigenvalues --    0.22818   0.23276   0.24091   0.24621   0.25230
 Alpha virt. eigenvalues --    0.26668   0.27685   0.27909   0.28089   0.29485
 Alpha virt. eigenvalues --    0.30015   0.30936   0.31885   0.32238   0.32765
 Alpha virt. eigenvalues --    0.33134   0.33607   0.34187   0.35070   0.37343
 Alpha virt. eigenvalues --    0.37680   0.38433   0.39578   0.40663   0.41422
 Alpha virt. eigenvalues --    0.43731   0.44897   0.46687   0.47989   0.51138
 Alpha virt. eigenvalues --    0.53200   0.58853   0.68423   0.71439   0.73791
 Alpha virt. eigenvalues --    0.73868   0.76712   0.79258   0.80292   0.80747
 Alpha virt. eigenvalues --    0.81057   0.82794   0.84417   0.88924   0.91081
 Alpha virt. eigenvalues --    0.94615   0.97358   0.98480   1.02338   1.04670
 Alpha virt. eigenvalues --    1.06308   1.10701   1.11713   1.13077   1.16702
 Alpha virt. eigenvalues --    1.17247   1.19310   1.20601   1.22306   1.25643
 Alpha virt. eigenvalues --    1.26714   1.28680   1.30474   1.30532   1.31485
 Alpha virt. eigenvalues --    1.33118   1.35204   1.37589   1.39680   1.40014
 Alpha virt. eigenvalues --    1.42224   1.42482   1.43395   1.47165   1.48506
 Alpha virt. eigenvalues --    1.49262   1.51315   1.51596   1.53347   1.56519
 Alpha virt. eigenvalues --    1.57914   1.66840   1.67499   1.69592   1.72482
 Alpha virt. eigenvalues --    1.76062   1.85405   1.85711   1.87577   1.90226
 Alpha virt. eigenvalues --    1.93886   1.94593   1.97873   1.99903   2.01455
 Alpha virt. eigenvalues --    2.02866   2.06541   2.09334   2.10346   2.11229
 Alpha virt. eigenvalues --    2.14399   2.16753   2.21335   2.26945   2.30999
 Alpha virt. eigenvalues --    2.39535   2.39703   2.41770   2.46535   2.47171
 Alpha virt. eigenvalues --    2.47658   2.50411   2.54131   2.57311   2.61219
 Alpha virt. eigenvalues --    2.61619   2.62613   2.65757   2.66547   2.66732
 Alpha virt. eigenvalues --    2.70572   2.74426   2.77421   2.79390   2.80126
 Alpha virt. eigenvalues --    2.84397   2.87599   2.89373   2.91270   2.97852
 Alpha virt. eigenvalues --    3.02827   3.08702   3.18452   3.21729   3.23873
 Alpha virt. eigenvalues --    3.33159   3.33753   3.40274   3.46734   3.52944
 Alpha virt. eigenvalues --    3.56187   3.67719   3.74267   3.96605   4.32851
 Alpha virt. eigenvalues --    4.43162   4.48337   4.50378   4.53785   4.64220
 Alpha virt. eigenvalues --    4.74629   4.87169   5.00468   5.02840
          Condensed to atoms (all electrons):
               1          2          3          4          5          6
     1  N    6.904075  -0.069121   0.226796  -0.153525   0.192377   0.411857
     2  C   -0.069121   6.238824  -0.423552   0.559248  -0.840851   0.000746
     3  C    0.226796  -0.423552   5.942836  -0.934735   1.808333  -0.756943
     4  C   -0.153525   0.559248  -0.934735  10.327400  -4.884030   1.141868
     5  C    0.192377  -0.840851   1.808333  -4.884030  13.635764  -3.628747
     6  C    0.411857   0.000746  -0.756943   1.141868  -3.628747   8.952655
     7  C   -0.263393   0.254209  -0.198026   0.009732  -0.933537   0.257276
     8  O    0.012764  -0.014443   0.014381   0.018962   0.072309  -0.235632
     9  O    0.041178  -0.018038   0.011925  -0.001440   0.141307  -0.203801
    10  O    0.006452  -0.012439   0.024915  -0.516493   0.376846   0.132967
    11  H   -0.102501   0.454076  -0.090522   0.027021  -0.031259   0.025584
    12  H    0.000986   0.037398   0.258277   0.048967  -0.015756   0.002458
    13  H    0.001507  -0.026476   0.053905   0.175483   0.134836  -0.006850
    14  H    0.002973   0.004343  -0.002389   0.008206  -0.029659   0.002688
    15  H   -0.000678   0.003274  -0.008241   0.149286  -0.044484  -0.083743
               7          8          9         10         11         12
     1  N   -0.263393   0.012764   0.041178   0.006452  -0.102501   0.000986
     2  C    0.254209  -0.014443  -0.018038  -0.012439   0.454076   0.037398
     3  C   -0.198026   0.014381   0.011925   0.024915  -0.090522   0.258277
     4  C    0.009732   0.018962  -0.001440  -0.516493   0.027021   0.048967
     5  C   -0.933537   0.072309   0.141307   0.376846  -0.031259  -0.015756
     6  C    0.257276  -0.235632  -0.203801   0.132967   0.025584   0.002458
     7  C    5.643948   0.412098   0.188749  -0.038171   0.020070   0.001247
     8  O    0.412098   8.466418  -0.151470  -0.031172   0.000010   0.000003
     9  O    0.188749  -0.151470   8.267156  -0.002925  -0.000480  -0.000003
    10  O   -0.038171  -0.031172  -0.002925   8.466696   0.000124  -0.000538
    11  H    0.020070   0.000010  -0.000480   0.000124   0.554607  -0.001180
    12  H    0.001247   0.000003  -0.000003  -0.000538  -0.001180   0.509339
    13  H    0.003966   0.000072   0.000016  -0.006432  -0.000098  -0.003230
    14  H    0.044574   0.001377   0.200317   0.000141  -0.000001   0.000000
    15  H   -0.008277   0.044143   0.002964   0.202727  -0.000000   0.000003
              13         14         15
     1  N    0.001507   0.002973  -0.000678
     2  C   -0.026476   0.004343   0.003274
     3  C    0.053905  -0.002389  -0.008241
     4  C    0.175483   0.008206   0.149286
     5  C    0.134836  -0.029659  -0.044484
     6  C   -0.006850   0.002688  -0.083743
     7  C    0.003966   0.044574  -0.008277
     8  O    0.000072   0.001377   0.044143
     9  O    0.000016   0.200317   0.002964
    10  O   -0.006432   0.000141   0.202727
    11  H   -0.000098  -0.000001  -0.000000
    12  H   -0.003230   0.000000   0.000003
    13  H    0.501001  -0.000000   0.000005
    14  H   -0.000000   0.373327   0.000028
    15  H    0.000005   0.000028   0.305818
 Mulliken charges:
               1
     1  N   -0.211746
     2  C   -0.147197
     3  C    0.073040
     4  C    0.024051
     5  C    0.046553
     6  C   -0.012383
     7  C    0.605534
     8  O   -0.609821
     9  O   -0.475456
    10  O   -0.602700
    11  H    0.144549
    12  H    0.162029
    13  H    0.172295
    14  H    0.394076
    15  H    0.437174
 Sum of Mulliken charges =  -0.00000
 Mulliken charges with hydrogens summed into heavy atoms:
               1
     1  N   -0.211746
     2  C   -0.002648
     3  C    0.235069
     4  C    0.196346
     5  C    0.046553
     6  C   -0.012383
     7  C    0.605534
     8  O   -0.609821
     9  O   -0.081380
    10  O   -0.165526
 Electronic spatial extent (au):  <R**2>=           1308.4515
 Charge=             -0.0000 electrons
 Dipole moment (field-independent basis, Debye):
    X=             -1.4375    Y=             -0.5827    Z=              0.0001  Tot=              1.5511
 Quadrupole moment (field-independent basis, Debye-Ang):
   XX=            -43.5554   YY=            -63.3716   ZZ=            -58.5953
   XY=             -2.4252   XZ=              0.0001   YZ=              0.0003
 Traceless Quadrupole moment (field-independent basis, Debye-Ang):
   XX=             11.6187   YY=             -8.1975   ZZ=             -3.4212
   XY=             -2.4252   XZ=              0.0001   YZ=              0.0003
 Octapole moment (field-independent basis, Debye-Ang**2):
  XXX=             16.6314  YYY=              1.7547  ZZZ=             -0.0004  XYY=             -1.5316
  XXY=            -18.5304  XXZ=              0.0003  XZZ=             11.0342  YZZ=              1.7364
  YYZ=              0.0001  XYZ=              0.0009
 Hexadecapole moment (field-independent basis, Debye-Ang**3):
 XXXX=           -854.5481 YYYY=           -597.9933 ZZZZ=            -60.6918 XXXY=            -75.8117
 XXXZ=              0.0044 YYYX=             17.0127 YYYZ=              0.0036 ZZZX=              0.0055
 ZZZY=              0.0035 XXYY=           -234.6096 XXZZ=           -195.9498 YYZZ=           -109.8874
 XXYZ=              0.0022 YYXZ=              0.0014 ZZXY=             -2.7761
 N-N= 5.079476708315D+02 E-N=-2.211423499785D+03  KE= 5.077454396601D+02
 Calling FoFJK, ICntrl=  10002127 FMM=F ISym2X=0 I1Cent= 0 IOpClX= 0 NMat=1 NMatS=1 NMatT=0.
 ***** Axes restored to original set *****
 -------------------------------------------------------------------
 Center     Atomic                   Forces (Hartrees/Bohr)
 Number     Number              X              Y              Z
 -------------------------------------------------------------------
      1        7           0.003782767   -0.004775554    0.000000432
      2        6          -0.005859990   -0.003065597   -0.000000232
      3        6          -0.003936774   -0.001076333   -0.000000012
      4        6          -0.000945149    0.003719354    0.000000012
      5        6          -0.002294858   -0.005911111    0.000000762
      6        6           0.001367158    0.004014160    0.000000606
      7        6          -0.004388648   -0.001634776   -0.000003944
      8        8           0.004291900    0.005913485    0.000002264
      9        8           0.000772969   -0.005332435    0.000001232
     10        8           0.004022345    0.005847599    0.000000749
     11        1           0.000902310    0.001980758   -0.000000008
     12        1           0.001930982    0.000093163    0.000000001
     13        1           0.000979906   -0.001505027   -0.000000061
     14        1           0.001068099    0.000110441   -0.000000064
     15        1          -0.001693016    0.001621872   -0.000001737
 -------------------------------------------------------------------
 Cartesian Forces:  Max     0.005913485 RMS     0.002762869

 GradGradGradGradGradGradGradGradGradGradGradGradGradGradGradGradGradGrad
 Berny optimization.
 FormGI is forming the generalized inverse of G from B-inverse, IUseBI=4.
 Internal  Forces:  Max     0.007718528 RMS     0.002094112
 Search for a local minimum.
 Step number   1 out of a maximum of   74
 All quantities printed in internal units (Hartrees-Bohrs-Radians)
 Mixed Optimization -- RFO/linear search
 Second derivative matrix not updated -- first step.
 ITU=  0
     Eigenvalues ---    0.01098   0.01591   0.01741   0.01974   0.02095
     Eigenvalues ---    0.02130   0.02170   0.02199   0.02264   0.02472
     Eigenvalues ---    0.02543   0.02599   0.16000   0.16000   0.16000
     Eigenvalues ---    0.16000   0.16000   0.22081   0.23319   0.24912
     Eigenvalues ---    0.25000   0.25000   0.25000   0.25000   0.35096
     Eigenvalues ---    0.35161   0.35254   0.35354   0.40644   0.43532
     Eigenvalues ---    0.44176   0.47447   0.49721   0.53233   0.55194
     Eigenvalues ---    0.58187   0.59180   0.59430   0.89680
 RFO step:  Lambda=-5.95224247D-04 EMin= 1.09802181D-02
 Linear search not attempted -- first point.
 Iteration  1 RMS(Cart)=  0.01933695 RMS(Int)=  0.00013668
 Iteration  2 RMS(Cart)=  0.00020311 RMS(Int)=  0.00000031
 Iteration  3 RMS(Cart)=  0.00000002 RMS(Int)=  0.00000031
 Variable       Old X    -DE/DX   Delta X   Delta X   Delta X     New X
                                 (Linear)    (Quad)   (Total)
    R1        2.50091   0.00530   0.00000   0.00897   0.00897   2.50988
    R2        2.53646   0.00509   0.00000   0.00931   0.00931   2.54578
    R3        2.65607   0.00095   0.00000   0.00211   0.00211   2.65818
    R4        2.05519  -0.00218   0.00000  -0.00619  -0.00619   2.04900
    R5        2.61138   0.00244   0.00000   0.00460   0.00460   2.61598
    R6        2.05264  -0.00193   0.00000  -0.00547  -0.00547   2.04717
    R7        2.65320   0.00162   0.00000   0.00318   0.00318   2.65637
    R8        2.05105  -0.00179   0.00000  -0.00507  -0.00507   2.04598
    R9        2.67504   0.00242   0.00000   0.00565   0.00565   2.68069
   R10        2.52405   0.00772   0.00000   0.01325   0.01325   2.53730
   R11        2.78715   0.00172   0.00000   0.00490   0.00490   2.79205
   R12        2.33081   0.00728   0.00000   0.00812   0.00812   2.33893
   R13        2.51595   0.00549   0.00000   0.00927   0.00927   2.52522
   R14        1.83437   0.00107   0.00000   0.00201   0.00201   1.83638
   R15        1.86848  -0.00194   0.00000  -0.00390  -0.00390   1.86458
    A1        2.06810  -0.00034   0.00000   0.00070   0.00070   2.06880
    A2        2.14307  -0.00031   0.00000  -0.00076  -0.00076   2.14231
    A3        2.03377   0.00019   0.00000   0.00059   0.00059   2.03437
    A4        2.10634   0.00012   0.00000   0.00017   0.00017   2.10651
    A5        2.08216   0.00008   0.00000  -0.00072  -0.00072   2.08144
    A6        2.09598  -0.00008   0.00000   0.00013   0.00013   2.09611
    A7        2.10504  -0.00000   0.00000   0.00060   0.00060   2.10564
    A8        2.07338   0.00121   0.00000   0.00354   0.00354   2.07692
    A9        2.13533  -0.00053   0.00000  -0.00134  -0.00134   2.13400
   A10        2.07447  -0.00067   0.00000  -0.00220  -0.00220   2.07227
   A11        2.05176   0.00003   0.00000  -0.00075  -0.00075   2.05101
   A12        2.07357  -0.00286   0.00000  -0.01097  -0.01097   2.06260
   A13        2.15785   0.00283   0.00000   0.01172   0.01172   2.16958
   A14        2.14790  -0.00067   0.00000  -0.00201  -0.00201   2.14589
   A15        2.06830  -0.00267   0.00000  -0.01100  -0.01100   2.05730
   A16        2.06699   0.00334   0.00000   0.01301   0.01301   2.08000
   A17        2.14129   0.00154   0.00000   0.00613   0.00613   2.14742
   A18        2.01869  -0.00175   0.00000  -0.00696  -0.00696   2.01173
   A19        2.12321   0.00021   0.00000   0.00083   0.00083   2.12404
   A20        1.85979   0.00015   0.00000   0.00094   0.00094   1.86074
   A21        1.86781   0.00245   0.00000   0.01527   0.01527   1.88308
    D1        0.00000  -0.00000   0.00000  -0.00001  -0.00001  -0.00001
    D2       -3.14159  -0.00000   0.00000  -0.00000  -0.00000   3.14159
    D3       -0.00000  -0.00000   0.00000  -0.00000  -0.00000  -0.00000
    D4       -3.14158  -0.00000   0.00000  -0.00003  -0.00003   3.14157
    D5       -0.00000   0.00000   0.00000   0.00001   0.00001   0.00001
    D6        3.14159   0.00000   0.00000   0.00000   0.00000  -3.14159
    D7       -3.14159   0.00000   0.00000   0.00000   0.00000  -3.14159
    D8        0.00000  -0.00000   0.00000  -0.00000  -0.00000  -0.00000
    D9       -0.00000   0.00000   0.00000   0.00000   0.00000   0.00000
   D10       -3.14159  -0.00000   0.00000  -0.00001  -0.00001   3.14159
   D11        3.14159   0.00000   0.00000   0.00001   0.00001  -3.14159
   D12        0.00000  -0.00000   0.00000  -0.00001  -0.00001  -0.00000
   D13        0.00000  -0.00000   0.00000  -0.00001  -0.00001  -0.00001
   D14       -3.14158  -0.00000   0.00000  -0.00003  -0.00003   3.14157
   D15        3.14159   0.00000   0.00000   0.00000   0.00000  -3.14159
   D16        0.00000  -0.00000   0.00000  -0.00002  -0.00002  -0.00001
   D17       -0.00000   0.00000   0.00000   0.00001   0.00001   0.00001
   D18        3.14158   0.00000   0.00000   0.00004   0.00004  -3.14157
   D19        3.14158   0.00000   0.00000   0.00003   0.00003  -3.14157
   D20       -0.00002   0.00000   0.00000   0.00006   0.00006   0.00004
   D21        3.14157   0.00000   0.00000   0.00007   0.00007  -3.14154
   D22       -0.00001   0.00000   0.00000   0.00005   0.00005   0.00003
   D23        3.14155   0.00000   0.00000   0.00014   0.00014  -3.14149
   D24       -0.00001  -0.00000   0.00000  -0.00001  -0.00001  -0.00002
   D25       -0.00003   0.00000   0.00000   0.00012   0.00012   0.00009
   D26       -3.14159  -0.00000   0.00000  -0.00003  -0.00003   3.14156
   D27        3.14158   0.00000   0.00000   0.00007   0.00007  -3.14153
   D28        0.00002  -0.00000   0.00000  -0.00008  -0.00008  -0.00006
         Item               Value     Threshold  Converged?
 Maximum Force            0.007719     0.000450     NO 
 RMS     Force            0.002094     0.000300     NO 
 Maximum Displacement     0.101276     0.001800     NO 
 RMS     Displacement     0.019438     0.001200     NO 
 Predicted change in Energy=-2.980860D-04
 GradGradGradGradGradGradGradGradGradGradGradGradGradGradGradGradGradGrad

                          Input orientation:                          
 ---------------------------------------------------------------------
 Center     Atomic      Atomic             Coordinates (Angstroms)
 Number     Number       Type             X           Y           Z
 ---------------------------------------------------------------------
      1          7           0       -0.436711   -1.448229   -0.000014
      2          6           0       -1.764508   -1.479695    0.000015
      3          6           0       -2.553188   -0.314943    0.000042
      4          6           0       -1.932495    0.922423    0.000031
      5          6           0       -0.527994    0.980294   -0.000008
      6          6           0        0.178573   -0.249778   -0.000026
      7          6           0        1.655950   -0.231763   -0.000036
      8          8           0        2.318041    0.813969    0.000063
      9          8           0        2.240944   -1.433198   -0.000013
     10          8           0        0.056781    2.188942   -0.000044
     11          1           0       -2.226227   -2.460759    0.000023
     12          1           0       -3.633859   -0.390600    0.000068
     13          1           0       -2.491602    1.849574    0.000043
     14          1           0        3.199803   -1.275326    0.000032
     15          1           0        1.034047    2.052873   -0.000115
 ---------------------------------------------------------------------
                    Distance matrix (angstroms):
                    1          2          3          4          5
     1  N    0.000000
     2  C    1.328171   0.000000
     3  C    2.400794   1.406649   0.000000
     4  C    2.803099   2.407985   1.384317   0.000000
     5  C    2.430238   2.753274   2.403965   1.405693   0.000000
     6  C    1.347167   2.299623   2.732538   2.414677   1.418561
     7  C    2.420541   3.640999   4.209960   3.769494   2.497738
     8  O    3.564575   4.682746   5.000331   4.251920   2.850891
     9  O    2.677697   4.005722   4.922823   4.792342   3.673140
    10  O    3.670496   4.095851   3.616819   2.358239   1.342681
    11  H    2.056109   1.084283   2.170582   3.395909   3.837295
    12  H    3.367541   2.163469   1.083316   2.149109   3.394959
    13  H    3.885625   3.407741   2.165393   1.082686   2.147418
    14  H    3.640622   4.968517   5.832601   5.583063   4.357097
    15  H    3.797478   4.506767   4.298232   3.174632   1.894835
                    6          7          8          9         10
     6  C    0.000000
     7  C    1.477487   0.000000
     8  O    2.389326   1.237707   0.000000
     9  O    2.377784   1.336287   2.248488   0.000000
    10  O    2.441759   2.901232   2.646478   4.229711   0.000000
    11  H    3.266726   4.476575   5.601268   4.583830   5.179946
    12  H    3.815032   5.292193   6.072569   5.966600   4.502762
    13  H    3.396633   4.640490   4.919872   5.759651   2.570881
    14  H    3.190545   1.863466   2.267742   0.971769   4.677578
    15  H    2.456427   2.367767   1.784243   3.689077   0.986693
                   11         12         13         14         15
    11  H    0.000000
    12  H    2.503395   0.000000
    13  H    4.318494   2.514584   0.000000
    14  H    5.554012   6.890695   6.492849   0.000000
    15  H    5.567967   5.268767   3.531505   3.970819   0.000000
 Stoichiometry    C6H5NO3
 Framework group  C1[X(C6H5NO3)]
 Deg. of freedom    39
 Full point group                 C1      NOp   1
 Largest Abelian subgroup         C1      NOp   1
 Largest concise Abelian subgroup C1      NOp   1
                         Standard orientation:                         
 ---------------------------------------------------------------------
 Center     Atomic      Atomic             Coordinates (Angstroms)
 Number     Number       Type             X           Y           Z
 ---------------------------------------------------------------------
      1          7           0       -0.427736   -1.450656   -0.000016
      2          6           0       -1.755279   -1.491482    0.000014
      3          6           0       -2.552149   -0.332319    0.000041
      4          6           0       -1.940195    0.909392    0.000029
      5          6           0       -0.536137    0.977163   -0.000010
      6          6           0        0.179084   -0.247898   -0.000027
      7          6           0        1.656298   -0.219468   -0.000037
      8          8           0        2.311000    0.830904    0.000062
      9          8           0        2.249746   -1.416750   -0.000015
     10          8           0        0.040104    2.189903   -0.000046
     11          1           0       -2.210070   -2.475776    0.000022
     12          1           0       -3.632260   -0.415592    0.000067
     13          1           0       -2.505823    1.832579    0.000042
     14          1           0        3.207469   -1.252123    0.000031
     15          1           0        1.018304    2.060726   -0.000116
 ---------------------------------------------------------------------
 Rotational constants (GHZ):      2.3436939      1.2575646      0.8184213
 Standard basis: 6-31+G(d,p) (6D, 7F)
 There are   215 symmetry adapted cartesian basis functions of A   symmetry.
 There are   215 symmetry adapted basis functions of A   symmetry.
   215 basis functions,   355 primitive gaussians,   215 cartesian basis functions
    36 alpha electrons       36 beta electrons
       nuclear repulsion energy       506.1900753644 Hartrees.
 NAtoms=   15 NActive=   15 NUniq=   15 SFac= 1.00D+00 NAtFMM=   60 NAOKFM=F Big=F
 Integral buffers will be    131072 words long.
 Regular integral format.
 Two-electron integral symmetry is turned on.
 Nuclear repulsion after empirical dispersion term =      506.1738744133 Hartrees.
 One-electron integrals computed using PRISM.
 NBasis=   215 RedAO= T EigKep=  5.82D-06  NBF=   215
 NBsUse=   215 1.00D-06 EigRej= -1.00D+00 NBFU=   215
 Initial guess from the checkpoint file:  "B2PLYPD3BJ3HPA.chk"
 B after Tr=     0.000000    0.000000    0.000000
         Rot=    0.999995   -0.000005    0.000003   -0.003101 Ang=  -0.36 deg.
 ExpMin= 4.38D-02 ExpMax= 5.48D+03 ExpMxC= 8.25D+02 IAcc=2 IRadAn=         4 AccDes= 0.00D+00
 Harris functional with IExCor=  419 and IRadAn=       4 diagonalized for initial guess.
 HarFok:  IExCor=  419 AccDes= 0.00D+00 IRadAn=         4 IDoV= 1 UseB2=F ITyADJ=14
 ICtDFT=  3500011 ScaDFX=  1.000000  1.000000  1.000000  1.000000
 FoFCou: FMM=F IPFlag=           0 FMFlag=      100000 FMFlg1=           0
         NFxFlg=           0 DoJE=T BraDBF=F KetDBF=T FulRan=T
         wScrn=  0.000000 ICntrl=     500 IOpCl=  0 I1Cent=   200000004 NGrid=           0
         NMat0=    1 NMatS0=      1 NMatT0=    0 NMatD0=    1 NMtDS0=    0 NMtDT0=    0
 Petite list used in FoFCou.
 Keep R1 ints in memory in canonical form, NReq=274797245.
 Requested convergence on RMS density matrix=1.00D-08 within 128 cycles.
 Requested convergence on MAX density matrix=1.00D-06.
 Requested convergence on             energy=1.00D-06.
 No special actions if energy rises.
 SCF Done:  E(RB2PLYP) =  -511.160213470     A.U. after   13 cycles
            NFock= 13  Conv=0.25D-08     -V/T= 2.0069
 DoSCS=T DFT=T ScalE2(SS,OS)=  0.270000  0.270000
 ExpMin= 4.38D-02 ExpMax= 5.48D+03 ExpMxC= 8.25D+02 IAcc=3 IRadAn=         5 AccDes= 0.00D+00
 HarFok:  IExCor=  205 AccDes= 0.00D+00 IRadAn=         5 IDoV=-2 UseB2=F ITyADJ=14
 ICtDFT= 12500011 ScaDFX=  1.000000  1.000000  1.000000  1.000000
 Range of M.O.s used for correlation:    11   215
 NBasis=   215 NAE=    36 NBE=    36 NFC=    10 NFV=     0
 NROrb=    205 NOA=    26 NOB=    26 NVA=   179 NVB=   179

 **** Warning!!: The largest alpha MO coefficient is  0.10444816D+03

 DoSCS=T DFT=T ScalE2(SS,OS)=  0.270000  0.270000
 Fully direct method using O(ONN) memory.
 JobTyp=1 Pass  1:  I=  11 to  19 NPSUse= 18 ParTrn=T ParDer=T DoDerP=T.
 JobTyp=1 Pass  2:  I=  20 to  28 NPSUse= 18 ParTrn=T ParDer=T DoDerP=T.
 JobTyp=1 Pass  3:  I=  29 to  36 NPSUse= 18 ParTrn=T ParDer=T DoDerP=T.
 Spin components of T(2) and E(2):
     alpha-alpha T2 =       0.1124433014D+00 E2=     -0.6942009159D-01
     alpha-beta  T2 =       0.5624896968D+00 E2=     -0.3609770708D+00
     beta-beta   T2 =       0.1124433014D+00 E2=     -0.6942009159D-01
 E2(B2PLYP) =    -0.4998172540D+00 E(B2PLYP) =    -0.51166003072391D+03
          IDoAtm=111111111111111
          Differentiating once with respect to electric field.
                with respect to dipole field.
          Differentiating once with respect to nuclear coordinates.
 Keep R1 ints in memory in canonical form, NReq=274636562.
          There are     1 degrees of freedom in the 1st order CPHF.  IDoFFX=0 NUNeed=     1.
 LinEq1:  Iter=  0 NonCon=     1 RMS=2.16D-03 Max=4.87D-02 NDo=     1
 AX will form     1 AO Fock derivatives at one time.
 LinEq1:  Iter=  1 NonCon=     1 RMS=9.36D-04 Max=1.78D-02 NDo=     1
 LinEq1:  Iter=  2 NonCon=     1 RMS=3.32D-04 Max=5.56D-03 NDo=     1
 LinEq1:  Iter=  3 NonCon=     1 RMS=2.49D-04 Max=7.03D-03 NDo=     1
 LinEq1:  Iter=  4 NonCon=     1 RMS=1.11D-04 Max=3.02D-03 NDo=     1
 LinEq1:  Iter=  5 NonCon=     1 RMS=4.92D-05 Max=1.05D-03 NDo=     1
 LinEq1:  Iter=  6 NonCon=     1 RMS=2.92D-05 Max=1.07D-03 NDo=     1
 LinEq1:  Iter=  7 NonCon=     1 RMS=1.46D-05 Max=6.10D-04 NDo=     1
 LinEq1:  Iter=  8 NonCon=     1 RMS=5.84D-06 Max=1.22D-04 NDo=     1
 LinEq1:  Iter=  9 NonCon=     1 RMS=3.49D-06 Max=1.07D-04 NDo=     1
 LinEq1:  Iter= 10 NonCon=     1 RMS=8.80D-07 Max=1.71D-05 NDo=     1
 LinEq1:  Iter= 11 NonCon=     1 RMS=4.80D-07 Max=9.65D-06 NDo=     1
 LinEq1:  Iter= 12 NonCon=     1 RMS=1.88D-07 Max=4.07D-06 NDo=     1
 LinEq1:  Iter= 13 NonCon=     1 RMS=8.92D-08 Max=2.01D-06 NDo=     1
 LinEq1:  Iter= 14 NonCon=     1 RMS=4.62D-08 Max=1.10D-06 NDo=     1
 LinEq1:  Iter= 15 NonCon=     1 RMS=2.04D-08 Max=6.55D-07 NDo=     1
 LinEq1:  Iter= 16 NonCon=     1 RMS=8.87D-09 Max=2.26D-07 NDo=     1
 LinEq1:  Iter= 17 NonCon=     1 RMS=2.59D-09 Max=4.63D-08 NDo=     1
 LinEq1:  Iter= 18 NonCon=     1 RMS=1.26D-09 Max=3.26D-08 NDo=     1
 LinEq1:  Iter= 19 NonCon=     1 RMS=3.98D-10 Max=5.32D-09 NDo=     1
 LinEq1:  Iter= 20 NonCon=     1 RMS=1.19D-10 Max=1.48D-09 NDo=     1
 LinEq1:  Iter= 21 NonCon=     0 RMS=5.16D-11 Max=5.52D-10 NDo=     1
 Linear equations converged to 1.000D-10 1.000D-09 after    21 iterations.
 End of Minotr F.D. properties file   721 does not exist.
 End of Minotr F.D. properties file   722 does not exist.
 End of Minotr F.D. properties file   788 does not exist.
 Calling FoFJK, ICntrl=  10002127 FMM=F ISym2X=0 I1Cent= 0 IOpClX= 0 NMat=1 NMatS=1 NMatT=0.
 ***** Axes restored to original set *****
 -------------------------------------------------------------------
 Center     Atomic                   Forces (Hartrees/Bohr)
 Number     Number              X              Y              Z
 -------------------------------------------------------------------
      1        7           0.000652285   -0.000890814   -0.000001114
      2        6          -0.001148238    0.001067209    0.000000839
      3        6           0.000205442   -0.000540403    0.000000053
      4        6           0.000977026    0.000610427    0.000000175
      5        6          -0.000685147   -0.005034751   -0.000002198
      6        6          -0.000734308    0.002400979   -0.000003057
      7        6           0.000679986    0.002936597    0.000015665
      8        8          -0.002170682   -0.000169716   -0.000008228
      9        8           0.000202644   -0.001708783   -0.000004535
     10        8           0.004789597    0.001338685   -0.000001724
     11        1           0.000275815   -0.000055698   -0.000000048
     12        1          -0.000037911    0.000083034    0.000000006
     13        1           0.000002221    0.000077947    0.000000080
     14        1          -0.000109886    0.000403536    0.000000069
     15        1          -0.002898845   -0.000518249    0.000004017
 -------------------------------------------------------------------
 Cartesian Forces:  Max     0.005034751 RMS     0.001397781

 GradGradGradGradGradGradGradGradGradGradGradGradGradGradGradGradGradGrad
 Berny optimization.
 Using GEDIIS/GDIIS optimizer.
 FormGI is forming the generalized inverse of G from B-inverse, IUseBI=4.
 Internal  Forces:  Max     0.004559218 RMS     0.001275038
 Search for a local minimum.
 Step number   2 out of a maximum of   74
 All quantities printed in internal units (Hartrees-Bohrs-Radians)
 Mixed Optimization -- RFO/linear search
 Update second derivatives using D2CorX and points    1    2
 DE= -1.89D-04 DEPred=-2.98D-04 R= 6.34D-01
 TightC=F SS=  1.41D+00  RLast= 3.99D-02 DXNew= 5.0454D-01 1.1978D-01
 Trust test= 6.34D-01 RLast= 3.99D-02 DXMaxT set to 3.00D-01
 ITU=  1  0
 Use linear search instead of GDIIS.
     Eigenvalues ---    0.01098   0.01589   0.01739   0.01974   0.02095
     Eigenvalues ---    0.02130   0.02170   0.02199   0.02264   0.02472
     Eigenvalues ---    0.02543   0.02599   0.15878   0.16000   0.16000
     Eigenvalues ---    0.16000   0.16349   0.22060   0.23167   0.24379
     Eigenvalues ---    0.24912   0.25000   0.25000   0.31863   0.33841
     Eigenvalues ---    0.35180   0.35318   0.35981   0.41166   0.43543
     Eigenvalues ---    0.43934   0.47435   0.48635   0.53266   0.56185
     Eigenvalues ---    0.58795   0.59249   0.61791   0.92833
 RFO step:  Lambda=-1.54990055D-04 EMin= 1.09802257D-02
 Quartic linear search produced a step of -0.26482.
 Iteration  1 RMS(Cart)=  0.01126283 RMS(Int)=  0.00004233
 Iteration  2 RMS(Cart)=  0.00005241 RMS(Int)=  0.00000034
 Iteration  3 RMS(Cart)=  0.00000000 RMS(Int)=  0.00000034
 Variable       Old X    -DE/DX   Delta X   Delta X   Delta X     New X
                                 (Linear)    (Quad)   (Total)
    R1        2.50988   0.00098  -0.00238   0.00596   0.00358   2.51346
    R2        2.54578   0.00019  -0.00247   0.00499   0.00253   2.54831
    R3        2.65818  -0.00005  -0.00056   0.00126   0.00070   2.65888
    R4        2.04900  -0.00007   0.00164  -0.00331  -0.00167   2.04732
    R5        2.61598   0.00014  -0.00122   0.00267   0.00145   2.61743
    R6        2.04717   0.00003   0.00145  -0.00274  -0.00129   2.04588
    R7        2.65637  -0.00129  -0.00084  -0.00064  -0.00148   2.65489
    R8        2.04598   0.00007   0.00134  -0.00246  -0.00112   2.04486
    R9        2.68069  -0.00456  -0.00150  -0.00512  -0.00662   2.67407
   R10        2.53730   0.00156  -0.00351   0.00884   0.00533   2.54263
   R11        2.79205  -0.00138  -0.00130  -0.00038  -0.00167   2.79037
   R12        2.33893  -0.00130  -0.00215   0.00316   0.00101   2.33994
   R13        2.52522   0.00121  -0.00245   0.00631   0.00386   2.52907
   R14        1.83638  -0.00004  -0.00053   0.00098   0.00045   1.83683
   R15        1.86458  -0.00280   0.00103  -0.00615  -0.00512   1.85946
    A1        2.06880  -0.00159  -0.00019  -0.00407  -0.00426   2.06454
    A2        2.14231   0.00023   0.00020   0.00124   0.00144   2.14375
    A3        2.03437  -0.00040  -0.00016  -0.00180  -0.00196   2.03241
    A4        2.10651   0.00017  -0.00004   0.00056   0.00052   2.10703
    A5        2.08144  -0.00025   0.00019  -0.00045  -0.00026   2.08118
    A6        2.09611   0.00021  -0.00003   0.00051   0.00048   2.09658
    A7        2.10564   0.00004  -0.00016  -0.00006  -0.00021   2.10542
    A8        2.07692  -0.00087  -0.00094  -0.00124  -0.00217   2.07475
    A9        2.13400   0.00048   0.00035   0.00103   0.00138   2.13538
   A10        2.07227   0.00039   0.00058   0.00021   0.00079   2.07305
   A11        2.05101   0.00145   0.00020   0.00313   0.00333   2.05434
   A12        2.06260   0.00183   0.00290   0.00020   0.00310   2.06571
   A13        2.16958  -0.00328  -0.00310  -0.00333  -0.00644   2.16314
   A14        2.14589   0.00102   0.00053   0.00139   0.00192   2.14781
   A15        2.05730   0.00336   0.00291   0.00460   0.00752   2.06481
   A16        2.08000  -0.00438  -0.00344  -0.00599  -0.00943   2.07056
   A17        2.14742  -0.00256  -0.00162  -0.00443  -0.00605   2.14137
   A18        2.01173   0.00105   0.00184  -0.00045   0.00140   2.01312
   A19        2.12404   0.00151  -0.00022   0.00487   0.00465   2.12869
   A20        1.86074  -0.00076  -0.00025  -0.00304  -0.00329   1.85745
   A21        1.88308  -0.00170  -0.00404  -0.00025  -0.00430   1.87878
    D1       -0.00001   0.00000   0.00000   0.00001   0.00002   0.00001
    D2        3.14159   0.00000   0.00000   0.00000   0.00000  -3.14159
    D3       -0.00000  -0.00000   0.00000  -0.00000  -0.00000  -0.00000
    D4        3.14157   0.00000   0.00001   0.00003   0.00004  -3.14157
    D5        0.00001  -0.00000  -0.00000  -0.00001  -0.00001  -0.00001
    D6       -3.14159  -0.00000  -0.00000  -0.00001  -0.00001   3.14159
    D7       -3.14159  -0.00000  -0.00000  -0.00000  -0.00000   3.14159
    D8       -0.00000   0.00000   0.00000   0.00001   0.00001   0.00000
    D9        0.00000  -0.00000  -0.00000  -0.00000  -0.00000  -0.00000
   D10        3.14159   0.00000   0.00000   0.00002   0.00002  -3.14158
   D11       -3.14159  -0.00000  -0.00000  -0.00001  -0.00001   3.14159
   D12       -0.00000   0.00000   0.00000   0.00001   0.00001   0.00001
   D13       -0.00001   0.00000   0.00000   0.00001   0.00001   0.00001
   D14        3.14157   0.00000   0.00001   0.00005   0.00005  -3.14156
   D15       -3.14159  -0.00000  -0.00000  -0.00000  -0.00001   3.14159
   D16       -0.00001   0.00000   0.00000   0.00003   0.00004   0.00002
   D17        0.00001  -0.00000  -0.00000  -0.00001  -0.00001  -0.00001
   D18       -3.14157  -0.00000  -0.00001  -0.00005  -0.00005   3.14156
   D19       -3.14157  -0.00000  -0.00001  -0.00005  -0.00006   3.14156
   D20        0.00004  -0.00000  -0.00001  -0.00008  -0.00010  -0.00006
   D21       -3.14154  -0.00000  -0.00002  -0.00010  -0.00012   3.14153
   D22        0.00003  -0.00000  -0.00001  -0.00006  -0.00007  -0.00004
   D23       -3.14149  -0.00001  -0.00004  -0.00029  -0.00033   3.14137
   D24       -0.00002   0.00000   0.00000   0.00007   0.00008   0.00006
   D25        0.00009  -0.00001  -0.00003  -0.00026  -0.00029  -0.00020
   D26        3.14156   0.00000   0.00001   0.00011   0.00012  -3.14151
   D27       -3.14153  -0.00000  -0.00002  -0.00018  -0.00020   3.14145
   D28       -0.00006   0.00000   0.00002   0.00018   0.00020   0.00014
         Item               Value     Threshold  Converged?
 Maximum Force            0.004559     0.000450     NO 
 RMS     Force            0.001275     0.000300     NO 
 Maximum Displacement     0.042573     0.001800     NO 
 RMS     Displacement     0.011275     0.001200     NO 
 Predicted change in Energy=-1.041117D-04
 GradGradGradGradGradGradGradGradGradGradGradGradGradGradGradGradGradGrad

                          Input orientation:                          
 ---------------------------------------------------------------------
 Center     Atomic      Atomic             Coordinates (Angstroms)
 Number     Number       Type             X           Y           Z
 ---------------------------------------------------------------------
      1          7           0       -0.440502   -1.455444    0.000082
      2          6           0       -1.770326   -1.480873    0.000056
      3          6           0       -2.555559   -0.313348   -0.000004
      4          6           0       -1.930320    0.922590   -0.000028
      5          6           0       -0.526303    0.972610    0.000009
      6          6           0        0.175774   -0.255998    0.000060
      7          6           0        1.652098   -0.227366    0.000061
      8          8           0        2.300558    0.827501   -0.000193
      9          8           0        2.248306   -1.425555    0.000010
     10          8           0        0.070184    2.178668    0.000024
     11          1           0       -2.234230   -2.459925    0.000076
     12          1           0       -3.635816   -0.385057   -0.000026
     13          1           0       -2.484686    1.851894   -0.000064
     14          1           0        3.205454   -1.256255   -0.000115
     15          1           0        1.042923    2.030344    0.000112
 ---------------------------------------------------------------------
                    Distance matrix (angstroms):
                    1          2          3          4          5
     1  N    0.000000
     2  C    1.330067   0.000000
     3  C    2.403716   1.407021   0.000000
     4  C    2.806173   2.408782   1.385086   0.000000
     5  C    2.429569   2.750849   2.402408   1.404908   0.000000
     6  C    1.348506   2.299483   2.731935   2.413442   1.415058
     7  C    2.426345   3.644759   4.208535   3.762462   2.487041
     8  O    3.567246   4.679816   4.988326   4.231947   2.830583
     9  O    2.688974   4.019012   4.930935   4.793193   3.667377
    10  O    3.669819   4.096305   3.620036   2.362149   1.345501
    11  H    2.055831   1.083397   2.170495   3.396140   3.833968
    12  H    3.369831   2.163531   1.082635   2.149106   3.392982
    13  H    3.888081   3.408467   2.166401   1.082094   2.146719
    14  H    3.651393   4.980847   5.837666   5.578848   4.346706
    15  H    3.788307   4.499224   4.294411   3.172900   1.892425
                    6          7          8          9         10
     6  C    0.000000
     7  C    1.476602   0.000000
     8  O    2.385094   1.238242   0.000000
     9  O    2.379759   1.338328   2.253662   0.000000
    10  O    2.436954   2.879488   2.607723   4.211252   0.000000
    11  H    3.265794   4.481949   5.601023   4.600331   5.179466
    12  H    3.813774   5.290265   6.058946   5.975410   4.506342
    13  H    3.394297   4.629936   4.893663   5.756986   2.575682
    14  H    3.190529   1.863204   2.271756   0.972006   4.650658
    15  H    2.445262   2.338450   1.740252   3.660081   0.983983
                   11         12         13         14         15
    11  H    0.000000
    12  H    2.503901   0.000000
    13  H    4.319087   2.515761   0.000000
    14  H    5.571264   6.896518   6.483694   0.000000
    15  H    5.558979   5.265431   3.532120   3.934244   0.000000
 Stoichiometry    C6H5NO3
 Framework group  C1[X(C6H5NO3)]
 Deg. of freedom    39
 Full point group                 C1      NOp   1
 Largest Abelian subgroup         C1      NOp   1
 Largest concise Abelian subgroup C1      NOp   1
                         Standard orientation:                         
 ---------------------------------------------------------------------
 Center     Atomic      Atomic             Coordinates (Angstroms)
 Number     Number       Type             X           Y           Z
 ---------------------------------------------------------------------
      1          7           0       -0.440131   -1.454917    0.000079
      2          6           0       -1.769940   -1.481125    0.000053
      3          6           0       -2.555857   -0.314060   -0.000007
      4          6           0       -1.931343    0.922244   -0.000031
      5          6           0       -0.527355    0.973086    0.000006
      6          6           0        0.175441   -0.255110    0.000057
      7          6           0        1.651749   -0.225614    0.000058
      8          8           0        2.299590    0.829632   -0.000196
      9          8           0        2.248658   -1.423454    0.000007
     10          8           0        0.068425    2.179493    0.000021
     11          1           0       -2.233271   -2.460448    0.000073
     12          1           0       -3.636072   -0.386402   -0.000029
     13          1           0       -2.486252    1.851223   -0.000067
     14          1           0        3.205707   -1.253593   -0.000118
     15          1           0        1.041251    2.031739    0.000109
 ---------------------------------------------------------------------
 Rotational constants (GHZ):      2.3510755      1.2591996      0.8200132
 Standard basis: 6-31+G(d,p) (6D, 7F)
 There are   215 symmetry adapted cartesian basis functions of A   symmetry.
 There are   215 symmetry adapted basis functions of A   symmetry.
   215 basis functions,   355 primitive gaussians,   215 cartesian basis functions
    36 alpha electrons       36 beta electrons
       nuclear repulsion energy       506.5388542152 Hartrees.
 NAtoms=   15 NActive=   15 NUniq=   15 SFac= 1.00D+00 NAtFMM=   60 NAOKFM=F Big=F
 Integral buffers will be    131072 words long.
 Regular integral format.
 Two-electron integral symmetry is turned on.
 Nuclear repulsion after empirical dispersion term =      506.5226404533 Hartrees.
 One-electron integrals computed using PRISM.
 NBasis=   215 RedAO= T EigKep=  5.81D-06  NBF=   215
 NBsUse=   215 1.00D-06 EigRej= -1.00D+00 NBFU=   215
 Initial guess from the checkpoint file:  "B2PLYPD3BJ3HPA.chk"
 B after Tr=    -0.000000   -0.000000   -0.000000
         Rot=    0.999996    0.000009   -0.000005    0.002849 Ang=   0.33 deg.
 ExpMin= 4.38D-02 ExpMax= 5.48D+03 ExpMxC= 8.25D+02 IAcc=2 IRadAn=         4 AccDes= 0.00D+00
 Harris functional with IExCor=  419 and IRadAn=       4 diagonalized for initial guess.
 HarFok:  IExCor=  419 AccDes= 0.00D+00 IRadAn=         4 IDoV= 1 UseB2=F ITyADJ=14
 ICtDFT=  3500011 ScaDFX=  1.000000  1.000000  1.000000  1.000000
 FoFCou: FMM=F IPFlag=           0 FMFlag=      100000 FMFlg1=           0
         NFxFlg=           0 DoJE=T BraDBF=F KetDBF=T FulRan=T
         wScrn=  0.000000 ICntrl=     500 IOpCl=  0 I1Cent=   200000004 NGrid=           0
         NMat0=    1 NMatS0=      1 NMatT0=    0 NMatD0=    1 NMtDS0=    0 NMtDT0=    0
 Petite list used in FoFCou.
 Keep R1 ints in memory in canonical form, NReq=274797245.
 Requested convergence on RMS density matrix=1.00D-08 within 128 cycles.
 Requested convergence on MAX density matrix=1.00D-06.
 Requested convergence on             energy=1.00D-06.
 No special actions if energy rises.
 SCF Done:  E(RB2PLYP) =  -511.160089792     A.U. after   12 cycles
            NFock= 12  Conv=0.53D-08     -V/T= 2.0069
 DoSCS=T DFT=T ScalE2(SS,OS)=  0.270000  0.270000
 ExpMin= 4.38D-02 ExpMax= 5.48D+03 ExpMxC= 8.25D+02 IAcc=3 IRadAn=         5 AccDes= 0.00D+00
 HarFok:  IExCor=  205 AccDes= 0.00D+00 IRadAn=         5 IDoV=-2 UseB2=F ITyADJ=14
 ICtDFT= 12500011 ScaDFX=  1.000000  1.000000  1.000000  1.000000
 Range of M.O.s used for correlation:    11   215
 NBasis=   215 NAE=    36 NBE=    36 NFC=    10 NFV=     0
 NROrb=    205 NOA=    26 NOB=    26 NVA=   179 NVB=   179

 **** Warning!!: The largest alpha MO coefficient is  0.10561536D+03

 DoSCS=T DFT=T ScalE2(SS,OS)=  0.270000  0.270000
 Fully direct method using O(ONN) memory.
 JobTyp=1 Pass  1:  I=  11 to  19 NPSUse= 18 ParTrn=T ParDer=T DoDerP=T.
 JobTyp=1 Pass  2:  I=  20 to  28 NPSUse= 18 ParTrn=T ParDer=T DoDerP=T.
 JobTyp=1 Pass  3:  I=  29 to  36 NPSUse= 18 ParTrn=T ParDer=T DoDerP=T.
 Spin components of T(2) and E(2):
     alpha-alpha T2 =       0.1125261750D+00 E2=     -0.6946121688D-01
     alpha-beta  T2 =       0.5627191817D+00 E2=     -0.3610851861D+00
     beta-beta   T2 =       0.1125261750D+00 E2=     -0.6946121688D-01
 E2(B2PLYP) =    -0.5000076198D+00 E(B2PLYP) =    -0.51166009741212D+03
          IDoAtm=111111111111111
          Differentiating once with respect to electric field.
                with respect to dipole field.
          Differentiating once with respect to nuclear coordinates.
 Keep R1 ints in memory in canonical form, NReq=274636562.
          There are     1 degrees of freedom in the 1st order CPHF.  IDoFFX=0 NUNeed=     1.
 LinEq1:  Iter=  0 NonCon=     1 RMS=2.16D-03 Max=4.85D-02 NDo=     1
 AX will form     1 AO Fock derivatives at one time.
 LinEq1:  Iter=  1 NonCon=     1 RMS=9.40D-04 Max=1.79D-02 NDo=     1
 LinEq1:  Iter=  2 NonCon=     1 RMS=3.32D-04 Max=5.48D-03 NDo=     1
 LinEq1:  Iter=  3 NonCon=     1 RMS=2.48D-04 Max=6.98D-03 NDo=     1
 LinEq1:  Iter=  4 NonCon=     1 RMS=1.11D-04 Max=3.00D-03 NDo=     1
 LinEq1:  Iter=  5 NonCon=     1 RMS=4.91D-05 Max=1.02D-03 NDo=     1
 LinEq1:  Iter=  6 NonCon=     1 RMS=2.93D-05 Max=1.08D-03 NDo=     1
 LinEq1:  Iter=  7 NonCon=     1 RMS=1.46D-05 Max=6.12D-04 NDo=     1
 LinEq1:  Iter=  8 NonCon=     1 RMS=5.86D-06 Max=1.24D-04 NDo=     1
 LinEq1:  Iter=  9 NonCon=     1 RMS=3.51D-06 Max=1.08D-04 NDo=     1
 LinEq1:  Iter= 10 NonCon=     1 RMS=8.90D-07 Max=1.81D-05 NDo=     1
 LinEq1:  Iter= 11 NonCon=     1 RMS=4.90D-07 Max=1.01D-05 NDo=     1
 LinEq1:  Iter= 12 NonCon=     1 RMS=1.90D-07 Max=4.04D-06 NDo=     1
 LinEq1:  Iter= 13 NonCon=     1 RMS=9.11D-08 Max=1.99D-06 NDo=     1
 LinEq1:  Iter= 14 NonCon=     1 RMS=4.66D-08 Max=1.12D-06 NDo=     1
 LinEq1:  Iter= 15 NonCon=     1 RMS=2.08D-08 Max=6.56D-07 NDo=     1
 LinEq1:  Iter= 16 NonCon=     1 RMS=8.96D-09 Max=2.30D-07 NDo=     1
 LinEq1:  Iter= 17 NonCon=     1 RMS=2.64D-09 Max=4.90D-08 NDo=     1
 LinEq1:  Iter= 18 NonCon=     1 RMS=1.30D-09 Max=3.40D-08 NDo=     1
 LinEq1:  Iter= 19 NonCon=     1 RMS=3.99D-10 Max=5.30D-09 NDo=     1
 LinEq1:  Iter= 20 NonCon=     1 RMS=1.20D-10 Max=1.50D-09 NDo=     1
 LinEq1:  Iter= 21 NonCon=     0 RMS=5.24D-11 Max=5.65D-10 NDo=     1
 Linear equations converged to 1.000D-10 1.000D-09 after    21 iterations.
 End of Minotr F.D. properties file   721 does not exist.
 End of Minotr F.D. properties file   722 does not exist.
 End of Minotr F.D. properties file   788 does not exist.
 Calling FoFJK, ICntrl=  10002127 FMM=F ISym2X=0 I1Cent= 0 IOpClX= 0 NMat=1 NMatS=1 NMatT=0.
 ***** Axes restored to original set *****
 -------------------------------------------------------------------
 Center     Atomic                   Forces (Hartrees/Bohr)
 Number     Number              X              Y              Z
 -------------------------------------------------------------------
      1        7          -0.000310068    0.000209043    0.000002773
      2        6           0.000723700    0.001383192   -0.000001769
      3        6           0.001213245    0.000062526   -0.000000133
      4        6           0.000407128   -0.000370553   -0.000000634
      5        6           0.000025454   -0.000190914    0.000004281
      6        6          -0.000132241    0.000073950    0.000008303
      7        6           0.000145026    0.000962477   -0.000037990
      8        8           0.000151481   -0.002562312    0.000018360
      9        8           0.000159051    0.001031579    0.000010866
     10        8          -0.001690777    0.000150189    0.000002354
     11        1          -0.000063481   -0.000536808   -0.000000012
     12        1          -0.000486447   -0.000034049    0.000000109
     13        1          -0.000270002    0.000353559   -0.000000138
     14        1          -0.000084012   -0.000017353   -0.000000060
     15        1           0.000211942   -0.000514526   -0.000006310
 -------------------------------------------------------------------
 Cartesian Forces:  Max     0.002562312 RMS     0.000614080

 GradGradGradGradGradGradGradGradGradGradGradGradGradGradGradGradGradGrad
 Berny optimization.
 Using GEDIIS/GDIIS optimizer.
 FormGI is forming the generalized inverse of G from B-inverse, IUseBI=4.
 Internal  Forces:  Max     0.002160586 RMS     0.000650289
 Search for a local minimum.
 Step number   3 out of a maximum of   74
 All quantities printed in internal units (Hartrees-Bohrs-Radians)
 Mixed Optimization -- En-DIIS/RFO-DIIS
 Update second derivatives using D2CorX and points    1    2    3
 DE= -6.67D-05 DEPred=-1.04D-04 R= 6.41D-01
 TightC=F SS=  1.41D+00  RLast= 2.19D-02 DXNew= 5.0454D-01 6.5738D-02
 Trust test= 6.41D-01 RLast= 2.19D-02 DXMaxT set to 3.00D-01
 ITU=  1  1  0
 Use linear search instead of GDIIS.
     Eigenvalues ---    0.01098   0.01593   0.01741   0.01974   0.02095
     Eigenvalues ---    0.02130   0.02170   0.02199   0.02264   0.02471
     Eigenvalues ---    0.02543   0.02599   0.15639   0.16000   0.16000
     Eigenvalues ---    0.16010   0.16410   0.21628   0.22154   0.24882
     Eigenvalues ---    0.24967   0.25000   0.25608   0.32356   0.35105
     Eigenvalues ---    0.35235   0.35323   0.36313   0.42650   0.43407
     Eigenvalues ---    0.47129   0.47656   0.53200   0.55171   0.56144
     Eigenvalues ---    0.58932   0.59518   0.69257   0.95228
 RFO step:  Lambda=-2.29672290D-05 EMin= 1.09802899D-02
 Quartic linear search produced a step of -0.26891.
 Iteration  1 RMS(Cart)=  0.00322832 RMS(Int)=  0.00000521
 Iteration  2 RMS(Cart)=  0.00000598 RMS(Int)=  0.00000018
 Iteration  3 RMS(Cart)=  0.00000000 RMS(Int)=  0.00000018
 Variable       Old X    -DE/DX   Delta X   Delta X   Delta X     New X
                                 (Linear)    (Quad)   (Total)
    R1        2.51346  -0.00096  -0.00096  -0.00001  -0.00098   2.51248
    R2        2.54831  -0.00068  -0.00068  -0.00015  -0.00083   2.54747
    R3        2.65888  -0.00068  -0.00019  -0.00087  -0.00106   2.65783
    R4        2.04732   0.00051   0.00045   0.00052   0.00097   2.04829
    R5        2.61743  -0.00078  -0.00039  -0.00065  -0.00104   2.61639
    R6        2.04588   0.00049   0.00035   0.00060   0.00094   2.04683
    R7        2.65489  -0.00059   0.00040  -0.00153  -0.00113   2.65376
    R8        2.04486   0.00044   0.00030   0.00056   0.00086   2.04573
    R9        2.67407   0.00051   0.00178  -0.00209  -0.00031   2.67376
   R10        2.54263  -0.00098  -0.00143   0.00048  -0.00096   2.54167
   R11        2.79037   0.00036   0.00045  -0.00022   0.00023   2.79060
   R12        2.33994  -0.00210  -0.00027  -0.00148  -0.00175   2.33818
   R13        2.52907  -0.00087  -0.00104   0.00019  -0.00085   2.52823
   R14        1.83683  -0.00009  -0.00012  -0.00001  -0.00013   1.83669
   R15        1.85946   0.00029   0.00138  -0.00153  -0.00015   1.85931
    A1        2.06454   0.00014   0.00114  -0.00155  -0.00041   2.06414
    A2        2.14375   0.00032  -0.00039   0.00134   0.00095   2.14470
    A3        2.03241  -0.00034   0.00053  -0.00192  -0.00140   2.03101
    A4        2.10703   0.00002  -0.00014   0.00059   0.00045   2.10747
    A5        2.08118   0.00003   0.00007  -0.00017  -0.00010   2.08108
    A6        2.09658  -0.00001  -0.00013   0.00024   0.00011   2.09669
    A7        2.10542  -0.00001   0.00006  -0.00007  -0.00001   2.10541
    A8        2.07475  -0.00016   0.00058  -0.00143  -0.00085   2.07390
    A9        2.13538   0.00003  -0.00037   0.00062   0.00025   2.13563
   A10        2.07305   0.00013  -0.00021   0.00081   0.00060   2.07366
   A11        2.05434   0.00020  -0.00090   0.00217   0.00127   2.05562
   A12        2.06571  -0.00114  -0.00083  -0.00135  -0.00219   2.06352
   A13        2.16314   0.00094   0.00173  -0.00082   0.00091   2.16405
   A14        2.14781  -0.00053  -0.00052  -0.00035  -0.00087   2.14694
   A15        2.06481  -0.00163  -0.00202  -0.00076  -0.00278   2.06203
   A16        2.07056   0.00216   0.00254   0.00112   0.00365   2.07421
   A17        2.14137   0.00186   0.00163   0.00208   0.00371   2.14508
   A18        2.01312  -0.00028  -0.00038   0.00013  -0.00024   2.01288
   A19        2.12869  -0.00158  -0.00125  -0.00221  -0.00347   2.12523
   A20        1.85745   0.00001   0.00089  -0.00142  -0.00054   1.85691
   A21        1.87878  -0.00089   0.00116  -0.00598  -0.00482   1.87396
    D1        0.00001  -0.00000  -0.00000  -0.00002  -0.00002  -0.00001
    D2       -3.14159  -0.00000  -0.00000  -0.00001  -0.00001   3.14159
    D3       -0.00000   0.00000   0.00000   0.00001   0.00001   0.00001
    D4       -3.14157  -0.00000  -0.00001  -0.00002  -0.00003   3.14158
    D5       -0.00001   0.00000   0.00000   0.00001   0.00002   0.00001
    D6        3.14159   0.00000   0.00000   0.00001   0.00001  -3.14159
    D7        3.14159   0.00000   0.00000   0.00000   0.00000  -3.14159
    D8        0.00000  -0.00000  -0.00000  -0.00000  -0.00001  -0.00000
    D9       -0.00000   0.00000   0.00000   0.00000   0.00000   0.00000
   D10       -3.14158  -0.00000  -0.00000  -0.00001  -0.00002   3.14158
   D11        3.14159   0.00000   0.00000   0.00001   0.00001  -3.14159
   D12        0.00001  -0.00000  -0.00000  -0.00001  -0.00001  -0.00001
   D13        0.00001  -0.00000  -0.00000  -0.00001  -0.00001  -0.00001
   D14       -3.14156  -0.00000  -0.00001  -0.00005  -0.00006   3.14156
   D15        3.14159   0.00000   0.00000   0.00001   0.00001  -3.14159
   D16        0.00002  -0.00000  -0.00001  -0.00003  -0.00004  -0.00002
   D17       -0.00001   0.00000   0.00000   0.00000   0.00001   0.00000
   D18        3.14156   0.00000   0.00001   0.00004   0.00005  -3.14157
   D19        3.14156   0.00000   0.00001   0.00004   0.00006  -3.14157
   D20       -0.00006   0.00000   0.00003   0.00008   0.00010   0.00004
   D21        3.14153   0.00001   0.00003   0.00011   0.00014  -3.14152
   D22       -0.00004   0.00000   0.00002   0.00007   0.00009   0.00005
   D23        3.14137   0.00001   0.00009   0.00034   0.00043  -3.14139
   D24        0.00006  -0.00001  -0.00002  -0.00019  -0.00021  -0.00015
   D25       -0.00020   0.00001   0.00008   0.00031   0.00039   0.00018
   D26       -3.14151  -0.00001  -0.00003  -0.00022  -0.00025   3.14143
   D27        3.14145   0.00001   0.00005   0.00026   0.00031  -3.14142
   D28        0.00014  -0.00001  -0.00005  -0.00026  -0.00032  -0.00017
         Item               Value     Threshold  Converged?
 Maximum Force            0.002161     0.000450     NO 
 RMS     Force            0.000650     0.000300     NO 
 Maximum Displacement     0.011993     0.001800     NO 
 RMS     Displacement     0.003228     0.001200     NO 
 Predicted change in Energy=-2.250995D-05
 GradGradGradGradGradGradGradGradGradGradGradGradGradGradGradGradGradGrad

                          Input orientation:                          
 ---------------------------------------------------------------------
 Center     Atomic      Atomic             Coordinates (Angstroms)
 Number     Number       Type             X           Y           Z
 ---------------------------------------------------------------------
      1          7           0       -0.438737   -1.453158   -0.000063
      2          6           0       -1.768034   -1.479064   -0.000006
      3          6           0       -2.554488   -0.313036    0.000060
      4          6           0       -1.931002    0.923167    0.000055
      5          6           0       -0.527602    0.973683   -0.000015
      6          6           0        0.176411   -0.253629   -0.000072
      7          6           0        1.652912   -0.227965   -0.000121
      8          8           0        2.306904    0.822387    0.000077
      9          8           0        2.246217   -1.427095    0.000027
     10          8           0        0.065578    2.180806   -0.000052
     11          1           0       -2.230431   -2.459396   -0.000004
     12          1           0       -3.635156   -0.386083    0.000110
     13          1           0       -2.486503    1.852327    0.000095
     14          1           0        3.203587   -1.259450    0.000135
     15          1           0        1.037899    2.030288   -0.000167
 ---------------------------------------------------------------------
                    Distance matrix (angstroms):
                    1          2          3          4          5
     1  N    0.000000
     2  C    1.329550   0.000000
     3  C    2.403390   1.406461   0.000000
     4  C    2.806025   2.407753   1.384533   0.000000
     5  C    2.428467   2.748570   2.400815   1.404309   0.000000
     6  C    1.348064   2.298382   2.731546   2.413719   1.414895
[...]
 ! R14   R(9,14)                 0.9719         -DE/DX =    0.0                 !
 ! R15   R(10,15)                0.9842         -DE/DX =    0.0                 !
 ! A1    A(2,1,6)              118.2722         -DE/DX =    0.0                 !
 ! A2    A(1,2,3)              122.8808         -DE/DX =    0.0                 !
 ! A3    A(1,2,11)             116.3637         -DE/DX =    0.0                 !
 ! A4    A(3,2,11)             120.7555         -DE/DX =    0.0                 !
 ! A5    A(2,3,4)              119.2425         -DE/DX =    0.0                 !
 ! A6    A(2,3,12)             120.1109         -DE/DX =    0.0                 !
 ! A7    A(4,3,12)             120.6466         -DE/DX =    0.0                 !
 ! A8    A(3,4,5)              118.8147         -DE/DX =    0.0                 !
 ! A9    A(3,4,13)             122.3713         -DE/DX =    0.0                 !
 ! A10   A(5,4,13)             118.814          -DE/DX =    0.0                 !
 ! A11   A(4,5,6)              117.7822         -DE/DX =    0.0                 !
 ! A12   A(4,5,10)             118.2343         -DE/DX =    0.0                 !
 ! A13   A(6,5,10)             123.9835         -DE/DX =    0.0                 !
 ! A14   A(1,6,5)              123.0075         -DE/DX =    0.0                 !
 ! A15   A(1,6,7)              118.145          -DE/DX =    0.0                 !
 ! A16   A(5,6,7)              118.8475         -DE/DX =    0.0                 !
 ! A17   A(6,7,8)              122.8883         -DE/DX =    0.0                 !
 ! A18   A(6,7,9)              115.3325         -DE/DX =    0.0                 !
 ! A19   A(8,7,9)              121.7791         -DE/DX =    0.0                 !
 ! A20   A(7,9,14)             106.3817         -DE/DX =    0.0                 !
 ! A21   A(5,10,15)            107.5107         -DE/DX =    0.0                 !
 ! D1    D(6,1,2,3)             -0.0036         -DE/DX =    0.0                 !
 ! D2    D(6,1,2,11)          -180.0013         -DE/DX =    0.0                 !
 ! D3    D(2,1,6,5)              0.0024         -DE/DX =    0.0                 !
 ! D4    D(2,1,6,7)           -180.0031         -DE/DX =    0.0                 !
 ! D5    D(1,2,3,4)              0.0023         -DE/DX =    0.0                 !
 ! D6    D(1,2,3,12)          -179.9984         -DE/DX =    0.0                 !
 ! D7    D(11,2,3,4)           180.0            -DE/DX =    0.0                 !
 ! D8    D(11,2,3,12)           -0.0007         -DE/DX =    0.0                 !
 ! D9    D(2,3,4,5)              0.0002         -DE/DX =    0.0                 !
 ! D10   D(2,3,4,13)          -180.0024         -DE/DX =    0.0                 !
 ! D11   D(12,3,4,5)           180.0009         -DE/DX =    0.0                 !
 ! D12   D(12,3,4,13)           -0.0017         -DE/DX =    0.0                 !
 ! D13   D(3,4,5,6)             -0.0013         -DE/DX =    0.0                 !
 ! D14   D(3,4,5,10)          -180.0081         -DE/DX =    0.0                 !
 ! D15   D(13,4,5,6)           180.0012         -DE/DX =    0.0                 !
 ! D16   D(13,4,5,10)           -0.0055         -DE/DX =    0.0                 !
 ! D17   D(4,5,6,1)              0.0001         -DE/DX =    0.0                 !
 ! D18   D(4,5,6,7)            180.0056         -DE/DX =    0.0                 !
 ! D19   D(10,5,6,1)           180.0072         -DE/DX =    0.0                 !
 ! D20   D(10,5,6,7)             0.0127         -DE/DX =    0.0                 !
 ! D21   D(4,5,10,15)          180.0178         -DE/DX =    0.0                 !
 ! D22   D(6,5,10,15)            0.0106         -DE/DX =    0.0                 !
 ! D23   D(1,6,7,8)           -179.9241         -DE/DX =   -0.0001              !
 ! D24   D(1,6,7,9)             -0.041          -DE/DX =    0.0001              !
 ! D25   D(5,6,7,8)              0.0707         -DE/DX =   -0.0001              !
 ! D26   D(5,6,7,9)           -180.0463         -DE/DX =    0.0001              !
 ! D27   D(6,7,9,14)           180.0577         -DE/DX =   -0.0001              !
 ! D28   D(8,7,9,14)            -0.0578         -DE/DX =    0.0001              !
 --------------------------------------------------------------------------------
 GradGradGradGradGradGradGradGradGradGradGradGradGradGradGradGradGradGrad

 1\1\ WCSS.PL-BEM-QINLAB\Freq\RB2PLYP-FC\6-31+G(d,p)\C6H5N1O3\PHZD\18-D
 ec-2024\0\\#N Geom=AllCheck Guess=TCheck SCRF=Check GenChk RB2PLYP(FC)
 /6-31+G(d,p) Freq\\[No Title]\\0,1\N,-0.4388860413,-1.4530701666,-0.00
 04025295\C,-1.7679025766,-1.4790040055,-0.0001388837\C,-2.5542302414,-
 0.3131675062,0.0002087001\C,-1.9308846642,0.9230558617,0.0002340474\C,
 -0.5275318612,0.9734340234,-0.0000937732\C,0.1763178063,-0.2536622608,
 -0.0004060257\C,1.6526148033,-0.2281350457,-0.0006283819\O,2.306121432
 4,0.8218623801,0.0007271801\O,2.2458368723,-1.4272098167,0.0000576904\
 O,0.0659351603,2.1806693238,-0.0002319523\H,-2.2303266834,-2.459670080
 1,-0.000166768\H,-3.6351037268,-0.3866230946,0.0004412374\H,-2.4864129
 393,1.8523826916,0.0004556673\H,3.203105274,-1.2594253638,0.0007558755
 \H,1.0389033856,2.0323470593,-0.0007510838\\Version=ES64L-G09RevE.01\S
 tate=1-A\HF=-511.1602788\MP2=-511.6601195\RMSD=2.888e-09\RMSF=5.040e-0
 5\ZeroPoint=0.1087457\Thermal=0.1165352\Dipole=-0.5085712,-0.1650311,-
 0.0004523\DipoleDeriv=0.0571293,-0.0575947,-0.0000422,0.4053227,-0.400
 6046,-0.0000641,0.0002001,-0.0000465,-0.2434815,-0.275749,0.0839072,-0
 .0000111,0.2643437,0.2780307,0.0000119,0.0000753,-0.0000051,-0.027009,
 0.1553153,0.0635681,-0.0000418,-0.3219173,0.046491,0.0000207,-0.000087
 9,0.0000106,-0.079648,0.0602185,-0.387678,-0.0000293,0.0167161,-0.0030
 373,0.0000427,-0.0001222,0.0001289,-0.142447,0.2176894,0.6519467,-0.00
 00783,0.4395726,1.1061563,-0.0001844,0.0002295,-0.0001606,0.15895,-0.5
 664763,0.258755,0.0000094,-0.4067302,-0.1237794,0.0000413,0.0001245,-0
 .0000797,0.033582,2.084778,-0.289998,0.00006,-0.2368338,1.6260058,0.00
 01509,0.0004699,0.0000861,0.3079648,-1.1118799,-0.2389753,-0.0000259,-
 0.1926944,-0.9829221,0.0000989,-0.0006369,-0.0005177,-0.3645724,-0.838
 0666,0.5794731,0.0000544,0.5951562,-1.0223792,-0.000076,-0.0003545,0.0
 006294,-0.3473619,-0.6384344,-0.4866259,0.0000169,-0.340189,-1.2199328
 ,0.0001921,-0.0000285,0.0002339,-0.3484801,0.0074198,-0.0578685,0.0000
 052,-0.083909,-0.0529677,-0.0000057,-0.0000163,0.0000115,0.1197182,-0.
 0761908,-0.0151604,0.0000414,-0.0157972,0.0852261,-0.0000039,0.0000658
 ,-0.000009,0.1342423,0.0581167,0.0360399,0.0000208,0.0512932,0.000434,
 -0.0000263,0.0000092,-0.0000232,0.1451175,0.3314903,-0.0970071,-0.0000
 289,-0.1285858,0.2804905,-0.000058,-0.0000776,-0.0000447,0.3454149,0.5
 346395,-0.0427821,0.0000494,-0.0457477,0.3827886,-0.0001401,0.0001496,
 -0.000214,0.3080102\Polar=117.6100834,3.4118108,97.5623431,-0.0019212,
 0.0051765,46.8398742\PG=C01 [X(C6H5N1O3)]\NImag=0\\0.63360568,0.113189
 01,0.44582778,-0.00010263,0.00002555,0.08905328,-0.37502032,0.00062526
 ,0.00006622,0.69880804,-0.01817195,-0.11814075,-0.00000857,0.05842614,
 0.74803333,0.00006129,-0.00001659,-0.05852045,-0.00011152,0.00006824,0
 .13731453,-0.05344414,0.02322610,0.00002234,-0.17841874,0.11055501,0.0
 0004047,0.76173946,0.08223736,0.04032162,-0.00001627,0.04512545,-0.266
 34323,-0.00003696,0.03177721,0.68443488,0.00002478,-0.00000804,0.01899
 481,0.00003639,-0.00005376,-0.05950162,-0.00013930,0.00007228,0.121390
 21,-0.04906205,-0.02951750,0.00000738,0.06533136,-0.01227163,-0.000017
 65,-0.18410417,-0.07194723,0.00001838,0.69077772,-0.03195684,-0.014097
 50,0.00000660,0.02402877,-0.05515405,-0.00001316,-0.12838740,-0.334289
 62,-0.00001126,-0.01478291,0.78575701,0.00000645,0.00000568,-0.0023897
 4,-0.00001144,-0.00000427,0.00181167,0.00001183,-0.00002245,-0.0452591
 3,-0.00013474,0.00008142,0.11273229,0.07136185,0.02382417,-0.00001360,
 -0.05594749,0.02381006,0.00001693,-0.01390941,-0.07548475,-0.00000706,
 -0.32095197,0.04691197,0.00006785,0.72222240,-0.02359600,-0.06437999,0
 .00000607,0.03034663,-0.00698210,-0.00000911,-0.03988006,0.02371023,0.
 00001230,-0.01165310,-0.12251128,-0.00000589,0.02827840,0.69441692,-0.
 00002302,-0.00001437,0.00806881,0.00001933,-0.00000927,-0.00396310,-0.
 00000203,0.00002474,-0.00952093,0.00006320,-0.00001798,-0.05422926,-0.
 00016834,0.00003336,0.13841155,-0.14133160,-0.07748157,0.00002068,-0.0
 6583143,-0.03920742,0.00001633,0.00122046,-0.01765608,-0.00000272,-0.0
 1291167,0.02889151,0.00000951,-0.19509763,0.08858013,0.00006068,0.6581
 0594,-0.08101074,-0.28523640,-0.00001346,-0.07492952,0.00357196,0.0000
 2244,0.01524886,-0.05572844,-0.00000596,0.05538484,0.03238737,-0.00001
 067,0.04387946,-0.22782938,-0.00002853,0.01459445,0.68794285,0.0000261
 0,-0.00001028,-0.05179719,0.00000210,0.00001558,0.00211614,-0.00000022
 ,-0.00000371,-0.00366281,0.00001001,-0.00000936,0.00117676,0.00005307,
 -0.00004305,-0.05081986,-0.00007743,0.00006189,0.11654931,-0.04068350,
 -0.03216448,0.00000099,0.02279444,-0.00756820,-0.00001152,-0.00053802,
 0.01473443,0.00000204,-0.00971837,-0.00188609,-0.00000274,-0.00410225,
 0.03816622,-0.00000381,-0.20768378,0.01526827,0.00007076,0.72712214,-0
 .03555178,-0.00384137,0.00001450,-0.00622757,-0.00655582,-0.00000113,0
 .00016317,-0.00208241,-0.00000133,0.00248654,-0.00678184,-0.00000428,0
 .03750521,0.02373168,-0.00001323,0.02589087,-0.09484153,0.00000831,0.1
 0466096,0.83696482,0.00000421,0.00001186,-0.01498750,0.00000332,-0.000
 00108,0.01202222,-0.00000308,0.00000099,0.00012267,0.00000333,-0.00000
 446,0.00724372,0.00000771,0.00002249,-0.00365357,-0.00002119,-0.000009
 47,-0.06533198,0.00042508,0.00033245,0.19604598,-0.00566575,0.00377417
 ,-0.00000648,-0.00532754,-0.00010362,0.00000584,0.00005766,-0.00343111
 ,-0.00000098,0.00193563,-0.00021487,-0.00000024,0.00049141,-0.00288496
 ,-0.00000621,-0.02383558,-0.04328817,-0.00005364,-0.27639093,-0.234537
 23,-0.00031676,0.29478379,0.00274555,0.00627832,-0.00000403,-0.0062233
 4,0.00341198,0.00000531,0.00034080,-0.00576484,-0.00000095,0.00563954,
 0.00375846,0.00000018,-0.01064783,-0.02731323,0.00000952,-0.03388398,-
 0.00677201,-0.00003623,-0.22201822,-0.46237672,-0.00043268,0.26779702,
 0.57124986,-0.00001222,-0.00000261,0.00597131,-0.00000070,-0.00000131,
 -0.00242426,0.00000100,0.00000036,0.00014413,-0.00000353,-0.00000059,-
 0.00100527,0.00000152,-0.00001039,0.00144643,0.00000028,-0.00002863,0.
 01583734,-0.00036291,-0.00047783,-0.07148513,0.00036894,0.00053650,0.0
 3467601,-0.00016807,0.00359714,-0.00000023,-0.00292423,0.00240980,0.00
 000083,-0.00030125,-0.00201938,-0.00000064,0.00054207,0.00268579,0.000
 00232,-0.00831516,-0.00947171,0.00000208,-0.03018423,0.04273933,-0.000
 02443,-0.17388615,0.10267018,-0.00009016,0.03619218,-0.01162390,0.0000
 0947,0.65379910,-0.00478349,-0.00123347,-0.00000425,0.00451817,-0.0005
 4989,-0.00000148,-0.00044709,0.00215286,0.00000052,-0.00063872,0.00052
 580,0.00000015,-0.00277933,-0.00137910,-0.00000032,0.01471184,-0.00403
 678,0.00001588,0.06324382,-0.26218943,0.00005239,0.00887867,-0.1029236
 0,-0.00001438,-0.02145731,0.42520523,-0.00000075,-0.00000348,0.0027395
 5,-0.00000388,0.00000157,-0.00160927,0.00000038,-0.00000229,-0.0001547
 6,0.00000083,0.00000206,-0.00083595,-0.00000257,-0.00000509,0.00217586
 ,0.00000264,0.00001764,0.00905985,-0.00008617,0.00012617,-0.06181652,0
 .00000456,-0.00006395,0.02669957,0.00043217,-0.00000917,0.03828987,-0.
 01279593,-0.00343256,0.00000083,0.01030352,-0.00814650,-0.00000390,-0.
 00623262,0.01605121,0.00000497,-0.03871328,-0.06213481,0.00001095,-0.1
 5096713,-0.10751022,0.00003321,0.02888933,0.00947038,-0.00000570,-0.03
 020023,-0.02158793,-0.00001867,-0.01130721,0.03942951,-0.00000060,0.00
 342154,0.00787050,0.00000087,0.61314128,-0.00004211,-0.00603193,-0.000
 00513,0.00356842,-0.00547862,-0.00000085,0.00382918,0.00626116,0.00000
 097,-0.02309269,-0.00745774,0.00001057,-0.06966264,-0.29924865,-0.0000
 0518,-0.00851835,-0.04361417,0.00000227,-0.02020894,-0.00550754,-0.000
 00902,0.01491364,0.00693050,0.00001235,0.00324548,-0.00074696,0.000003
 25,0.05070927,0.41706939,0.00000812,-0.00000089,0.00829762,-0.00000460
 ,0.00000225,-0.00113453,0.00000477,-0.00000579,0.00657134,0.00001262,0
 .00002090,0.00443937,0.00004047,0.00001811,-0.04103233,-0.00001514,-0.
 00000171,0.00379030,0.00000983,0.00000452,0.00071665,-0.00000489,-0.00
 000502,0.00393990,-0.00000213,0.00000319,-0.00107330,-0.00026393,0.000
 01596,0.03609966,-0.02619082,-0.03243141,-0.00000011,-0.09816714,-0.10
 169816,-0.00000104,0.01118658,0.01784647,0.00000096,-0.00227909,0.0031
 1762,0.00000202,-0.00111755,0.00030926,0.00000051,-0.00424713,-0.00078
 565,0.00000421,0.00079759,-0.00126439,0.00000088,-0.00085451,-0.000217
 95,-0.00000107,-0.00028714,0.00021678,-0.00000027,0.00035975,-0.000442
 77,-0.00000028,0.11982698,-0.00417350,0.00587103,0.00000317,-0.1037780
 7,-0.30144096,-0.00001194,-0.01300655,-0.01699026,0.00000044,0.0039214
 1,-0.00267375,-0.00000210,0.00110920,0.00021604,-0.00000033,0.00160507
 ,0.00278845,-0.00000184,0.00020340,0.00015002,-0.00000017,-0.00008837,
 0.00001901,0.00000006,-0.00018992,0.00003800,-0.00000011,-0.00019229,0
 .00007602,0.00000035,0.11502581,0.31235194,0.00000190,0.00001048,-0.00
 724305,-0.00000020,-0.00001173,-0.03652508,-0.00000332,-0.00000856,0.0
 0340904,0.00000372,-0.00000158,0.00620300,0.00000023,-0.00000140,0.000
 77011,0.00000228,-0.00000106,0.01097717,0.00000030,0.00000044,0.000961
 89,0.00000102,-0.00000001,-0.00050488,-0.00000013,0.00000007,0.0000519
 5,0.00000034,0.00000079,-0.00162951,-0.00000491,0.00001213,0.02590989,
 -0.00157147,0.00365143,0.00000247,-0.01120468,-0.00678210,0.00000149,-
 0.34972022,-0.01871825,0.00006716,-0.00851194,0.00195339,0.00000259,0.
 00161571,-0.00161003,0.00000166,0.00158428,0.00057407,-0.00000024,-0.0
 0004323,0.00005310,-0.00000024,-0.00016289,-0.00000050,-0.00000019,-0.
 00015416,0.00003217,-0.00000004,-0.00092939,-0.00012256,0.00000040,0.0
 0047332,0.00027316,-0.00000060,0.36758292,0.00518430,-0.00412270,-0.00
 000301,0.02598391,0.00974958,-0.00000389,-0.01804928,-0.06251656,-0.00
 000004,-0.02989369,0.00320756,0.00000596,-0.00130483,-0.00485513,-0.00
 000144,-0.00124745,-0.00227048,0.,0.00048190,-0.00020393,0.,-0.0000423
 7,0.00018028,0.00000016,-0.00007002,0.00021975,-0.00000004,-0.00192612
 ,0.00029384,0.00000079,-0.00073347,0.00048573,0.00000063,0.02103645,0.
 05913061,0.00000357,0.00000035,0.00680543,0.00000485,0.00000289,0.0007
 7786,0.00006747,-0.00000007,-0.03650243,-0.00000243,-0.00000057,0.0025
 4918,0.00000274,-0.00000138,0.00994984,-0.00000156,-0.00000192,-0.0004
 1750,0.00000096,0.00000059,-0.00210407,-0.00000009,-0.00000034,0.00033
 252,0.00000012,0.00000005,0.00029052,-0.00000089,-0.00000047,0.0000219
 9,-0.00000064,0.00000028,-0.00233633,-0.00007313,0.00000032,0.02540397
 ,-0.00078597,-0.00103501,-0.00000047,-0.00093079,-0.00362765,0.0000014
 4,0.01311259,-0.01447398,-0.00000386,-0.13968042,0.12954388,0.00003616
 ,-0.01127790,0.03039587,0.00000713,-0.00547756,-0.00186815,0.00000344,
 0.00031730,0.00187330,0.00000079,0.00008666,-0.00050417,-0.00000016,-0
 .00080651,-0.00005798,-0.00000044,0.00327182,-0.00032919,-0.00000200,0
 .00053490,-0.00079345,-0.00000035,0.00081086,0.00058014,-0.00000088,0.
 14108573,-0.00052211,0.00026725,0.00000059,-0.00434057,-0.00290936,-0.
 00000037,0.01644866,-0.01683182,-0.00000564,0.13147557,-0.27315445,-0.
 00005534,-0.00317128,0.00368735,0.00000117,-0.00056459,0.00110770,-0.0
 0000037,-0.00061823,0.00003985,-0.00000027,0.00011552,0.00018053,0.000
 00029,0.00000969,-0.00003416,0.00000008,0.00047536,0.00087520,0.000000
 07,0.00091319,-0.00084678,-0.00000043,-0.00009747,0.00113316,0.0000006
 2,-0.14001719,0.28639363,0.00000055,0.00000235,-0.00344125,0.00000047,
 -0.00000050,0.00944667,-0.00000048,-0.00000085,0.00240912,0.00003824,-
 0.00005286,-0.03550747,0.00000094,-0.00000563,0.00465958,0.00000227,-0
 .00000236,0.00652781,0.00000101,0.00000053,-0.00046366,-0.00000010,-0.
 00000012,-0.00000723,0.00000003,-0.00000008,-0.00002334,-0.00000151,-0
 .00000079,-0.00298627,-0.00000007,0.00000006,-0.00009294,-0.00000120,0
 .00000054,-0.00438900,-0.00004036,0.00005954,0.02435887,0.00042115,-0.
 00000676,0.00000003,0.00055151,-0.00038031,0.00000008,0.00012036,0.000
 38227,-0.00000004,-0.00021954,0.00038847,0.00000084,-0.00093183,-0.000
 66590,-0.00000078,0.00174364,0.00307234,-0.00000902,-0.03399909,0.0040
 0332,-0.00001613,0.00308923,-0.00966613,0.00000181,-0.47483358,-0.0597
 8238,-0.00034170,0.00114658,-0.00029401,0.00000026,0.00001652,0.000027
 08,0.00000004,0.00003539,0.00000544,-0.00000006,-0.00006698,-0.0000258
 9,0.,0.50417430,-0.00164287,0.00007156,0.00000009,-0.00001323,0.000453
 39,0.00000004,-0.00021966,-0.00008879,0.00000019,0.00012726,-0.0005326
 9,-0.00000056,0.00173306,0.00115148,-0.00000048,0.00117327,-0.00687153
 ,0.00000061,0.05658636,0.00507440,0.00004656,-0.00739216,0.00171923,-0
 .00000909,-0.11255032,-0.06102166,-0.00006729,-0.00134872,0.00011690,0
 .00000006,-0.00004551,-0.00003074,-0.00000006,-0.00004855,0.00003419,0
 .00000006,0.00013977,0.00001820,0.00000001,0.06214184,0.06080078,0.000
 00144,0.00000014,-0.00054891,0.00000021,-0.00000107,0.00012286,0.00000
 051,0.00000023,0.00007212,-0.00000022,0.00000095,-0.00045994,-0.000001
 58,-0.00000091,0.00075827,0.00000713,0.00000294,0.00486763,-0.00005664
 ,0.00000591,0.00397875,0.00000957,-0.00000290,-0.00606505,-0.00032626,
 -0.00003377,-0.01572044,0.00000052,-0.00000016,0.00000168,-0.00000006,
 0.00000003,-0.00000303,0.00000003,-0.00000005,-0.00001537,-0.00000013,
 -0.00000005,0.00002370,0.00036579,0.00002852,0.01296961,0.00133094,0.0
 0418201,0.00000260,-0.00401650,0.00275653,0.00000091,-0.00076854,-0.00
 442362,-0.00000009,0.00756573,0.00184152,-0.00000137,-0.03307305,-0.01
 880451,0.00001639,-0.00494303,0.00165024,0.00000099,0.02621409,0.01986
 225,0.00002089,-0.01309215,-0.02116639,-0.00000162,-0.00209443,-0.0095
 2564,-0.00000561,-0.40938803,0.04644727,0.00021650,-0.00005224,0.00005
 701,-0.00000031,0.00019550,-0.00000491,-0.00000004,-0.00019372,-0.0000
 8065,0.00000021,-0.00124765,0.00135945,-0.00000031,0.43356310,-0.00190
 483,-0.00155345,-0.00000185,0.00288954,-0.00166545,-0.00000054,-0.0015
 9893,0.00375521,0.00000026,-0.00523770,-0.00898330,0.00000160,-0.04400
 088,0.00758515,0.00002232,0.00311230,-0.00059762,0.00000030,-0.0088812
 1,-0.02158019,-0.00000959,-0.00349613,0.01142222,-0.00000490,0.0000251
 5,0.00597339,0.00000066,0.08227294,-0.06353742,-0.00005278,0.00019019,
 -0.00001373,0.00000029,-0.00019431,-0.00046589,-0.00000041,0.00017381,
 0.00007370,0.00000016,0.00080063,-0.00089472,0.00000019,-0.02415057,0.
 07048211,0.00000020,-0.00000015,-0.00100271,-0.00000054,0.00000103,0.0
 0006635,-0.00000033,-0.00000164,0.00148824,0.00000086,-0.00000011,0.00
 353077,0.00000168,-0.00000948,-0.00302139,-0.00000375,-0.00000114,0.00
 112701,0.00001281,0.00000438,-0.00124945,-0.00000053,-0.00000528,-0.00
 755539,-0.00000305,-0.00000879,0.00192640,0.00024352,-0.00002457,-0.01
 602257,-0.00000012,-0.00000003,0.00005178,-0.00000017,0.00000007,-0.00
 036660,-0.00000031,0.00000010,-0.00051459,-0.00000114,0.00000133,0.000
 01812,-0.00024913,0.00004429,0.02152402\\0.00000584,0.00000410,0.00002
 065,-0.00001721,0.00004833,-0.00001201,0.00004157,-0.00001977,-0.00000
 077,0.00001725,-0.00001797,-0.00000603,-0.00001831,-0.00000606,0.00002
 362,0.00001437,0.00002198,0.00006334,-0.00002352,-0.00003936,-0.000270
 81,-0.00000502,-0.00001628,0.00011951,-0.00000297,0.00003356,0.0000803
 3,-0.00002123,-0.00001898,0.00001223,-0.00000263,-0.00002224,-0.000000
 76,-0.00001616,-0.00000247,0.00000152,-0.00000852,0.00001185,-0.000000
 50,-0.00000601,0.00000595,0.00000008,0.00004254,0.00001735,-0.00003039
 \\\@


 THE WORLD IS NOT A HAMBURGER - YOU CAN'T HAVE IT YOUR WAY.
 Job cpu time:       0 days  3 hours 33 minutes 16.2 seconds.
 File lengths (MBytes):  RWF=  11798 Int=      0 D2E=      0 Chk=      6 Scr=      1
 Normal termination of Gaussian 09 at Wed Dec 18 00:50:43 2024.
