 Entering Gaussian System, Link 0=g09
 Input=+b3lyp3HPA2.gjf
 Output=+b3lyp3HPA2.log
 Initial command:
 /home/phzd/g09E/g09/l1.exe "/home/phzd/g09E/scratch/Gau-508216.inp" -scrdir="/home/phzd/g09E/scratch/"
 Default is to use a total of  18 processors:
                               18 via shared-memory
                                1 via Linda
 Entering Link 1 = /home/phzd/g09E/g09/l1.exe PID=    508218.
  
 Copyright (c) 1988,1990,1992,1993,1995,1998,2003,2009,2015,
            Gaussian, Inc.  All Rights Reserved.
  
 This is part of the Gaussian(R) 09 program.  It is based on
 the Gaussian(R) 03 system (copyright 2003, Gaussian, Inc.),
 the Gaussian(R) 98 system (copyright 1998, Gaussian, Inc.),
 the Gaussian(R) 94 system (copyright 1995, Gaussian, Inc.),
 the Gaussian 92(TM) system (copyright 1992, Gaussian, Inc.),
 the Gaussian 90(TM) system (copyright 1990, Gaussian, Inc.),
 the Gaussian 88(TM) system (copyright 1988, Gaussian, Inc.),
 the Gaussian 86(TM) system (copyright 1986, Carnegie Mellon
 University), and the Gaussian 82(TM) system (copyright 1983,
 Carnegie Mellon University). Gaussian is a federally registered
 trademark of Gaussian, Inc.
  
 This software contains proprietary and confidential information,
 including trade secrets, belonging to Gaussian, Inc.
  
 This software is provided under written license and may be
 used, copied, transmitted, or stored only in accord with that
 written license.
  
 The following legend is applicable only to US Government
 contracts under FAR:
  
                    RESTRICTED RIGHTS LEGEND
  
 Use, reproduction and disclosure by the US Government is
 subject to restrictions as set forth in subparagraphs (a)
 and (c) of the Commercial Computer Software - Restricted
 Rights clause in FAR 52.227-19.
  
 Gaussian, Inc.
 340 Quinnipiac St., Bldg. 40, Wallingford CT 06492
  
  
 ---------------------------------------------------------------
 Warning -- This program may not be used in any manner that
 competes with the business of Gaussian, Inc. or will provide
 assistance to any competitor of Gaussian, Inc.  The licensee
 of this program is prohibited from giving any competitor of
 Gaussian, Inc. access to this program.  By using this program,
 the user acknowledges that Gaussian, Inc. is engaged in the
 business of creating and licensing software in the field of
 computational chemistry and represents and warrants to the
 licensee that it is not a competitor of Gaussian, Inc. and that
 it will not use this program in any manner prohibited above.
 ---------------------------------------------------------------
  

 Cite this work as:
 Gaussian 09, Revision E.01,
 M. J. Frisch, G. W. Trucks, H. B. Schlegel, G. E. Scuseria, 
 M. A. Robb, J. R. Cheeseman, G. Scalmani, V. Barone, B. Mennucci, 
 G. A. Petersson, H. Nakatsuji, M. Caricato, X. Li, H. P. Hratchian, 
 A. F. Izmaylov, J. Bloino, G. Zheng, J. L. Sonnenberg, M. Hada, 
 M. Ehara, K. Toyota, R. Fukuda, J. Hasegawa, M. Ishida, T. Nakajima, 
 Y. Honda, O. Kitao, H. Nakai, T. Vreven, J. A. Montgomery, Jr., 
 J. E. Peralta, F. Ogliaro, M. Bearpark, J. J. Heyd, E. Brothers, 
 K. N. Kudin, V. N. Staroverov, T. Keith, R. Kobayashi, J. Normand, 
 K. Raghavachari, A. Rendell, J. C. Burant, S. S. Iyengar, J. Tomasi, 
 M. Cossi, N. Rega, J. M. Millam, M. Klene, J. E. Knox, J. B. Cross, 
 V. Bakken, C. Adamo, J. Jaramillo, R. Gomperts, R. E. Stratmann, 
 O. Yazyev, A. J. Austin, R. Cammi, C. Pomelli, J. W. Ochterski, 
 R. L. Martin, K. Morokuma, V. G. Zakrzewski, G. A. Voth, 
 P. Salvador, J. J. Dannenberg, S. Dapprich, A. D. Daniels, 
 O. Farkas, J. B. Foresman, J. V. Ortiz, J. Cioslowski, 
 and D. J. Fox, Gaussian, Inc., Wallingford CT, 2013.
 
 ******************************************
 Gaussian 09:  ES64L-G09RevE.01 30-Nov-2015
                19-May-2024 
 ******************************************
 %chk=+b3lyp3HPA.chk
 -------------------------------------
 # opt freq b3lyp/6-31+g(d,p) em=gd3bj
 -------------------------------------
 1/14=-1,18=20,19=15,26=3,38=1/1,3;
 2/9=110,12=2,17=6,18=5,40=1/2;
 3/5=1,6=6,7=111,11=2,16=1,25=1,30=1,71=1,74=-5,124=41/1,2,3;
 4//1;
 5/5=2,38=5/2;
 6/7=2,8=2,9=2,10=2,28=1/1;
 7//1,2,3,16;
 1/14=-1,18=20,19=15,26=3/3(2);
 2/9=110/2;
 99//99;
 2/9=110/2;
 3/5=1,6=6,7=111,11=2,16=1,25=1,30=1,71=1,74=-5,124=41/1,2,3;
 4/5=5,16=3,69=1/1;
 5/5=2,38=5/2;
 7//1,2,3,16;
 1/14=-1,18=20,19=15,26=3/3(-5);
 2/9=110/2;
 6/7=2,8=2,9=2,10=2,19=2,28=1/1;
 99/9=1/99;
 ----------
 [No Title]
 ----------
 Symbolic Z-matrix:
 Charge =  1 Multiplicity = 1
 N                     0.51177  -1.34938   0.00006 
 C                     1.8373   -1.41215   0.00001 
 C                     2.56092  -0.21887  -0.00007 
 C                     1.88992   0.98298  -0.0001 
 C                     0.47777   1.01894  -0.00005 
 C                    -0.20226  -0.19674   0.00003 
 C                    -1.67205  -0.42401   0.0001 
 O                    -2.14148  -1.53172   0.00013 
 O                    -2.36457   0.71891  -0.00003 
 O                    -0.0985    2.20979  -0.00008 
 H                    -0.05827  -2.20069   0.00012 
 H                     2.29083  -2.39528   0.00004 
 H                     3.64355  -0.25334  -0.00011 
 H                     2.42054   1.92938  -0.00017 
 H                    -3.32194   0.5358   -0.00004 
 H                    -1.07037   2.15311  -0.00003 
 

 GradGradGradGradGradGradGradGradGradGradGradGradGradGradGradGradGradGrad
 Berny optimization.
 Initialization pass.
                           ----------------------------
                           !    Initial Parameters    !
                           ! (Angstroms and Degrees)  !
 --------------------------                            --------------------------
 ! Name  Definition              Value          Derivative Info.                !
 --------------------------------------------------------------------------------
 ! R1    R(1,2)                  1.327          estimate D2E/DX2                !
 ! R2    R(1,6)                  1.3559         estimate D2E/DX2                !
 ! R3    R(1,11)                 1.0245         estimate D2E/DX2                !
 ! R4    R(2,3)                  1.3955         estimate D2E/DX2                !
 ! R5    R(2,12)                 1.0827         estimate D2E/DX2                !
 ! R6    R(3,4)                  1.3765         estimate D2E/DX2                !
 ! R7    R(3,13)                 1.0832         estimate D2E/DX2                !
 ! R8    R(4,5)                  1.4126         estimate D2E/DX2                !
 ! R9    R(4,14)                 1.085          estimate D2E/DX2                !
 ! R10   R(5,6)                  1.3929         estimate D2E/DX2                !
 ! R11   R(5,10)                 1.323          estimate D2E/DX2                !
 ! R12   R(6,7)                  1.4873         estimate D2E/DX2                !
 ! R13   R(7,8)                  1.2031         estimate D2E/DX2                !
 ! R14   R(7,9)                  1.3364         estimate D2E/DX2                !
 ! R15   R(9,15)                 0.9747         estimate D2E/DX2                !
 ! R16   R(10,16)                0.9735         estimate D2E/DX2                !
 ! A1    A(2,1,6)              124.4879         estimate D2E/DX2                !
 ! A2    A(2,1,11)             121.0952         estimate D2E/DX2                !
 ! A3    A(6,1,11)             114.4169         estimate D2E/DX2                !
 ! A4    A(1,2,3)              118.5224         estimate D2E/DX2                !
 ! A5    A(1,2,12)             117.4755         estimate D2E/DX2                !
 ! A6    A(3,2,12)             124.0021         estimate D2E/DX2                !
 ! A7    A(2,3,4)              119.5917         estimate D2E/DX2                !
 ! A8    A(2,3,13)             119.41           estimate D2E/DX2                !
 ! A9    A(4,3,13)             120.9983         estimate D2E/DX2                !
 ! A10   A(3,4,5)              120.6334         estimate D2E/DX2                !
 ! A11   A(3,4,14)             121.5469         estimate D2E/DX2                !
 ! A12   A(5,4,14)             117.8196         estimate D2E/DX2                !
 ! A13   A(4,5,6)              117.7634         estimate D2E/DX2                !
 ! A14   A(4,5,10)             117.2814         estimate D2E/DX2                !
 ! A15   A(6,5,10)             124.9552         estimate D2E/DX2                !
 ! A16   A(1,6,5)              119.0012         estimate D2E/DX2                !
 ! A17   A(1,6,7)              112.9867         estimate D2E/DX2                !
 ! A18   A(5,6,7)              128.0121         estimate D2E/DX2                !
 ! A19   A(6,7,8)              121.7563         estimate D2E/DX2                !
 ! A20   A(6,7,9)              112.4224         estimate D2E/DX2                !
 ! A21   A(8,7,9)              125.8213         estimate D2E/DX2                !
 ! A22   A(7,9,15)             110.3846         estimate D2E/DX2                !
 ! A23   A(5,10,16)            112.4851         estimate D2E/DX2                !
 ! D1    D(6,1,2,3)              0.0001         estimate D2E/DX2                !
 ! D2    D(6,1,2,12)          -180.0            estimate D2E/DX2                !
 ! D3    D(11,1,2,3)          -179.9999         estimate D2E/DX2                !
 ! D4    D(11,1,2,12)            0.0            estimate D2E/DX2                !
 ! D5    D(2,1,6,5)              0.0            estimate D2E/DX2                !
 ! D6    D(2,1,6,7)            180.0            estimate D2E/DX2                !
 ! D7    D(11,1,6,5)          -180.0            estimate D2E/DX2                !
 ! D8    D(11,1,6,7)             0.0            estimate D2E/DX2                !
 ! D9    D(1,2,3,4)             -0.0001         estimate D2E/DX2                !
 ! D10   D(1,2,3,13)           180.0            estimate D2E/DX2                !
 ! D11   D(12,2,3,4)           180.0            estimate D2E/DX2                !
 ! D12   D(12,2,3,13)            0.0            estimate D2E/DX2                !
 ! D13   D(2,3,4,5)              0.0            estimate D2E/DX2                !
 ! D14   D(2,3,4,14)           179.9998         estimate D2E/DX2                !
 ! D15   D(13,3,4,5)           180.0            estimate D2E/DX2                !
 ! D16   D(13,3,4,14)           -0.0002         estimate D2E/DX2                !
 ! D17   D(3,4,5,6)              0.0001         estimate D2E/DX2                !
 ! D18   D(3,4,5,10)           179.9995         estimate D2E/DX2                !
 ! D19   D(14,4,5,6)          -179.9997         estimate D2E/DX2                !
 ! D20   D(14,4,5,10)           -0.0004         estimate D2E/DX2                !
 ! D21   D(4,5,6,1)             -0.0001         estimate D2E/DX2                !
 ! D22   D(4,5,6,7)            180.0            estimate D2E/DX2                !
 ! D23   D(10,5,6,1)          -179.9994         estimate D2E/DX2                !
 ! D24   D(10,5,6,7)             0.0006         estimate D2E/DX2                !
 ! D25   D(4,5,10,16)         -179.9994         estimate D2E/DX2                !
 ! D26   D(6,5,10,16)           -0.0001         estimate D2E/DX2                !
 ! D27   D(1,6,7,8)             -0.0021         estimate D2E/DX2                !
 ! D28   D(1,6,7,9)           -179.9953         estimate D2E/DX2                !
 ! D29   D(5,6,7,8)            179.9978         estimate D2E/DX2                !
 ! D30   D(5,6,7,9)              0.0046         estimate D2E/DX2                !
 ! D31   D(6,7,9,15)           179.9963         estimate D2E/DX2                !
 ! D32   D(8,7,9,15)             0.0034         estimate D2E/DX2                !
 --------------------------------------------------------------------------------
 Trust Radius=3.00D-01 FncErr=1.00D-07 GrdErr=1.00D-06
 Number of steps in this run=     81 maximum allowed number of steps=    100.
 GradGradGradGradGradGradGradGradGradGradGradGradGradGradGradGradGradGrad

                          Input orientation:                          
 ---------------------------------------------------------------------
 Center     Atomic      Atomic             Coordinates (Angstroms)
 Number     Number       Type             X           Y           Z
 ---------------------------------------------------------------------
      1          7           0        0.511769   -1.349381    0.000060
      2          6           0        1.837300   -1.412147    0.000011
      3          6           0        2.560924   -0.218871   -0.000073
      4          6           0        1.889923    0.982980   -0.000104
      5          6           0        0.477770    1.018936   -0.000052
      6          6           0       -0.202257   -0.196736    0.000033
      7          6           0       -1.672053   -0.424013    0.000101
      8          8           0       -2.141477   -1.531723    0.000134
      9          8           0       -2.364571    0.718908   -0.000027
     10          8           0       -0.098498    2.209789   -0.000075
     11          1           0       -0.058266   -2.200690    0.000123
     12          1           0        2.290833   -2.395281    0.000040
     13          1           0        3.643546   -0.253336   -0.000113
     14          1           0        2.420544    1.929380   -0.000166
     15          1           0       -3.321942    0.535796   -0.000037
     16          1           0       -1.070370    2.153108   -0.000027
 ---------------------------------------------------------------------
                    Distance matrix (angstroms):
                    1          2          3          4          5
     1  N    0.000000
     2  C    1.327016   0.000000
     3  C    2.340318   1.395543   0.000000
     4  C    2.709099   2.395705   1.376477   0.000000
     5  C    2.368561   2.785406   2.423158   1.412611   0.000000
     6  C    1.355885   2.374240   2.763270   2.401863   1.392945
     7  C    2.371789   3.645815   4.237945   3.829791   2.589178
     8  O    2.659504   3.980573   4.882229   4.751412   3.655997
     9  O    3.542760   4.711381   5.013974   4.262681   2.858132
    10  O    3.611110   4.106791   3.601516   2.336424   1.322957
    11  H    1.024533   2.053039   3.284473   3.732452   3.263943
    12  H    2.063729   1.082702   2.193105   3.401967   3.865757
    13  H    3.318033   2.146012   1.083170   2.145617   3.411864
    14  H    3.793902   3.392046   2.152833   1.085003   2.145525
    15  H    4.272146   5.514731   5.931074   5.231014   3.830305
    16  H    3.843253   4.600607   4.337347   3.183164   1.919136
                    6          7          8          9         10
     6  C    0.000000
     7  C    1.487264   0.000000
     8  O    2.354308   1.203071   0.000000
     9  O    2.348192   1.336357   2.261661   0.000000
    10  O    2.408761   3.068059   4.262942   2.712529   0.000000
    11  H    2.009120   2.400185   2.187986   3.720631   4.410662
    12  H    3.324018   4.426100   4.515651   5.600978   5.188022
    13  H    3.846219   5.318338   5.924590   6.086274   4.479942
    14  H    3.376308   4.720997   5.726366   4.935845   2.534601
    15  H    3.204534   1.908761   2.380784   0.974725   3.632195
    16  H    2.505072   2.646427   3.837349   1.931809   0.973523
                   11         12         13         14         15
    11  H    0.000000
    12  H    2.357145   0.000000
    13  H    4.182774   2.533330   0.000000
    14  H    4.816843   4.326606   2.501996   0.000000
    15  H    4.259100   6.332018   7.010047   5.909164   0.000000
    16  H    4.469889   5.655575   5.292634   3.498076   2.772233
                   16
    16  H    0.000000
 Stoichiometry    C6H6NO3(1+)
 Framework group  C1[X(C6H6NO3)]
 Deg. of freedom    42
 Full point group                 C1      NOp   1
 Largest Abelian subgroup         C1      NOp   1
 Largest concise Abelian subgroup C1      NOp   1
                         Standard orientation:                         
 ---------------------------------------------------------------------
 Center     Atomic      Atomic             Coordinates (Angstroms)
 Number     Number       Type             X           Y           Z
 ---------------------------------------------------------------------
      1          7           0       -0.511769   -1.349381   -0.000060
      2          6           0       -1.837300   -1.412147   -0.000011
      3          6           0       -2.560924   -0.218871    0.000073
      4          6           0       -1.889923    0.982980    0.000104
      5          6           0       -0.477770    1.018936    0.000052
      6          6           0        0.202257   -0.196736   -0.000033
      7          6           0        1.672053   -0.424013   -0.000101
      8          8           0        2.141477   -1.531723   -0.000134
      9          8           0        2.364571    0.718908    0.000027
     10          8           0        0.098498    2.209789    0.000075
     11          1           0        0.058266   -2.200690   -0.000123
     12          1           0       -2.290833   -2.395281   -0.000040
     13          1           0       -3.643546   -0.253336    0.000113
     14          1           0       -2.420544    1.929380    0.000166
     15          1           0        3.321942    0.535796    0.000037
     16          1           0        1.070370    2.153108    0.000027
 ---------------------------------------------------------------------
 Rotational constants (GHZ):      2.2988213      1.2559873      0.8122210
 Standard basis: 6-31+G(d,p) (6D, 7F)
 There are   220 symmetry adapted cartesian basis functions of A   symmetry.
 There are   220 symmetry adapted basis functions of A   symmetry.
   220 basis functions,   362 primitive gaussians,   220 cartesian basis functions
    36 alpha electrons       36 beta electrons
       nuclear repulsion energy       522.6926599352 Hartrees.
 NAtoms=   16 NActive=   16 NUniq=   16 SFac= 1.00D+00 NAtFMM=   60 NAOKFM=F Big=F
 Integral buffers will be    131072 words long.
 Raffenetti 2 integral format.
 Two-electron integral symmetry is turned on.
 Nuclear repulsion after empirical dispersion term =      522.6643033758 Hartrees.
 One-electron integrals computed using PRISM.
 NBasis=   220 RedAO= T EigKep=  4.63D-06  NBF=   220
 NBsUse=   220 1.00D-06 EigRej= -1.00D+00 NBFU=   220
 ExpMin= 4.38D-02 ExpMax= 5.48D+03 ExpMxC= 8.25D+02 IAcc=2 IRadAn=         4 AccDes= 0.00D+00
 Harris functional with IExCor=  402 and IRadAn=       4 diagonalized for initial guess.
 HarFok:  IExCor=  402 AccDes= 0.00D+00 IRadAn=         4 IDoV= 1 UseB2=F ITyADJ=14
 ICtDFT=  3500011 ScaDFX=  1.000000  1.000000  1.000000  1.000000
 FoFCou: FMM=F IPFlag=           0 FMFlag=      100000 FMFlg1=           0
         NFxFlg=           0 DoJE=T BraDBF=F KetDBF=T FulRan=T
         wScrn=  0.000000 ICntrl=     500 IOpCl=  0 I1Cent=   200000004 NGrid=           0
         NMat0=    1 NMatS0=      1 NMatT0=    0 NMatD0=    1 NMtDS0=    0 NMtDT0=    0
 Petite list used in FoFCou.
 Keep R1 ints in memory in canonical form, NReq=301066375.
 Requested convergence on RMS density matrix=1.00D-08 within 128 cycles.
 Requested convergence on MAX density matrix=1.00D-06.
 Requested convergence on             energy=1.00D-06.
 No special actions if energy rises.
 SCF Done:  E(RB3LYP) =  -512.509877124     A.U. after   14 cycles
            NFock= 14  Conv=0.82D-08     -V/T= 2.0089

 **********************************************************************

            Population analysis using the SCF density.

 **********************************************************************

 Orbital symmetries:
       Occupied  (A) (A) (A) (A) (A) (A) (A) (A) (A) (A) (A) (A)
                 (A) (A) (A) (A) (A) (A) (A) (A) (A) (A) (A) (A)
                 (A) (A) (A) (A) (A) (A) (A) (A) (A) (A) (A) (A)
       Virtual   (A) (A) (A) (A) (A) (A) (A) (A) (A) (A) (A) (A)
                 (A) (A) (A) (A) (A) (A) (A) (A) (A) (A) (A) (A)
                 (A) (A) (A) (A) (A) (A) (A) (A) (A) (A) (A) (A)
                 (A) (A) (A) (A) (A) (A) (A) (A) (A) (A) (A) (A)
                 (A) (A) (A) (A) (A) (A) (A) (A) (A) (A) (A) (A)
                 (A) (A) (A) (A) (A) (A) (A) (A) (A) (A) (A) (A)
                 (A) (A) (A) (A) (A) (A) (A) (A) (A) (A) (A) (A)
                 (A) (A) (A) (A) (A) (A) (A) (A) (A) (A) (A) (A)
                 (A) (A) (A) (A) (A) (A) (A) (A) (A) (A) (A) (A)
                 (A) (A) (A) (A) (A) (A) (A) (A) (A) (A) (A) (A)
                 (A) (A) (A) (A) (A) (A) (A) (A) (A) (A) (A) (A)
                 (A) (A) (A) (A) (A) (A) (A) (A) (A) (A) (A) (A)
                 (A) (A) (A) (A) (A) (A) (A) (A) (A) (A) (A) (A)
                 (A) (A) (A) (A) (A) (A) (A) (A) (A) (A) (A) (A)
                 (A) (A) (A) (A) (A) (A) (A) (A) (A) (A) (A) (A)
                 (A) (A) (A) (A)
 The electronic state is 1-A.
 Alpha  occ. eigenvalues --  -19.40135 -19.37930 -19.33946 -14.63575 -10.52574
 Alpha  occ. eigenvalues --  -10.48068 -10.45849 -10.45628 -10.41419 -10.41215
 Alpha  occ. eigenvalues --   -1.31249  -1.27231  -1.23170  -1.21051  -1.02753
 Alpha  occ. eigenvalues --   -1.00513  -0.89874  -0.86847  -0.84155  -0.78776
 Alpha  occ. eigenvalues --   -0.75783  -0.72139  -0.70265  -0.67808  -0.67348
 Alpha  occ. eigenvalues --   -0.67310  -0.62801  -0.61401  -0.60432  -0.59766
 Alpha  occ. eigenvalues --   -0.59310  -0.55022  -0.52049  -0.49853  -0.48395
 Alpha  occ. eigenvalues --   -0.44972
 Alpha virt. eigenvalues --   -0.27662  -0.22525  -0.15228  -0.14969  -0.13626
 Alpha virt. eigenvalues --   -0.11460  -0.11037  -0.09536  -0.09045  -0.08491
 Alpha virt. eigenvalues --   -0.06197  -0.05456  -0.05097  -0.04676  -0.04293
 Alpha virt. eigenvalues --   -0.03474  -0.02029  -0.01664  -0.00967  -0.00404
 Alpha virt. eigenvalues --   -0.00169   0.00552   0.02036   0.02191   0.02669
 Alpha virt. eigenvalues --    0.03332   0.04295   0.04684   0.05242   0.06355
 Alpha virt. eigenvalues --    0.07622   0.08172   0.08313   0.08716   0.09331
 Alpha virt. eigenvalues --    0.09768   0.10875   0.11389   0.11840   0.13090
 Alpha virt. eigenvalues --    0.13453   0.13982   0.14351   0.14709   0.15910
 Alpha virt. eigenvalues --    0.16754   0.17363   0.18509   0.19214   0.19354
 Alpha virt. eigenvalues --    0.21782   0.23022   0.24171   0.24833   0.25507
 Alpha virt. eigenvalues --    0.29646   0.32965   0.34941   0.40696   0.43794
 Alpha virt. eigenvalues --    0.46775   0.47091   0.50995   0.51717   0.53057
 Alpha virt. eigenvalues --    0.54334   0.55985   0.57198   0.57995   0.62375
 Alpha virt. eigenvalues --    0.63241   0.65579   0.69665   0.70489   0.73403
 Alpha virt. eigenvalues --    0.77013   0.77602   0.80760   0.83170   0.85832
 Alpha virt. eigenvalues --    0.86463   0.89985   0.91779   0.93848   0.95013
 Alpha virt. eigenvalues --    0.96324   0.97700   1.00163   1.00368   1.01825
 Alpha virt. eigenvalues --    1.02282   1.05344   1.05594   1.08351   1.11031
 Alpha virt. eigenvalues --    1.11115   1.12885   1.14038   1.16934   1.16955
 Alpha virt. eigenvalues --    1.18099   1.19512   1.19808   1.21447   1.21615
 Alpha virt. eigenvalues --    1.23609   1.27908   1.34455   1.37570   1.39363
 Alpha virt. eigenvalues --    1.42394   1.42472   1.53493   1.55115   1.56674
 Alpha virt. eigenvalues --    1.57425   1.59336   1.62124   1.65382   1.69569
 Alpha virt. eigenvalues --    1.72630   1.73644   1.74494   1.77019   1.80000
 Alpha virt. eigenvalues --    1.80127   1.84278   1.88115   1.88153   1.89983
 Alpha virt. eigenvalues --    1.92115   1.94473   2.04767   2.06127   2.09153
 Alpha virt. eigenvalues --    2.11239   2.15590   2.17563   2.18306   2.19524
 Alpha virt. eigenvalues --    2.20881   2.21846   2.27670   2.30630   2.33841
 Alpha virt. eigenvalues --    2.33870   2.35625   2.35821   2.39148   2.40265
 Alpha virt. eigenvalues --    2.41103   2.46690   2.48163   2.51089   2.56522
 Alpha virt. eigenvalues --    2.56974   2.58155   2.60832   2.63790   2.70462
 Alpha virt. eigenvalues --    2.78455   2.86856   2.91768   2.94249   3.00692
 Alpha virt. eigenvalues --    3.05389   3.08347   3.09017   3.18644   3.23842
 Alpha virt. eigenvalues --    3.29156   3.34518   3.42216   3.70332   4.00496
 Alpha virt. eigenvalues --    4.08495   4.13398   4.17575   4.21785   4.28445
 Alpha virt. eigenvalues --    4.35968   4.49178   4.71709   4.75865
          Condensed to atoms (all electrons):
               1          2          3          4          5          6
     1  N    6.674661   0.142005  -0.013475  -0.066754  -0.233871   0.394055
     2  C    0.142005   5.789220   0.089719   0.265417  -0.233733  -0.438517
     3  C   -0.013475   0.089719   5.205134  -0.378487   1.110414  -0.308187
     4  C   -0.066754   0.265417  -0.378487   7.696563  -2.866021   1.059274
     5  C   -0.233871  -0.233733   1.110414  -2.866021  13.364782  -4.364715
     6  C    0.394055  -0.438517  -0.308187   1.059274  -4.364715   9.575202
     7  C    0.020329   0.154276  -0.217615   0.283736  -1.615917   0.428708
     8  O    0.014398   0.043582  -0.010457   0.031363   0.021487  -0.346760
     9  O    0.018465   0.005196  -0.003113   0.027457  -0.054318  -0.024688
    10  O    0.014702  -0.000264   0.025843  -0.350606   0.272487   0.039458
    11  H    0.298665  -0.050732   0.037098  -0.024965   0.103840  -0.031585
    12  H   -0.063154   0.370125  -0.024423   0.037351  -0.043478   0.037131
    13  H    0.002019   0.030084   0.292662   0.026982  -0.030762   0.011048
    14  H    0.004008  -0.014354   0.054768   0.190552   0.146739  -0.046629
    15  H   -0.001142  -0.001239   0.000695  -0.000746   0.009832   0.027745
    16  H   -0.000349  -0.001275  -0.005439   0.061798   0.025427  -0.095141
               7          8          9         10         11         12
     1  N    0.020329   0.014398   0.018465   0.014702   0.298665  -0.063154
     2  C    0.154276   0.043582   0.005196  -0.000264  -0.050732   0.370125
     3  C   -0.217615  -0.010457  -0.003113   0.025843   0.037098  -0.024423
     4  C    0.283736   0.031363   0.027457  -0.350606  -0.024965   0.037351
     5  C   -1.615917   0.021487  -0.054318   0.272487   0.103840  -0.043478
     6  C    0.428708  -0.346760  -0.024688   0.039458  -0.031585   0.037131
     7  C    6.050864   0.533045   0.056757  -0.019303  -0.074197   0.013656
     8  O    0.533045   8.267239  -0.150665  -0.002401   0.029024   0.000027
     9  O    0.056757  -0.150665   8.450204  -0.000368   0.002641   0.000022
    10  O   -0.019303  -0.002401  -0.000368   8.330524  -0.000339   0.000140
    11  H   -0.074197   0.029024   0.002641  -0.000339   0.343038  -0.004022
    12  H    0.013656   0.000027   0.000022   0.000140  -0.004022   0.468319
    13  H    0.002481   0.000005   0.000000  -0.000476  -0.000127  -0.002927
    14  H   -0.002237  -0.000001   0.000179  -0.010446   0.000014  -0.000100
    15  H   -0.013616   0.005694   0.217893   0.001244  -0.000052  -0.000000
    16  H    0.021200   0.001401   0.027486   0.207146  -0.000021  -0.000000
              13         14         15         16
     1  N    0.002019   0.004008  -0.001142  -0.000349
     2  C    0.030084  -0.014354  -0.001239  -0.001275
     3  C    0.292662   0.054768   0.000695  -0.005439
     4  C    0.026982   0.190552  -0.000746   0.061798
     5  C   -0.030762   0.146739   0.009832   0.025427
     6  C    0.011048  -0.046629   0.027745  -0.095141
     7  C    0.002481  -0.002237  -0.013616   0.021200
     8  O    0.000005  -0.000001   0.005694   0.001401
     9  O    0.000000   0.000179   0.217893   0.027486
    10  O   -0.000476  -0.010446   0.001244   0.207146
    11  H   -0.000127   0.000014  -0.000052  -0.000021
    12  H   -0.002927  -0.000100  -0.000000  -0.000000
    13  H    0.468792  -0.004482   0.000000   0.000003
    14  H   -0.004482   0.475980  -0.000000  -0.000004
    15  H    0.000000  -0.000000   0.307759   0.000713
    16  H    0.000003  -0.000004   0.000713   0.325668
 Mulliken charges:
               1
     1  N   -0.204565
     2  C   -0.149512
     3  C    0.144860
     4  C    0.007085
     5  C    0.387805
     6  C    0.083601
     7  C    0.377832
     8  O   -0.436983
     9  O   -0.573149
    10  O   -0.507343
    11  H    0.371719
    12  H    0.211333
    13  H    0.204698
    14  H    0.206011
    15  H    0.445218
    16  H    0.431389
 Sum of Mulliken charges =   1.00000
 Mulliken charges with hydrogens summed into heavy atoms:
               1
     1  N    0.167154
     2  C    0.061821
     3  C    0.349558
     4  C    0.213095
     5  C    0.387805
     6  C    0.083601
     7  C    0.377832
     8  O   -0.436983
     9  O   -0.127931
    10  O   -0.075954
 Electronic spatial extent (au):  <R**2>=           1304.4684
 Charge=              1.0000 electrons
 Dipole moment (field-independent basis, Debye):
    X=             -2.5907    Y=             -1.1259    Z=              0.0000  Tot=              2.8248
 Quadrupole moment (field-independent basis, Debye-Ang):
   XX=            -25.6372   YY=            -44.9535   ZZ=            -56.0878
   XY=              9.7112   XZ=             -0.0002   YZ=              0.0002
 Traceless Quadrupole moment (field-independent basis, Debye-Ang):
   XX=             16.5890   YY=             -2.7273   ZZ=            -13.8617
   XY=              9.7112   XZ=             -0.0002   YZ=              0.0002
 Octapole moment (field-independent basis, Debye-Ang**2):
  XXX=             10.9475  YYY=            -15.2033  ZZZ=             -0.0005  XYY=            -13.5743
  XXY=             17.0535  XXZ=              0.0030  XZZ=              8.4767  YZZ=              0.5357
  YYZ=             -0.0005  XYZ=             -0.0015
 Hexadecapole moment (field-independent basis, Debye-Ang**3):
 XXXX=           -653.5036 YYYY=           -492.8222 ZZZZ=            -53.5716 XXXY=             69.3693
 XXXZ=              0.0111 YYYX=             48.5159 YYYZ=             -0.0102 ZZZX=              0.0129
 ZZZY=             -0.0123 XXYY=           -224.8157 XXZZ=           -184.0639 YYZZ=           -104.2272
 XXYZ=             -0.0032 YYXZ=              0.0050 ZZXY=             -0.6543
 N-N= 5.226643033758D+02 E-N=-2.227869474690D+03  KE= 5.079801857485D+02
 Calling FoFJK, ICntrl=      2127 FMM=F ISym2X=0 I1Cent= 0 IOpClX= 0 NMat=1 NMatS=1 NMatT=0.
 ***** Axes restored to original set *****
 -------------------------------------------------------------------
 Center     Atomic                   Forces (Hartrees/Bohr)
 Number     Number              X              Y              Z
 -------------------------------------------------------------------
      1        7          -0.003634107   -0.003356429    0.000000785
      2        6           0.005136050   -0.004324896   -0.000000073
      3        6           0.004775405   -0.001351182   -0.000000272
      4        6           0.001600299    0.005318737   -0.000000742
      5        6           0.001826492    0.002675263    0.000001132
      6        6          -0.005823388   -0.002064503    0.000004369
      7        6           0.005349165    0.002395065   -0.000015227
      8        8          -0.004321855   -0.009840769    0.000006240
      9        8          -0.002739295    0.006836991    0.000004335
     10        8          -0.000219246    0.004614950   -0.000000106
     11        1          -0.000174955   -0.000108519   -0.000000042
     12        1           0.000030181   -0.000056587   -0.000000115
     13        1           0.000233181   -0.000057112    0.000000072
     14        1           0.000228232    0.000071499   -0.000000061
     15        1          -0.000910884   -0.000268377    0.000000344
     16        1          -0.001355274   -0.000484131   -0.000000638
 -------------------------------------------------------------------
 Cartesian Forces:  Max     0.009840769 RMS     0.002895042

 GradGradGradGradGradGradGradGradGradGradGradGradGradGradGradGradGradGrad
 Berny optimization.
 FormGI is forming the generalized inverse of G from B-inverse, IUseBI=4.
 Internal  Forces:  Max     0.010747920 RMS     0.002476914
 Search for a local minimum.
 Step number   1 out of a maximum of   81
 All quantities printed in internal units (Hartrees-Bohrs-Radians)
 Mixed Optimization -- RFO/linear search
 Second derivative matrix not updated -- first step.
 ITU=  0
     Eigenvalues ---    0.00934   0.01502   0.01807   0.02074   0.02168
     Eigenvalues ---    0.02209   0.02252   0.02278   0.02379   0.02428
     Eigenvalues ---    0.02507   0.02534   0.02711   0.16000   0.16000
     Eigenvalues ---    0.16000   0.16000   0.16000   0.16000   0.22000
     Eigenvalues ---    0.22479   0.24470   0.25000   0.25000   0.25000
     Eigenvalues ---    0.25000   0.33751   0.35397   0.35614   0.35670
     Eigenvalues ---    0.41615   0.43452   0.43623   0.46589   0.48000
     Eigenvalues ---    0.52423   0.52577   0.52663   0.58029   0.58476
     Eigenvalues ---    0.61201   1.03295
 RFO step:  Lambda=-7.41443792D-04 EMin= 9.34416232D-03
 Linear search not attempted -- first point.
 Iteration  1 RMS(Cart)=  0.00835283 RMS(Int)=  0.00000447
 Iteration  2 RMS(Cart)=  0.00000643 RMS(Int)=  0.00000119
 Iteration  3 RMS(Cart)=  0.00000000 RMS(Int)=  0.00000119
 Variable       Old X    -DE/DX   Delta X   Delta X   Delta X     New X
                                 (Linear)    (Quad)   (Total)
    R1        2.50770   0.00728   0.00000   0.01222   0.01222   2.51992
    R2        2.56225   0.00522   0.00000   0.00993   0.00994   2.57219
    R3        1.93609   0.00019   0.00000   0.00043   0.00043   1.93651
    R4        2.63719   0.00438   0.00000   0.00933   0.00932   2.64652
    R5        2.04601   0.00006   0.00000   0.00018   0.00018   2.04619
    R6        2.60116   0.00601   0.00000   0.01179   0.01179   2.61295
    R7        2.04690   0.00023   0.00000   0.00066   0.00066   2.04755
    R8        2.66945   0.00473   0.00000   0.01065   0.01065   2.68009
    R9        2.05036   0.00017   0.00000   0.00049   0.00049   2.05085
   R10        2.63228   0.00849   0.00000   0.01823   0.01823   2.65052
   R11        2.50003   0.00440   0.00000   0.00719   0.00719   2.50721
   R12        2.81052   0.00273   0.00000   0.00806   0.00806   2.81858
   R13        2.27348   0.01075   0.00000   0.01040   0.01040   2.28387
   R14        2.52535   0.00751   0.00000   0.01292   0.01292   2.53827
   R15        1.84196   0.00095   0.00000   0.00180   0.00180   1.84377
   R16        1.83969   0.00138   0.00000   0.00262   0.00262   1.84231
    A1        2.17272   0.00035   0.00000   0.00245   0.00245   2.17517
    A2        2.11351  -0.00009   0.00000  -0.00072  -0.00072   2.11279
    A3        1.99695  -0.00026   0.00000  -0.00173  -0.00173   1.99522
    A4        2.06861  -0.00001   0.00000   0.00004   0.00004   2.06864
    A5        2.05033   0.00001   0.00000   0.00001   0.00002   2.05035
    A6        2.16425   0.00000   0.00000  -0.00005  -0.00005   2.16419
    A7        2.08727   0.00031   0.00000   0.00053   0.00052   2.08779
    A8        2.08410  -0.00020   0.00000  -0.00057  -0.00057   2.08353
    A9        2.11182  -0.00011   0.00000   0.00004   0.00004   2.11186
   A10        2.10545   0.00013   0.00000  -0.00043  -0.00043   2.10502
   A11        2.12139  -0.00023   0.00000  -0.00082  -0.00082   2.12057
   A12        2.05634   0.00010   0.00000   0.00125   0.00125   2.05759
   A13        2.05536   0.00041   0.00000   0.00147   0.00147   2.05683
   A14        2.04695  -0.00031   0.00000  -0.00114  -0.00114   2.04580
   A15        2.18088  -0.00010   0.00000  -0.00033  -0.00033   2.18055
   A16        2.07696  -0.00119   0.00000  -0.00405  -0.00405   2.07292
   A17        1.97199   0.00035   0.00000   0.00107   0.00107   1.97306
   A18        2.23423   0.00083   0.00000   0.00298   0.00297   2.23721
   A19        2.12505   0.00039   0.00000   0.00155   0.00155   2.12659
   A20        1.96214  -0.00046   0.00000  -0.00184  -0.00184   1.96030
   A21        2.19600   0.00007   0.00000   0.00029   0.00029   2.19629
   A22        1.92657  -0.00017   0.00000  -0.00108  -0.00108   1.92549
   A23        1.96324  -0.00075   0.00000  -0.00464  -0.00464   1.95860
    D1        0.00000   0.00000   0.00000   0.00000   0.00000   0.00000
    D2       -3.14159   0.00000   0.00000   0.00000   0.00000  -3.14159
    D3       -3.14159  -0.00000   0.00000  -0.00000  -0.00000   3.14159
    D4        0.00000  -0.00000   0.00000  -0.00000  -0.00000  -0.00000
    D5        0.00000  -0.00000   0.00000  -0.00001  -0.00001  -0.00000
    D6        3.14159  -0.00000   0.00000  -0.00000  -0.00000   3.14159
    D7       -3.14159  -0.00000   0.00000  -0.00000  -0.00000   3.14159
    D8       -0.00000   0.00000   0.00000   0.00000   0.00000   0.00000
    D9       -0.00000  -0.00000   0.00000  -0.00000  -0.00000  -0.00000
   D10        3.14159   0.00000   0.00000   0.00000   0.00000   3.14159
   D11        3.14159  -0.00000   0.00000  -0.00000  -0.00000   3.14159
   D12        0.00000  -0.00000   0.00000  -0.00000  -0.00000  -0.00000
   D13       -0.00000   0.00000   0.00000   0.00000   0.00000   0.00000
   D14        3.14159   0.00000   0.00000   0.00001   0.00001  -3.14159
   D15        3.14159   0.00000   0.00000   0.00000   0.00000   3.14159
   D16       -0.00000   0.00000   0.00000   0.00000   0.00000   0.00000
   D17        0.00000  -0.00000   0.00000  -0.00000  -0.00000  -0.00000
   D18        3.14158   0.00000   0.00000   0.00002   0.00002  -3.14158
   D19       -3.14159  -0.00000   0.00000  -0.00001  -0.00001   3.14159
   D20       -0.00001   0.00000   0.00000   0.00001   0.00001   0.00001
   D21       -0.00000   0.00000   0.00000   0.00001   0.00001   0.00000
   D22        3.14159   0.00000   0.00000   0.00000   0.00000  -3.14159
   D23       -3.14158  -0.00000   0.00000  -0.00002  -0.00002   3.14158
   D24        0.00001  -0.00000   0.00000  -0.00002  -0.00002  -0.00001
   D25       -3.14158  -0.00000   0.00000  -0.00003  -0.00003   3.14157
   D26       -0.00000  -0.00000   0.00000  -0.00001  -0.00001  -0.00001
   D27       -0.00004   0.00000   0.00000   0.00022   0.00022   0.00019
   D28       -3.14151  -0.00000   0.00000  -0.00028  -0.00028   3.14139
   D29        3.14155   0.00000   0.00000   0.00023   0.00023  -3.14140
   D30        0.00008  -0.00000   0.00000  -0.00028  -0.00028  -0.00020
   D31        3.14153   0.00000   0.00000   0.00028   0.00028  -3.14138
   D32        0.00006  -0.00000   0.00000  -0.00025  -0.00025  -0.00019
         Item               Value     Threshold  Converged?
 Maximum Force            0.010748     0.000450     NO 
 RMS     Force            0.002477     0.000300     NO 
 Maximum Displacement     0.024603     0.001800     NO 
 RMS     Displacement     0.008353     0.001200     NO 
 Predicted change in Energy=-3.712350D-04
 GradGradGradGradGradGradGradGradGradGradGradGradGradGradGradGradGradGrad

                          Input orientation:                          
 ---------------------------------------------------------------------
 Center     Atomic      Atomic             Coordinates (Angstroms)
 Number     Number       Type             X           Y           Z
 ---------------------------------------------------------------------
      1          7           0        0.511927   -1.353725   -0.000002
      2          6           0        1.843914   -1.416909    0.000024
      3          6           0        2.570239   -0.219501   -0.000012
      4          6           0        1.896973    0.988231   -0.000075
      5          6           0        0.479195    1.024629   -0.000102
      6          6           0       -0.207601   -0.198309   -0.000066
      7          6           0       -1.681317   -0.428141   -0.000084
      8          8           0       -2.153170   -1.540798    0.000146
      9          8           0       -2.376752    0.721006    0.000103
     10          8           0       -0.097113    2.219687   -0.000173
     11          1           0       -0.057693   -2.205584    0.000022
     12          1           0        2.297419   -2.400159    0.000072
     13          1           0        3.653185   -0.254720    0.000009
     14          1           0        2.429107    1.934080   -0.000106
     15          1           0       -3.334961    0.537201    0.000280
     16          1           0       -1.070178    2.159731   -0.000209
 ---------------------------------------------------------------------
                    Distance matrix (angstroms):
                    1          2          3          4          5
     1  N    0.000000
     2  C    1.333484   0.000000
     3  C    2.350130   1.400476   0.000000
     4  C    2.720866   2.405725   1.382716   0.000000
     5  C    2.378579   2.797063   2.433171   1.418245   0.000000
     6  C    1.361142   2.386147   2.777920   2.416011   1.402592
     7  C    2.380552   3.661272   4.256672   3.848411   2.603527
     8  O    2.671655   3.999003   4.904734   4.774897   3.675698
     9  O    3.556540   4.731247   5.035601   4.282072   2.872042
    10  O    3.624942   4.122185   3.614470   2.343685   1.326761
    11  H    1.024759   2.058669   3.294018   3.744486   3.274526
    12  H    2.069542   1.082797   2.197658   3.411971   3.877513
    13  H    3.327959   2.150382   1.083519   2.151559   3.422126
    14  H    3.805948   3.401702   2.158200   1.085263   2.151571
    15  H    4.286509   5.535277   5.953485   5.251340   3.845176
    16  H    3.853236   4.613489   4.348951   3.190046   1.920681
                    6          7          8          9         10
     6  C    0.000000
     7  C    1.491530   0.000000
     8  O    2.363793   1.208573   0.000000
     9  O    2.355920   1.343194   2.272827   0.000000
    10  O    2.420518   3.085562   4.285862   2.728150   0.000000
    11  H    2.012865   2.407375   2.198400   3.734028   4.425446
    12  H    3.335157   4.440630   4.532796   5.620458   5.203533
    13  H    3.861198   5.337320   5.947079   6.108370   4.493041
    14  H    3.391063   4.740852   5.750829   4.956595   2.542313
    15  H    3.212687   1.914792   2.390547   0.975678   3.648893
    16  H    2.510854   2.659055   3.855747   1.943468   0.974910
                   11         12         13         14         15
    11  H    0.000000
    12  H    2.363136   0.000000
    13  H    4.192432   2.537914   0.000000
    14  H    4.829182   4.336239   2.507830   0.000000
    15  H    4.273565   6.352306   7.032875   5.930915   0.000000
    16  H    4.481194   5.668625   5.304689   3.506553   2.786009
                   16
    16  H    0.000000
 Stoichiometry    C6H6NO3(1+)
 Framework group  C1[X(C6H6NO3)]
 Deg. of freedom    42
 Full point group                 C1      NOp   1
 Largest Abelian subgroup         C1      NOp   1
 Largest concise Abelian subgroup C1      NOp   1
                         Standard orientation:                         
 ---------------------------------------------------------------------
 Center     Atomic      Atomic             Coordinates (Angstroms)
 Number     Number       Type             X           Y           Z
 ---------------------------------------------------------------------
      1          7           0       -0.510266   -1.354822   -0.000015
      2          6           0       -1.842103   -1.421088   -0.000041
      3          6           0       -2.571196   -0.225363   -0.000005
      4          6           0       -1.900727    0.983923    0.000058
      5          6           0       -0.483038    1.023601    0.000085
      6          6           0        0.206587   -0.197744    0.000049
      7          6           0        1.680830   -0.424166    0.000067
      8          8           0        2.155257   -1.535728   -0.000162
      9          8           0        2.373605    0.726587   -0.000120
     10          8           0        0.090504    2.219989    0.000156
     11          1           0        0.061324   -2.205361   -0.000039
     12          1           0       -2.293332   -2.405385   -0.000088
     13          1           0       -3.654058   -0.263089   -0.000026
     14          1           0       -2.435049    1.928538    0.000089
     15          1           0        3.332237    0.545001   -0.000297
     16          1           0        1.063705    2.162285    0.000192
 ---------------------------------------------------------------------
 Rotational constants (GHZ):      2.2790911      1.2449309      0.8051343
 Standard basis: 6-31+G(d,p) (6D, 7F)
 There are   220 symmetry adapted cartesian basis functions of A   symmetry.
 There are   220 symmetry adapted basis functions of A   symmetry.
   220 basis functions,   362 primitive gaussians,   220 cartesian basis functions
    36 alpha electrons       36 beta electrons
       nuclear repulsion energy       520.5297518592 Hartrees.
 NAtoms=   16 NActive=   16 NUniq=   16 SFac= 1.00D+00 NAtFMM=   60 NAOKFM=F Big=F
 Integral buffers will be    131072 words long.
 Raffenetti 2 integral format.
 Two-electron integral symmetry is turned on.
 Nuclear repulsion after empirical dispersion term =      520.5014917819 Hartrees.
 One-electron integrals computed using PRISM.
 NBasis=   220 RedAO= T EigKep=  4.82D-06  NBF=   220
 NBsUse=   220 1.00D-06 EigRej= -1.00D+00 NBFU=   220
 Initial guess from the checkpoint file:  "+b3lyp3HPA.chk"
 B after Tr=    -0.000000   -0.000000   -0.000000
         Rot=    0.999999   -0.000001    0.000001   -0.001106 Ang=  -0.13 deg.
 ExpMin= 4.38D-02 ExpMax= 5.48D+03 ExpMxC= 8.25D+02 IAcc=2 IRadAn=         4 AccDes= 0.00D+00
 Harris functional with IExCor=  402 and IRadAn=       4 diagonalized for initial guess.
 HarFok:  IExCor=  402 AccDes= 0.00D+00 IRadAn=         4 IDoV= 1 UseB2=F ITyADJ=14
 ICtDFT=  3500011 ScaDFX=  1.000000  1.000000  1.000000  1.000000
 FoFCou: FMM=F IPFlag=           0 FMFlag=      100000 FMFlg1=           0
         NFxFlg=           0 DoJE=T BraDBF=F KetDBF=T FulRan=T
         wScrn=  0.000000 ICntrl=     500 IOpCl=  0 I1Cent=   200000004 NGrid=           0
         NMat0=    1 NMatS0=      1 NMatT0=    0 NMatD0=    1 NMtDS0=    0 NMtDT0=    0
 Petite list used in FoFCou.
 Keep R1 ints in memory in canonical form, NReq=301066375.
 Requested convergence on RMS density matrix=1.00D-08 within 128 cycles.
 Requested convergence on MAX density matrix=1.00D-06.
 Requested convergence on             energy=1.00D-06.
 No special actions if energy rises.
 SCF Done:  E(RB3LYP) =  -512.510225078     A.U. after   11 cycles
            NFock= 11  Conv=0.57D-08     -V/T= 2.0093
 Calling FoFJK, ICntrl=      2127 FMM=F ISym2X=0 I1Cent= 0 IOpClX= 0 NMat=1 NMatS=1 NMatT=0.
 ***** Axes restored to original set *****
 -------------------------------------------------------------------
 Center     Atomic                   Forces (Hartrees/Bohr)
 Number     Number              X              Y              Z
 -------------------------------------------------------------------
      1        7          -0.000598842    0.000364359   -0.000002324
      2        6           0.000841494    0.000566257    0.000000466
      3        6          -0.000722230   -0.000427927   -0.000000041
      4        6          -0.000821667    0.000048388    0.000001535
      5        6           0.001075616   -0.000745740   -0.000001993
      6        6          -0.001014779    0.000183978   -0.000013973
      7        6           0.001497792   -0.000936749    0.000051377
      8        8           0.000027861   -0.000014675   -0.000019931
      9        8           0.000179901    0.001429835   -0.000015553
     10        8          -0.000030389    0.000136410   -0.000001021
     11        1           0.000134702    0.000004198    0.000000665
     12        1          -0.000194519    0.000000442    0.000000454
     13        1          -0.000053951    0.000012320   -0.000000137
     14        1          -0.000018717   -0.000097227   -0.000000131
     15        1           0.000049446   -0.000277486   -0.000001077
     16        1          -0.000351718   -0.000246383    0.000001684
 -------------------------------------------------------------------
 Cartesian Forces:  Max     0.001497792 RMS     0.000483767

 GradGradGradGradGradGradGradGradGradGradGradGradGradGradGradGradGradGrad
 Berny optimization.
 Using GEDIIS/GDIIS optimizer.
 FormGI is forming the generalized inverse of G from B-inverse, IUseBI=4.
 Internal  Forces:  Max     0.001764561 RMS     0.000390914
 Search for a local minimum.
 Step number   2 out of a maximum of   81
 All quantities printed in internal units (Hartrees-Bohrs-Radians)
 Mixed Optimization -- En-DIIS/RFO-DIIS
 Update second derivatives using D2CorX and points    1    2
 DE= -3.48D-04 DEPred=-3.71D-04 R= 9.37D-01
 TightC=F SS=  1.41D+00  RLast= 3.73D-02 DXNew= 5.0454D-01 1.1200D-01
 Trust test= 9.37D-01 RLast= 3.73D-02 DXMaxT set to 3.00D-01
 ITU=  1  0
 Use linear search instead of GDIIS.
     Eigenvalues ---    0.00934   0.01501   0.01805   0.02074   0.02168
     Eigenvalues ---    0.02209   0.02252   0.02278   0.02379   0.02428
     Eigenvalues ---    0.02507   0.02534   0.02711   0.15842   0.16000
     Eigenvalues ---    0.16000   0.16000   0.16000   0.16020   0.21977
     Eigenvalues ---    0.22509   0.24258   0.24792   0.25000   0.25000
     Eigenvalues ---    0.25072   0.34316   0.35399   0.35618   0.35670
     Eigenvalues ---    0.42248   0.43474   0.43624   0.47753   0.49023
     Eigenvalues ---    0.52325   0.52445   0.54855   0.55858   0.58904
     Eigenvalues ---    0.61217   1.02776
 RFO step:  Lambda=-2.86808099D-05 EMin= 9.34416276D-03
 Quartic linear search produced a step of -0.05306.
 Iteration  1 RMS(Cart)=  0.00476908 RMS(Int)=  0.00000713
 Iteration  2 RMS(Cart)=  0.00000975 RMS(Int)=  0.00000010
 Iteration  3 RMS(Cart)=  0.00000000 RMS(Int)=  0.00000010
 Variable       Old X    -DE/DX   Delta X   Delta X   Delta X     New X
                                 (Linear)    (Quad)   (Total)
    R1        2.51992   0.00010  -0.00065   0.00132   0.00067   2.52059
    R2        2.57219  -0.00058  -0.00053  -0.00011  -0.00064   2.57155
    R3        1.93651  -0.00008  -0.00002  -0.00013  -0.00015   1.93636
    R4        2.64652  -0.00069  -0.00049  -0.00050  -0.00100   2.64552
    R5        2.04619  -0.00008  -0.00001  -0.00020  -0.00021   2.04598
    R6        2.61295  -0.00017  -0.00063   0.00075   0.00012   2.61308
    R7        2.04755  -0.00005  -0.00003  -0.00008  -0.00012   2.04743
    R8        2.68009  -0.00107  -0.00056  -0.00143  -0.00200   2.67810
    R9        2.05085  -0.00009  -0.00003  -0.00021  -0.00023   2.05062
   R10        2.65052  -0.00092  -0.00097  -0.00026  -0.00123   2.64928
   R11        2.50721   0.00007  -0.00038   0.00076   0.00038   2.50759
   R12        2.81858  -0.00176  -0.00043  -0.00422  -0.00465   2.81393
   R13        2.28387   0.00000  -0.00055   0.00095   0.00040   2.28427
   R14        2.53827   0.00087  -0.00069   0.00259   0.00190   2.54017
   R15        1.84377   0.00000  -0.00010   0.00017   0.00008   1.84384
   R16        1.84231   0.00037  -0.00014   0.00090   0.00076   1.84307
    A1        2.17517  -0.00025  -0.00013  -0.00070  -0.00083   2.17434
    A2        2.11279   0.00002   0.00004  -0.00024  -0.00020   2.11259
    A3        1.99522   0.00023   0.00009   0.00094   0.00103   1.99625
    A4        2.06864  -0.00014  -0.00000  -0.00030  -0.00030   2.06834
    A5        2.05035  -0.00011  -0.00000  -0.00091  -0.00091   2.04944
    A6        2.16419   0.00025   0.00000   0.00121   0.00121   2.16541
    A7        2.08779   0.00014  -0.00003   0.00078   0.00076   2.08855
    A8        2.08353  -0.00006   0.00003  -0.00035  -0.00032   2.08321
    A9        2.11186  -0.00008  -0.00000  -0.00044  -0.00044   2.11142
   A10        2.10502  -0.00018   0.00002  -0.00090  -0.00088   2.10414
   A11        2.12057   0.00006   0.00004   0.00017   0.00022   2.12079
   A12        2.05759   0.00012  -0.00007   0.00073   0.00066   2.05825
   A13        2.05683   0.00025  -0.00008   0.00088   0.00080   2.05763
   A14        2.04580   0.00058   0.00006   0.00218   0.00224   2.04804
   A15        2.18055  -0.00083   0.00002  -0.00306  -0.00304   2.17751
   A16        2.07292   0.00018   0.00021   0.00024   0.00046   2.07337
   A17        1.97306   0.00051  -0.00006   0.00206   0.00200   1.97507
   A18        2.23721  -0.00069  -0.00016  -0.00230  -0.00246   2.23475
   A19        2.12659   0.00045  -0.00008   0.00183   0.00175   2.12834
   A20        1.96030  -0.00097   0.00010  -0.00382  -0.00373   1.95658
   A21        2.19629   0.00052  -0.00002   0.00200   0.00198   2.19827
   A22        1.92549  -0.00052   0.00006  -0.00319  -0.00313   1.92237
   A23        1.95860  -0.00041   0.00025  -0.00286  -0.00262   1.95598
    D1        0.00000  -0.00000  -0.00000  -0.00001  -0.00001  -0.00001
    D2       -3.14159  -0.00000  -0.00000  -0.00002  -0.00002   3.14158
    D3        3.14159   0.00000   0.00000   0.00001   0.00001  -3.14158
    D4       -0.00000   0.00000   0.00000   0.00001   0.00001   0.00001
    D5       -0.00000   0.00000   0.00000   0.00002   0.00002   0.00001
    D6        3.14159   0.00000   0.00000   0.00002   0.00002  -3.14158
    D7        3.14159  -0.00000   0.00000  -0.00001  -0.00001   3.14158
    D8        0.00000  -0.00000  -0.00000  -0.00001  -0.00001  -0.00001
    D9       -0.00000   0.00000   0.00000   0.00001   0.00001   0.00001
   D10        3.14159   0.00000  -0.00000   0.00000   0.00000  -3.14159
   D11        3.14159   0.00000   0.00000   0.00001   0.00001  -3.14158
   D12       -0.00000   0.00000   0.00000   0.00001   0.00001   0.00001
   D13        0.00000  -0.00000  -0.00000  -0.00000  -0.00000  -0.00000
   D14       -3.14159  -0.00000  -0.00000  -0.00000  -0.00000   3.14159
   D15        3.14159   0.00000  -0.00000   0.00000   0.00000  -3.14159
   D16        0.00000   0.00000  -0.00000   0.00000   0.00000   0.00000
   D17       -0.00000   0.00000   0.00000   0.00001   0.00001   0.00000
   D18       -3.14158  -0.00000  -0.00000  -0.00002  -0.00003   3.14158
   D19        3.14159   0.00000   0.00000   0.00001   0.00001  -3.14159
   D20        0.00001  -0.00000  -0.00000  -0.00002  -0.00003  -0.00002
   D21        0.00000  -0.00000  -0.00000  -0.00001  -0.00001  -0.00001
   D22       -3.14159  -0.00000  -0.00000  -0.00001  -0.00001   3.14158
   D23        3.14158   0.00000   0.00000   0.00002   0.00002  -3.14158
   D24       -0.00001   0.00000   0.00000   0.00002   0.00002   0.00001
   D25        3.14157   0.00000   0.00000   0.00007   0.00007  -3.14155
   D26       -0.00001   0.00000   0.00000   0.00003   0.00003   0.00002
   D27        0.00019  -0.00001  -0.00001  -0.00078  -0.00079  -0.00060
   D28        3.14139   0.00001   0.00002   0.00081   0.00082  -3.14097
   D29       -3.14140  -0.00001  -0.00001  -0.00078  -0.00079   3.14099
   D30       -0.00020   0.00001   0.00001   0.00081   0.00082   0.00062
   D31       -3.14138  -0.00001  -0.00001  -0.00086  -0.00088   3.14093
   D32       -0.00019   0.00001   0.00001   0.00080   0.00081   0.00062
         Item               Value     Threshold  Converged?
 Maximum Force            0.001765     0.000450     NO 
 RMS     Force            0.000391     0.000300     NO 
 Maximum Displacement     0.019104     0.001800     NO 
 RMS     Displacement     0.004771     0.001200     NO 
 Predicted change in Energy=-1.542147D-05
 GradGradGradGradGradGradGradGradGradGradGradGradGradGradGradGradGradGrad

                          Input orientation:                          
 ---------------------------------------------------------------------
 Center     Atomic      Atomic             Coordinates (Angstroms)
 Number     Number       Type             X           Y           Z
 ---------------------------------------------------------------------
      1          7           0        0.512220   -1.355080    0.000190
      2          6           0        1.844626   -1.416843   -0.000011
      3          6           0        2.569023   -0.218884   -0.000196
      4          6           0        1.894970    0.988483   -0.000158
      5          6           0        0.478195    1.022723    0.000060
      6          6           0       -0.207418   -0.200131    0.000241
      7          6           0       -1.679103   -0.427006    0.000497
      8          8           0       -2.154928   -1.538200    0.000020
      9          8           0       -2.368750    0.726796   -0.000230
     10          8           0       -0.102671    2.215793    0.000104
     11          1           0       -0.056265   -2.207599    0.000340
     12          1           0        2.298253   -2.399915   -0.000017
     13          1           0        3.651943   -0.252948   -0.000362
     14          1           0        2.426245    1.934674   -0.000295
     15          1           0       -3.327427    0.545235   -0.000651
     16          1           0       -1.075736    2.149622    0.000297
 ---------------------------------------------------------------------
                    Distance matrix (angstroms):
                    1          2          3          4          5
     1  N    0.000000
     2  C    1.333837   0.000000
     3  C    2.349762   1.399949   0.000000
     4  C    2.721082   2.405853   1.382781   0.000000
     5  C    2.378046   2.796179   2.431697   1.417188   0.000000
     6  C    1.360804   2.385639   2.776505   2.415127   1.401940
     7  C    2.379751   3.660115   4.253221   3.844165   2.599163
     8  O    2.673427   4.001395   4.904723   4.773448   3.673100
     9  O    3.554461   4.727338   5.027515   4.271743   2.862284
    10  O    3.623428   4.121652   3.614637   2.344538   1.326960
    11  H    1.024677   2.058806   3.293497   3.744630   3.274237
    12  H    2.069201   1.082685   2.197774   3.412312   3.876474
    13  H    3.327545   2.149662   1.083455   2.151303   3.420528
    14  H    3.806044   3.401609   2.158286   1.085141   2.150942
    15  H    4.284167   5.531717   5.945755   5.241173   3.835460
    16  H    3.847667   4.609576   4.346733   3.189567   1.919532
                    6          7          8          9         10
     6  C    0.000000
     7  C    1.489070   0.000000
     8  O    2.362885   1.208786   0.000000
     9  O    2.351712   1.344200   2.275067   0.000000
    10  O    2.418194   3.077259   4.278344   2.711498   0.000000
    11  H    2.013150   2.409173   2.202835   3.736076   4.423636
    12  H    3.334281   4.439789   4.535788   5.617582   5.202806
    13  H    3.859723   5.333887   5.947405   6.099888   4.493530
    14  H    3.390217   4.736181   5.748739   4.944789   2.544493
    15  H    3.207807   1.913695   2.390702   0.975719   3.631778
    16  H    2.505058   2.646330   3.842484   1.922581   0.975312
                   11         12         13         14         15
    11  H    0.000000
    12  H    2.362359   0.000000
    13  H    4.191834   2.538098   0.000000
    14  H    4.829211   4.336477   2.507593   0.000000
    15  H    4.275348   6.349975   7.024863   5.919061   0.000000
    16  H    4.474896   5.664104   5.303140   3.508571   2.764809
                   16
    16  H    0.000000
 Stoichiometry    C6H6NO3(1+)
 Framework group  C1[X(C6H6NO3)]
 Deg. of freedom    42
 Full point group                 C1      NOp   1
 Largest Abelian subgroup         C1      NOp   1
 Largest concise Abelian subgroup C1      NOp   1
                         Standard orientation:                         
 ---------------------------------------------------------------------
 Center     Atomic      Atomic             Coordinates (Angstroms)
 Number     Number       Type             X           Y           Z
 ---------------------------------------------------------------------
      1          7           0       -0.513848   -1.355135   -0.000157
      2          6           0       -1.846262   -1.416731    0.000044
      3          6           0       -2.570509   -0.218682    0.000228
      4          6           0       -1.896305    0.988601    0.000191
      5          6           0       -0.479526    1.022664   -0.000028
      6          6           0        0.205934   -0.200276   -0.000209
      7          6           0        1.677591   -0.427335   -0.000464
      8          8           0        2.153277   -1.538588    0.000013
      9          8           0        2.367382    0.726382    0.000262
     10          8           0        0.101489    2.215662   -0.000071
     11          1           0        0.054531   -2.207725   -0.000308
     12          1           0       -2.300011   -2.399746    0.000049
     13          1           0       -3.653433   -0.252610    0.000395
     14          1           0       -2.427462    1.934858    0.000328
     15          1           0        3.326036    0.544701    0.000684
     16          1           0        1.074546    2.149369   -0.000264
 ---------------------------------------------------------------------
 Rotational constants (GHZ):      2.2818141      1.2473516      0.8064865
 Standard basis: 6-31+G(d,p) (6D, 7F)
 There are   220 symmetry adapted cartesian basis functions of A   symmetry.
 There are   220 symmetry adapted basis functions of A   symmetry.
   220 basis functions,   362 primitive gaussians,   220 cartesian basis functions
    36 alpha electrons       36 beta electrons
       nuclear repulsion energy       520.8362749329 Hartrees.
 NAtoms=   16 NActive=   16 NUniq=   16 SFac= 1.00D+00 NAtFMM=   60 NAOKFM=F Big=F
 Integral buffers will be    131072 words long.
 Raffenetti 2 integral format.
 Two-electron integral symmetry is turned on.
 Nuclear repulsion after empirical dispersion term =      520.8079922861 Hartrees.
 One-electron integrals computed using PRISM.
 NBasis=   220 RedAO= T EigKep=  4.81D-06  NBF=   220
 NBsUse=   220 1.00D-06 EigRej= -1.00D+00 NBFU=   220
 Initial guess from the checkpoint file:  "+b3lyp3HPA.chk"
 B after Tr=     0.000000   -0.000000   -0.000000
         Rot=    0.999999    0.000007   -0.000001    0.001095 Ang=   0.13 deg.
 Keep R1 ints in memory in canonical form, NReq=301066375.
 Requested convergence on RMS density matrix=1.00D-08 within 128 cycles.
 Requested convergence on MAX density matrix=1.00D-06.
 Requested convergence on             energy=1.00D-06.
 No special actions if energy rises.
 SCF Done:  E(RB3LYP) =  -512.510235765     A.U. after   10 cycles
            NFock= 10  Conv=0.67D-08     -V/T= 2.0092
 Calling FoFJK, ICntrl=      2127 FMM=F ISym2X=0 I1Cent= 0 IOpClX= 0 NMat=1 NMatS=1 NMatT=0.
 ***** Axes restored to original set *****
 -------------------------------------------------------------------
 Center     Atomic                   Forces (Hartrees/Bohr)
 Number     Number              X              Y              Z
 -------------------------------------------------------------------
      1        7          -0.000230579    0.000189388    0.000007686
      2        6           0.000224876    0.000275680   -0.000001618
      3        6          -0.000305370   -0.000172374    0.000000425
      4        6          -0.000289943   -0.000024590   -0.000004631
      5        6           0.000335778    0.000183167    0.000004700
      6        6          -0.000185399   -0.000391493    0.000045326
      7        6           0.001047197   -0.001050517   -0.000162749
      8        8          -0.000102335    0.000726693    0.000063326
      9        8          -0.000867085    0.000144407    0.000048741
     10        8           0.000430105    0.000081472    0.000003270
     11        1           0.000129425    0.000016198   -0.000002503
     12        1          -0.000050867   -0.000013608   -0.000001453
     13        1           0.000005351    0.000009931    0.000000384
     14        1           0.000038623   -0.000040037    0.000000490
     15        1          -0.000103969    0.000062950    0.000003154
     16        1          -0.000075809    0.000002733   -0.000004551
 -------------------------------------------------------------------
 Cartesian Forces:  Max     0.001050517 RMS     0.000307506

 GradGradGradGradGradGradGradGradGradGradGradGradGradGradGradGradGradGrad
 Berny optimization.
 Using GEDIIS/GDIIS optimizer.
 FormGI is forming the generalized inverse of G from B-inverse, IUseBI=4.
 Internal  Forces:  Max     0.000857312 RMS     0.000243442
 Search for a local minimum.
 Step number   3 out of a maximum of   81
 All quantities printed in internal units (Hartrees-Bohrs-Radians)
 Mixed Optimization -- En-DIIS/RFO-DIIS
 Swapping is turned off.
 Update second derivatives using D2CorX and points    1    2    3
 DE= -1.07D-05 DEPred=-1.54D-05 R= 6.93D-01
 TightC=F SS=  1.41D+00  RLast= 1.03D-02 DXNew= 5.0454D-01 3.0971D-02
 Trust test= 6.93D-01 RLast= 1.03D-02 DXMaxT set to 3.00D-01
 ITU=  1  1  0
     Eigenvalues ---    0.00934   0.01515   0.01805   0.02074   0.02168
     Eigenvalues ---    0.02208   0.02252   0.02278   0.02379   0.02428
     Eigenvalues ---    0.02507   0.02534   0.02711   0.14792   0.16000
     Eigenvalues ---    0.16000   0.16000   0.16004   0.16110   0.21785
     Eigenvalues ---    0.22470   0.23771   0.24584   0.25000   0.25005
     Eigenvalues ---    0.30434   0.35386   0.35610   0.35661   0.36501
     Eigenvalues ---    0.41009   0.43618   0.45787   0.47214   0.50812
     Eigenvalues ---    0.52334   0.52935   0.53330   0.58585   0.59549
     Eigenvalues ---    0.61539   1.05742
 En-DIIS/RFO-DIIS IScMMF=        0 using points:     3    2
 RFO step:  Lambda=-5.81540673D-06.
 DidBck=T Rises=F RFO-DIIS coefs:    0.76739    0.23261
 Iteration  1 RMS(Cart)=  0.00189945 RMS(Int)=  0.00000211
 Iteration  2 RMS(Cart)=  0.00000263 RMS(Int)=  0.00000065
 Iteration  3 RMS(Cart)=  0.00000000 RMS(Int)=  0.00000065
 Variable       Old X    -DE/DX   Delta X   Delta X   Delta X     New X
                                 (Linear)    (Quad)   (Total)
    R1        2.52059  -0.00006  -0.00016   0.00024   0.00008   2.52067
    R2        2.57155  -0.00020   0.00015  -0.00053  -0.00038   2.57116
    R3        1.93636  -0.00009   0.00004  -0.00022  -0.00018   1.93618
    R4        2.64552  -0.00041   0.00023  -0.00114  -0.00091   2.64461
    R5        2.04598  -0.00001   0.00005  -0.00012  -0.00007   2.04591
    R6        2.61308  -0.00018  -0.00003  -0.00022  -0.00025   2.61283
    R7        2.04743   0.00001   0.00003  -0.00004  -0.00001   2.04742
    R8        2.67810  -0.00031   0.00046  -0.00141  -0.00095   2.67715
    R9        2.05062  -0.00002   0.00005  -0.00014  -0.00008   2.05054
   R10        2.64928   0.00052   0.00029   0.00035   0.00064   2.64992
   R11        2.50759  -0.00008  -0.00009   0.00009   0.00000   2.50759
   R12        2.81393   0.00004   0.00108  -0.00199  -0.00091   2.81302
   R13        2.28427  -0.00063  -0.00009  -0.00026  -0.00035   2.28392
   R14        2.54017   0.00067  -0.00044   0.00177   0.00132   2.54149
   R15        1.84384   0.00009  -0.00002   0.00017   0.00015   1.84399
   R16        1.84307   0.00008  -0.00018   0.00046   0.00028   1.84336
    A1        2.17434   0.00011   0.00019   0.00003   0.00023   2.17457
    A2        2.11259  -0.00015   0.00005  -0.00075  -0.00070   2.11189
    A3        1.99625   0.00004  -0.00024   0.00072   0.00048   1.99673
    A4        2.06834   0.00002   0.00007  -0.00020  -0.00013   2.06821
    A5        2.04944  -0.00006   0.00021  -0.00063  -0.00041   2.04903
    A6        2.16541   0.00004  -0.00028   0.00082   0.00054   2.16595
    A7        2.08855   0.00005  -0.00018   0.00037   0.00020   2.08875
    A8        2.08321  -0.00001   0.00007  -0.00010  -0.00003   2.08318
    A9        2.11142  -0.00004   0.00010  -0.00027  -0.00017   2.11125
   A10        2.10414   0.00009   0.00020  -0.00014   0.00007   2.10421
   A11        2.12079  -0.00010  -0.00005  -0.00029  -0.00034   2.12046
   A12        2.05825   0.00001  -0.00015   0.00042   0.00027   2.05852
   A13        2.05763  -0.00006  -0.00019   0.00028   0.00010   2.05773
   A14        2.04804  -0.00042  -0.00052  -0.00030  -0.00082   2.04722
   A15        2.17751   0.00048   0.00071   0.00002   0.00073   2.17824
   A16        2.07337  -0.00022  -0.00011  -0.00036  -0.00046   2.07291
   A17        1.97507  -0.00047  -0.00047  -0.00058  -0.00104   1.97402
   A18        2.23475   0.00069   0.00057   0.00093   0.00151   2.23625
   A19        2.12834   0.00001  -0.00041   0.00082   0.00041   2.12875
   A20        1.95658   0.00085   0.00087   0.00087   0.00174   1.95832
   A21        2.19827  -0.00086  -0.00046  -0.00169  -0.00215   2.19611
   A22        1.92237   0.00015   0.00073  -0.00073  -0.00000   1.92236
   A23        1.95598   0.00001   0.00061  -0.00114  -0.00053   1.95546
    D1       -0.00001   0.00000   0.00000   0.00003   0.00003   0.00002
    D2        3.14158   0.00000   0.00000   0.00004   0.00005  -3.14156
    D3       -3.14158  -0.00000  -0.00000  -0.00003  -0.00004   3.14157
    D4        0.00001  -0.00000  -0.00000  -0.00002  -0.00003  -0.00002
    D5        0.00001  -0.00000  -0.00000  -0.00003  -0.00004  -0.00003
    D6       -3.14158  -0.00000  -0.00000  -0.00004  -0.00004   3.14157
    D7        3.14158   0.00000   0.00000   0.00003   0.00003  -3.14157
    D8       -0.00001   0.00000   0.00000   0.00002   0.00003   0.00002
    D9        0.00001  -0.00000  -0.00000  -0.00002  -0.00002  -0.00001
   D10       -3.14159  -0.00000  -0.00000  -0.00001  -0.00001   3.14159
   D11       -3.14158  -0.00000  -0.00000  -0.00003  -0.00003   3.14157
   D12        0.00001  -0.00000  -0.00000  -0.00002  -0.00002  -0.00001
   D13       -0.00000   0.00000   0.00000   0.00001   0.00001   0.00001
   D14        3.14159   0.00000   0.00000   0.00001   0.00001  -3.14159
   D15       -3.14159  -0.00000  -0.00000  -0.00000  -0.00000   3.14159
   D16        0.00000  -0.00000  -0.00000  -0.00000  -0.00000  -0.00000
   D17        0.00000  -0.00000  -0.00000  -0.00001  -0.00001  -0.00001
   D18        3.14158   0.00000   0.00001   0.00004   0.00004  -3.14157
   D19       -3.14159  -0.00000  -0.00000  -0.00001  -0.00001   3.14159
   D20       -0.00002   0.00000   0.00001   0.00004   0.00005   0.00003
   D21       -0.00001   0.00000   0.00000   0.00002   0.00002   0.00002
   D22        3.14158   0.00000   0.00000   0.00003   0.00003  -3.14157
   D23       -3.14158  -0.00000  -0.00001  -0.00003  -0.00004   3.14157
   D24        0.00001  -0.00000  -0.00001  -0.00003  -0.00003  -0.00002
   D25       -3.14155  -0.00000  -0.00002  -0.00011  -0.00013   3.14151
   D26        0.00002  -0.00000  -0.00001  -0.00006  -0.00007  -0.00005
   D27       -0.00060   0.00004   0.00018   0.00169   0.00187   0.00127
   D28       -3.14097  -0.00004  -0.00019  -0.00168  -0.00187   3.14034
   D29        3.14099   0.00004   0.00018   0.00168   0.00187  -3.14033
   D30        0.00062  -0.00004  -0.00019  -0.00168  -0.00187  -0.00125
   D31        3.14093   0.00005   0.00020   0.00183   0.00203  -3.14023
   D32        0.00062  -0.00004  -0.00019  -0.00170  -0.00188  -0.00126
         Item               Value     Threshold  Converged?
 Maximum Force            0.000857     0.000450     NO 
 RMS     Force            0.000243     0.000300     YES
 Maximum Displacement     0.007607     0.001800     NO 
 RMS     Displacement     0.001900     0.001200     NO 
 Predicted change in Energy=-4.309261D-06
 GradGradGradGradGradGradGradGradGradGradGradGradGradGradGradGradGradGrad

                          Input orientation:                          
 ---------------------------------------------------------------------
 Center     Atomic      Atomic             Coordinates (Angstroms)
 Number     Number       Type             X           Y           Z
 ---------------------------------------------------------------------
      1          7           0        0.511758   -1.354164   -0.000250
      2          6           0        1.844184   -1.416472    0.000069
      3          6           0        2.568668   -0.219131    0.000224
      4          6           0        1.895259    0.988445    0.000028
      5          6           0        0.479005    1.023449   -0.000320
      6          6           0       -0.207562   -0.199256   -0.000466
      7          6           0       -1.678573   -0.427325   -0.000844
      8          8           0       -2.153828   -1.538562    0.000358
      9          8           0       -2.371577    0.725282    0.000502
     10          8           0       -0.100226    2.217315   -0.000522
     11          1           0       -0.056421   -2.206771   -0.000394
     12          1           0        2.296987   -2.399885    0.000185
     13          1           0        3.651570   -0.253532    0.000489
     14          1           0        2.427285    1.934163    0.000136
     15          1           0       -3.329856    0.541210    0.001465
     16          1           0       -1.073496    2.151952   -0.000832
 ---------------------------------------------------------------------
                    Distance matrix (angstroms):
                    1          2          3          4          5
     1  N    0.000000
     2  C    1.333881   0.000000
     3  C    2.349293   1.399466   0.000000
     4  C    2.720642   2.405460   1.382650   0.000000
     5  C    2.377839   2.795878   2.431193   1.416687   0.000000
     6  C    1.360601   2.385639   2.776301   2.415055   1.402278
     7  C    2.378357   3.658993   4.252341   3.844045   2.599979
     8  O    2.671957   3.999876   4.903353   4.772931   3.673651
     9  O    3.554956   4.728609   5.029705   4.274944   2.866133
    10  O    3.623532   4.121303   3.613761   2.343520   1.326960
    11  H    1.024581   2.058366   3.292690   3.744124   3.274294
    12  H    2.068954   1.082650   2.197612   3.412061   3.876116
    13  H    3.327132   2.149204   1.083448   2.151077   3.419920
    14  H    3.805567   3.400995   2.157931   1.085096   2.150627
    15  H    4.283742   5.532017   5.947328   5.244221   3.839268
    16  H    3.847842   4.609394   4.345964   3.188614   1.919317
                    6          7          8          9         10
     6  C    0.000000
     7  C    1.488587   0.000000
     8  O    2.362561   1.208601   0.000000
     9  O    2.353238   1.344901   2.274291   0.000000
    10  O    2.418953   3.079821   4.280641   2.717572   0.000000
    11  H    2.013196   2.407863   2.201277   3.735890   4.424302
    12  H    3.333996   4.438025   4.533391   5.618020   5.202419
    13  H    3.859514   5.332976   5.945919   6.102161   4.492333
    14  H    3.390265   4.736529   5.748602   4.948785   2.543323
    15  H    3.208896   1.914367   2.389245   0.975799   3.638659
    16  H    2.505598   2.649300   3.845389   1.928835   0.975462
                   11         12         13         14         15
    11  H    0.000000
    12  H    2.361318   0.000000
    13  H    4.190983   2.538056   0.000000
    14  H    4.828678   4.336006   2.506966   0.000000
    15  H    4.273965   6.349126   7.026516   5.923259   0.000000
    16  H    4.475814   5.663866   5.302132   3.507550   2.772302
                   16
    16  H    0.000000
 Stoichiometry    C6H6NO3(1+)
 Framework group  C1[X(C6H6NO3)]
 Deg. of freedom    42
 Full point group                 C1      NOp   1
 Largest Abelian subgroup         C1      NOp   1
 Largest concise Abelian subgroup C1      NOp   1
                         Standard orientation:                         
 ---------------------------------------------------------------------
 Center     Atomic      Atomic             Coordinates (Angstroms)
 Number     Number       Type             X           Y           Z
 ---------------------------------------------------------------------
      1          7           0       -0.512159   -1.354789    0.000170
      2          6           0       -1.844539   -1.418061   -0.000149
      3          6           0       -2.569890   -0.221243   -0.000304
      4          6           0       -1.897354    0.986819   -0.000108
      5          6           0       -0.481125    1.022848    0.000239
      6          6           0        0.206325   -0.199361    0.000386
      7          6           0        1.677501   -0.426366    0.000764
      8          8           0        2.153560   -1.537258   -0.000438
      9          8           0        2.369671    0.726742   -0.000582
     10          8           0        0.097242    2.217132    0.000442
     11          1           0        0.056637   -2.206984    0.000314
     12          1           0       -2.296631   -2.401800   -0.000265
     13          1           0       -3.652766   -0.256427   -0.000569
     14          1           0       -2.430064    1.932152   -0.000216
     15          1           0        3.328084    0.543363   -0.001545
     16          1           0        1.070559    2.152473    0.000752
 ---------------------------------------------------------------------
 Rotational constants (GHZ):      2.2812894      1.2470357      0.8062890
 Standard basis: 6-31+G(d,p) (6D, 7F)
 There are   220 symmetry adapted cartesian basis functions of A   symmetry.
 There are   220 symmetry adapted basis functions of A   symmetry.
   220 basis functions,   362 primitive gaussians,   220 cartesian basis functions
    36 alpha electrons       36 beta electrons
       nuclear repulsion energy       520.8024433832 Hartrees.
 NAtoms=   16 NActive=   16 NUniq=   16 SFac= 1.00D+00 NAtFMM=   60 NAOKFM=F Big=F
 Integral buffers will be    131072 words long.
 Raffenetti 2 integral format.
 Two-electron integral symmetry is turned on.
 Nuclear repulsion after empirical dispersion term =      520.7741634411 Hartrees.
 One-electron integrals computed using PRISM.
 NBasis=   220 RedAO= T EigKep=  4.80D-06  NBF=   220
 NBsUse=   220 1.00D-06 EigRej= -1.00D+00 NBFU=   220
 Initial guess from the checkpoint file:  "+b3lyp3HPA.chk"
 B after Tr=    -0.000000    0.000000   -0.000000
         Rot=    1.000000   -0.000019    0.000002   -0.000406 Ang=  -0.05 deg.
 Keep R1 ints in memory in canonical form, NReq=301066375.
 Requested convergence on RMS density matrix=1.00D-08 within 128 cycles.
 Requested convergence on MAX density matrix=1.00D-06.
 Requested convergence on             energy=1.00D-06.
 No special actions if energy rises.
 SCF Done:  E(RB3LYP) =  -512.510239652     A.U. after    9 cycles
            NFock=  9  Conv=0.74D-08     -V/T= 2.0092
 Calling FoFJK, ICntrl=      2127 FMM=F ISym2X=0 I1Cent= 0 IOpClX= 0 NMat=1 NMatS=1 NMatT=0.
 ***** Axes restored to original set *****
 -------------------------------------------------------------------
 Center     Atomic                   Forces (Hartrees/Bohr)
 Number     Number              X              Y              Z
 -------------------------------------------------------------------
      1        7           0.000021737    0.000046576   -0.000015869
      2        6          -0.000010020    0.000032418    0.000003230
      3        6           0.000046172   -0.000049411   -0.000000879
      4        6          -0.000023026   -0.000033558    0.000009505
      5        6           0.000037257    0.000088447   -0.000008810
      6        6           0.000027288   -0.000102975   -0.000093137
      7        6          -0.000008199   -0.000274373    0.000334952
      8        8           0.000012515    0.000240682   -0.000130416
      9        8          -0.000107121    0.000041276   -0.000100529
     10        8          -0.000092457   -0.000079987   -0.000007071
     11        1           0.000012162   -0.000005179    0.000005290
     12        1           0.000000107   -0.000016648    0.000003007
     13        1           0.000018738    0.000011905   -0.000000747
     14        1           0.000020948    0.000002941   -0.000001047
     15        1           0.000038254    0.000015476   -0.000006556
     16        1           0.000005643    0.000082410    0.000009078
 -------------------------------------------------------------------
[...]
 ! A22   A(7,9,15)             110.1402         -DE/DX =    0.0                 !
 ! A23   A(5,10,16)            112.085          -DE/DX =    0.0                 !
 ! D1    D(6,1,2,3)              0.0001         -DE/DX =    0.0                 !
 ! D2    D(6,1,2,12)           180.0001         -DE/DX =    0.0                 !
 ! D3    D(11,1,2,3)          -180.0            -DE/DX =    0.0                 !
 ! D4    D(11,1,2,12)            0.0            -DE/DX =    0.0                 !
 ! D5    D(2,1,6,5)             -0.0001         -DE/DX =    0.0                 !
 ! D6    D(2,1,6,7)           -180.0            -DE/DX =    0.0                 !
 ! D7    D(11,1,6,5)           180.0            -DE/DX =    0.0                 !
 ! D8    D(11,1,6,7)             0.0            -DE/DX =    0.0                 !
 ! D9    D(1,2,3,4)              0.0            -DE/DX =    0.0                 !
 ! D10   D(1,2,3,13)           180.0            -DE/DX =    0.0                 !
 ! D11   D(12,2,3,4)          -180.0            -DE/DX =    0.0                 !
 ! D12   D(12,2,3,13)            0.0            -DE/DX =    0.0                 !
 ! D13   D(2,3,4,5)              0.0            -DE/DX =    0.0                 !
 ! D14   D(2,3,4,14)          -180.0            -DE/DX =    0.0                 !
 ! D15   D(13,3,4,5)          -180.0            -DE/DX =    0.0                 !
 ! D16   D(13,3,4,14)            0.0            -DE/DX =    0.0                 !
 ! D17   D(3,4,5,6)              0.0            -DE/DX =    0.0                 !
 ! D18   D(3,4,5,10)           180.0001         -DE/DX =    0.0                 !
 ! D19   D(14,4,5,6)           180.0            -DE/DX =    0.0                 !
 ! D20   D(14,4,5,10)            0.0001         -DE/DX =    0.0                 !
 ! D21   D(4,5,6,1)              0.0            -DE/DX =    0.0                 !
 ! D22   D(4,5,6,7)            180.0            -DE/DX =    0.0                 !
 ! D23   D(10,5,6,1)          -180.0001         -DE/DX =    0.0                 !
 ! D24   D(10,5,6,7)            -0.0002         -DE/DX =    0.0                 !
 ! D25   D(4,5,10,16)         -180.0004         -DE/DX =    0.0                 !
 ! D26   D(6,5,10,16)           -0.0002         -DE/DX =    0.0                 !
 ! D27   D(1,6,7,8)              0.0031         -DE/DX =    0.0                 !
 ! D28   D(1,6,7,9)           -180.0033         -DE/DX =    0.0                 !
 ! D29   D(5,6,7,8)           -179.9969         -DE/DX =    0.0                 !
 ! D30   D(5,6,7,9)             -0.0033         -DE/DX =    0.0                 !
 ! D31   D(6,7,9,15)           180.0035         -DE/DX =    0.0                 !
 ! D32   D(8,7,9,15)            -0.0032         -DE/DX =    0.0                 !
 --------------------------------------------------------------------------------
 GradGradGradGradGradGradGradGradGradGradGradGradGradGradGradGradGradGrad

 1\1\ WCSS.PL-BEM-QINLAB\Freq\RB3LYP\6-31+G(d,p)\C6H6N1O3(1+)\PHZD\19-M
 ay-2024\0\\#N Geom=AllCheck Guess=TCheck SCRF=Check GenChk RB3LYP/6-31
 +G(d,p) Freq\\[No Title]\\1,1\N,0.5119781147,-1.3543215229,0.000032489
 \C,1.8444398217,-1.416491104,0.0000187866\C,2.5688047354,-0.2191554106
 ,-0.0000442491\C,1.8951498539,0.9883236984,-0.0000913804\C,0.478902557
 ,1.0232678432,-0.0000759287\C,-0.2075617745,-0.1995867637,-0.000012136
 7\C,-1.6786118951,-0.4273804149,0.0000161042\O,-2.1545746197,-1.538168
 1824,0.0001282234\O,-2.3714674863,0.7255309721,0.0000433602\O,-0.10054
 60358,2.2170600744,-0.000126141\H,-0.0559093601,-2.2071042638,0.000078
 3697\H,2.2972275564,-2.3999298307,0.0000575866\H,3.6517406368,-0.25329
 24101,-0.0000558262\H,2.4272082499,1.934040929,-0.0001413387\H,-3.3297
 406518,0.5416198979,0.0001170241\H,-1.0738647024,2.1523054882,-0.00011
 69431\\Version=ES64L-G09RevE.01\State=1-A\HF=-512.5102401\RMSD=7.259e-
 09\RMSF=2.627e-05\ZeroPoint=0.1221167\Thermal=0.1300644\Dipole=1.04803
 36,-0.4510937,-0.0000157\DipoleDeriv=0.1346678,-0.1616745,0.000003,-0.
 5704099,-0.3018928,0.0000195,0.0000158,0.0000073,-0.106407,-0.2579487,
 0.1570145,0.0000009,-0.1370131,0.2448808,-0.0000051,0.00001,-0.0000099
 ,0.0733189,0.2022122,-0.0417115,-0.0000012,0.3256556,-0.1132888,-0.000
 0047,-0.0000193,0.0000028,-0.0510835,0.1546979,0.3414039,-0.0000211,-0
 .0148589,0.1069142,-0.0000045,0.0000022,-0.0000089,-0.0295409,0.078408
 5,-0.6968553,0.0000394,-0.6034852,1.3334592,-0.0000503,0.0000208,-0.00
 00475,0.2027698,-0.5812036,-0.2818416,0.0000303,0.4936909,-0.1959484,0
 .0000069,-0.000026,0.0000134,0.08742,2.0541201,0.0918618,-0.0000522,-0
 .0361721,1.6033618,-0.0000274,-0.0000545,-0.0000396,0.3574025,-0.89807
 66,-0.2839664,0.0000221,-0.2502348,-0.9797305,0.0000175,0.0000431,0.00
 00623,-0.3210151,-1.0218568,0.4308482,0.000008,0.4289648,-0.8947085,0.
 0000045,0.0000338,-0.0000219,-0.3486369,-0.5241186,0.6131742,-0.000026
 7,0.4015441,-1.1566375,0.0000395,-0.0000137,0.0000374,-0.3206534,0.349
 4965,0.0276952,-0.0000035,0.0905315,0.3630279,-0.0000042,-0.0000049,-0
 .0000023,0.2790057,0.1201347,-0.0401259,0.0000026,-0.0328159,0.1166836
 ,0.0000028,0.0000036,0.0000038,0.1630085,0.1101787,0.005223,0.0000002,
 0.0093098,0.1100049,0.0000017,-0.0000004,0.0000018,0.1500183,0.1161464
 ,0.0118199,-0.0000001,0.0139933,0.1079283,0.0000015,0.0000006,0.000000
 9,0.1450966,0.4868827,-0.0828952,-0.0000016,-0.098795,0.2772704,0.0000
 086,-0.0000042,0.0000079,0.3796986,0.4762586,-0.0899702,-0.0000001,-0.
 0199051,0.3786755,-0.0000063,-0.000007,-0.0000075,0.339598\Polar=110.8
 348223,-1.3493207,94.3060812,-0.0014969,-0.0025238,41.1708703\PG=C01 [
 X(C6H6N1O3)]\NImag=0\\0.85395369,0.05539228,0.79044585,-0.00001093,-0.
 00003100,0.12566882,-0.38559061,-0.01582577,0.00000443,0.71776090,0.04
 443205,-0.15265917,0.00000356,-0.04705766,0.79002605,0.00000189,0.0000
 0423,-0.05934143,-0.00000490,-0.00002896,0.13836029,-0.04822259,-0.034
 23092,0.00000221,-0.18013964,-0.11066598,0.00000646,0.77722516,-0.0808
 6967,0.02540261,0.00000036,-0.05493097,-0.28100939,0.00001050,-0.02052
 759,0.68332318,0.00000450,-0.00000052,0.00771211,0.00000369,0.00001115
 ,-0.06410191,-0.00000679,-0.00002473,0.13336682,-0.04698308,0.02446434
 ,-0.00000057,0.06225439,0.01086639,-0.00000115,-0.19424431,0.08216646,
 -0.00000205,0.66680328,0.02900153,-0.01261818,0.00000010,-0.01852337,-
 0.05539258,0.00000297,0.13273759,-0.32607466,0.00001077,0.00298629,0.7
 8484623,-0.00000079,0.00000030,-0.00212799,0.00000015,0.00000255,0.004
 27925,-0.00000439,0.00001127,-0.05603359,-0.00000654,-0.00002978,0.134
 43947,0.06340483,-0.02087547,0.00000013,-0.04513655,-0.01328604,0.0000
 0106,-0.01476919,0.06033944,-0.00000266,-0.29469512,-0.04542988,0.0000
 0505,0.69316427,0.01172579,-0.06376350,0.00000289,-0.02397542,-0.00012
 782,0.00000009,0.03872176,0.01791773,-0.00000144,0.00391055,-0.1197039
 7,0.00000245,-0.03415852,0.74544394,-0.00000095,0.00000291,-0.00235671
 ,0.00000136,-0.00000014,-0.00298111,-0.00000169,-0.00000137,-0.0021346
 8,0.00000252,0.00000301,-0.06624311,-0.00000397,-0.00002693,0.15496385
 ,-0.17520347,0.09696573,-0.00000347,-0.06009261,0.02536004,-0.00000050
 ,0.00297013,0.02433368,-0.00000120,-0.00893319,-0.03487049,0.00000164,
 -0.19972304,-0.08975115,0.00000509,0.65644033,0.05227601,-0.27671919,0
 .00000948,0.07594147,0.01123260,-0.00000099,-0.01282327,-0.04519895,0.
 00000213,-0.05216504,0.02928012,-0.00000061,-0.06083076,-0.25371831,0.
 00000938,0.01564377,0.73207152,-0.00000190,0.00000904,-0.05346712,-0.0
 0000250,-0.00000022,0.00659272,0.00000055,0.00000153,-0.00328396,0.000
 00265,-0.00000116,0.00378817,0.00000366,0.00001002,-0.05743119,-0.0000
 0917,-0.00002773,0.12179722,-0.05365207,0.02462702,-0.00000026,0.02233
 034,0.00612044,-0.00000025,-0.00247880,-0.01499360,0.00000071,-0.00980
 302,0.00546937,0.00000017,0.01161465,-0.03509881,0.00000178,-0.1834064
 4,-0.01011272,-0.00000088,0.65526938,0.02782709,0.00482237,-0.00000022
 ,0.00681752,-0.00852066,0.00000075,-0.00205688,-0.00253454,0.00000010,
 -0.00171822,-0.00554700,0.00000055,-0.03326198,0.01608554,-0.00000033,
 -0.00996503,-0.09076783,0.00000019,0.12658695,0.95537026,-0.00000031,-
 0.00000103,-0.00266116,-0.00000039,0.00000075,0.00587192,0.00000025,0.
 00000027,-0.00058077,0.00000021,0.00000036,0.00754589,0.00000100,0.000
 00098,0.00133435,0.00000266,0.00000020,-0.06960556,-0.00003558,-0.0000
 5193,0.19086704,-0.00147122,-0.00706272,0.00000046,-0.00307222,-0.0034
 4598,0.00000018,-0.00032512,0.00258198,-0.00000012,0.00102737,-0.00326
 491,-0.00000005,-0.00979272,0.01182724,-0.00000026,-0.03386135,-0.0476
 0974,0.00000547,-0.21918712,-0.23878528,0.00002584,0.22616288,0.015771
 74,-0.00365298,-0.00000030,-0.00775354,0.00114040,-0.00000012,0.001899
 51,0.00371087,-0.00000019,0.00107439,-0.00157855,-0.00000013,-0.000335
 89,0.00217521,0.00000009,-0.03920637,-0.02356542,0.00000462,-0.2344727
 7,-0.62886650,0.00005329,0.27585389,0.74341001,-0.00000105,0.00000056,
 0.00136323,0.00000057,-0.00000007,-0.00056411,-0.00000017,-0.00000029,
 -0.00015236,-0.00000006,0.00000026,-0.00167274,0.00000054,-0.00000064,
 0.00242751,0.00000376,0.00000484,0.01970605,0.00002646,0.00005494,-0.0
 7265645,-0.00002981,-0.00006320,0.03294873,-0.00610471,-0.00582998,0.0
 0000045,-0.00315617,0.00110000,-0.00000011,0.00036649,0.00312694,-0.00
 000012,0.00260334,-0.00083110,-0.00000001,-0.00361999,0.00395067,-0.00
 000013,-0.03511409,0.03963525,0.00000160,-0.19063417,0.10372233,0.0000
 0594,0.03540147,0.00265587,-0.00000071,0.67577749,-0.00130685,0.005087
 45,-0.00000021,0.00167314,0.00232733,-0.00000012,0.00004696,-0.0029346
 6,0.00000015,-0.00332311,0.00209751,-0.00000004,0.00796069,-0.01551117
 ,0.00000081,0.01770171,0.00144152,-0.00000113,0.05769803,-0.23637136,0
 .00000154,0.02532461,-0.09598454,0.00000315,-0.02144387,0.40273900,0.0
 0000059,0.00000017,0.00158520,-0.00000004,-0.00000014,0.00005052,-0.00
 000001,0.,0.00023332,0.00000007,-0.00000004,-0.00062313,0.00000009,0.0
 0000027,0.00071221,0.00000067,-0.00000153,0.00721818,0.00000810,-0.000
 00408,-0.05841708,-0.00000173,0.00000590,0.02598932,-0.00004304,-0.000
 00985,0.03898635,-0.01279909,0.00364840,0.00000021,0.00935677,0.006389
 71,-0.00000040,-0.00652739,-0.01506495,0.00000086,-0.04093665,0.062297
 69,-0.00000253,-0.16428127,0.12584002,-0.00000479,0.02844733,-0.008841
 28,0.00000021,-0.02023045,0.01218672,0.00000032,0.00491019,-0.00394760
 ,0.00000007,-0.00508911,-0.01591909,0.00000076,0.67058348,0.00104612,-
 0.00344751,0.00000041,-0.00520916,-0.00826519,0.00000038,-0.00426252,0
 .01025151,-0.00000018,0.02862021,-0.01092193,0.00000050,0.08592758,-0.
 32508792,0.00001209,0.00580695,-0.05360804,0.00000286,0.01889358,-0.00
 464123,-0.00000069,-0.00454588,0.00003256,0.00000017,-0.01073078,0.006
 90511,0.00000047,-0.09920914,0.43839454,0.00000011,0.00000052,0.008361
 24,0.00000011,0.00000024,-0.00144910,0.00000029,-0.00000008,0.00462873
 ,-0.00000079,0.00000020,0.00575412,-0.00000309,0.00001160,-0.04509946,
 -0.00000023,0.00000319,0.00695460,-0.00000061,-0.00000017,-0.00223758,
 0.00000011,0.00000016,-0.00013360,0.00000077,0.00000019,0.00156330,-0.
 00000009,-0.00001786,0.03619607,-0.16715252,-0.15317610,0.00000843,-0.
 01574823,-0.02845718,0.00000147,-0.00491623,0.00371379,-0.00000003,-0.
 00009142,0.00045576,-0.00000004,-0.00231132,0.00297078,-0.00000009,0.0
 1721962,0.01358528,-0.00000072,0.00345171,0.01474656,-0.00000085,0.000
 78067,-0.00885995,0.00000049,0.00044806,-0.00577080,0.00000007,-0.0006
 2191,0.00220356,-0.00000008,0.16756246,-0.15289633,-0.31299226,0.00001
 469,0.00136769,0.01110284,-0.00000052,0.00260949,0.00252589,0.00000021
 ,0.00068846,-0.00019448,-0.00000006,0.00492380,-0.00250644,0.00000035,
 -0.01310197,-0.02690458,0.00000128,0.00180523,-0.00219834,0.00000006,-
 0.00295220,0.00001716,-0.00000007,-0.00105808,-0.00021796,0.00000009,-
 0.00144210,0.00000156,0.00000003,0.15868519,0.32972288,0.00000835,0.00
 001477,-0.03096665,0.00000022,-0.00000023,-0.00013822,0.,0.00000012,0.
 00761187,-0.00000012,-0.00000004,-0.00128118,-0.00000004,0.00000040,0.
 00549811,0.00000052,0.00000100,0.00006323,-0.00000047,-0.00000028,-0.0
 0186252,0.00000006,0.00000015,-0.00286635,0.00000014,0.00000016,0.0003
 9509,0.00000007,0.,0.00059051,-0.00000861,-0.00001577,0.02707392,-0.01
 937255,0.03563527,-0.00000141,-0.10691415,0.10358348,-0.00000377,0.013
 36697,-0.01547915,0.00000061,-0.00265896,-0.00343283,0.00000026,-0.000
 21806,0.00039595,-0.00000002,-0.00331535,-0.00422320,0.00000029,-0.000
 02293,0.00148560,-0.00000007,0.00003928,-0.00018072,0.00000002,-0.0005
 6013,-0.00010051,0.00000003,0.00041093,-0.00020324,0.,0.00072189,0.000
 89048,-0.00000010,0.11749956,-0.00211593,0.00584569,-0.00000024,0.1138
 1591,-0.31200876,0.00001106,0.01118495,-0.01235204,0.00000068,-0.00284
 024,-0.00246221,0.00000041,-0.00117432,-0.00086167,0.00000004,-0.00198
 125,0.00262195,0.00000024,0.00059073,0.00041270,0.00000003,-0.00017509
 ,-0.00026416,0.00000002,-0.00030861,0.00008605,0.,-0.00001790,0.000554
 48,-0.00000006,0.00012589,0.00101496,-0.00000022,-0.11799432,0.3173290
 6,0.00000037,-0.00000064,0.00036584,-0.00000423,0.00001114,-0.03699486
 ,-0.00000061,0.00000096,0.00532955,0.00000020,0.00000041,0.00579862,0.
 00000005,-0.00000004,-0.00029472,0.00000023,0.00000032,0.00768679,0.00
 000002,0.00000007,0.00178240,0.00000002,0.00000002,-0.00007662,-0.0000
 0003,-0.00000002,-0.00036167,-0.00000004,-0.00000002,-0.00065153,-0.00
 000006,-0.00000025,-0.00411458,0.00000419,-0.00001178,0.02526808,0.000
 62864,-0.00241861,0.00000019,-0.00941618,0.00254033,0.00000002,-0.3549
 5451,0.00768089,0.00000348,-0.00771267,-0.00051540,0.00000018,0.000774
 43,0.00137015,0.00000004,0.00077169,0.00015157,-0.00000003,-0.00040430
 ,-0.00006740,0.,0.00008146,0.00011591,0.,0.00010371,-0.00004442,0.,-0.
 00036615,-0.00016015,0.,-0.00012626,0.00033611,0.,0.00053182,0.0000584
 5,-0.00000004,0.36930563,-0.00392778,-0.00564313,0.00000061,-0.0274656
 5,0.00637923,0.00000013,0.00889536,-0.05973106,0.00000080,0.02897541,0
 .00374980,-0.00000033,0.00117748,-0.00476526,0.00000061,0.00090057,-0.
 00117028,0.00000001,-0.00038193,-0.00030241,-0.00000002,-0.00006528,0.
 00037565,-0.00000002,0.00000727,0.00012843,0.,0.00169463,0.00025654,-0
 .00000004,-0.00100406,0.00052106,0.,0.00033140,0.00063315,-0.00000016,
 -0.00892435,0.05892570,0.00000021,0.00000064,0.00672669,0.00000144,-0.
 00000022,0.00149350,0.00000343,0.00000081,-0.03997765,-0.00000112,0.,0
 .00466209,-0.00000001,0.00000061,0.00908472,-0.00000004,0.,-0.00067045
 ,-0.00000002,-0.00000004,-0.00093047,0.,0.,0.00011529,0.,0.,-0.0000384
 9,-0.00000005,-0.00000003,-0.00028228,0.00000006,0.,0.00053889,-0.0000
 0006,-0.00000016,-0.00289004,-0.00000375,-0.00000134,0.02723509,-0.000
 89865,0.00141325,-0.00000007,-0.00126796,0.00389280,-0.00000004,0.0132
 6074,0.01567767,-0.00000081,-0.13169429,-0.12555706,0.00000689,-0.0114
 0222,-0.02870939,0.00000159,-0.00538784,0.00095217,0.00000002,0.000676
 88,-0.00141412,0.,-0.00068561,-0.00025362,0.00000007,0.00002664,0.0003
 2444,0.,0.00288329,-0.00007084,-0.00000005,-0.00008650,-0.00008769,0.,
 0.00066145,0.00071027,-0.00000005,0.00078577,-0.00026453,-0.00000006,0
 .13312797,0.00079013,0.00079664,-0.00000009,0.00286427,-0.00307353,0.0
 0000052,-0.01309008,-0.01585402,0.00000116,-0.12667651,-0.27863169,0.0
 0001239,0.00264291,0.00619211,0.00000001,0.00102940,-0.00030706,0.0000
 0027,-0.00009960,0.00028251,-0.00000005,0.00025725,0.00014616,-0.00000
 002,0.00015926,-0.00003620,-0.00000001,0.00003204,-0.00003953,-0.00000
 012,-0.00009359,-0.00008110,-0.00000003,-0.00074583,-0.00050210,0.,-0.
 00023282,0.00099391,-0.00000025,0.13326796,0.29002174,-0.00000008,-0.0
 0000008,-0.00096438,0.00000007,0.00000055,0.00897506,0.00000051,0.0000
 0072,0.00580803,0.00000692,0.00001238,-0.04261921,0.00000010,0.0000004
 8,0.00730706,0.00000011,0.00000018,0.00558303,-0.00000010,-0.00000002,
 -0.00131819,0.00000003,0.00000002,0.00019033,0.,0.,0.00004439,-0.00000
 006,-0.00000016,-0.00271101,0.,-0.00000003,-0.00081308,0.00000002,-0.0
 0000001,-0.00060217,-0.00000006,-0.00000025,-0.00464191,-0.00000748,-0
 .00001376,0.02613002,-0.00075608,0.00016030,0.00000008,0.00085936,0.00
 061198,-0.00000006,-0.00001468,-0.00069443,0.00000004,-0.00048771,0.00
 014801,-0.00000004,0.00057088,0.00003237,-0.00000011,0.00134121,0.0025
 0778,0.00000057,-0.03091711,0.00416552,0.00000152,0.00368679,-0.007429
 15,-0.00000009,-0.46040314,-0.06941049,0.00003411,0.00154944,0.0002836
 8,0.00000004,-0.00048989,0.00013741,0.00000004,-0.00006648,0.00002835,
 -0.00000002,-0.00002421,-0.00000799,0.,-0.00000582,-0.00005594,0.,0.48
 724910,0.00142432,0.00015410,0.,0.00001230,-0.00044533,0.00000004,-0.0
 0007912,-0.00004282,0.,-0.00020053,0.00019211,-0.00000003,0.00076519,-
 0.00146301,0.00000005,0.00229747,-0.00491022,0.00000012,0.04810796,0.0
 1320840,-0.00000380,-0.00703819,-0.00046646,0.00000051,-0.11560920,-0.
 06968274,0.00000895,-0.00285060,-0.00082338,0.00000015,0.00050665,0.00
 010278,-0.00000002,0.00011522,0.00001241,0.,0.00000072,0.00001063,0.,0
 .00002894,0.00002216,0.,0.07130653,0.06073958,0.00000008,0.00000006,0.
 00090408,-0.00000014,-0.00000008,-0.00025825,0.,0.00000010,0.00010325,
 0.00000007,-0.00000003,-0.00027164,-0.00000010,-0.00000004,-0.00064137
 ,-0.00000024,0.00000015,0.00481481,0.00000210,-0.00000051,0.00298849,-
 0.00000050,0.00000013,-0.00519047,0.00003482,0.00000589,-0.01495149,0.
 00000001,0.00000009,0.00049285,0.00000002,0.,0.00028480,0.,0.,-0.00018
 799,0.,0.,0.00006697,0.,0.,0.00004339,-0.00003623,-0.00000570,0.012100
 29,0.00021949,-0.00288703,0.00000010,-0.00202746,-0.00198436,0.0000001
 1,-0.00059702,0.00293952,-0.00000011,0.00555202,-0.00067121,0.00000004
 ,-0.02357959,0.01094803,-0.00000037,-0.00215291,-0.00408728,0.00000017
 ,0.01739345,-0.01026938,-0.00000053,-0.00369475,0.00506829,-0.00000009
 ,-0.01004569,0.00658957,0.00000034,-0.46728941,-0.01838997,0.00000351,
 0.00135987,0.00009452,-0.00000003,-0.00010330,0.00009311,0.,0.00002114
 ,0.00005946,-0.00000001,0.00000616,-0.00004885,-0.00000001,-0.00209167
 ,0.00121233,0.00000011,0.48702967,0.00142949,-0.00105878,-0.00000004,-
 0.00175075,-0.00070603,0.00000006,0.00164073,0.00260034,-0.00000009,0.
 00317116,-0.00704053,0.00000057,0.04561577,-0.00030546,-0.00000058,-0.
 00116307,0.00022217,0.00000004,0.00526011,-0.01043191,0.00000004,-0.00
 089968,0.00337059,-0.00000014,0.00145403,-0.00007377,-0.00000020,-0.06
 479653,-0.04956156,0.00000203,0.00036821,0.00008606,-0.00000001,-0.000
 07759,-0.00005951,0.,0.00010904,-0.00036195,-0.00000002,0.00008975,0.0
 0006999,-0.00000002,-0.00178394,0.00339180,-0.00000006,0.01133326,0.05
 985854,-0.00000008,0.00000007,-0.00080175,0.00000015,0.00000011,0.0002
 0572,-0.00000003,-0.00000017,0.00147124,-0.00000023,0.00000057,0.00460
 497,-0.00000182,-0.00000068,-0.00414544,0.00000017,0.,0.00025348,-0.00
 000116,0.00000098,-0.00012029,0.00000028,-0.00000044,0.00057226,0.0000
 0044,-0.00000051,-0.00238600,0.00000545,0.00000197,-0.01197685,-0.0000
 0007,0.,-0.00001385,0.,0.,-0.00005710,-0.00000001,0.,-0.00049196,0.,-0
 .00000002,-0.00041137,0.00000013,-0.00000028,-0.00029770,-0.00000322,-
 0.00000160,0.01359465\\0.00002017,-0.00000613,0.00000066,0.00002379,0.
 00002268,-0.00000014,-0.00003149,-0.00000063,0.00000004,-0.00001257,-0
 .00000594,-0.00000043,0.00007570,-0.00007467,0.00000053,-0.00004805,0.
 00001439,0.00000404,0.00009377,0.00003903,-0.00001480,-0.00003860,-0.0
 0002893,0.00000573,-0.00000994,-0.00001388,0.00000449,-0.00001719,0.00
 003944,0.00000032,-0.00000445,0.00000344,-0.00000018,-0.00000262,0.000
 00219,-0.00000013,0.00000198,-0.00000363,0.00000003,-0.00000275,-0.000
 00285,0.00000004,-0.00001547,0.00000314,0.00000030,-0.00003228,0.00001
 235,-0.00000049\\\@


 THE ONLY DIFFERENCE BETWEEN ECCENTRICS AND JOGGERS
 IS THAT JOGGERS WEAR SWEATBANDS WHEN THEY RUN IN THE RAIN.
 Job cpu time:       0 days  0 hours 18 minutes 54.9 seconds.
 File lengths (MBytes):  RWF=     85 Int=      0 D2E=      0 Chk=      5 Scr=      1
 Normal termination of Gaussian 09 at Sun May 19 23:38:20 2024.
