 Entering Gaussian System, Link 0=g09
 Input=cam3HPA2.gjf
 Output=cam3HPA2.log
 Initial command:
 /home/phzd/g09E/g09/l1.exe "/home/phzd/g09E/scratch/Gau-425554.inp" -scrdir="/home/phzd/g09E/scratch/"
 Default is to use a total of  18 processors:
                               18 via shared-memory
                                1 via Linda
 Entering Link 1 = /home/phzd/g09E/g09/l1.exe PID=    425556.
  
 Copyright (c) 1988,1990,1992,1993,1995,1998,2003,2009,2015,
            Gaussian, Inc.  All Rights Reserved.
  
 This is part of the Gaussian(R) 09 program.  It is based on
 the Gaussian(R) 03 system (copyright 2003, Gaussian, Inc.),
 the Gaussian(R) 98 system (copyright 1998, Gaussian, Inc.),
 the Gaussian(R) 94 system (copyright 1995, Gaussian, Inc.),
 the Gaussian 92(TM) system (copyright 1992, Gaussian, Inc.),
 the Gaussian 90(TM) system (copyright 1990, Gaussian, Inc.),
 the Gaussian 88(TM) system (copyright 1988, Gaussian, Inc.),
 the Gaussian 86(TM) system (copyright 1986, Carnegie Mellon
 University), and the Gaussian 82(TM) system (copyright 1983,
 Carnegie Mellon University). Gaussian is a federally registered
 trademark of Gaussian, Inc.
  
 This software contains proprietary and confidential information,
 including trade secrets, belonging to Gaussian, Inc.
  
 This software is provided under written license and may be
 used, copied, transmitted, or stored only in accord with that
 written license.
  
 The following legend is applicable only to US Government
 contracts under FAR:
  
                    RESTRICTED RIGHTS LEGEND
  
 Use, reproduction and disclosure by the US Government is
 subject to restrictions as set forth in subparagraphs (a)
 and (c) of the Commercial Computer Software - Restricted
 Rights clause in FAR 52.227-19.
  
 Gaussian, Inc.
 340 Quinnipiac St., Bldg. 40, Wallingford CT 06492
  
  
 ---------------------------------------------------------------
 Warning -- This program may not be used in any manner that
 competes with the business of Gaussian, Inc. or will provide
 assistance to any competitor of Gaussian, Inc.  The licensee
 of this program is prohibited from giving any competitor of
 Gaussian, Inc. access to this program.  By using this program,
 the user acknowledges that Gaussian, Inc. is engaged in the
 business of creating and licensing software in the field of
 computational chemistry and represents and warrants to the
 licensee that it is not a competitor of Gaussian, Inc. and that
 it will not use this program in any manner prohibited above.
 ---------------------------------------------------------------
  

 Cite this work as:
 Gaussian 09, Revision E.01,
 M. J. Frisch, G. W. Trucks, H. B. Schlegel, G. E. Scuseria, 
 M. A. Robb, J. R. Cheeseman, G. Scalmani, V. Barone, B. Mennucci, 
 G. A. Petersson, H. Nakatsuji, M. Caricato, X. Li, H. P. Hratchian, 
 A. F. Izmaylov, J. Bloino, G. Zheng, J. L. Sonnenberg, M. Hada, 
 M. Ehara, K. Toyota, R. Fukuda, J. Hasegawa, M. Ishida, T. Nakajima, 
 Y. Honda, O. Kitao, H. Nakai, T. Vreven, J. A. Montgomery, Jr., 
 J. E. Peralta, F. Ogliaro, M. Bearpark, J. J. Heyd, E. Brothers, 
 K. N. Kudin, V. N. Staroverov, T. Keith, R. Kobayashi, J. Normand, 
 K. Raghavachari, A. Rendell, J. C. Burant, S. S. Iyengar, J. Tomasi, 
 M. Cossi, N. Rega, J. M. Millam, M. Klene, J. E. Knox, J. B. Cross, 
 V. Bakken, C. Adamo, J. Jaramillo, R. Gomperts, R. E. Stratmann, 
 O. Yazyev, A. J. Austin, R. Cammi, C. Pomelli, J. W. Ochterski, 
 R. L. Martin, K. Morokuma, V. G. Zakrzewski, G. A. Voth, 
 P. Salvador, J. J. Dannenberg, S. Dapprich, A. D. Daniels, 
 O. Farkas, J. B. Foresman, J. V. Ortiz, J. Cioslowski, 
 and D. J. Fox, Gaussian, Inc., Wallingford CT, 2013.
 
 ******************************************
 Gaussian 09:  ES64L-G09RevE.01 30-Nov-2015
                28-Apr-2024 
 ******************************************
 %chk=b3lyp3HPA.chk
 -----------------------------------------
 # opt freq cam-b3lyp/6-31+g(d,p) em=gd3bj
 -----------------------------------------
 1/14=-1,18=20,19=15,26=3,38=1/1,3;
 2/9=110,12=2,17=6,18=5,40=1/2;
 3/5=1,6=6,7=111,11=2,16=1,25=1,30=1,71=1,74=-40,124=41/1,2,3;
 4//1;
 5/5=2,38=5/2;
 6/7=2,8=2,9=2,10=2,28=1/1;
 7//1,2,3,16;
 1/14=-1,18=20,19=15,26=3/3(2);
 2/9=110/2;
 99//99;
 2/9=110/2;
 3/5=1,6=6,7=111,11=2,16=1,25=1,30=1,71=1,74=-40,124=41/1,2,3;
 4/5=5,16=3,69=1/1;
 5/5=2,38=5/2;
 7//1,2,3,16;
 1/14=-1,18=20,19=15,26=3/3(-5);
 2/9=110/2;
 6/7=2,8=2,9=2,10=2,19=2,28=1/1;
 99/9=1/99;
 ----------
 [No Title]
 ----------
 Symbolic Z-matrix:
 Charge =  1 Multiplicity = 1
 N                    -0.51193  -1.35264  -0.0002 
 C                    -1.84383  -1.41699  -0.00019 
 C                    -2.56767  -0.22045   0.00009 
 C                    -1.89588   0.9875    0.00026 
 C                    -0.4799    1.02505   0.00008 
 C                     0.20499  -0.19844  -0.00009 
 C                     1.67558  -0.42703   0.00007 
 O                     2.14903  -1.53786   0.00029 
 O                     2.3661    0.72618  -0.00013 
 O                     0.10222   2.21461  -0.00014 
 H                     0.06305  -2.20042  -0.00018 
 H                    -2.296    -2.4003   -0.00037 
 H                    -3.65029  -0.25516   0.0002 
 H                    -2.42869   1.93243   0.0005 
 H                     3.32246   0.53584   0.00005 
 H                     1.07448   2.13478  -0.00037 
 

 GradGradGradGradGradGradGradGradGradGradGradGradGradGradGradGradGradGrad
 Berny optimization.
 Initialization pass.
                           ----------------------------
                           !    Initial Parameters    !
                           ! (Angstroms and Degrees)  !
 --------------------------                            --------------------------
 ! Name  Definition              Value          Derivative Info.                !
 --------------------------------------------------------------------------------
 ! R1    R(1,2)                  1.3334         estimate D2E/DX2                !
 ! R2    R(1,6)                  1.3587         estimate D2E/DX2                !
 ! R3    R(1,11)                 1.0244         estimate D2E/DX2                !
 ! R4    R(2,3)                  1.3984         estimate D2E/DX2                !
 ! R5    R(2,12)                 1.0823         estimate D2E/DX2                !
 ! R6    R(3,4)                  1.3822         estimate D2E/DX2                !
 ! R7    R(3,13)                 1.0832         estimate D2E/DX2                !
 ! R8    R(4,5)                  1.4165         estimate D2E/DX2                !
 ! R9    R(4,14)                 1.0848         estimate D2E/DX2                !
 ! R10   R(5,6)                  1.4021         estimate D2E/DX2                !
 ! R11   R(5,10)                 1.3244         estimate D2E/DX2                !
 ! R12   R(6,7)                  1.4882         estimate D2E/DX2                !
 ! R13   R(7,8)                  1.2075         estimate D2E/DX2                !
 ! R14   R(7,9)                  1.3441         estimate D2E/DX2                !
 ! R15   R(9,15)                 0.9751         estimate D2E/DX2                !
 ! R16   R(10,16)                0.9755         estimate D2E/DX2                !
 ! A1    A(2,1,6)              124.6127         estimate D2E/DX2                !
 ! A2    A(2,1,11)             121.3795         estimate D2E/DX2                !
 ! A3    A(6,1,11)             114.0077         estimate D2E/DX2                !
 ! A4    A(1,2,3)              118.4055         estimate D2E/DX2                !
 ! A5    A(1,2,12)             117.4617         estimate D2E/DX2                !
 ! A6    A(3,2,12)             124.1328         estimate D2E/DX2                !
 ! A7    A(2,3,4)              119.7481         estimate D2E/DX2                !
 ! A8    A(2,3,13)             119.3357         estimate D2E/DX2                !
 ! A9    A(4,3,13)             120.9162         estimate D2E/DX2                !
 ! A10   A(3,4,5)              120.599          estimate D2E/DX2                !
 ! A11   A(3,4,14)             121.5029         estimate D2E/DX2                !
 ! A12   A(5,4,14)             117.898          estimate D2E/DX2                !
 ! A13   A(4,5,6)              117.7203         estimate D2E/DX2                !
 ! A14   A(4,5,10)             117.5939         estimate D2E/DX2                !
 ! A15   A(6,5,10)             124.6858         estimate D2E/DX2                !
 ! A16   A(1,6,5)              118.9143         estimate D2E/DX2                !
 ! A17   A(1,6,7)              113.0113         estimate D2E/DX2                !
 ! A18   A(5,6,7)              128.0744         estimate D2E/DX2                !
 ! A19   A(6,7,8)              121.9194         estimate D2E/DX2                !
 ! A20   A(6,7,9)              112.0772         estimate D2E/DX2                !
 ! A21   A(8,7,9)              126.0034         estimate D2E/DX2                !
 ! A22   A(7,9,15)             109.6562         estimate D2E/DX2                !
 ! A23   A(5,10,16)            111.3811         estimate D2E/DX2                !
 ! D1    D(6,1,2,3)             -0.0068         estimate D2E/DX2                !
 ! D2    D(6,1,2,12)           179.9948         estimate D2E/DX2                !
 ! D3    D(11,1,2,3)           179.9859         estimate D2E/DX2                !
 ! D4    D(11,1,2,12)           -0.0125         estimate D2E/DX2                !
 ! D5    D(2,1,6,5)              0.002          estimate D2E/DX2                !
 ! D6    D(2,1,6,7)            179.9912         estimate D2E/DX2                !
 ! D7    D(11,1,6,5)          -179.9912         estimate D2E/DX2                !
 ! D8    D(11,1,6,7)            -0.0019         estimate D2E/DX2                !
 ! D9    D(1,2,3,4)              0.0042         estimate D2E/DX2                !
 ! D10   D(1,2,3,13)          -179.9943         estimate D2E/DX2                !
 ! D11   D(12,2,3,4)          -179.9976         estimate D2E/DX2                !
 ! D12   D(12,2,3,13)            0.0039         estimate D2E/DX2                !
 ! D13   D(2,3,4,5)              0.0029         estimate D2E/DX2                !
 ! D14   D(2,3,4,14)          -179.9985         estimate D2E/DX2                !
 ! D15   D(13,3,4,5)          -179.9986         estimate D2E/DX2                !
 ! D16   D(13,3,4,14)            0.0            estimate D2E/DX2                !
 ! D17   D(3,4,5,6)             -0.0075         estimate D2E/DX2                !
 ! D18   D(3,4,5,10)           179.9809         estimate D2E/DX2                !
 ! D19   D(14,4,5,6)           179.9938         estimate D2E/DX2                !
 ! D20   D(14,4,5,10)           -0.0178         estimate D2E/DX2                !
 ! D21   D(4,5,6,1)              0.0052         estimate D2E/DX2                !
 ! D22   D(4,5,6,7)           -179.9822         estimate D2E/DX2                !
 ! D23   D(10,5,6,1)          -179.9823         estimate D2E/DX2                !
 ! D24   D(10,5,6,7)             0.0303         estimate D2E/DX2                !
 ! D25   D(4,5,10,16)         -179.9918         estimate D2E/DX2                !
 ! D26   D(6,5,10,16)           -0.0043         estimate D2E/DX2                !
 ! D27   D(1,6,7,8)             -0.0107         estimate D2E/DX2                !
 ! D28   D(1,6,7,9)            179.986          estimate D2E/DX2                !
 ! D29   D(5,6,7,8)            179.9774         estimate D2E/DX2                !
 ! D30   D(5,6,7,9)             -0.0259         estimate D2E/DX2                !
 ! D31   D(6,7,9,15)           179.9965         estimate D2E/DX2                !
 ! D32   D(8,7,9,15)            -0.007          estimate D2E/DX2                !
 --------------------------------------------------------------------------------
 Trust Radius=3.00D-01 FncErr=1.00D-07 GrdErr=1.00D-06
 Number of steps in this run=     81 maximum allowed number of steps=    100.
 GradGradGradGradGradGradGradGradGradGradGradGradGradGradGradGradGradGrad

                          Input orientation:                          
 ---------------------------------------------------------------------
 Center     Atomic      Atomic             Coordinates (Angstroms)
 Number     Number       Type             X           Y           Z
 ---------------------------------------------------------------------
      1          7           0       -0.511934   -1.352636   -0.000200
      2          6           0       -1.843825   -1.416991   -0.000187
      3          6           0       -2.567670   -0.220452    0.000091
      4          6           0       -1.895881    0.987501    0.000256
      5          6           0       -0.479895    1.025048    0.000084
      6          6           0        0.204992   -0.198443   -0.000093
      7          6           0        1.675579   -0.427026    0.000072
      8          8           0        2.149026   -1.537856    0.000294
      9          8           0        2.366098    0.726182   -0.000128
     10          8           0        0.102219    2.214606   -0.000135
     11          1           0        0.063046   -2.200416   -0.000183
     12          1           0       -2.296000   -2.400299   -0.000367
     13          1           0       -3.650293   -0.255157    0.000199
     14          1           0       -2.428689    1.932429    0.000497
     15          1           0        3.322455    0.535843    0.000045
     16          1           0        1.074475    2.134776   -0.000369
 ---------------------------------------------------------------------
                    Distance matrix (angstroms):
                    1          2          3          4          5
     1  N    0.000000
     2  C    1.333445   0.000000
     3  C    2.346890   1.398448   0.000000
     4  C    2.718741   2.405055   1.382191   0.000000
     5  C    2.377900   2.797116   2.431065   1.416484   0.000000
     6  C    1.358729   2.383802   2.772749   2.412495   1.402141
     7  C    2.375283   3.655986   4.248274   3.841382   2.598959
     8  O    2.667399   3.994680   4.897221   4.768511   3.671471
     9  O    3.550289   4.724049   5.023762   4.269983   2.861642
    10  O    3.619724   4.120144   3.613560   2.344822   1.324351
    11  H    1.024370   2.061531   3.292556   3.741685   3.270841
    12  H    2.068934   1.082292   2.196711   3.411346   3.877014
    13  H    3.324719   2.147833   1.083179   2.149921   3.419115
    14  H    3.803367   3.400100   2.157362   1.084792   2.149683
    15  H    4.274212   5.523044   5.938481   5.237846   3.833691
    16  H    3.831284   4.596904   4.337317   3.184220   1.909859
                    6          7          8          9         10
     6  C    0.000000
     7  C    1.488246   0.000000
     8  O    2.360783   1.207516   0.000000
     9  O    2.350598   1.344137   2.274420   0.000000
    10  O    2.415237   3.074684   4.274388   2.709346   0.000000
    11  H    2.006999   2.396909   2.188675   3.724114   4.415196
    12  H    3.332136   4.434777   4.527921   5.613381   5.200846
    13  H    3.855702   5.328644   5.939480   6.095899   4.492335
    14  H    3.387756   4.734136   5.744419   4.944190   2.546590
    15  H    3.202772   1.907699   2.382680   0.975114   3.631551
    16  H    2.489962   2.631379   3.826602   1.911132   0.975528
                   11         12         13         14         15
    11  H    0.000000
    12  H    2.367499   0.000000
    13  H    4.192007   2.536877   0.000000
    14  H    4.825884   4.334759   2.505564   0.000000
    15  H    4.255686   6.339398   7.017471   5.918286   0.000000
    16  H    4.451615   5.650399   5.294829   3.509003   2.758623
                   16
    16  H    0.000000
 Stoichiometry    C6H6NO3(1+)
 Framework group  C1[X(C6H6NO3)]
 Deg. of freedom    42
 Full point group                 C1      NOp   1
 Largest Abelian subgroup         C1      NOp   1
 Largest concise Abelian subgroup C1      NOp   1
                         Standard orientation:                         
 ---------------------------------------------------------------------
 Center     Atomic      Atomic             Coordinates (Angstroms)
 Number     Number       Type             X           Y           Z
 ---------------------------------------------------------------------
      1          7           0        0.511934   -1.352636    0.000200
      2          6           0        1.843825   -1.416991    0.000187
      3          6           0        2.567670   -0.220452   -0.000091
      4          6           0        1.895881    0.987501   -0.000256
      5          6           0        0.479895    1.025048   -0.000084
      6          6           0       -0.204992   -0.198443    0.000093
      7          6           0       -1.675579   -0.427026   -0.000072
      8          8           0       -2.149026   -1.537856   -0.000294
      9          8           0       -2.366098    0.726182    0.000128
     10          8           0       -0.102219    2.214606    0.000135
     11          1           0       -0.063046   -2.200416    0.000183
     12          1           0        2.296000   -2.400299    0.000367
     13          1           0        3.650293   -0.255157   -0.000199
     14          1           0        2.428689    1.932429   -0.000497
     15          1           0       -3.322455    0.535843   -0.000045
     16          1           0       -1.074475    2.134776    0.000369
 ---------------------------------------------------------------------
 Rotational constants (GHZ):      2.2846919      1.2500047      0.8079550
 Standard basis: 6-31+G(d,p) (6D, 7F)
 There are   220 symmetry adapted cartesian basis functions of A   symmetry.
 There are   220 symmetry adapted basis functions of A   symmetry.
   220 basis functions,   362 primitive gaussians,   220 cartesian basis functions
    36 alpha electrons       36 beta electrons
       nuclear repulsion energy       521.2975085966 Hartrees.
 NAtoms=   16 NActive=   16 NUniq=   16 SFac= 1.00D+00 NAtFMM=   60 NAOKFM=F Big=F
 Integral buffers will be    131072 words long.
 Raffenetti 2 integral format.
 Two-electron integral symmetry is turned on.
 Nuclear repulsion after empirical dispersion term =      521.2846507989 Hartrees.
 One-electron integrals computed using PRISM.
 NBasis=   220 RedAO= T EigKep=  4.80D-06  NBF=   220
 NBsUse=   220 1.00D-06 EigRej= -1.00D+00 NBFU=   220
 ExpMin= 4.38D-02 ExpMax= 5.48D+03 ExpMxC= 8.25D+02 IAcc=2 IRadAn=         4 AccDes= 0.00D+00
 Harris functional with IExCor=20419 and IRadAn=       4 diagonalized for initial guess.
 HarFok:  IExCor=20419 AccDes= 0.00D+00 IRadAn=         4 IDoV= 1 UseB2=F ITyADJ=14
 ICtDFT=  3500011 ScaDFX=  1.000000  1.000000  1.000000  1.000000
 FoFCou: FMM=F IPFlag=           0 FMFlag=      100000 FMFlg1=           0
         NFxFlg=           0 DoJE=T BraDBF=F KetDBF=T FulRan=T
         wScrn=  0.000000 ICntrl=     500 IOpCl=  0 I1Cent=   200000004 NGrid=           0
         NMat0=    1 NMatS0=      1 NMatT0=    0 NMatD0=    1 NMtDS0=    0 NMtDT0=    0
 Petite list used in FoFCou.
 Keep R1 ints in memory in canonical form, NReq=596566580.
 Requested convergence on RMS density matrix=1.00D-08 within 128 cycles.
 Requested convergence on MAX density matrix=1.00D-06.
 Requested convergence on             energy=1.00D-06.
 No special actions if energy rises.
 SCF Done:  E(RCAM-B3LYP) =  -512.269182968     A.U. after   15 cycles
            NFock= 15  Conv=0.59D-08     -V/T= 2.0090

 **********************************************************************

            Population analysis using the SCF density.

 **********************************************************************

 Orbital symmetries:
       Occupied  (A) (A) (A) (A) (A) (A) (A) (A) (A) (A) (A) (A)
                 (A) (A) (A) (A) (A) (A) (A) (A) (A) (A) (A) (A)
                 (A) (A) (A) (A) (A) (A) (A) (A) (A) (A) (A) (A)
       Virtual   (A) (A) (A) (A) (A) (A) (A) (A) (A) (A) (A) (A)
                 (A) (A) (A) (A) (A) (A) (A) (A) (A) (A) (A) (A)
                 (A) (A) (A) (A) (A) (A) (A) (A) (A) (A) (A) (A)
                 (A) (A) (A) (A) (A) (A) (A) (A) (A) (A) (A) (A)
                 (A) (A) (A) (A) (A) (A) (A) (A) (A) (A) (A) (A)
                 (A) (A) (A) (A) (A) (A) (A) (A) (A) (A) (A) (A)
                 (A) (A) (A) (A) (A) (A) (A) (A) (A) (A) (A) (A)
                 (A) (A) (A) (A) (A) (A) (A) (A) (A) (A) (A) (A)
                 (A) (A) (A) (A) (A) (A) (A) (A) (A) (A) (A) (A)
                 (A) (A) (A) (A) (A) (A) (A) (A) (A) (A) (A) (A)
                 (A) (A) (A) (A) (A) (A) (A) (A) (A) (A) (A) (A)
                 (A) (A) (A) (A) (A) (A) (A) (A) (A) (A) (A) (A)
                 (A) (A) (A) (A) (A) (A) (A) (A) (A) (A) (A) (A)
                 (A) (A) (A) (A) (A) (A) (A) (A) (A) (A) (A) (A)
                 (A) (A) (A) (A) (A) (A) (A) (A) (A) (A) (A) (A)
                 (A) (A) (A) (A)
 The electronic state is 1-A.
 Alpha  occ. eigenvalues --  -19.47512 -19.44979 -19.41522 -14.71167 -10.60564
 Alpha  occ. eigenvalues --  -10.55730 -10.53439 -10.53289 -10.48994 -10.48704
 Alpha  occ. eigenvalues --   -1.39224  -1.35059  -1.31160  -1.28990  -1.10737
 Alpha  occ. eigenvalues --   -1.08374  -0.97481  -0.94217  -0.91299  -0.85735
 Alpha  occ. eigenvalues --   -0.82680  -0.79114  -0.76916  -0.74899  -0.74545
 Alpha  occ. eigenvalues --   -0.74249  -0.69693  -0.68210  -0.67082  -0.66285
 Alpha  occ. eigenvalues --   -0.65932  -0.61418  -0.58481  -0.55483  -0.55050
 Alpha  occ. eigenvalues --   -0.50081
 Alpha virt. eigenvalues --   -0.23266  -0.17792  -0.11856  -0.10065  -0.09580
 Alpha virt. eigenvalues --   -0.08299  -0.07681  -0.06421  -0.06239  -0.05348
 Alpha virt. eigenvalues --   -0.03002  -0.02986  -0.01890  -0.01611  -0.00455
 Alpha virt. eigenvalues --    0.00406   0.01295   0.01752   0.01776   0.03079
 Alpha virt. eigenvalues --    0.03111   0.03491   0.05245   0.05571   0.05955
 Alpha virt. eigenvalues --    0.06314   0.07989   0.08103   0.08760   0.10249
 Alpha virt. eigenvalues --    0.10868   0.11025   0.11666   0.11989   0.12644
 Alpha virt. eigenvalues --    0.13477   0.14162   0.15032   0.15541   0.16851
 Alpha virt. eigenvalues --    0.17297   0.17725   0.17799   0.18693   0.19728
 Alpha virt. eigenvalues --    0.20079   0.21172   0.22736   0.23263   0.23552
 Alpha virt. eigenvalues --    0.25772   0.27513   0.27871   0.29031   0.30055
 Alpha virt. eigenvalues --    0.33775   0.37991   0.39828   0.46406   0.49399
 Alpha virt. eigenvalues --    0.52288   0.52631   0.56503   0.57260   0.58641
 Alpha virt. eigenvalues --    0.60022   0.61333   0.62930   0.63255   0.68144
 Alpha virt. eigenvalues --    0.68638   0.71353   0.75486   0.76425   0.79448
 Alpha virt. eigenvalues --    0.82855   0.83659   0.86677   0.89079   0.91642
 Alpha virt. eigenvalues --    0.92425   0.95986   0.98015   0.99844   1.00922
 Alpha virt. eigenvalues --    1.02656   1.03659   1.06420   1.07109   1.08013
 Alpha virt. eigenvalues --    1.08932   1.11393   1.12236   1.14496   1.17096
 Alpha virt. eigenvalues --    1.17693   1.19673   1.20236   1.23068   1.23956
 Alpha virt. eigenvalues --    1.25053   1.25761   1.26836   1.27736   1.28405
 Alpha virt. eigenvalues --    1.29864   1.34315   1.40812   1.44423   1.45177
 Alpha virt. eigenvalues --    1.48938   1.49591   1.60456   1.61581   1.63262
 Alpha virt. eigenvalues --    1.63769   1.65912   1.68677   1.72454   1.76128
 Alpha virt. eigenvalues --    1.79608   1.80216   1.81473   1.83859   1.86415
 Alpha virt. eigenvalues --    1.87011   1.90761   1.94623   1.95218   1.96320
 Alpha virt. eigenvalues --    1.98608   2.00955   2.11513   2.13126   2.16118
 Alpha virt. eigenvalues --    2.17928   2.22740   2.25061   2.25492   2.26544
 Alpha virt. eigenvalues --    2.28095   2.28975   2.34666   2.37478   2.40964
 Alpha virt. eigenvalues --    2.41213   2.42437   2.42743   2.46494   2.47049
 Alpha virt. eigenvalues --    2.48292   2.53411   2.54891   2.58142   2.63104
 Alpha virt. eigenvalues --    2.63306   2.64950   2.67548   2.70809   2.76968
 Alpha virt. eigenvalues --    2.85332   2.94009   2.98470   3.00716   3.07196
 Alpha virt. eigenvalues --    3.12173   3.14938   3.16311   3.25689   3.30534
 Alpha virt. eigenvalues --    3.36467   3.41384   3.49684   3.76657   4.06900
 Alpha virt. eigenvalues --    4.15035   4.20005   4.23864   4.28159   4.34997
 Alpha virt. eigenvalues --    4.42363   4.55101   4.77863   4.81588
          Condensed to atoms (all electrons):
               1          2          3          4          5          6
     1  N    6.649202   0.166800  -0.021974  -0.064197  -0.226747   0.417194
     2  C    0.166800   5.694575   0.147572   0.234230  -0.196209  -0.420585
     3  C   -0.021974   0.147572   5.119528  -0.243890   0.935658  -0.245680
     4  C   -0.064197   0.234230  -0.243890   7.330840  -2.405054   0.896844
     5  C   -0.226747  -0.196209   0.935658  -2.405054  12.232339  -3.696246
     6  C    0.417194  -0.420585  -0.245680   0.896844  -3.696246   8.962811
     7  C    0.005822   0.121024  -0.181158   0.231883  -1.461021   0.415188
     8  O    0.014111   0.046185  -0.011624   0.031532   0.024021  -0.339666
     9  O    0.018341   0.006485  -0.004134   0.023224  -0.055117  -0.015375
    10  O    0.013860   0.000854   0.026750  -0.349467   0.287011   0.025805
    11  H    0.304940  -0.044748   0.031511  -0.020167   0.089063  -0.028833
    12  H   -0.058958   0.372995  -0.021895   0.032936  -0.038271   0.032904
    13  H    0.002308   0.022363   0.307074   0.020561  -0.025349   0.009729
    14  H    0.003655  -0.014058   0.041981   0.228929   0.115274  -0.036823
    15  H   -0.001091  -0.001172   0.000642  -0.000222   0.008260   0.024702
    16  H   -0.000657  -0.001948  -0.004918   0.056810   0.022287  -0.089105
               7          8          9         10         11         12
     1  N    0.005822   0.014111   0.018341   0.013860   0.304940  -0.058958
     2  C    0.121024   0.046185   0.006485   0.000854  -0.044748   0.372995
     3  C   -0.181158  -0.011624  -0.004134   0.026750   0.031511  -0.021895
     4  C    0.231883   0.031532   0.023224  -0.349467  -0.020167   0.032936
     5  C   -1.461021   0.024021  -0.055117   0.287011   0.089063  -0.038271
     6  C    0.415188  -0.339666  -0.015375   0.025805  -0.028833   0.032904
     7  C    5.963926   0.526975   0.054742  -0.015429  -0.067110   0.012141
     8  O    0.526975   8.265353  -0.147136  -0.002407   0.027435   0.000054
     9  O    0.054742  -0.147136   8.450114  -0.003351   0.002430   0.000017
    10  O   -0.015429  -0.002407  -0.003351   8.326037  -0.000326   0.000115
    11  H   -0.067110   0.027435   0.002430  -0.000326   0.330225  -0.003725
    12  H    0.012141   0.000054   0.000017   0.000115  -0.003725   0.453804
    13  H    0.002002   0.000005   0.000000  -0.000418  -0.000111  -0.002616
    14  H   -0.001975  -0.000002   0.000160  -0.009218   0.000011  -0.000086
    15  H   -0.011720   0.004784   0.225624   0.001378  -0.000045  -0.000000
    16  H    0.021307   0.001425   0.026871   0.213183  -0.000017  -0.000000
              13         14         15         16
     1  N    0.002308   0.003655  -0.001091  -0.000657
     2  C    0.022363  -0.014058  -0.001172  -0.001948
     3  C    0.307074   0.041981   0.000642  -0.004918
     4  C    0.020561   0.228929  -0.000222   0.056810
     5  C   -0.025349   0.115274   0.008260   0.022287
     6  C    0.009729  -0.036823   0.024702  -0.089105
     7  C    0.002002  -0.001975  -0.011720   0.021307
     8  O    0.000005  -0.000002   0.004784   0.001425
     9  O    0.000000   0.000160   0.225624   0.026871
    10  O   -0.000418  -0.009218   0.001378   0.213183
    11  H   -0.000111   0.000011  -0.000045  -0.000017
    12  H   -0.002616  -0.000086  -0.000000  -0.000000
    13  H    0.455164  -0.003965   0.000000   0.000002
    14  H   -0.003965   0.460044  -0.000000   0.000019
    15  H    0.000000  -0.000000   0.297243   0.000718
    16  H    0.000002   0.000019   0.000718   0.319395
 Mulliken charges:
               1
     1  N   -0.222609
     2  C   -0.134362
     3  C    0.124556
     4  C   -0.004791
     5  C    0.390101
     6  C    0.087135
     7  C    0.383404
     8  O   -0.441047
     9  O   -0.582895
    10  O   -0.514376
    11  H    0.379469
    12  H    0.220588
    13  H    0.213250
    14  H    0.216053
    15  H    0.450898
    16  H    0.434627
 Sum of Mulliken charges =   1.00000
 Mulliken charges with hydrogens summed into heavy atoms:
               1
     1  N    0.156859
     2  C    0.086226
     3  C    0.337806
     4  C    0.211262
     5  C    0.390101
     6  C    0.087135
     7  C    0.383404
     8  O   -0.441047
     9  O   -0.131997
    10  O   -0.079749
 Electronic spatial extent (au):  <R**2>=           1310.8676
 Charge=              1.0000 electrons
 Dipole moment (field-independent basis, Debye):
    X=              2.6944    Y=             -1.2899    Z=              0.0004  Tot=              2.9873
 Quadrupole moment (field-independent basis, Debye-Ang):
   XX=            -25.4569   YY=            -45.3441   ZZ=            -56.3959
   XY=             -9.6792   XZ=             -0.0015   YZ=             -0.0025
 Traceless Quadrupole moment (field-independent basis, Debye-Ang):
   XX=             16.9421   YY=             -2.9451   ZZ=            -13.9969
   XY=             -9.6792   XZ=             -0.0015   YZ=             -0.0025
 Octapole moment (field-independent basis, Debye-Ang**2):
  XXX=             -9.9099  YYY=            -16.7276  ZZZ=              0.0006  XYY=             14.5690
  XXY=             17.0422  XXZ=             -0.0023  XZZ=             -8.5853  YZZ=              0.4734
  YYZ=              0.0055  XYZ=             -0.0033
 Hexadecapole moment (field-independent basis, Debye-Ang**3):
 XXXX=           -656.3672 YYYY=           -499.8619 ZZZZ=            -54.1988 XXXY=            -70.2973
 XXXZ=             -0.0078 YYYX=            -48.4626 YYYZ=             -0.0076 ZZZX=              0.0017
 ZZZY=              0.0020 XXYY=           -226.0113 XXZZ=           -185.8902 YYZZ=           -105.4198
 XXYZ=             -0.0134 YYXZ=             -0.0070 ZZXY=              0.7074
 N-N= 5.212846507989D+02 E-N=-2.224650348196D+03  KE= 5.076845084768D+02
 Calling FoFJK, ICntrl=      2127 FMM=F ISym2X=0 I1Cent= 0 IOpClX= 0 NMat=1 NMatS=1 NMatT=0.
 ***** Axes restored to original set *****
 -------------------------------------------------------------------
 Center     Atomic                   Forces (Hartrees/Bohr)
 Number     Number              X              Y              Z
 -------------------------------------------------------------------
      1        7          -0.003501422    0.002935420    0.000007436
      2        6           0.005314973    0.003832326    0.000002238
      3        6           0.004048670    0.001532626    0.000002475
      4        6           0.001906503   -0.004621629    0.000001287
      5        6           0.000070911   -0.004892020   -0.000029527
      6        6          -0.005324982    0.002676512    0.000014867
      7        6           0.002947794   -0.001488272   -0.000013551
      8        8          -0.003047037    0.008805948   -0.000000188
      9        8          -0.001741268   -0.007528797    0.000006469
     10        8           0.000937308   -0.003605972    0.000011983
     11        1          -0.000732145   -0.000751802   -0.000004354
     12        1          -0.000039168   -0.000194194    0.000002130
     13        1          -0.000001693    0.000063069   -0.000001940
     14        1          -0.000024268    0.000090006   -0.000002149
     15        1           0.000166569    0.001115392   -0.000001307
     16        1          -0.000980746    0.002031386    0.000004132
 -------------------------------------------------------------------
 Cartesian Forces:  Max     0.008805948 RMS     0.002684245

 GradGradGradGradGradGradGradGradGradGradGradGradGradGradGradGradGradGrad
 Berny optimization.
 FormGI is forming the generalized inverse of G from B-inverse, IUseBI=4.
 Internal  Forces:  Max     0.009295140 RMS     0.002177720
 Search for a local minimum.
 Step number   1 out of a maximum of   81
 All quantities printed in internal units (Hartrees-Bohrs-Radians)
 Mixed Optimization -- RFO/linear search
 Second derivative matrix not updated -- first step.
 ITU=  0
     Eigenvalues ---    0.00921   0.01457   0.01746   0.01998   0.02102
     Eigenvalues ---    0.02140   0.02188   0.02219   0.02318   0.02364
     Eigenvalues ---    0.02431   0.02439   0.02692   0.16000   0.16000
     Eigenvalues ---    0.16000   0.16000   0.16000   0.16000   0.22000
     Eigenvalues ---    0.22479   0.24467   0.25000   0.25000   0.25000
     Eigenvalues ---    0.25000   0.33642   0.35422   0.35613   0.35719
     Eigenvalues ---    0.41053   0.42629   0.43648   0.45596   0.47067
     Eigenvalues ---    0.51931   0.52263   0.52346   0.56288   0.57064
     Eigenvalues ---    0.60860   1.01135
 RFO step:  Lambda=-6.80410987D-04 EMin= 9.21429511D-03
 Linear search not attempted -- first point.
 Iteration  1 RMS(Cart)=  0.00735171 RMS(Int)=  0.00007037
 Iteration  2 RMS(Cart)=  0.00006592 RMS(Int)=  0.00000053
 Iteration  3 RMS(Cart)=  0.00000000 RMS(Int)=  0.00000053
 Variable       Old X    -DE/DX   Delta X   Delta X   Delta X     New X
                                 (Linear)    (Quad)   (Total)
    R1        2.51985  -0.00685   0.00000  -0.01176  -0.01176   2.50809
    R2        2.56763  -0.00350   0.00000  -0.00672  -0.00672   2.56091
    R3        1.93578   0.00021   0.00000   0.00048   0.00048   1.93626
    R4        2.64268  -0.00365   0.00000  -0.00791  -0.00791   2.63477
    R5        2.04524   0.00019   0.00000   0.00054   0.00054   2.04577
    R6        2.61196  -0.00550   0.00000  -0.01113  -0.01113   2.60083
    R7        2.04691  -0.00000   0.00000  -0.00000  -0.00000   2.04691
    R8        2.67677  -0.00437   0.00000  -0.01001  -0.01001   2.66675
    R9        2.04996   0.00009   0.00000   0.00026   0.00026   2.05021
   R10        2.64966  -0.00745   0.00000  -0.01648  -0.01648   2.63319
   R11        2.50266  -0.00143   0.00000  -0.00235  -0.00235   2.50031
   R12        2.81238  -0.00179   0.00000  -0.00532  -0.00532   2.80706
   R13        2.28187  -0.00930   0.00000  -0.00918  -0.00918   2.27269
   R14        2.54005  -0.00631   0.00000  -0.01120  -0.01120   2.52885
   R15        1.84270  -0.00005   0.00000  -0.00010  -0.00010   1.84260
   R16        1.84348  -0.00114   0.00000  -0.00218  -0.00218   1.84130
    A1        2.17490  -0.00037   0.00000  -0.00225  -0.00225   2.17266
    A2        2.11847  -0.00081   0.00000  -0.00507  -0.00507   2.11340
    A3        1.98981   0.00118   0.00000   0.00732   0.00732   1.99713
    A4        2.06657   0.00024   0.00000   0.00093   0.00092   2.06749
    A5        2.05009  -0.00016   0.00000  -0.00075  -0.00075   2.04935
    A6        2.16653  -0.00007   0.00000  -0.00018  -0.00018   2.16635
    A7        2.09000  -0.00041   0.00000  -0.00140  -0.00141   2.08859
    A8        2.08280   0.00027   0.00000   0.00111   0.00111   2.08391
    A9        2.11039   0.00014   0.00000   0.00030   0.00030   2.11068
   A10        2.10485   0.00004   0.00000   0.00082   0.00082   2.10567
   A11        2.12063   0.00001   0.00000  -0.00026  -0.00026   2.12037
   A12        2.05771  -0.00004   0.00000  -0.00056  -0.00056   2.05715
   A13        2.05461  -0.00011   0.00000  -0.00025  -0.00025   2.05436
   A14        2.05240  -0.00092   0.00000  -0.00376  -0.00376   2.04864
   A15        2.17618   0.00103   0.00000   0.00401   0.00401   2.18018
   A16        2.07545   0.00063   0.00000   0.00216   0.00216   2.07760
   A17        1.97242  -0.00011   0.00000  -0.00029  -0.00029   1.97213
   A18        2.23532  -0.00051   0.00000  -0.00187  -0.00187   2.23345
   A19        2.12789   0.00003   0.00000   0.00013   0.00013   2.12802
   A20        1.95612   0.00142   0.00000   0.00565   0.00565   1.96177
   A21        2.19917  -0.00145   0.00000  -0.00578  -0.00578   2.19339
   A22        1.91386   0.00207   0.00000   0.01291   0.01291   1.92677
   A23        1.94397   0.00358   0.00000   0.02230   0.02230   1.96627
    D1       -0.00012   0.00000   0.00000   0.00007   0.00007  -0.00005
    D2        3.14150   0.00000   0.00000   0.00003   0.00003   3.14153
    D3        3.14135   0.00000   0.00000   0.00013   0.00013   3.14147
    D4       -0.00022   0.00000   0.00000   0.00009   0.00009  -0.00013
    D5        0.00003  -0.00000   0.00000  -0.00002  -0.00002   0.00001
    D6        3.14144   0.00000   0.00000   0.00005   0.00005   3.14149
    D7       -3.14144  -0.00000   0.00000  -0.00007  -0.00007  -3.14151
    D8       -0.00003  -0.00000   0.00000   0.00000   0.00000  -0.00003
    D9        0.00007  -0.00000   0.00000  -0.00006  -0.00006   0.00002
   D10       -3.14149  -0.00000   0.00000  -0.00007  -0.00007  -3.14156
   D11       -3.14155  -0.00000   0.00000  -0.00001  -0.00001  -3.14156
   D12        0.00007  -0.00000   0.00000  -0.00002  -0.00002   0.00005
   D13        0.00005   0.00000   0.00000  -0.00000  -0.00000   0.00005
   D14       -3.14157   0.00000   0.00000   0.00005   0.00005  -3.14152
   D15       -3.14157   0.00000   0.00000   0.00001   0.00001  -3.14156
   D16       -0.00000   0.00000   0.00000   0.00005   0.00005   0.00005
   D17       -0.00013   0.00000   0.00000   0.00005   0.00005  -0.00008
   D18        3.14126   0.00001   0.00000   0.00037   0.00037  -3.14156
   D19        3.14148  -0.00000   0.00000   0.00000   0.00000   3.14149
   D20       -0.00031   0.00001   0.00000   0.00033   0.00033   0.00002
   D21        0.00009  -0.00000   0.00000  -0.00004  -0.00004   0.00005
   D22       -3.14128  -0.00000   0.00000  -0.00013  -0.00013  -3.14141
   D23       -3.14128  -0.00001   0.00000  -0.00039  -0.00039   3.14152
   D24        0.00053  -0.00001   0.00000  -0.00048  -0.00048   0.00005
   D25       -3.14145  -0.00001   0.00000  -0.00030  -0.00030   3.14144
   D26       -0.00008   0.00000   0.00000   0.00005   0.00005  -0.00003
   D27       -0.00019  -0.00000   0.00000   0.00000   0.00000  -0.00018
   D28        3.14135   0.00000   0.00000   0.00022   0.00022   3.14157
   D29        3.14120   0.00000   0.00000   0.00009   0.00009   3.14129
   D30       -0.00045   0.00000   0.00000   0.00031   0.00031  -0.00015
   D31        3.14153  -0.00000   0.00000  -0.00008  -0.00008   3.14146
   D32       -0.00012   0.00000   0.00000   0.00015   0.00015   0.00003
         Item               Value     Threshold  Converged?
 Maximum Force            0.009295     0.000450     NO 
 RMS     Force            0.002178     0.000300     NO 
 Maximum Displacement     0.033463     0.001800     NO 
 RMS     Displacement     0.007357     0.001200     NO 
 Predicted change in Energy=-3.408362D-04
 GradGradGradGradGradGradGradGradGradGradGradGradGradGradGradGradGradGrad

                          Input orientation:                          
 ---------------------------------------------------------------------
 Center     Atomic      Atomic             Coordinates (Angstroms)
 Number     Number       Type             X           Y           Z
 ---------------------------------------------------------------------
      1          7           0       -0.513250   -1.350919   -0.000144
      2          6           0       -1.839002   -1.413355   -0.000071
      3          6           0       -2.560326   -0.220185    0.000065
      4          6           0       -1.889351    0.981481    0.000102
      5          6           0       -0.478629    1.017641   -0.000058
      6          6           0        0.200620   -0.199013   -0.000149
      7          6           0        1.668595   -0.426079   -0.000104
      8          8           0        2.141096   -1.532029    0.000117
      9          8           0        2.361701    0.718652   -0.000140
     10          8           0        0.099521    2.207747    0.000032
     11          1           0        0.056526   -2.202513   -0.000139
     12          1           0       -2.291762   -2.396708   -0.000133
     13          1           0       -3.642996   -0.253367    0.000157
     14          1           0       -2.420860    1.927295    0.000274
     15          1           0        3.319496    0.535977    0.000017
     16          1           0        1.072324    2.152484    0.000051
 ---------------------------------------------------------------------
                    Distance matrix (angstroms):
                    1          2          3          4          5
     1  N    0.000000
     2  C    1.327222   0.000000
     3  C    2.338606   1.394260   0.000000
     4  C    2.708089   2.395365   1.376303   0.000000
     5  C    2.368813   2.785742   2.421916   1.411186   0.000000
     6  C    1.355174   2.373749   2.761027   2.400323   1.393423
     7  C    2.369763   3.643892   4.233930   3.826252   2.587450
     8  O    2.660517   3.981867   4.881014   4.749972   3.655649
     9  O    3.542381   4.710771   5.010765   4.259169   2.856023
    10  O    3.611037   4.107341   3.601338   2.336523   1.323106
    11  H    1.024625   2.053241   3.282916   3.731522   3.264319
    12  H    2.063196   1.082577   2.193029   3.402072   3.865906
    13  H    3.316615   2.144753   1.083179   2.144789   3.410085
    14  H    3.792844   3.390945   2.152005   1.084927   2.144699
    15  H    4.272038   5.514526   5.928244   5.227864   3.828544
    16  H    3.845501   4.603371   4.338860   3.184771   1.921802
                    6          7          8          9         10
     6  C    0.000000
     7  C    1.485432   0.000000
     8  O    2.354225   1.202656   0.000000
     9  O    2.347846   1.338210   2.261467   0.000000
    10  O    2.408883   3.065784   4.260745   2.708295   0.000000
    11  H    2.008675   2.398850   2.189744   3.721161   4.410469
    12  H    3.322925   4.423551   4.516403   5.600016   5.188375
    13  H    3.844001   5.314398   5.923740   6.082862   4.479231
    14  H    3.375403   4.718264   5.725239   4.932921   2.535936
    15  H    3.204308   1.910765   2.380183   0.975060   3.628093
    16  H    2.507869   2.646607   3.836392   1.928306   0.974372
                   11         12         13         14         15
    11  H    0.000000
    12  H    2.356304   0.000000
    13  H    4.181583   2.533721   0.000000
    14  H    4.815886   4.325930   2.499781   0.000000
    15  H    4.259847   6.331417   7.007093   5.906560   0.000000
    16  H    4.471895   5.657934   5.293615   3.500435   2.768190
                   16
    16  H    0.000000
 Stoichiometry    C6H6NO3(1+)
 Framework group  C1[X(C6H6NO3)]
 Deg. of freedom    42
 Full point group                 C1      NOp   1
 Largest Abelian subgroup         C1      NOp   1
 Largest concise Abelian subgroup C1      NOp   1
                         Standard orientation:                         
 ---------------------------------------------------------------------
 Center     Atomic      Atomic             Coordinates (Angstroms)
 Number     Number       Type             X           Y           Z
 ---------------------------------------------------------------------
      1          7           0        0.513425   -1.349182    0.000117
      2          6           0        1.839229   -1.410503    0.000044
      3          6           0        2.559549   -0.216727   -0.000093
      4          6           0        1.887565    0.984375   -0.000129
      5          6           0        0.476813    1.019349    0.000031
      6          6           0       -0.201414   -0.197876    0.000122
      7          6           0       -1.669197   -0.426176    0.000077
      8          8           0       -2.140767   -1.532523   -0.000145
      9          8           0       -2.363265    0.717972    0.000112
     10          8           0       -0.102337    2.208968   -0.000059
     11          1           0       -0.055635   -2.201254    0.000112
     12          1           0        2.292816   -2.393474    0.000106
     13          1           0        3.642247   -0.248999   -0.000185
     14          1           0        2.418278    1.930636   -0.000301
     15          1           0       -3.320906    0.534491   -0.000044
     16          1           0       -1.075094    2.152887   -0.000079
 ---------------------------------------------------------------------
 Rotational constants (GHZ):      2.2993467      1.2570974      0.8127508
 Standard basis: 6-31+G(d,p) (6D, 7F)
 There are   220 symmetry adapted cartesian basis functions of A   symmetry.
 There are   220 symmetry adapted basis functions of A   symmetry.
   220 basis functions,   362 primitive gaussians,   220 cartesian basis functions
    36 alpha electrons       36 beta electrons
       nuclear repulsion energy       522.8142713234 Hartrees.
 NAtoms=   16 NActive=   16 NUniq=   16 SFac= 1.00D+00 NAtFMM=   60 NAOKFM=F Big=F
 Integral buffers will be    131072 words long.
 Raffenetti 2 integral format.
 Two-electron integral symmetry is turned on.
 Nuclear repulsion after empirical dispersion term =      522.8013949406 Hartrees.
 One-electron integrals computed using PRISM.
 NBasis=   220 RedAO= T EigKep=  4.62D-06  NBF=   220
 NBsUse=   220 1.00D-06 EigRej= -1.00D+00 NBFU=   220
 Initial guess from the checkpoint file:  "b3lyp3HPA.chk"
 B after Tr=    -0.000000    0.000000   -0.000000
         Rot=    1.000000    0.000009   -0.000008   -0.000493 Ang=   0.06 deg.
 ExpMin= 4.38D-02 ExpMax= 5.48D+03 ExpMxC= 8.25D+02 IAcc=2 IRadAn=         4 AccDes= 0.00D+00
 Harris functional with IExCor=20419 and IRadAn=       4 diagonalized for initial guess.
 HarFok:  IExCor=20419 AccDes= 0.00D+00 IRadAn=         4 IDoV= 1 UseB2=F ITyADJ=14
 ICtDFT=  3500011 ScaDFX=  1.000000  1.000000  1.000000  1.000000
 FoFCou: FMM=F IPFlag=           0 FMFlag=      100000 FMFlg1=           0
         NFxFlg=           0 DoJE=T BraDBF=F KetDBF=T FulRan=T
         wScrn=  0.000000 ICntrl=     500 IOpCl=  0 I1Cent=   200000004 NGrid=           0
         NMat0=    1 NMatS0=      1 NMatT0=    0 NMatD0=    1 NMtDS0=    0 NMtDT0=    0
 Petite list used in FoFCou.
 Keep R1 ints in memory in canonical form, NReq=596566580.
 Requested convergence on RMS density matrix=1.00D-08 within 128 cycles.
 Requested convergence on MAX density matrix=1.00D-06.
 Requested convergence on             energy=1.00D-06.
 No special actions if energy rises.
 SCF Done:  E(RCAM-B3LYP) =  -512.269503526     A.U. after   12 cycles
            NFock= 12  Conv=0.50D-08     -V/T= 2.0088
 Calling FoFJK, ICntrl=      2127 FMM=F ISym2X=0 I1Cent= 0 IOpClX= 0 NMat=1 NMatS=1 NMatT=0.
 ***** Axes restored to original set *****
 -------------------------------------------------------------------
 Center     Atomic                   Forces (Hartrees/Bohr)
 Number     Number              X              Y              Z
 -------------------------------------------------------------------
      1        7          -0.000133491   -0.000497868    0.000000128
      2        6           0.000738102   -0.000601189   -0.000002348
      3        6          -0.000995916    0.000362880   -0.000001495
      4        6          -0.000703629    0.000400332   -0.000002491
      5        6           0.001439277   -0.000052816    0.000010902
      6        6          -0.000462380    0.000484145   -0.000003569
      7        6           0.002004743    0.001609983    0.000018817
      8        8          -0.000193037   -0.000706440   -0.000009274
      9        8          -0.000407956   -0.000807564   -0.000003719
     10        8           0.000181082    0.000117742   -0.000002243
     11        1          -0.000044781    0.000057186   -0.000001925
     12        1          -0.000177460   -0.000001408    0.000002405
     13        1          -0.000021206   -0.000014744    0.000000477
     14        1           0.000014291    0.000074700   -0.000001816
     15        1          -0.000412207   -0.000061273   -0.000001184
     16        1          -0.000825433   -0.000363666   -0.000002663
 -------------------------------------------------------------------
 Cartesian Forces:  Max     0.002004743 RMS     0.000549944

 GradGradGradGradGradGradGradGradGradGradGradGradGradGradGradGradGradGrad
 Berny optimization.
 Using GEDIIS/GDIIS optimizer.
 FormGI is forming the generalized inverse of G from B-inverse, IUseBI=4.
 Internal  Forces:  Max     0.001169610 RMS     0.000326839
 Search for a local minimum.
 Step number   2 out of a maximum of   81
 All quantities printed in internal units (Hartrees-Bohrs-Radians)
 Mixed Optimization -- En-DIIS/RFO-DIIS
 Update second derivatives using D2CorX and points    1    2
 DE= -3.21D-04 DEPred=-3.41D-04 R= 9.41D-01
 TightC=F SS=  1.41D+00  RLast= 4.30D-02 DXNew= 5.0454D-01 1.2902D-01
 Trust test= 9.41D-01 RLast= 4.30D-02 DXMaxT set to 3.00D-01
 ITU=  1  0
 Use linear search instead of GDIIS.
     Eigenvalues ---    0.00921   0.01454   0.01747   0.01998   0.02102
     Eigenvalues ---    0.02141   0.02188   0.02219   0.02318   0.02364
     Eigenvalues ---    0.02431   0.02438   0.02692   0.15922   0.16000
     Eigenvalues ---    0.16000   0.16000   0.16000   0.16712   0.21926
     Eigenvalues ---    0.22477   0.24498   0.24716   0.25000   0.25000
     Eigenvalues ---    0.25291   0.33978   0.35419   0.35613   0.35713
     Eigenvalues ---    0.41302   0.42249   0.43650   0.46390   0.46974
     Eigenvalues ---    0.51229   0.52331   0.53711   0.54261   0.57932
     Eigenvalues ---    0.60845   1.02164
 RFO step:  Lambda=-1.60260669D-05 EMin= 9.21426872D-03
 Quartic linear search produced a step of -0.05757.
 Iteration  1 RMS(Cart)=  0.00134647 RMS(Int)=  0.00000116
 Iteration  2 RMS(Cart)=  0.00000106 RMS(Int)=  0.00000015
 Iteration  3 RMS(Cart)=  0.00000000 RMS(Int)=  0.00000015
 Variable       Old X    -DE/DX   Delta X   Delta X   Delta X     New X
                                 (Linear)    (Quad)   (Total)
    R1        2.50809   0.00019   0.00068  -0.00066   0.00002   2.50810
    R2        2.56091   0.00057   0.00039   0.00042   0.00080   2.56171
    R3        1.93626  -0.00007  -0.00003  -0.00012  -0.00015   1.93612
    R4        2.63477   0.00091   0.00046   0.00125   0.00171   2.63648
    R5        2.04577   0.00008  -0.00003   0.00024   0.00021   2.04599
    R6        2.60083   0.00035   0.00064  -0.00019   0.00046   2.60129
    R7        2.04691   0.00002   0.00000   0.00006   0.00006   2.04697
    R8        2.66675   0.00095   0.00058   0.00127   0.00184   2.66860
    R9        2.05021   0.00006  -0.00001   0.00018   0.00016   2.05038
   R10        2.63319   0.00001   0.00095  -0.00137  -0.00042   2.63277
   R11        2.50031  -0.00050   0.00014  -0.00097  -0.00083   2.49947
   R12        2.80706   0.00097   0.00031   0.00229   0.00260   2.80966
   R13        2.27269   0.00057   0.00053  -0.00021   0.00032   2.27301
   R14        2.52885  -0.00117   0.00064  -0.00287  -0.00223   2.52662
   R15        1.84260  -0.00039   0.00001  -0.00072  -0.00071   1.84189
   R16        1.84130  -0.00080   0.00013  -0.00163  -0.00150   1.83980
    A1        2.17266   0.00006   0.00013  -0.00005   0.00008   2.17274
    A2        2.11340  -0.00003   0.00029  -0.00053  -0.00023   2.11317
    A3        1.99713  -0.00002  -0.00042   0.00057   0.00015   1.99728
    A4        2.06749   0.00020  -0.00005   0.00096   0.00091   2.06840
    A5        2.04935   0.00007   0.00004   0.00047   0.00051   2.04986
    A6        2.16635  -0.00026   0.00001  -0.00143  -0.00142   2.16493
    A7        2.08859  -0.00028   0.00008  -0.00116  -0.00108   2.08751
    A8        2.08391   0.00013  -0.00006   0.00054   0.00047   2.08439
    A9        2.11068   0.00015  -0.00002   0.00063   0.00061   2.11129
   A10        2.10567  -0.00008  -0.00005  -0.00013  -0.00018   2.10549
   A11        2.12037   0.00009   0.00001   0.00038   0.00040   2.12076
   A12        2.05715  -0.00001   0.00003  -0.00025  -0.00022   2.05693
   A13        2.05436   0.00025   0.00001   0.00089   0.00091   2.05526
   A14        2.04864  -0.00034   0.00022  -0.00156  -0.00134   2.04730
   A15        2.18018   0.00009  -0.00023   0.00067   0.00044   2.18062
   A16        2.07760  -0.00015  -0.00012  -0.00051  -0.00063   2.07697
   A17        1.97213  -0.00000   0.00002   0.00004   0.00006   1.97219
   A18        2.23345   0.00015   0.00011   0.00047   0.00058   2.23402
   A19        2.12802  -0.00056  -0.00001  -0.00212  -0.00213   2.12590
   A20        1.96177   0.00009  -0.00033   0.00082   0.00049   1.96226
   A21        2.19339   0.00047   0.00033   0.00130   0.00163   2.19503
   A22        1.92677  -0.00026  -0.00074  -0.00043  -0.00118   1.92559
   A23        1.96627  -0.00076  -0.00128  -0.00260  -0.00388   1.96239
    D1       -0.00005   0.00000  -0.00000   0.00006   0.00005   0.00000
    D2        3.14153   0.00000  -0.00000   0.00005   0.00005   3.14158
    D3        3.14147   0.00000  -0.00001   0.00007   0.00007   3.14154
    D4       -0.00013   0.00000  -0.00000   0.00007   0.00007  -0.00007
    D5        0.00001  -0.00000   0.00000  -0.00002  -0.00002  -0.00001
    D6        3.14149   0.00000  -0.00000   0.00005   0.00005   3.14154
    D7       -3.14151  -0.00000   0.00000  -0.00004  -0.00003  -3.14154
    D8       -0.00003   0.00000  -0.00000   0.00004   0.00004   0.00000
    D9        0.00002  -0.00000   0.00000  -0.00003  -0.00002  -0.00001
   D10       -3.14156  -0.00000   0.00000  -0.00004  -0.00003  -3.14159
   D11       -3.14156  -0.00000   0.00000  -0.00002  -0.00002  -3.14159
   D12        0.00005  -0.00000   0.00000  -0.00003  -0.00003   0.00001
   D13        0.00005  -0.00000   0.00000  -0.00004  -0.00004   0.00001
   D14       -3.14152  -0.00000  -0.00000  -0.00006  -0.00006  -3.14159
   D15       -3.14156  -0.00000  -0.00000  -0.00003  -0.00003  -3.14159
   D16        0.00005  -0.00000  -0.00000  -0.00005  -0.00006  -0.00000
   D17       -0.00008   0.00000  -0.00000   0.00007   0.00007  -0.00001
   D18       -3.14156  -0.00000  -0.00002  -0.00008  -0.00010   3.14153
   D19        3.14149   0.00000  -0.00000   0.00010   0.00010   3.14158
   D20        0.00002  -0.00000  -0.00002  -0.00006  -0.00008  -0.00006
   D21        0.00005  -0.00000   0.00000  -0.00005  -0.00004   0.00001
   D22       -3.14141  -0.00000   0.00001  -0.00013  -0.00012  -3.14153
   D23        3.14152   0.00000   0.00002   0.00012   0.00014  -3.14153
   D24        0.00005   0.00000   0.00003   0.00004   0.00007   0.00012
   D25        3.14144   0.00000   0.00002   0.00015   0.00017  -3.14158
   D26       -0.00003  -0.00000  -0.00000  -0.00002  -0.00002  -0.00005
   D27       -0.00018   0.00001  -0.00000   0.00047   0.00047   0.00029
   D28        3.14157  -0.00000  -0.00001  -0.00017  -0.00018   3.14139
   D29        3.14129   0.00001  -0.00001   0.00055   0.00054  -3.14136
   D30       -0.00015  -0.00000  -0.00002  -0.00009  -0.00011  -0.00025
   D31        3.14146   0.00001   0.00000   0.00037   0.00038  -3.14135
   D32        0.00003  -0.00000  -0.00001  -0.00029  -0.00030  -0.00027
         Item               Value     Threshold  Converged?
 Maximum Force            0.001170     0.000450     NO 
 RMS     Force            0.000327     0.000300     NO 
 Maximum Displacement     0.004687     0.001800     NO 
 RMS     Displacement     0.001346     0.001200     NO 
 Predicted change in Energy=-9.239819D-06
 GradGradGradGradGradGradGradGradGradGradGradGradGradGradGradGradGradGrad

                          Input orientation:                          
 ---------------------------------------------------------------------
 Center     Atomic      Atomic             Coordinates (Angstroms)
 Number     Number       Type             X           Y           Z
 ---------------------------------------------------------------------
      1          7           0       -0.512665   -1.350480   -0.000038
      2          6           0       -1.838418   -1.413104   -0.000055
      3          6           0       -2.561462   -0.219920    0.000004
      4          6           0       -1.890330    0.981935    0.000084
      5          6           0       -0.478624    1.017818    0.000093
      6          6           0        0.201361   -0.198170    0.000036
      7          6           0        1.670722   -0.425273    0.000105
      8          8           0        2.141066   -1.532322   -0.000199
      9          8           0        2.363647    0.718190   -0.000075
     10          8           0        0.097988    2.208179    0.000096
     11          1           0        0.056990   -2.202062   -0.000031
     12          1           0       -2.291588   -2.396391   -0.000124
     13          1           0       -3.644143   -0.253726   -0.000007
     14          1           0       -2.421474    1.928052    0.000137
     15          1           0        3.320788    0.534099   -0.000244
     16          1           0        1.069844    2.150284    0.000094
 ---------------------------------------------------------------------
                    Distance matrix (angstroms):
                    1          2          3          4          5
     1  N    0.000000
     2  C    1.327231   0.000000
     3  C    2.340029   1.395164   0.000000
     4  C    2.708896   2.395602   1.376544   0.000000
     5  C    2.368543   2.785395   2.422852   1.412162   0.000000
     6  C    1.355600   2.374186   2.762909   2.401628   1.393200
     7  C    2.371326   3.645528   4.237164   3.829011   2.588861
     8  O    2.659954   3.981269   4.882231   4.751173   3.655954
     9  O    3.542960   4.711662   5.013656   4.262145   2.858021
    10  O    3.610672   4.106502   3.601158   2.336040   1.322664
    11  H    1.024548   2.053052   3.284080   3.732277   3.264125
    12  H    2.063613   1.082689   2.193139   3.402072   3.865703
    13  H    3.317985   2.145881   1.083209   2.145395   3.411355
    14  H    3.793721   3.391649   2.152528   1.085012   2.145505
    15  H    4.271651   5.514436   5.930380   5.230326   3.830081
    16  H    3.841833   4.599534   4.336386   3.182400   1.918392
                    6          7          8          9         10
     6  C    0.000000
     7  C    1.486808   0.000000
     8  O    2.354235   1.202823   0.000000
     9  O    2.348446   1.337031   2.261493   0.000000
    10  O    2.408569   3.067337   4.262103   2.711693   0.000000
    11  H    2.009085   2.400231   2.189046   3.721362   4.410431
    12  H    3.323698   4.425518   4.516087   5.601056   5.187691
    13  H    3.845906   5.317634   5.924817   6.085899   4.479345
    14  H    3.376401   4.720615   5.726340   4.935702   2.534988
    15  H    3.204223   1.908693   2.379462   0.974684   3.631664
    16  H    2.503897   2.644720   3.835245   1.929979   0.973578
                   11         12         13         14         15
    11  H    0.000000
    12  H    2.356604   0.000000
    13  H    4.182631   2.533854   0.000000
    14  H    4.816703   4.326393   2.501015   0.000000
    15  H    4.258985   6.331393   7.009347   5.909034   0.000000
    16  H    4.468644   5.654332   5.291591   3.498384   2.771066
                   16
    16  H    0.000000
 Stoichiometry    C6H6NO3(1+)
 Framework group  C1[X(C6H6NO3)]
 Deg. of freedom    42
 Full point group                 C1      NOp   1
 Largest Abelian subgroup         C1      NOp   1
 Largest concise Abelian subgroup C1      NOp   1
                         Standard orientation:                         
 ---------------------------------------------------------------------
 Center     Atomic      Atomic             Coordinates (Angstroms)
 Number     Number       Type             X           Y           Z
 ---------------------------------------------------------------------
      1          7           0        0.512045   -1.349308    0.000035
      2          6           0        1.837805   -1.411774    0.000051
      3          6           0        2.560706   -0.218502   -0.000007
      4          6           0        1.889429    0.983272   -0.000087
      5          6           0        0.477719    1.018986   -0.000097
      6          6           0       -0.202120   -0.197085   -0.000039
      7          6           0       -1.671454   -0.424364   -0.000109
      8          8           0       -2.141665   -1.531470    0.000195
      9          8           0       -2.364516    0.719016    0.000071
     10          8           0       -0.099036    2.209277   -0.000100
     11          1           0       -0.057508   -2.200959    0.000028
     12          1           0        2.291093   -2.395006    0.000120
     13          1           0        3.643391   -0.252179    0.000004
     14          1           0        2.420460    1.929452   -0.000141
     15          1           0       -3.321635    0.534809    0.000240
     16          1           0       -1.070884    2.151265   -0.000097
 ---------------------------------------------------------------------
 Rotational constants (GHZ):      2.2994404      1.2560694      0.8123327
 Standard basis: 6-31+G(d,p) (6D, 7F)
 There are   220 symmetry adapted cartesian basis functions of A   symmetry.
 There are   220 symmetry adapted basis functions of A   symmetry.
   220 basis functions,   362 primitive gaussians,   220 cartesian basis functions
    36 alpha electrons       36 beta electrons
       nuclear repulsion energy       522.7289675987 Hartrees.
 NAtoms=   16 NActive=   16 NUniq=   16 SFac= 1.00D+00 NAtFMM=   60 NAOKFM=F Big=F
 Integral buffers will be    131072 words long.
 Raffenetti 2 integral format.
 Two-electron integral symmetry is turned on.
 Nuclear repulsion after empirical dispersion term =      522.7160928271 Hartrees.
 One-electron integrals computed using PRISM.
 NBasis=   220 RedAO= T EigKep=  4.63D-06  NBF=   220
 NBsUse=   220 1.00D-06 EigRej= -1.00D+00 NBFU=   220
 Initial guess from the checkpoint file:  "b3lyp3HPA.chk"
 B after Tr=     0.000000    0.000000    0.000000
         Rot=    1.000000    0.000016   -0.000004    0.000383 Ang=   0.04 deg.
 Keep R1 ints in memory in canonical form, NReq=596566580.
 Requested convergence on RMS density matrix=1.00D-08 within 128 cycles.
 Requested convergence on MAX density matrix=1.00D-06.
 Requested convergence on             energy=1.00D-06.
 No special actions if energy rises.
 SCF Done:  E(RCAM-B3LYP) =  -512.269513758     A.U. after   10 cycles
            NFock= 10  Conv=0.94D-08     -V/T= 2.0088
 Calling FoFJK, ICntrl=      2127 FMM=F ISym2X=0 I1Cent= 0 IOpClX= 0 NMat=1 NMatS=1 NMatT=0.
 ***** Axes restored to original set *****
 -------------------------------------------------------------------
 Center     Atomic                   Forces (Hartrees/Bohr)
 Number     Number              X              Y              Z
 -------------------------------------------------------------------
      1        7          -0.000223583   -0.000204012    0.000006383
      2        6           0.000296153   -0.000191646   -0.000002622
      3        6          -0.000197014    0.000199211    0.000001258
      4        6          -0.000316754   -0.000046320   -0.000001102
      5        6           0.000146537   -0.000286303   -0.000005905
      6        6          -0.000123410    0.000251602    0.000022643
      7        6           0.000431430    0.000671479   -0.000069607
      8        8           0.000019373   -0.000393617    0.000027123
      9        8          -0.000339038   -0.000336484    0.000020528
     10        8           0.000190490    0.000153248    0.000004188
     11        1           0.000016972    0.000029836   -0.000003035
     12        1          -0.000049274    0.000017978    0.000000281
     13        1           0.000020633   -0.000039540   -0.000000087
     14        1           0.000053958    0.000019989   -0.000000199
     15        1           0.000044972    0.000047611    0.000000620
     16        1           0.000028556    0.000106969   -0.000000467
 -------------------------------------------------------------------
 Cartesian Forces:  Max     0.000671479 RMS     0.000187731

 GradGradGradGradGradGradGradGradGradGradGradGradGradGradGradGradGradGrad
 Berny optimization.
 Using GEDIIS/GDIIS optimizer.
 FormGI is forming the generalized inverse of G from B-inverse, IUseBI=4.
 Internal  Forces:  Max     0.000400989 RMS     0.000104869
 Search for a local minimum.
 Step number   3 out of a maximum of   81
 All quantities printed in internal units (Hartrees-Bohrs-Radians)
 Mixed Optimization -- En-DIIS/RFO-DIIS
 Swapping is turned off.
 Update second derivatives using D2CorX and points    1    2    3
 DE= -1.02D-05 DEPred=-9.24D-06 R= 1.11D+00
 TightC=F SS=  1.41D+00  RLast= 7.50D-03 DXNew= 5.0454D-01 2.2510D-02
 Trust test= 1.11D+00 RLast= 7.50D-03 DXMaxT set to 3.00D-01
 ITU=  1  1  0
     Eigenvalues ---    0.00921   0.01462   0.01746   0.01998   0.02102
     Eigenvalues ---    0.02141   0.02188   0.02219   0.02318   0.02364
     Eigenvalues ---    0.02431   0.02438   0.02692   0.15420   0.16000
     Eigenvalues ---    0.16000   0.16000   0.16010   0.18120   0.21610
     Eigenvalues ---    0.22477   0.23318   0.24636   0.25000   0.25006
     Eigenvalues ---    0.26034   0.32412   0.35427   0.35624   0.35710
     Eigenvalues ---    0.39260   0.41308   0.43646   0.45932   0.46395
     Eigenvalues ---    0.50285   0.52142   0.52359   0.54280   0.57508
     Eigenvalues ---    0.65346   1.01290
 En-DIIS/RFO-DIIS IScMMF=        0 using points:     3    2
 RFO step:  Lambda=-1.30244242D-06.
 DidBck=F Rises=F RFO-DIIS coefs:    1.11667   -0.11667
 Iteration  1 RMS(Cart)=  0.00063524 RMS(Int)=  0.00000063
 Iteration  2 RMS(Cart)=  0.00000058 RMS(Int)=  0.00000029
 Variable       Old X    -DE/DX   Delta X   Delta X   Delta X     New X
                                 (Linear)    (Quad)   (Total)
    R1        2.50810  -0.00009   0.00000  -0.00026  -0.00025   2.50785
    R2        2.56171   0.00021   0.00009   0.00039   0.00048   2.56219
    R3        1.93612  -0.00002  -0.00002  -0.00004  -0.00006   1.93606
    R4        2.63648   0.00023   0.00020   0.00054   0.00074   2.63721
    R5        2.04599   0.00000   0.00002   0.00002   0.00004   2.04603
    R6        2.60129   0.00002   0.00005   0.00000   0.00006   2.60135
    R7        2.04697  -0.00002   0.00001  -0.00006  -0.00005   2.04691
    R8        2.66860   0.00029   0.00022   0.00071   0.00093   2.66953
    R9        2.05038  -0.00001   0.00002  -0.00002  -0.00001   2.05037
   R10        2.63277  -0.00010  -0.00005  -0.00036  -0.00041   2.63236
   R11        2.49947   0.00033  -0.00010   0.00059   0.00049   2.49996
   R12        2.80966   0.00016   0.00030   0.00052   0.00082   2.81048
   R13        2.27301   0.00037   0.00004   0.00036   0.00039   2.27340
   R14        2.52662  -0.00040  -0.00026  -0.00089  -0.00115   2.52547
   R15        1.84189   0.00004  -0.00008   0.00007  -0.00001   1.84187
   R16        1.83980   0.00002  -0.00018   0.00002  -0.00015   1.83964
    A1        2.17274   0.00001   0.00001  -0.00003  -0.00002   2.17272
    A2        2.11317   0.00003  -0.00003   0.00018   0.00015   2.11332
    A3        1.99728  -0.00003   0.00002  -0.00015  -0.00013   1.99715
    A4        2.06840   0.00002   0.00011   0.00012   0.00023   2.06863
    A5        2.04986   0.00004   0.00006   0.00033   0.00039   2.05025
    A6        2.16493  -0.00007  -0.00017  -0.00045  -0.00062   2.16431
    A7        2.08751  -0.00004  -0.00013  -0.00018  -0.00030   2.08720
    A8        2.08439  -0.00002   0.00006  -0.00019  -0.00013   2.08425
    A9        2.11129   0.00006   0.00007   0.00037   0.00044   2.11173
   A10        2.10549  -0.00000  -0.00002   0.00003   0.00001   2.10550
   A11        2.12076   0.00006   0.00005   0.00041   0.00045   2.12122
   A12        2.05693  -0.00006  -0.00003  -0.00043  -0.00046   2.05647
   A13        2.05526  -0.00002   0.00011  -0.00007   0.00004   2.05530
   A14        2.04730   0.00002  -0.00016   0.00003  -0.00012   2.04718
   A15        2.18062   0.00000   0.00005   0.00004   0.00009   2.18071
   A16        2.07697   0.00003  -0.00007   0.00012   0.00005   2.07702
   A17        1.97219   0.00002   0.00001   0.00010   0.00010   1.97230
   A18        2.23402  -0.00005   0.00007  -0.00022  -0.00015   2.23387
   A19        2.12590  -0.00009  -0.00025  -0.00042  -0.00067   2.12522
   A20        1.96226  -0.00013   0.00006  -0.00055  -0.00049   1.96177
   A21        2.19503   0.00022   0.00019   0.00097   0.00116   2.19619
   A22        1.92559   0.00010  -0.00014   0.00077   0.00063   1.92623
   A23        1.96239   0.00020  -0.00045   0.00150   0.00105   1.96343
    D1        0.00000  -0.00000   0.00001  -0.00003  -0.00003  -0.00002
    D2        3.14158  -0.00000   0.00001  -0.00003  -0.00002   3.14156
    D3        3.14154   0.00000   0.00001   0.00007   0.00008  -3.14157
    D4       -0.00007   0.00000   0.00001   0.00007   0.00008   0.00002
    D5       -0.00001   0.00000  -0.00000   0.00002   0.00002   0.00001
    D6        3.14154   0.00000   0.00001   0.00007   0.00008  -3.14156
    D7       -3.14154  -0.00000  -0.00000  -0.00007  -0.00008   3.14156
    D8        0.00000  -0.00000   0.00000  -0.00002  -0.00002  -0.00001
    D9       -0.00001   0.00000  -0.00000   0.00003   0.00002   0.00002
   D10       -3.14159   0.00000  -0.00000   0.00001   0.00001  -3.14158
   D11       -3.14159   0.00000  -0.00000   0.00002   0.00002  -3.14157
   D12        0.00001   0.00000  -0.00000   0.00000   0.00000   0.00002
   D13        0.00001  -0.00000  -0.00000  -0.00001  -0.00002  -0.00001
   D14       -3.14159   0.00000  -0.00001   0.00000  -0.00001  -3.14159
   D15       -3.14159   0.00000  -0.00000   0.00000   0.00000  -3.14159
   D16       -0.00000   0.00000  -0.00001   0.00002   0.00001   0.00001
   D17       -0.00001   0.00000   0.00001   0.00000   0.00001  -0.00000
   D18        3.14153   0.00000  -0.00001   0.00008   0.00007  -3.14159
   D19        3.14158  -0.00000   0.00001  -0.00001  -0.00000   3.14158
   D20       -0.00006   0.00000  -0.00001   0.00006   0.00005  -0.00001
   D21        0.00001  -0.00000  -0.00001  -0.00001  -0.00001  -0.00000
   D22       -3.14153  -0.00000  -0.00001  -0.00007  -0.00008   3.14157
   D23       -3.14153  -0.00000   0.00002  -0.00009  -0.00007   3.14159
   D24        0.00012  -0.00000   0.00001  -0.00015  -0.00014  -0.00002
   D25       -3.14158  -0.00000   0.00002  -0.00002  -0.00000  -3.14159
   D26       -0.00005   0.00000  -0.00000   0.00006   0.00005   0.00001
   D27        0.00029  -0.00002   0.00005  -0.00141  -0.00135  -0.00106
   D28        3.14139   0.00002  -0.00002   0.00115   0.00113  -3.14067
   D29       -3.14136  -0.00002   0.00006  -0.00135  -0.00128   3.14055
   D30       -0.00025   0.00002  -0.00001   0.00121   0.00120   0.00094
   D31       -3.14135  -0.00002   0.00004  -0.00136  -0.00132   3.14051
   D32       -0.00027   0.00002  -0.00004   0.00131   0.00128   0.00101
         Item               Value     Threshold  Converged?
 Maximum Force            0.000401     0.000450     YES
 RMS     Force            0.000105     0.000300     YES
 Maximum Displacement     0.002307     0.001800     NO 
 RMS     Displacement     0.000635     0.001200     YES
 Predicted change in Energy=-1.224989D-06
 GradGradGradGradGradGradGradGradGradGradGradGradGradGradGradGradGradGrad

                          Input orientation:                          
 ---------------------------------------------------------------------
 Center     Atomic      Atomic             Coordinates (Angstroms)
 Number     Number       Type             X           Y           Z
 ---------------------------------------------------------------------
      1          7           0       -0.512765   -1.350763   -0.000293
      2          6           0       -1.838387   -1.413300    0.000001
      3          6           0       -2.561832   -0.219903    0.000251
      4          6           0       -1.890519    0.981886    0.000169
      5          6           0       -0.478319    1.017597   -0.000160
      6          6           0        0.201447   -0.198268   -0.000393
      7          6           0        1.671250   -0.425351   -0.000773
      8          8           0        2.140998   -1.532880    0.000125
      9          8           0        2.363227    0.717974    0.000273
     10          8           0        0.098415    2.208186   -0.000221
     11          1           0        0.056949   -2.202270   -0.000503
     12          1           0       -2.292010   -2.396403    0.000023
     13          1           0       -3.644474   -0.254034    0.000500
     14          1           0       -2.421105    1.928313    0.000359
     15          1           0        3.320578    0.535018    0.000977
     16          1           0        1.070248    2.151305   -0.000458
 ---------------------------------------------------------------------
                    Distance matrix (angstroms):
                    1          2          3          4          5
     1  N    0.000000
     2  C    1.327097   0.000000
     3  C    2.340410   1.395554   0.000000
     4  C    2.709143   2.395753   1.376574   0.000000
     5  C    2.368610   2.785507   2.423310   1.412652   0.000000
     6  C    1.355855   2.374285   2.763364   2.401892   1.392986
     7  C    2.371984   3.646039   4.238065   3.829689   2.588966
     8  O    2.660004   3.981181   4.882675   4.751545   3.655921
     9  O    3.542739   4.711252   5.013563   4.261926   2.857299
    10  O    3.611047   4.106868   3.601740   2.336594   1.322923
    11  H    1.024519   2.052991   3.284478   3.732490   3.264055
    12  H    2.063753   1.082712   2.193162   3.402063   3.865860
    13  H    3.318195   2.146124   1.083181   2.145660   3.411977
    14  H    3.793955   3.392040   2.152820   1.085009   2.145651
    15  H    4.272083   5.514605   5.930654   5.230223   3.829426
    16  H    3.843229   4.600714   4.337584   3.183345   1.919207
                    6          7          8          9         10
     6  C    0.000000
     7  C    1.487242   0.000000
     8  O    2.354368   1.203032   0.000000
     9  O    2.347934   1.336422   2.261798   0.000000
    10  O    2.408659   3.067463   4.262361   2.711108   0.000000
    11  H    2.009205   2.400711   2.188914   3.721121   4.410651
    12  H    3.324023   4.426339   4.516329   5.600944   5.188099
    13  H    3.846326   5.318485   5.925128   6.085826   4.480151
    14  H    3.376407   4.720922   5.726486   4.935054   2.535017
    15  H    3.204167   1.908558   2.380675   0.974676   3.630679
    16  H    2.505056   2.645819   3.836629   1.930345   0.973497
                   11         12         13         14         15
    11  H    0.000000
    12  H    2.356967   0.000000
    13  H    4.182841   2.533556   0.000000
    14  H    4.816894   4.326642   2.501853   0.000000
    15  H    4.259580   6.332012   7.009605   5.908316   0.000000
    16  H    4.469943   5.655655   5.292851   3.498467   2.770626
                   16
    16  H    0.000000
 Stoichiometry    C6H6NO3(1+)
 Framework group  C1[X(C6H6NO3)]
 Deg. of freedom    42
 Full point group                 C1      NOp   1
 Largest Abelian subgroup         C1      NOp   1
 Largest concise Abelian subgroup C1      NOp   1
                         Standard orientation:                         
 ---------------------------------------------------------------------
 Center     Atomic      Atomic             Coordinates (Angstroms)
 Number     Number       Type             X           Y           Z
 ---------------------------------------------------------------------
      1          7           0        0.512202   -1.349435    0.000222
      2          6           0        1.837834   -1.411769   -0.000071
      3          6           0        2.561095   -0.218261   -0.000322
      4          6           0        1.889599    0.983425   -0.000239
      5          6           0        0.477393    1.018920    0.000090
      6          6           0       -0.202187   -0.197050    0.000322
      7          6           0       -1.671955   -0.424357    0.000702
      8          8           0       -2.141533   -1.531959   -0.000195
      9          8           0       -2.364107    0.718861   -0.000344
     10          8           0       -0.099523    2.209420    0.000150
     11          1           0       -0.057382   -2.201029    0.000433
     12          1           0        2.291607   -2.394803   -0.000094
     13          1           0        3.643743   -0.252226   -0.000571
     14          1           0        2.420039    1.929933   -0.000429
     15          1           0       -3.321430    0.535759   -0.001048
     16          1           0       -1.071348    2.152390    0.000387
 ---------------------------------------------------------------------
 Rotational constants (GHZ):      2.2989967      1.2560183      0.8122559
 Standard basis: 6-31+G(d,p) (6D, 7F)
 There are   220 symmetry adapted cartesian basis functions of A   symmetry.
 There are   220 symmetry adapted basis functions of A   symmetry.
   220 basis functions,   362 primitive gaussians,   220 cartesian basis functions
    36 alpha electrons       36 beta electrons
       nuclear repulsion energy       522.6986442109 Hartrees.
 NAtoms=   16 NActive=   16 NUniq=   16 SFac= 1.00D+00 NAtFMM=   60 NAOKFM=F Big=F
 Integral buffers will be    131072 words long.
 Raffenetti 2 integral format.
 Two-electron integral symmetry is turned on.
 Nuclear repulsion after empirical dispersion term =      522.6857701156 Hartrees.
 One-electron integrals computed using PRISM.
 NBasis=   220 RedAO= T EigKep=  4.64D-06  NBF=   220
 NBsUse=   220 1.00D-06 EigRej= -1.00D+00 NBFU=   220
 Initial guess from the checkpoint file:  "b3lyp3HPA.chk"
 B after Tr=    -0.000000    0.000000   -0.000000
         Rot=    1.000000   -0.000016   -0.000001   -0.000039 Ang=  -0.00 deg.
 Keep R1 ints in memory in canonical form, NReq=596566580.
 Requested convergence on RMS density matrix=1.00D-08 within 128 cycles.
 Requested convergence on MAX density matrix=1.00D-06.
 Requested convergence on             energy=1.00D-06.
 No special actions if energy rises.
 SCF Done:  E(RCAM-B3LYP) =  -512.269514592     A.U. after   10 cycles
            NFock= 10  Conv=0.38D-08     -V/T= 2.0088
 Calling FoFJK, ICntrl=      2127 FMM=F ISym2X=0 I1Cent= 0 IOpClX= 0 NMat=1 NMatS=1 NMatT=0.
 ***** Axes restored to original set *****
 -------------------------------------------------------------------
 Center     Atomic                   Forces (Hartrees/Bohr)
 Number     Number              X              Y              Z
 -------------------------------------------------------------------
      1        7          -0.000087170   -0.000020137   -0.000012643
      2        6           0.000028034    0.000024563    0.000002903
      3        6           0.000100660    0.000055530   -0.000001299
      4        6          -0.000004950   -0.000048987    0.000007159
      5        6          -0.000045039   -0.000077135   -0.000003127
      6        6           0.000021426    0.000041932   -0.000078744
      7        6          -0.000140245    0.000047403    0.000273043
      8        8           0.000037803   -0.000016448   -0.000106824
      9        8           0.000037992   -0.000063656   -0.000081627
     10        8          -0.000093137    0.000063408   -0.000005585
     11        1           0.000029475    0.000005763    0.000005118
     12        1           0.000001001    0.000008423    0.000002299
     13        1           0.000006287   -0.000014953   -0.000000440
     14        1           0.000016082    0.000003199   -0.000001013
     15        1           0.000058709    0.000018764   -0.000004563
     16        1           0.000033072   -0.000027668    0.000005341
 -------------------------------------------------------------------
 Cartesian Forces:  Max     0.000273043 RMS     0.000061808

[...]
 ! D1    D(6,1,2,3)              0.0            -DE/DX =    0.0                 !
 ! D2    D(6,1,2,12)           180.0            -DE/DX =    0.0                 !
 ! D3    D(11,1,2,3)          -179.9999         -DE/DX =    0.0                 !
 ! D4    D(11,1,2,12)            0.0001         -DE/DX =    0.0                 !
 ! D5    D(2,1,6,5)              0.0001         -DE/DX =    0.0                 !
 ! D6    D(2,1,6,7)           -180.0            -DE/DX =    0.0                 !
 ! D7    D(11,1,6,5)           180.0            -DE/DX =    0.0                 !
 ! D8    D(11,1,6,7)            -0.0001         -DE/DX =    0.0                 !
 ! D9    D(1,2,3,4)              0.0            -DE/DX =    0.0                 !
 ! D10   D(1,2,3,13)           180.0            -DE/DX =    0.0                 !
 ! D11   D(12,2,3,4)          -180.0            -DE/DX =    0.0                 !
 ! D12   D(12,2,3,13)            0.0            -DE/DX =    0.0                 !
 ! D13   D(2,3,4,5)              0.0            -DE/DX =    0.0                 !
 ! D14   D(2,3,4,14)          -180.0002         -DE/DX =    0.0                 !
 ! D15   D(13,3,4,5)          -180.0001         -DE/DX =    0.0                 !
 ! D16   D(13,3,4,14)           -0.0002         -DE/DX =    0.0                 !
 ! D17   D(3,4,5,6)              0.0001         -DE/DX =    0.0                 !
 ! D18   D(3,4,5,10)           179.9994         -DE/DX =    0.0                 !
 ! D19   D(14,4,5,6)           180.0002         -DE/DX =    0.0                 !
 ! D20   D(14,4,5,10)           -0.0004         -DE/DX =    0.0                 !
 ! D21   D(4,5,6,1)             -0.0001         -DE/DX =    0.0                 !
 ! D22   D(4,5,6,7)            180.0            -DE/DX =    0.0                 !
 ! D23   D(10,5,6,1)          -179.9994         -DE/DX =    0.0                 !
 ! D24   D(10,5,6,7)             0.0007         -DE/DX =    0.0                 !
 ! D25   D(4,5,10,16)         -179.9994         -DE/DX =    0.0                 !
 ! D26   D(6,5,10,16)           -0.0002         -DE/DX =    0.0                 !
 ! D27   D(1,6,7,8)             -0.0021         -DE/DX =    0.0                 !
 ! D28   D(1,6,7,9)            180.0047         -DE/DX =    0.0                 !
 ! D29   D(5,6,7,8)           -180.0022         -DE/DX =    0.0                 !
 ! D30   D(5,6,7,9)              0.0046         -DE/DX =    0.0                 !
 ! D31   D(6,7,9,15)           179.9963         -DE/DX =    0.0                 !
 ! D32   D(8,7,9,15)             0.0034         -DE/DX =    0.0                 !
 --------------------------------------------------------------------------------
 GradGradGradGradGradGradGradGradGradGradGradGradGradGradGradGradGradGrad

 1\1\ WCSS.PL-BEM-QINLAB\Freq\RCAM-B3LYP\6-31+G(d,p)\C6H6N1O3(1+)\PHZD\
 28-Apr-2024\0\\#N Geom=AllCheck Guess=TCheck SCRF=Check GenChk RCAM-B3
 LYP/6-31+G(d,p) Freq\\[No Title]\\1,1\N,-0.5126921456,-1.350589582,-0.
 0000783899\C,-1.8382282867,-1.413251943,-0.0000299162\C,-2.5617586172,
 -0.2199196844,0.0000544301\C,-1.8906647648,0.9818784265,0.0000855284\C
 ,-0.4785084007,1.017724621,0.0000336519\C,0.2014235915,-0.1979998459,-
 0.0000518807\C,1.6712014527,-0.4253919727,-0.0001192804\O,2.1405393684
 ,-1.5331382381,-0.0001527319\O,2.3638091131,0.717475121,0.000008872\O,
 0.0978525469,2.2085325482,0.0000560667\H,0.0572763859,-2.2019429929,-0
 .0001417927\H,-2.2918373129,-2.396350913,-0.0000585306\H,-3.6443835846
 ,-0.2543008371,0.0000947681\H,-2.4212114968,1.9283197701,0.0001480487\
 H,3.3211657115,0.5342880737,0.0000189522\H,1.0697194394,2.1517764485,0
 .0000082042\\Version=ES64L-G09RevE.01\State=1-A\HF=-512.2695149\RMSD=4
 .110e-09\RMSF=1.445e-05\ZeroPoint=0.1235591\Thermal=0.1314233\Dipole=-
 1.0444841,-0.4915316,0.0000034\DipoleDeriv=0.153558,0.1619221,-0.00000
 11,0.6028879,-0.3236569,-0.0000293,0.0000295,-0.0000198,-0.1087822,-0.
 2861331,-0.1600052,0.0000022,0.1549204,0.2580382,0.0000035,0.0000215,0
 .0000141,0.0822337,0.187876,0.0417979,-0.000007,-0.3847038,-0.1504931,
 0.0000065,-0.0000262,-0.0000064,-0.0605244,0.2152656,-0.331065,-0.0000
 208,0.050652,0.1085405,0.0000063,-0.000011,0.0000203,-0.0277656,0.0233
 154,0.7126399,0.0000323,0.6424355,1.3869464,0.00002,0.0000418,0.000016
 9,0.2110637,-0.5875832,0.286548,0.0000287,-0.5529573,-0.2109141,0.0000
 066,0.0000136,-0.0000297,0.0796352,2.0767487,-0.0907903,-0.0000334,0.0
 195784,1.6705895,0.0001207,-0.000025,0.0001134,0.3814186,-0.9212704,0.
 2926644,0.0000373,0.2519193,-1.0142127,-0.0000702,0.0000121,-0.0000244
 ,-0.3346184,-1.0513769,-0.4496539,-0.0000297,-0.4119932,-0.9290758,-0.
 0000407,-0.0000546,-0.0000671,-0.3618577,-0.5462038,-0.6332563,-0.0000
 182,-0.4090035,-1.2058712,-0.0000155,-0.0000121,-0.0000014,-0.3398253,
 0.3643141,-0.0372434,-0.0000035,-0.0941762,0.3794196,0.0000091,-0.0000
 093,0.0000071,0.2830583,0.1261484,0.0435116,0.0000032,0.0371779,0.1277
 278,-0.0000028,0.0000013,-0.0000019,0.1631825,0.1213012,-0.0046429,0.0
 000009,-0.0095223,0.1129611,-0.0000014,0.0000015,-0.0000018,0.1526624,
 0.1238049,-0.0148669,0.0000002,-0.0173711,0.1193488,-0.0000006,-0.0000
 009,-0.0000007,0.146548,0.5100691,0.0867831,0.0000072,0.0966033,0.2847
 656,-0.0000072,0.0000125,-0.0000071,0.3868574,0.4901659,0.095657,0.000
 0017,0.0235527,0.3858864,-0.000005,0.0000054,-0.0000116,0.3467139\Pola
 r=106.6439644,1.2633535,92.3822238,-0.0017788,0.0024271,40.7736091\PG=
 C01 [X(C6H6N1O3)]\NImag=0\\0.88424258,-0.05315380,0.80966996,-0.000032
 67,0.00003440,0.13308817,-0.40600506,0.01952206,0.00001476,0.74635430,
 -0.05117798,-0.15965698,-0.00000274,0.04898122,0.80746135,0.00001103,-
 0.00000540,-0.06375236,-0.00002108,0.00002912,0.14690870,-0.04777815,0
 .03421816,0.00000383,-0.18789632,0.11646306,0.00001007,0.79660063,0.09
 218462,0.03271870,-0.00000217,0.05017717,-0.28979058,-0.00001244,0.023
 59717,0.70511782,0.00000640,-0.00000035,0.00846046,0.00000717,-0.00001
 500,-0.06763452,-0.00002419,0.00002594,0.13866874,-0.05751323,-0.03086
 285,0.00000057,0.07325198,-0.01476176,-0.00000337,-0.20421233,-0.08196
 884,0.00000151,0.68631597,-0.03401666,-0.01602268,0.00000067,0.0225717
 3,-0.05613986,-0.00000371,-0.14170079,-0.34157391,-0.00000792,0.001486
 72,0.80820344,0.00000056,0.00000056,-0.00264589,-0.00000162,-0.0000022
 2,0.00459804,-0.00000125,-0.00001021,-0.05862630,-0.00002059,0.0000305
 2,0.13991300,0.07408424,0.02787831,-0.00000160,-0.05492895,0.01692377,
 0.00000286,-0.01229725,-0.06882867,-0.00000272,-0.30415984,0.04958501,
 0.00001084,0.71393896,-0.01364344,-0.06689076,-0.00000223,0.02654291,0
 .00044843,-0.00000095,-0.03981271,0.02061357,0.00000251,-0.00622640,-0
 .12402076,-0.00000227,0.03201674,0.77946233,-0.00000420,-0.00000430,-0
 .00212639,0.00000360,-0.00000080,-0.00325301,-0.00000137,0.00000417,-0
 .00212941,0.00000865,-0.00000448,-0.06820615,-0.00002185,0.00002584,0.
 15947735,-0.18057019,-0.10466174,0.00000074,-0.06315053,-0.02281747,0.
 00000178,0.00245046,-0.02907039,-0.00000154,-0.00464174,0.03716854,0.0
 0000225,-0.21424591,0.09972073,0.00001169,0.68516731,-0.05172595,-0.28
 684203,-0.00000923,-0.08425436,0.01450821,0.00000369,0.01422916,-0.054
 43757,-0.00000287,0.05994074,0.03445651,-0.00000095,0.06196693,-0.2713
 3552,-0.00001286,-0.02210231,0.76459779,0.00000372,-0.00000694,-0.0563
 4845,-0.00000143,0.00000157,0.00720684,0.00000039,-0.00000145,-0.00343
 885,0.00000306,-0.00000032,0.00389857,0.00000982,-0.00001428,-0.059478
 14,-0.00002074,0.00003271,0.12652577,-0.05484848,-0.02464472,0.0000004
 2,0.02438550,-0.00796476,-0.00000134,-0.00200256,0.01802042,0.00000087
 ,-0.01286944,-0.00682651,0.00000024,0.01584697,0.03541443,0.00000073,-
 0.19606642,0.01290723,0.00000830,0.68786195,-0.02800069,0.00508303,0.0
 0000197,-0.00762645,-0.00810460,-0.00000022,0.00191493,-0.00340972,-0.
 00000020,0.00250655,-0.00519427,-0.00000085,0.03316127,0.01731351,-0.0
 0000055,0.01284672,-0.09456416,-0.00000246,-0.12877379,1.00943872,0.00
 000065,0.00000091,-0.00255409,-0.00000130,-0.00000024,0.00614951,0.000
 00007,-0.00000085,-0.00057969,0.00000096,-0.00000056,0.00799815,0.0000
 0190,0.00000069,0.00176191,0.00000384,-0.00000213,-0.07251232,0.000000
 99,0.00004171,0.19731087,-0.00123503,0.00732891,0.00000047,-0.00356313
 ,0.00385355,0.00000029,-0.00044926,-0.00321866,-0.00000015,0.00167260,
 0.00355871,0.00000019,-0.01098865,-0.01206461,-0.00000015,-0.03352633,
 0.04817492,0.00000241,-0.22742842,0.24977472,0.00000760,0.23302098,-0.
 01618185,-0.00367257,0.00000003,0.00834498,0.00060450,-0.00000039,-0.0
 0168277,0.00462463,0.00000029,-0.00186909,-0.00201913,-0.00000003,0.00
 159837,0.00195458,-0.00000002,0.03721109,-0.02295691,-0.00000190,0.248
 63882,-0.66274435,-0.00002030,-0.28760834,0.78173720,-0.00000042,-0.00
 000037,0.00141884,0.00000033,-0.00000011,-0.00060413,0.,0.00000023,-0.
 00016471,-0.00000017,0.00000006,-0.00170035,0.00000006,0.,0.00233051,0
 .00000316,-0.00000224,0.02049809,0.00000674,-0.00001899,-0.07494718,-0
 .00001012,0.00003031,0.03395580,-0.00609130,0.00602810,0.00000044,-0.0
 0355222,-0.00078823,0.00000024,0.00028030,-0.00364707,-0.00000020,0.00
 313381,0.00106702,-0.00000007,-0.00394166,-0.00394886,-0.00000004,-0.0
 3411311,-0.04081784,-0.00000426,-0.20327876,-0.11334025,-0.00001322,0.
 03709155,-0.00458054,-0.00000008,0.69348709,0.00141164,0.00517169,0.00
 000009,-0.00194554,0.00253457,0.00000020,-0.00012001,-0.00325136,-0.00
 000016,0.00379060,0.00231692,0.00000008,-0.00883920,-0.01587058,-0.000
 00021,-0.01637644,0.00106213,-0.00000124,-0.07032349,-0.25478678,-0.00
 001803,-0.02612057,-0.10036387,-0.00000989,0.03250183,0.42663805,-0.00
 000020,0.00000030,0.00155340,0.00000007,0.00000014,-0.00001746,-0.0000
 0002,-0.00000013,0.00025422,0.00000006,0.00000018,-0.00072161,-0.00000
 075,-0.00000105,0.00068844,-0.00000033,-0.00000061,0.00783860,-0.00001
 073,-0.00002171,-0.06086911,-0.00000142,-0.00000821,0.02691715,0.00001
 871,0.00003260,0.04075053,-0.01476050,-0.00437058,0.00000056,0.0112498
 3,-0.00759864,-0.00000087,-0.00665646,0.01682716,0.00000119,-0.0423043
 9,-0.06410471,-0.00000056,-0.16810398,-0.13065265,-0.00000001,0.030209
 84,0.00996628,-0.00000051,-0.02116428,-0.01266621,-0.00000088,0.005182
 21,0.00381204,0.00000016,-0.00447026,0.01623242,0.00000100,0.68680837,
 -0.00300139,-0.00362356,-0.00000057,0.00708262,-0.00980756,-0.00000065
 ,0.00427409,0.01202158,0.00000023,-0.02942452,-0.01153548,0.00000061,-
 0.09175661,-0.33858973,-0.00000826,-0.00466619,-0.05479450,-0.00000226
 ,-0.02039029,-0.00453118,-0.00000007,0.00495183,-0.00016966,-0.0000000
 3,0.01103384,0.00713434,0.00000051,0.10795520,0.45356396,0.00000105,-0
 .00000034,0.00888643,-0.00000029,0.00000003,-0.00149860,0.00000065,-0.
 00000048,0.00485783,0.00000079,0.00000207,0.00593871,0.00000165,-0.000
 00639,-0.04646151,-0.00000148,-0.00000293,0.00711756,-0.00000017,0.000
 00026,-0.00268473,0.00000004,0.00000002,-0.00004310,0.00000038,-0.0000
 0012,0.00164843,-0.00002510,0.00001234,0.03652283,-0.16997755,0.155049
 49,0.00001298,-0.01557807,0.02867554,0.00000203,-0.00492158,-0.0036515
 1,0.00000036,-0.00012362,-0.00042901,-0.00000007,-0.00215065,-0.003149
 17,0.00000021,0.01751766,-0.01323536,-0.00000145,0.00323138,-0.0151309
 0,-0.00000107,0.00083338,0.00904088,0.00000010,0.00060927,0.00590227,0
 .00000066,-0.00063893,-0.00213190,-0.00000006,0.16990457,0.15487059,-0
 .31626506,-0.00001972,-0.00141858,0.01145224,0.00000060,-0.00266787,0.
 00265971,-0.00000015,-0.00081387,-0.00026504,0.00000008,-0.00481842,-0
 .00257557,-0.00000012,0.01351886,-0.02652228,-0.00000199,-0.00206249,-
 0.00221236,0.00000009,0.00314522,-0.00016256,0.00000008,0.00112565,-0.
 00015354,-0.00000002,0.00139101,0.00001614,-0.00000010,-0.16092422,0.3
 3239350,0.00001311,-0.00001959,-0.03300381,0.00000042,-0.00000062,0.00
 040802,0.00000042,-0.00000018,0.00794083,0.,0.00000009,-0.00126668,-0.
 00000004,-0.00000019,0.00555526,-0.00000024,-0.00000087,0.00037307,0.0
 0000007,0.00000050,-0.00182273,-0.00000004,-0.00000011,-0.00305835,-0.
 00000008,-0.00000028,0.00043897,0.00000015,0.00000006,0.00053357,-0.00
 001345,0.00002093,0.02834493,-0.01895629,-0.03591349,-0.00000088,-0.10
 899658,-0.10463929,-0.00000227,0.01371842,0.01567762,0.00000044,-0.002
 72055,0.00346650,0.00000049,-0.00012067,-0.00052568,-0.00000003,-0.003
 40472,0.00418518,0.00000069,-0.00004100,-0.00145686,0.00000002,0.00004
 488,0.00020224,0.,-0.00052851,0.00009163,-0.00000002,0.00041904,0.0002
 5660,-0.00000003,0.00072585,-0.00088320,-0.00000024,0.11884312,0.00230
 989,0.00620544,0.00000014,-0.11500001,-0.31572366,-0.00000845,-0.01122
 640,-0.01182354,-0.00000040,0.00254415,-0.00266677,-0.00000050,0.00133
 447,-0.00104817,-0.00000009,0.00192638,0.00277564,-0.00000033,-0.00066
 698,0.00043554,-0.00000005,0.00020772,-0.00028038,0.,0.00032778,0.0000
 8200,0.00000003,0.00004763,0.00061538,0.00000005,-0.00017497,0.0010571
 1,0.00000027,0.11922271,0.32026663,0.00000081,0.00000169,0.00104054,-0
 .00000274,-0.00000888,-0.03959916,-0.00000082,-0.00000151,0.00603491,0
 .00000051,-0.00000054,0.00592475,0.00000006,-0.00000010,-0.00027277,0.
 00000049,-0.00000037,0.00806575,0.00000004,0.00000001,0.00163695,0.,0.
 ,-0.00005692,0.00000008,0.00000001,-0.00035804,0.,0.00000008,-0.000668
 39,-0.00000022,0.00000029,-0.00437288,0.00000202,0.00000912,0.02655061
 ,0.00051982,0.00242874,0.00000036,-0.00890399,-0.00275373,0.00000028,-
 0.35992257,-0.00786776,0.00001189,-0.00718797,0.00070741,0.00000051,0.
 00053827,-0.00133160,0.00000029,0.00080881,-0.00023519,-0.00000007,-0.
 00044763,0.00006763,-0.00000002,0.00010482,-0.00012608,0.,0.00012411,0
 .00005252,0.,-0.00033686,0.00014425,0.,-0.00014543,-0.00029352,0.,0.00
 054271,-0.00004395,-0.00000014,0.37353946,0.00409703,-0.00563248,-0.00
 000076,0.02763129,0.00678242,-0.00000082,-0.00912337,-0.06112551,-0.00
 000054,-0.02912178,0.00417330,0.00000103,-0.00136606,-0.00479228,-0.00
 000060,-0.00093467,-0.00121140,0.,0.00040292,-0.00030968,0.00000001,0.
 00005828,0.00036869,0.,-0.00001226,0.00011858,0.00000002,-0.00162395,0
 .00026964,0.00000010,0.00094594,0.00052990,-0.00000004,-0.00035738,0.0
 0064523,0.00000019,0.00915454,0.05951573,0.00000047,-0.00000064,0.0069
 0215,0.00000168,0.00000034,0.00182522,0.00001189,-0.00000056,-0.041536
 53,-0.00000101,-0.00000013,0.00509890,0.00000035,-0.00000062,0.0093571
 8,-0.00000010,-0.00000001,-0.00069445,0.00000003,0.00000002,-0.0009221
 8,0.,0.00000003,0.00011257,0.,0.,-0.00003522,-0.00000012,0.,-0.0003722
 0,0.00000005,0.00000001,0.00045685,-0.00000015,0.00000017,-0.00300276,
 -0.00001288,0.00000114,0.02806977,-0.00096945,-0.00151283,-0.00000007,
 -0.00121595,-0.00393510,0.00000018,0.01368076,-0.01582131,-0.00000100,
 -0.13367009,0.12679431,0.00000904,-0.01092670,0.02899416,0.00000201,-0
 .00541362,-0.00071944,0.00000043,0.00061600,0.00138931,0.00000004,-0.0
 0065505,0.00024611,0.,0.00004426,-0.00031776,-0.00000002,0.00309577,0.
 00000025,-0.00000024,-0.00009661,0.00008786,-0.00000001,0.00064684,-0.
 00066813,-0.00000009,0.00078842,0.00028569,-0.00000018,0.13413770,-0.0
 0087021,0.00084522,0.00000012,-0.00263025,-0.00328985,-0.00000047,0.01
 314738,-0.01516381,-0.00000147,0.12800000,-0.28282297,-0.00001557,-0.0
 0280117,0.00669681,0.00000005,-0.00097747,-0.00040409,-0.00000022,0.00
 015173,0.00028759,0.00000009,-0.00026902,0.00013769,0.,-0.00017582,-0.
 00005113,-0.00000001,0.00001353,-0.00018694,0.00000012,0.00009660,-0.0
 0009499,0.00000003,0.00070783,-0.00048818,-0.00000002,0.00020453,0.000
 98880,0.00000026,-0.13469277,0.29345562,0.00000005,0.00000017,-0.00092
 612,0.00000016,-0.00000040,0.00927279,0.00000033,-0.00000055,0.0064091
 4,0.00000921,-0.00001544,-0.04446934,0.00000049,-0.00000101,0.00763149
 ,0.00000033,-0.00000033,0.00565582,0.00000004,0.00000006,-0.00137046,-
 0.00000002,0.,0.00018735,-0.00000003,-0.00000001,0.00004060,-0.0000002
 3,0.00000004,-0.00275858,-0.00000003,0.00000003,-0.00079579,-0.0000000
 2,0.00000004,-0.00070773,-0.00000021,0.00000026,-0.00486973,-0.0000100
 7,0.00001709,0.02706452,-0.00074453,-0.00029442,-0.00000005,0.00088673
 ,-0.00061682,-0.00000006,-0.00000073,0.00077720,0.00000003,-0.00056649
 ,-0.00020187,0.00000004,0.00060852,-0.00009232,0.00000006,0.00116498,-
 0.00223546,-0.00000067,-0.03110774,-0.00498738,-0.00000053,0.00355454,
 0.00795116,0.00000054,-0.46825779,0.07068895,-0.00000635,0.00145535,-0
 .00030700,-0.00000011,-0.00052674,-0.00016064,0.,-0.00006156,-0.000040
 03,0.00000002,-0.00003029,0.00000903,0.,-0.00000930,0.00005991,0.,0.49
 562532,-0.00138365,0.00008904,-0.00000001,-0.00000380,-0.00042029,0.00
 000003,0.00007588,-0.00001211,0.,0.00015511,0.00016331,0.,-0.00069710,
 -0.00130695,0.00000005,-0.00209771,-0.00480259,-0.00000090,-0.04871642
 ,0.01389006,-0.00000049,0.00737238,-0.00047795,0.00000077,0.11665396,-
 0.07068685,-0.00000228,0.00264713,-0.00090499,-0.00000007,-0.00051746,
 0.00009547,-0.00000002,-0.00010389,0.00000993,0.00000002,-0.00000268,0
 .00000909,0.,-0.00002813,0.00002364,0.,-0.07240760,0.06104038,-0.00000
 022,0.,0.00082480,0.00000013,-0.00000011,-0.00024895,0.00000001,0.0000
 0010,0.00008684,-0.00000007,0.,-0.00025014,0.00000003,-0.00000012,-0.0
 0064471,0.00000025,-0.00000085,0.00492602,-0.00000632,0.00000081,0.003
 33141,0.00000095,0.00000035,-0.00535621,-0.00000170,-0.00000325,-0.015
 58634,0.00000016,0.00000005,0.00045321,-0.00000004,-0.00000001,0.00028
 025,-0.00000002,0.,-0.00015809,0.,0.,0.00006145,0.,0.,0.00004657,0.000
 00699,0.00000290,0.01243847,0.00060311,0.00296068,0.00000013,-0.002337
 55,0.00215666,0.00000021,-0.00059335,-0.00318714,-0.00000006,0.0055953
 2,0.00087359,-0.00000002,-0.02315269,-0.01124154,0.00000041,-0.0021864
 9,0.00395547,0.00000029,0.01731293,0.01032140,0.00000094,-0.00365908,-
 0.00499703,-0.00000030,-0.01053678,-0.00662886,-0.00000066,-0.47998473
 ,0.01597923,0.00002292,0.00133708,-0.00009639,-0.00000006,-0.00011099,
 -0.00010027,-0.00000002,0.00000832,-0.00004525,-0.00000002,-0.00005300
 ,0.00003519,0.,-0.00199028,-0.00094602,-0.00000015,0.49974819,-0.00171
 816,-0.00117695,0.,0.00202501,-0.00085833,-0.00000013,-0.00158590,0.00
 283210,0.00000011,-0.00337476,-0.00705261,-0.00000028,-0.04535764,-0.0
 0005889,0.00000218,0.00131207,0.00047079,0.,-0.00516611,-0.01059136,-0
 .00000079,0.00085498,0.00342007,0.00000018,-0.00142732,0.00010585,0.00
 000025,0.06212435,-0.04947743,-0.00000456,-0.00036623,0.00004733,0.000
 00002,0.00006948,-0.00006221,0.,-0.00010513,-0.00033004,0.,-0.00010223
 ,0.00006659,0.00000003,0.00185730,0.00329081,0.00000013,-0.00903971,0.
 05937428,-0.00000014,-0.00000010,-0.00081768,0.00000015,-0.00000009,0.
 00023908,0.,0.00000010,0.00139705,-0.00000013,-0.00000049,0.00451632,-
 0.00000110,0.00000017,-0.00423004,-0.00000009,-0.00000014,0.00036611,0
 .00000011,-0.00000037,0.00007368,-0.00000005,-0.00000007,0.00051063,-0
 .00000018,0.00000020,-0.00254256,0.00002506,-0.00000208,-0.01147146,-0
 .00000002,0.,-0.00001152,0.,0.,-0.00005677,-0.00000002,0.00000001,-0.0
 0045103,-0.00000003,0.00000002,-0.00041053,0.00000009,0.,-0.00020460,-
 0.00002362,0.00000284,0.01309332\\0.00002686,0.00000454,0.00000058,0.0
 0000984,-0.00001313,-0.00000017,-0.00002299,-0.00000203,-0.00000016,-0
 .00001116,0.00000887,-0.00000048,0.00003631,0.00003141,0.00000151,-0.0
 0004226,-0.00001767,0.00000399,0.00003785,0.00000045,-0.00001579,-0.00
 000639,0.00000801,0.00000592,0.00001398,-0.00002990,0.00000511,-0.0000
 1340,-0.00000642,0.00000002,-0.00001806,0.00000235,-0.00000009,-0.0000
 0351,0.00000075,-0.00000008,0.00000317,0.00000365,0.00000009,-0.000000
 60,-0.00000011,-0.00000004,0.00000607,0.00000628,0.00000033,-0.0000156
 9,0.00000293,-0.00000074\\\@


 NOT WHAT WE DID SHALL BE THE TEST
 WHEN ACT AND WILL ARE DONE,
 BUT WHAT OUR LORD INFERS WE WOULD-
 HAD WE DIVINER BEEN.
           EMILY DICKINSON  POEMS NO. CLXXV
 Job cpu time:       0 days  0 hours 25 minutes 27.4 seconds.
 File lengths (MBytes):  RWF=     85 Int=      0 D2E=      0 Chk=      6 Scr=      1
 Normal termination of Gaussian 09 at Sun Apr 28 15:50:10 2024.
