 Entering Gaussian System, Link 0=g09
 Input=pbe3HPAgd3.gjf
 Output=pbe3HPAgd3.log
 Initial command:
 /home/phzd/g09E/g09/l1.exe "/home/phzd/g09E/scratch/Gau-133355.inp" -scrdir="/home/phzd/g09E/scratch/"
 Default is to use a total of  18 processors:
                               18 via shared-memory
                                1 via Linda
 Entering Link 1 = /home/phzd/g09E/g09/l1.exe PID=    133357.
  
 Copyright (c) 1988,1990,1992,1993,1995,1998,2003,2009,2015,
            Gaussian, Inc.  All Rights Reserved.
  
 This is part of the Gaussian(R) 09 program.  It is based on
 the Gaussian(R) 03 system (copyright 2003, Gaussian, Inc.),
 the Gaussian(R) 98 system (copyright 1998, Gaussian, Inc.),
 the Gaussian(R) 94 system (copyright 1995, Gaussian, Inc.),
 the Gaussian 92(TM) system (copyright 1992, Gaussian, Inc.),
 the Gaussian 90(TM) system (copyright 1990, Gaussian, Inc.),
 the Gaussian 88(TM) system (copyright 1988, Gaussian, Inc.),
 the Gaussian 86(TM) system (copyright 1986, Carnegie Mellon
 University), and the Gaussian 82(TM) system (copyright 1983,
 Carnegie Mellon University). Gaussian is a federally registered
 trademark of Gaussian, Inc.
  
 This software contains proprietary and confidential information,
 including trade secrets, belonging to Gaussian, Inc.
  
 This software is provided under written license and may be
 used, copied, transmitted, or stored only in accord with that
 written license.
  
 The following legend is applicable only to US Government
 contracts under FAR:
  
                    RESTRICTED RIGHTS LEGEND
  
 Use, reproduction and disclosure by the US Government is
 subject to restrictions as set forth in subparagraphs (a)
 and (c) of the Commercial Computer Software - Restricted
 Rights clause in FAR 52.227-19.
  
 Gaussian, Inc.
 340 Quinnipiac St., Bldg. 40, Wallingford CT 06492
  
  
 ---------------------------------------------------------------
 Warning -- This program may not be used in any manner that
 competes with the business of Gaussian, Inc. or will provide
 assistance to any competitor of Gaussian, Inc.  The licensee
 of this program is prohibited from giving any competitor of
 Gaussian, Inc. access to this program.  By using this program,
 the user acknowledges that Gaussian, Inc. is engaged in the
 business of creating and licensing software in the field of
 computational chemistry and represents and warrants to the
 licensee that it is not a competitor of Gaussian, Inc. and that
 it will not use this program in any manner prohibited above.
 ---------------------------------------------------------------
  

 Cite this work as:
 Gaussian 09, Revision E.01,
 M. J. Frisch, G. W. Trucks, H. B. Schlegel, G. E. Scuseria, 
 M. A. Robb, J. R. Cheeseman, G. Scalmani, V. Barone, B. Mennucci, 
 G. A. Petersson, H. Nakatsuji, M. Caricato, X. Li, H. P. Hratchian, 
 A. F. Izmaylov, J. Bloino, G. Zheng, J. L. Sonnenberg, M. Hada, 
 M. Ehara, K. Toyota, R. Fukuda, J. Hasegawa, M. Ishida, T. Nakajima, 
 Y. Honda, O. Kitao, H. Nakai, T. Vreven, J. A. Montgomery, Jr., 
 J. E. Peralta, F. Ogliaro, M. Bearpark, J. J. Heyd, E. Brothers, 
 K. N. Kudin, V. N. Staroverov, T. Keith, R. Kobayashi, J. Normand, 
 K. Raghavachari, A. Rendell, J. C. Burant, S. S. Iyengar, J. Tomasi, 
 M. Cossi, N. Rega, J. M. Millam, M. Klene, J. E. Knox, J. B. Cross, 
 V. Bakken, C. Adamo, J. Jaramillo, R. Gomperts, R. E. Stratmann, 
 O. Yazyev, A. J. Austin, R. Cammi, C. Pomelli, J. W. Ochterski, 
 R. L. Martin, K. Morokuma, V. G. Zakrzewski, G. A. Voth, 
 P. Salvador, J. J. Dannenberg, S. Dapprich, A. D. Daniels, 
 O. Farkas, J. B. Foresman, J. V. Ortiz, J. Cioslowski, 
 and D. J. Fox, Gaussian, Inc., Wallingford CT, 2013.
 
 ******************************************
 Gaussian 09:  ES64L-G09RevE.01 30-Nov-2015
                20-Jun-2024 
 ******************************************
 %chk=pbe3HPAgd3.chk
 --------------------------------------
 # opt freq pbepbe/6-31+g(d,p) em=gd3bj
 --------------------------------------
 1/14=-1,18=20,19=15,26=3,38=1/1,3;
 2/9=110,12=2,17=6,18=5,40=1/2;
 3/5=1,6=6,7=111,11=2,16=1,25=1,30=1,71=1,74=1009,124=41/1,2,3;
 4//1;
 5/5=2,38=5/2;
 6/7=2,8=2,9=2,10=2,28=1/1;
 7//1,2,3,16;
 1/14=-1,18=20,19=15,26=3/3(2);
 2/9=110/2;
 99//99;
 2/9=110/2;
 3/5=1,6=6,7=111,11=2,16=1,25=1,30=1,71=1,74=1009,124=41/1,2,3;
 4/5=5,16=3,69=1/1;
 5/5=2,38=5/2;
 7//1,2,3,16;
 1/14=-1,18=20,19=15,26=3/3(-5);
 2/9=110/2;
 6/7=2,8=2,9=2,10=2,19=2,28=1/1;
 99/9=1/99;
 ----------
 [No Title]
 ----------
 Symbolic Z-matrix:
 Charge =  0 Multiplicity = 1
 N                    -0.44038  -1.45173   0.00005 
 C                    -1.7662   -1.48386   0.00003 
 C                    -2.55618  -0.31852  -0.00002 
 C                    -1.93657   0.91906  -0.00004 
 C                    -0.53188   0.97362  -0.00001 
 C                     0.17572  -0.25489   0.00003 
 C                     1.65381  -0.22317   0.00008 
 O                     2.30057   0.82888   0.00009 
 O                     2.25747  -1.41628  -0.00013 
 O                     0.0621    2.17746  -0.00005 
 H                    -2.22848  -2.4677    0.00005 
 H                    -3.63926  -0.39552  -0.00002 
 H                    -2.49619   1.84855  -0.00007 
 H                     3.21502  -1.24602  -0.00015 
 H                     1.03829   2.02893   0.00004 
 

 GradGradGradGradGradGradGradGradGradGradGradGradGradGradGradGradGradGrad
 Berny optimization.
 Initialization pass.
                           ----------------------------
                           !    Initial Parameters    !
                           ! (Angstroms and Degrees)  !
 --------------------------                            --------------------------
 ! Name  Definition              Value          Derivative Info.                !
 --------------------------------------------------------------------------------
 ! R1    R(1,2)                  1.3262         estimate D2E/DX2                !
 ! R2    R(1,6)                  1.3461         estimate D2E/DX2                !
 ! R3    R(2,3)                  1.4079         estimate D2E/DX2                !
 ! R4    R(2,11)                 1.087          estimate D2E/DX2                !
 ! R5    R(3,4)                  1.384          estimate D2E/DX2                !
 ! R6    R(3,12)                 1.0858         estimate D2E/DX2                !
 ! R7    R(4,5)                  1.4057         estimate D2E/DX2                !
 ! R8    R(4,13)                 1.085          estimate D2E/DX2                !
 ! R9    R(5,6)                  1.4177         estimate D2E/DX2                !
 ! R10   R(5,10)                 1.3424         estimate D2E/DX2                !
 ! R11   R(6,7)                  1.4784         estimate D2E/DX2                !
 ! R12   R(7,8)                  1.2349         estimate D2E/DX2                !
 ! R13   R(7,9)                  1.3371         estimate D2E/DX2                !
 ! R14   R(9,14)                 0.9726         estimate D2E/DX2                !
 ! R15   R(10,15)                0.9874         estimate D2E/DX2                !
 ! A1    A(2,1,6)              118.6261         estimate D2E/DX2                !
 ! A2    A(1,2,3)              122.7448         estimate D2E/DX2                !
 ! A3    A(1,2,11)             116.5556         estimate D2E/DX2                !
 ! A4    A(3,2,11)             120.6995         estimate D2E/DX2                !
 ! A5    A(2,3,4)              119.2719         estimate D2E/DX2                !
 ! A6    A(2,3,12)             120.0668         estimate D2E/DX2                !
 ! A7    A(4,3,12)             120.6613         estimate D2E/DX2                !
 ! A8    A(3,4,5)              118.8192         estimate D2E/DX2                !
 ! A9    A(3,4,13)             122.3536         estimate D2E/DX2                !
 ! A10   A(5,4,13)             118.8272         estimate D2E/DX2                !
 ! A11   A(4,5,6)              117.7173         estimate D2E/DX2                !
 ! A12   A(4,5,10)             118.4858         estimate D2E/DX2                !
 ! A13   A(6,5,10)             123.7969         estimate D2E/DX2                !
 ! A14   A(1,6,5)              122.8207         estimate D2E/DX2                !
 ! A15   A(1,6,7)              118.4676         estimate D2E/DX2                !
 ! A16   A(5,6,7)              118.7117         estimate D2E/DX2                !
 ! A17   A(6,7,8)              122.8114         estimate D2E/DX2                !
 ! A18   A(6,7,9)              115.6078         estimate D2E/DX2                !
 ! A19   A(8,7,9)              121.5807         estimate D2E/DX2                !
 ! A20   A(7,9,14)             106.7552         estimate D2E/DX2                !
 ! A21   A(5,10,15)            107.6105         estimate D2E/DX2                !
 ! D1    D(6,1,2,3)              0.0003         estimate D2E/DX2                !
 ! D2    D(6,1,2,11)          -179.9999         estimate D2E/DX2                !
 ! D3    D(2,1,6,5)             -0.0001         estimate D2E/DX2                !
 ! D4    D(2,1,6,7)            179.9988         estimate D2E/DX2                !
 ! D5    D(1,2,3,4)             -0.0003         estimate D2E/DX2                !
 ! D6    D(1,2,3,12)          -179.9996         estimate D2E/DX2                !
 ! D7    D(11,2,3,4)           180.0            estimate D2E/DX2                !
 ! D8    D(11,2,3,12)            0.0006         estimate D2E/DX2                !
 ! D9    D(2,3,4,5)              0.0            estimate D2E/DX2                !
 ! D10   D(2,3,4,13)          -179.9993         estimate D2E/DX2                !
 ! D11   D(12,3,4,5)           179.9994         estimate D2E/DX2                !
 ! D12   D(12,3,4,13)            0.0            estimate D2E/DX2                !
 ! D13   D(3,4,5,6)              0.0002         estimate D2E/DX2                !
 ! D14   D(3,4,5,10)           179.9996         estimate D2E/DX2                !
 ! D15   D(13,4,5,6)           179.9995         estimate D2E/DX2                !
 ! D16   D(13,4,5,10)           -0.001          estimate D2E/DX2                !
 ! D17   D(4,5,6,1)             -0.0001         estimate D2E/DX2                !
 ! D18   D(4,5,6,7)           -179.9991         estimate D2E/DX2                !
 ! D19   D(10,5,6,1)          -179.9995         estimate D2E/DX2                !
 ! D20   D(10,5,6,7)             0.0016         estimate D2E/DX2                !
 ! D21   D(4,5,10,15)          179.9965         estimate D2E/DX2                !
 ! D22   D(6,5,10,15)           -0.0041         estimate D2E/DX2                !
 ! D23   D(1,6,7,8)           -179.9985         estimate D2E/DX2                !
 ! D24   D(1,6,7,9)              0.0128         estimate D2E/DX2                !
 ! D25   D(5,6,7,8)              0.0005         estimate D2E/DX2                !
 ! D26   D(5,6,7,9)           -179.9882         estimate D2E/DX2                !
 ! D27   D(6,7,9,14)           179.9951         estimate D2E/DX2                !
 ! D28   D(8,7,9,14)             0.0063         estimate D2E/DX2                !
 --------------------------------------------------------------------------------
 Trust Radius=3.00D-01 FncErr=1.00D-07 GrdErr=1.00D-06
 Number of steps in this run=     74 maximum allowed number of steps=    100.
 GradGradGradGradGradGradGradGradGradGradGradGradGradGradGradGradGradGrad

                          Input orientation:                          
 ---------------------------------------------------------------------
 Center     Atomic      Atomic             Coordinates (Angstroms)
 Number     Number       Type             X           Y           Z
 ---------------------------------------------------------------------
      1          7           0       -0.440380   -1.451734    0.000053
      2          6           0       -1.766204   -1.483861    0.000034
      3          6           0       -2.556175   -0.318523   -0.000015
      4          6           0       -1.936569    0.919063   -0.000039
      5          6           0       -0.531883    0.973615   -0.000014
      6          6           0        0.175718   -0.254891    0.000031
      7          6           0        1.653809   -0.223165    0.000079
      8          8           0        2.300569    0.828876    0.000090
      9          8           0        2.257473   -1.416279   -0.000129
     10          8           0        0.062097    2.177460   -0.000046
     11          1           0       -2.228482   -2.467699    0.000054
     12          1           0       -3.639261   -0.395516   -0.000023
     13          1           0       -2.496193    1.848551   -0.000066
     14          1           0        3.215021   -1.246020   -0.000150
     15          1           0        1.038285    2.028931    0.000035
 ---------------------------------------------------------------------
                    Distance matrix (angstroms):
                    1          2          3          4          5
     1  N    0.000000
     2  C    1.326213   0.000000
     3  C    2.400157   1.407859   0.000000
     4  C    2.803437   2.408956   1.384027   0.000000
     5  C    2.427074   2.750043   2.401537   1.405745   0.000000
     6  C    1.346109   2.298136   2.732634   2.416594   1.417719
     7  C    2.427964   3.644975   4.211064   3.767691   2.491893
     8  O    3.565667   4.678397   4.990440   4.238098   2.836148
     9  O    2.698086   4.024245   4.937234   4.800397   3.673159
    10  O    3.663814   4.092427   3.617358   2.361827   1.342406
    11  H    2.056573   1.087032   2.174015   3.399319   3.836807
    12  H    3.368744   2.166296   1.085819   2.151111   3.395632
    13  H    3.888219   3.411430   2.167904   1.084955   2.150355
    14  H    3.661185   4.986900   5.845251   5.588064   4.355005
    15  H    3.781730   4.494982   4.293097   3.175148   1.891856
                    6          7          8          9         10
     6  C    0.000000
     7  C    1.478431   0.000000
     8  O    2.385276   1.234945   0.000000
     9  O    2.383805   1.337135   2.245569   0.000000
    10  O    2.435003   2.880373   2.613319   4.211251   0.000000
    11  H    3.267522   4.484430   5.601760   4.607524   5.179214
    12  H    3.817570   5.295875   6.064711   5.984432   4.507800
    13  H    3.400526   4.638375   4.903944   5.766841   2.579347
    14  H    3.196826   1.866445   2.267469   0.972567   4.654154
    15  H    2.441283   2.334696   1.741693   3.654571   0.987423
                   11         12         13         14         15
    11  H    0.000000
    12  H    2.506839   0.000000
    13  H    4.324544   2.518420   0.000000
    14  H    5.578909   6.906847   6.495717   0.000000
    15  H    5.558008   5.268527   3.539078   3.932364   0.000000
 Stoichiometry    C6H5NO3
 Framework group  C1[X(C6H5NO3)]
 Deg. of freedom    39
 Full point group                 C1      NOp   1
 Largest Abelian subgroup         C1      NOp   1
 Largest concise Abelian subgroup C1      NOp   1
                         Standard orientation:                         
 ---------------------------------------------------------------------
 Center     Atomic      Atomic             Coordinates (Angstroms)
 Number     Number       Type             X           Y           Z
 ---------------------------------------------------------------------
      1          7           0        0.440380   -1.451734   -0.000053
      2          6           0        1.766204   -1.483861   -0.000034
      3          6           0        2.556175   -0.318523    0.000015
      4          6           0        1.936569    0.919063    0.000039
      5          6           0        0.531883    0.973615    0.000014
      6          6           0       -0.175718   -0.254891   -0.000031
      7          6           0       -1.653809   -0.223165   -0.000079
      8          8           0       -2.300569    0.828876   -0.000090
      9          8           0       -2.257473   -1.416279    0.000129
     10          8           0       -0.062097    2.177460    0.000046
     11          1           0        2.228482   -2.467699   -0.000054
     12          1           0        3.639261   -0.395517    0.000023
     13          1           0        2.496193    1.848551    0.000066
     14          1           0       -3.215021   -1.246019    0.000150
     15          1           0       -1.038285    2.028931   -0.000035
 ---------------------------------------------------------------------
 Rotational constants (GHZ):      2.3571719      1.2559232      0.8193604
 Standard basis: 6-31+G(d,p) (6D, 7F)
 There are   215 symmetry adapted cartesian basis functions of A   symmetry.
 There are   215 symmetry adapted basis functions of A   symmetry.
   215 basis functions,   355 primitive gaussians,   215 cartesian basis functions
    36 alpha electrons       36 beta electrons
       nuclear repulsion energy       506.5529492593 Hartrees.
 NAtoms=   15 NActive=   15 NUniq=   15 SFac= 1.00D+00 NAtFMM=   60 NAOKFM=F Big=F
 Integral buffers will be    131072 words long.
 Raffenetti 2 integral format.
 Two-electron integral symmetry is turned on.
 Nuclear repulsion after empirical dispersion term =      506.5372505266 Hartrees.
 One-electron integrals computed using PRISM.
 NBasis=   215 RedAO= T EigKep=  5.86D-06  NBF=   215
 NBsUse=   215 1.00D-06 EigRej= -1.00D+00 NBFU=   215
 ExpMin= 4.38D-02 ExpMax= 5.48D+03 ExpMxC= 8.25D+02 IAcc=2 IRadAn=         4 AccDes= 0.00D+00
 Harris functional with IExCor= 1009 and IRadAn=       4 diagonalized for initial guess.
 HarFok:  IExCor= 1009 AccDes= 0.00D+00 IRadAn=         4 IDoV= 1 UseB2=F ITyADJ=14
 ICtDFT=  3500011 ScaDFX=  1.000000  1.000000  1.000000  1.000000
 FoFCou: FMM=F IPFlag=           0 FMFlag=      100000 FMFlg1=           0
         NFxFlg=           0 DoJE=T BraDBF=F KetDBF=T FulRan=T
         wScrn=  0.000000 ICntrl=     500 IOpCl=  0 I1Cent=   200000004 NGrid=           0
         NMat0=    1 NMatS0=      1 NMatT0=    0 NMatD0=    1 NMtDS0=    0 NMtDT0=    0
 Petite list used in FoFCou.
 Keep J ints in memory in canonical form, NReq=274797245.
 Requested convergence on RMS density matrix=1.00D-08 within 128 cycles.
 Requested convergence on MAX density matrix=1.00D-06.
 Requested convergence on             energy=1.00D-06.
 No special actions if energy rises.
 SCF Done:  E(RPBE-PBE) =  -511.569851559     A.U. after   15 cycles
            NFock= 15  Conv=0.59D-08     -V/T= 2.0089

 **********************************************************************

            Population analysis using the SCF density.

 **********************************************************************

 Orbital symmetries:
       Occupied  (A) (A) (A) (A) (A) (A) (A) (A) (A) (A) (A) (A)
                 (A) (A) (A) (A) (A) (A) (A) (A) (A) (A) (A) (A)
                 (A) (A) (A) (A) (A) (A) (A) (A) (A) (A) (A) (A)
       Virtual   (A) (A) (A) (A) (A) (A) (A) (A) (A) (A) (A) (A)
                 (A) (A) (A) (A) (A) (A) (A) (A) (A) (A) (A) (A)
                 (A) (A) (A) (A) (A) (A) (A) (A) (A) (A) (A) (A)
                 (A) (A) (A) (A) (A) (A) (A) (A) (A) (A) (A) (A)
                 (A) (A) (A) (A) (A) (A) (A) (A) (A) (A) (A) (A)
                 (A) (A) (A) (A) (A) (A) (A) (A) (A) (A) (A) (A)
                 (A) (A) (A) (A) (A) (A) (A) (A) (A) (A) (A) (A)
                 (A) (A) (A) (A) (A) (A) (A) (A) (A) (A) (A) (A)
                 (A) (A) (A) (A) (A) (A) (A) (A) (A) (A) (A) (A)
                 (A) (A) (A) (A) (A) (A) (A) (A) (A) (A) (A) (A)
                 (A) (A) (A) (A) (A) (A) (A) (A) (A) (A) (A) (A)
                 (A) (A) (A) (A) (A) (A) (A) (A) (A) (A) (A) (A)
                 (A) (A) (A) (A) (A) (A) (A) (A) (A) (A) (A) (A)
                 (A) (A) (A) (A) (A) (A) (A) (A) (A) (A) (A) (A)
                 (A) (A) (A) (A) (A) (A) (A) (A) (A) (A) (A)
 The electronic state is 1-A.
 Alpha  occ. eigenvalues --  -18.84660 -18.82341 -18.79885 -14.02547 -10.05080
 Alpha  occ. eigenvalues --   -9.99555  -9.96256  -9.94682  -9.93666  -9.93484
 Alpha  occ. eigenvalues --   -1.04494  -0.99822  -0.95213  -0.88236  -0.74799
 Alpha  occ. eigenvalues --   -0.71840  -0.63584  -0.58773  -0.57910  -0.51164
 Alpha  occ. eigenvalues --   -0.49895  -0.46144  -0.44854  -0.43166  -0.43026
 Alpha  occ. eigenvalues --   -0.38690  -0.38210  -0.37186  -0.35752  -0.35087
 Alpha  occ. eigenvalues --   -0.34019  -0.30047  -0.27353  -0.26756  -0.22788
 Alpha  occ. eigenvalues --   -0.22701
 Alpha virt. eigenvalues --   -0.10514  -0.05963  -0.01952  -0.01072  -0.00697
 Alpha virt. eigenvalues --    0.01019   0.01913   0.03592   0.03869   0.04325
 Alpha virt. eigenvalues --    0.06498   0.06608   0.07431   0.07909   0.08754
 Alpha virt. eigenvalues --    0.09435   0.11044   0.11157   0.11941   0.12453
 Alpha virt. eigenvalues --    0.12697   0.13834   0.14632   0.14643   0.15811
 Alpha virt. eigenvalues --    0.16075   0.17532   0.17935   0.19129   0.19837
 Alpha virt. eigenvalues --    0.20056   0.20770   0.21415   0.22186   0.22533
 Alpha virt. eigenvalues --    0.22985   0.23913   0.24845   0.25111   0.25918
 Alpha virt. eigenvalues --    0.26943   0.27225   0.27666   0.28486   0.29163
 Alpha virt. eigenvalues --    0.29378   0.30522   0.31716   0.32320   0.32944
 Alpha virt. eigenvalues --    0.34880   0.35566   0.36894   0.38554   0.41229
 Alpha virt. eigenvalues --    0.42700   0.46351   0.52895   0.55600   0.60461
 Alpha virt. eigenvalues --    0.60894   0.64224   0.65751   0.66891   0.67136
 Alpha virt. eigenvalues --    0.67602   0.69360   0.71026   0.75541   0.77409
 Alpha virt. eigenvalues --    0.80592   0.83356   0.84126   0.88743   0.90090
 Alpha virt. eigenvalues --    0.92503   0.95674   0.97541   1.00093   1.02974
 Alpha virt. eigenvalues --    1.03994   1.05096   1.06682   1.07888   1.08569
 Alpha virt. eigenvalues --    1.12071   1.12599   1.13959   1.14724   1.15910
 Alpha virt. eigenvalues --    1.17843   1.19122   1.22724   1.23224   1.24823
 Alpha virt. eigenvalues --    1.25069   1.26229   1.26741   1.29895   1.30998
 Alpha virt. eigenvalues --    1.32503   1.33476   1.34891   1.36961   1.38814
 Alpha virt. eigenvalues --    1.41975   1.49313   1.50547   1.51168   1.56268
 Alpha virt. eigenvalues --    1.58232   1.66478   1.68005   1.69293   1.71178
 Alpha virt. eigenvalues --    1.74820   1.75055   1.78593   1.79824   1.81720
 Alpha virt. eigenvalues --    1.83098   1.86808   1.90199   1.90448   1.91568
 Alpha virt. eigenvalues --    1.94815   1.97544   2.00836   2.06090   2.10569
 Alpha virt. eigenvalues --    2.18262   2.18505   2.20353   2.25496   2.26597
 Alpha virt. eigenvalues --    2.26616   2.29537   2.33143   2.35895   2.40213
 Alpha virt. eigenvalues --    2.40355   2.41980   2.43907   2.45098   2.45605
 Alpha virt. eigenvalues --    2.49007   2.52565   2.55143   2.57634   2.58284
 Alpha virt. eigenvalues --    2.62228   2.65340   2.66540   2.68815   2.75152
 Alpha virt. eigenvalues --    2.79626   2.86164   2.95062   2.98145   3.00679
 Alpha virt. eigenvalues --    3.09710   3.09978   3.18014   3.22858   3.28605
 Alpha virt. eigenvalues --    3.32826   3.43379   3.49689   3.71655   4.06726
 Alpha virt. eigenvalues --    4.17443   4.22969   4.24322   4.27251   4.38440
 Alpha virt. eigenvalues --    4.48769   4.59700   4.72654   4.75763
          Condensed to atoms (all electrons):
               1          2          3          4          5          6
     1  N    7.008197  -0.285508   0.340990  -0.164528   0.251931   0.239513
     2  C   -0.285508   6.869623  -0.833255   0.455376  -0.651177   0.003979
     3  C    0.340990  -0.833255   6.432310  -1.247516   2.109912  -0.935364
     4  C   -0.164528   0.455376  -1.247516  11.282101  -5.649248   1.520722
     5  C    0.251931  -0.651177   2.109912  -5.649248  15.459846  -5.304534
     6  C    0.239513   0.003979  -0.935364   1.520722  -5.304534  11.113305
     7  C   -0.225986   0.241818  -0.206394   0.013821  -0.852295  -0.196135
     8  O    0.017504  -0.020259   0.018935  -0.003064   0.127268  -0.278672
     9  O    0.051743  -0.036199   0.020125  -0.000176   0.162407  -0.336961
    10  O    0.003833  -0.019803   0.030129  -0.574979   0.276921   0.259930
    11  H   -0.114257   0.489105  -0.157851   0.044920  -0.050984   0.045217
    12  H    0.004441   0.047724   0.254165   0.029683  -0.015584  -0.007339
    13  H    0.001903  -0.021981   0.049611   0.177728   0.123620  -0.016793
    14  H    0.002892   0.005171  -0.002483   0.009058  -0.032732   0.044178
    15  H    0.000509   0.004851  -0.012675   0.175404  -0.021482  -0.131097
               7          8          9         10         11         12
     1  N   -0.225986   0.017504   0.051743   0.003833  -0.114257   0.004441
     2  C    0.241818  -0.020259  -0.036199  -0.019803   0.489105   0.047724
     3  C   -0.206394   0.018935   0.020125   0.030129  -0.157851   0.254165
     4  C    0.013821  -0.003064  -0.000176  -0.574979   0.044920   0.029683
     5  C   -0.852295   0.127268   0.162407   0.276921  -0.050984  -0.015584
     6  C   -0.196135  -0.278672  -0.336961   0.259930   0.045217  -0.007339
     7  C    6.203371   0.360620   0.241579  -0.056375   0.017819  -0.000217
     8  O    0.360620   8.440385  -0.168004  -0.040708   0.000006   0.000002
     9  O    0.241579  -0.168004   8.286427  -0.004956  -0.000507  -0.000011
    10  O   -0.056375  -0.040708  -0.004956   8.472354   0.000210  -0.000702
    11  H    0.017819   0.000006  -0.000507   0.000210   0.584696  -0.002363
    12  H   -0.000217   0.000002  -0.000011  -0.000702  -0.002363   0.542981
    13  H    0.001622   0.000080   0.000025  -0.008499  -0.000131  -0.005530
    14  H    0.022698   0.002175   0.163842   0.000181  -0.000001   0.000000
    15  H    0.006936   0.060814   0.004231   0.156535  -0.000000   0.000004
              13         14         15
     1  N    0.001903   0.002892   0.000509
     2  C   -0.021981   0.005171   0.004851
     3  C    0.049611  -0.002483  -0.012675
     4  C    0.177728   0.009058   0.175404
     5  C    0.123620  -0.032732  -0.021482
     6  C   -0.016793   0.044178  -0.131097
     7  C    0.001622   0.022698   0.006936
     8  O    0.000080   0.002175   0.060814
     9  O    0.000025   0.163842   0.004231
    10  O   -0.008499   0.000181   0.156535
    11  H   -0.000131  -0.000001  -0.000000
    12  H   -0.005530   0.000000   0.000004
    13  H    0.534635  -0.000000   0.000055
    14  H   -0.000000   0.406405   0.000009
    15  H    0.000055   0.000009   0.361024
 Mulliken charges:
               1
     1  N   -0.133179
     2  C   -0.249464
     3  C    0.139360
     4  C   -0.069302
     5  C    0.066130
     6  C   -0.019950
     7  C    0.427116
     8  O   -0.517083
     9  O   -0.383565
    10  O   -0.494072
    11  H    0.144120
    12  H    0.152746
    13  H    0.163655
    14  H    0.378607
    15  H    0.394881
 Sum of Mulliken charges =  -0.00000
 Mulliken charges with hydrogens summed into heavy atoms:
               1
     1  N   -0.133179
     2  C   -0.105344
     3  C    0.292106
     4  C    0.094353
     5  C    0.066130
     6  C   -0.019950
     7  C    0.427116
     8  O   -0.517083
     9  O   -0.004958
    10  O   -0.099191
 Electronic spatial extent (au):  <R**2>=           1314.7961
 Charge=             -0.0000 electrons
 Dipole moment (field-independent basis, Debye):
    X=              1.1111    Y=             -0.3053    Z=              0.0000  Tot=              1.1523
 Quadrupole moment (field-independent basis, Debye-Ang):
   XX=            -44.0925   YY=            -62.2204   ZZ=            -58.3752
   XY=              2.3007   XZ=             -0.0004   YZ=             -0.0001
 Traceless Quadrupole moment (field-independent basis, Debye-Ang):
   XX=             10.8035   YY=             -7.3243   ZZ=             -3.4792
   XY=              2.3007   XZ=             -0.0004   YZ=             -0.0001
 Octapole moment (field-independent basis, Debye-Ang**2):
  XXX=            -18.6047  YYY=              3.5610  ZZZ=              0.0003  XYY=              0.1671
  XXY=            -17.8105  XXZ=              0.0028  XZZ=            -10.3703  YZZ=              1.7904
  YYZ=             -0.0001  XYZ=              0.0003
 Hexadecapole moment (field-independent basis, Debye-Ang**3):
 XXXX=           -874.5920 YYYY=           -599.5368 ZZZZ=            -60.6377 XXXY=             75.2168
 XXXZ=             -0.0095 YYYX=            -16.7832 YYYZ=             -0.0022 ZZZX=             -0.0009
 ZZZY=             -0.0008 XXYY=           -237.7521 XXZZ=           -196.9091 YYZZ=           -110.5145
 XXYZ=             -0.0005 YYXZ=             -0.0009 ZZXY=              2.4784
 N-N= 5.065372505266D+02 E-N=-2.208323430074D+03  KE= 5.070435050920D+02
 Calling FoFJK, ICntrl=      2527 FMM=F ISym2X=0 I1Cent= 0 IOpClX= 0 NMat=1 NMatS=1 NMatT=0.
 ***** Axes restored to original set *****
 -------------------------------------------------------------------
 Center     Atomic                   Forces (Hartrees/Bohr)
 Number     Number              X              Y              Z
 -------------------------------------------------------------------
      1        7           0.006271844   -0.006548985    0.000001307
      2        6          -0.002940001    0.001520716   -0.000001654
      3        6          -0.000782447   -0.001295554    0.000000709
      4        6          -0.000042010    0.000679218   -0.000000501
      5        6           0.001906913    0.003047107    0.000000168
      6        6           0.004060676   -0.001908649    0.000008003
      7        6          -0.008547126   -0.005117132   -0.000024538
      8        8           0.008158306    0.015953899    0.000008898
      9        8          -0.005774469   -0.011497731    0.000007411
     10        8          -0.008642543    0.007381667    0.000000591
     11        1          -0.002487346   -0.005335086    0.000000152
     12        1          -0.005678563   -0.000238590   -0.000000139
     13        1          -0.002798769    0.004799635   -0.000000485
     14        1           0.007586985    0.002621694   -0.000000004
     15        1           0.009708549   -0.004062209    0.000000081
 -------------------------------------------------------------------
 Cartesian Forces:  Max     0.015953899 RMS     0.004982309

 GradGradGradGradGradGradGradGradGradGradGradGradGradGradGradGradGradGrad
 Berny optimization.
 FormGI is forming the generalized inverse of G from B-inverse, IUseBI=4.
 Internal  Forces:  Max     0.017859787 RMS     0.003967191
 Search for a local minimum.
 Step number   1 out of a maximum of   74
 All quantities printed in internal units (Hartrees-Bohrs-Radians)
 Mixed Optimization -- RFO/linear search
 Second derivative matrix not updated -- first step.
 ITU=  0
     Eigenvalues ---    0.01051   0.01533   0.01700   0.01946   0.02057
     Eigenvalues ---    0.02101   0.02140   0.02170   0.02232   0.02433
     Eigenvalues ---    0.02454   0.02523   0.16000   0.16000   0.16000
     Eigenvalues ---    0.16000   0.16000   0.22081   0.23320   0.24911
     Eigenvalues ---    0.25000   0.25000   0.25000   0.25000   0.34750
     Eigenvalues ---    0.35158   0.35300   0.35402   0.40369   0.43255
     Eigenvalues ---    0.43829   0.47078   0.49970   0.52856   0.54408
     Eigenvalues ---    0.56669   0.57852   0.58782   0.89057
 RFO step:  Lambda=-1.95470664D-03 EMin= 1.05125804D-02
 Linear search not attempted -- first point.
 Iteration  1 RMS(Cart)=  0.01678426 RMS(Int)=  0.00018497
 Iteration  2 RMS(Cart)=  0.00022668 RMS(Int)=  0.00000077
 Iteration  3 RMS(Cart)=  0.00000011 RMS(Int)=  0.00000076
 Variable       Old X    -DE/DX   Delta X   Delta X   Delta X     New X
                                 (Linear)    (Quad)   (Total)
    R1        2.50618   0.00899   0.00000   0.01508   0.01508   2.52126
    R2        2.54378   0.00637   0.00000   0.01152   0.01152   2.55529
    R3        2.66047   0.00581   0.00000   0.01322   0.01322   2.67369
    R4        2.05419   0.00588   0.00000   0.01665   0.01665   2.07084
    R5        2.61543   0.00677   0.00000   0.01377   0.01376   2.62920
    R6        2.05190   0.00568   0.00000   0.01601   0.01601   2.06791
    R7        2.65647   0.00575   0.00000   0.01246   0.01246   2.66893
    R8        2.05027   0.00556   0.00000   0.01561   0.01561   2.06588
    R9        2.67910   0.00633   0.00000   0.01457   0.01457   2.69367
   R10        2.53678   0.00345   0.00000   0.00607   0.00607   2.54285
   R11        2.79383   0.00146   0.00000   0.00418   0.00418   2.79801
   R12        2.33371   0.01786   0.00000   0.02001   0.02001   2.35372
   R13        2.52682   0.00875   0.00000   0.01507   0.01507   2.54189
   R14        1.83789   0.00792   0.00000   0.01494   0.01494   1.85282
   R15        1.86596   0.01021   0.00000   0.02036   0.02036   1.88632
    A1        2.07042  -0.00169   0.00000  -0.00539  -0.00538   2.06503
    A2        2.14230   0.00056   0.00000   0.00342   0.00342   2.14572
    A3        2.03428  -0.00029   0.00000  -0.00178  -0.00178   2.03250
    A4        2.10660  -0.00027   0.00000  -0.00164  -0.00164   2.10496
    A5        2.08169   0.00001   0.00000  -0.00018  -0.00018   2.08151
    A6        2.09556   0.00017   0.00000   0.00118   0.00118   2.09674
    A7        2.10594  -0.00018   0.00000  -0.00100  -0.00100   2.10494
    A8        2.07379  -0.00009   0.00000  -0.00165  -0.00166   2.07213
    A9        2.13547   0.00013   0.00000   0.00136   0.00136   2.13683
   A10        2.07393  -0.00004   0.00000   0.00030   0.00030   2.07422
   A11        2.05455   0.00040   0.00000   0.00056   0.00056   2.05511
   A12        2.06797   0.00155   0.00000   0.00666   0.00666   2.07463
   A13        2.16066  -0.00195   0.00000  -0.00722  -0.00722   2.15344
   A14        2.14363   0.00082   0.00000   0.00324   0.00324   2.14687
   A15        2.06765   0.00200   0.00000   0.00794   0.00794   2.07559
   A16        2.07191  -0.00282   0.00000  -0.01118  -0.01119   2.06072
   A17        2.14346  -0.00092   0.00000  -0.00365  -0.00365   2.13981
   A18        2.01774  -0.00143   0.00000  -0.00567  -0.00567   2.01207
   A19        2.12198   0.00235   0.00000   0.00932   0.00932   2.13131
   A20        1.86323  -0.00229   0.00000  -0.01414  -0.01414   1.84909
   A21        1.87816  -0.00477   0.00000  -0.02947  -0.02947   1.84869
    D1        0.00001  -0.00000   0.00000  -0.00002  -0.00002  -0.00001
    D2       -3.14159  -0.00000   0.00000  -0.00001  -0.00001   3.14159
    D3       -0.00000   0.00000   0.00000   0.00002   0.00002   0.00002
    D4        3.14157   0.00000   0.00000   0.00004   0.00004  -3.14157
    D5       -0.00000   0.00000   0.00000   0.00001   0.00001   0.00000
    D6       -3.14159   0.00000   0.00000   0.00000   0.00000  -3.14158
    D7        3.14159  -0.00000   0.00000  -0.00000  -0.00000   3.14159
    D8        0.00001  -0.00000   0.00000  -0.00001  -0.00001   0.00000
    D9        0.00000  -0.00000   0.00000  -0.00000  -0.00000  -0.00000
   D10       -3.14158  -0.00000   0.00000  -0.00001  -0.00001  -3.14159
   D11        3.14158   0.00000   0.00000   0.00000   0.00000   3.14159
   D12        0.00000  -0.00000   0.00000  -0.00000  -0.00000  -0.00000
   D13        0.00000   0.00000   0.00000   0.00000   0.00000   0.00001
   D14        3.14159   0.00000   0.00000   0.00001   0.00001   3.14159
   D15        3.14158   0.00000   0.00000   0.00001   0.00001  -3.14159
   D16       -0.00002   0.00000   0.00000   0.00001   0.00001  -0.00001
   D17       -0.00000  -0.00000   0.00000  -0.00001  -0.00001  -0.00001
   D18       -3.14158  -0.00000   0.00000  -0.00003  -0.00003   3.14158
   D19       -3.14158  -0.00000   0.00000  -0.00002  -0.00002   3.14159
   D20        0.00003  -0.00000   0.00000  -0.00003  -0.00003  -0.00001
   D21        3.14153   0.00000   0.00000   0.00003   0.00003   3.14156
   D22       -0.00007   0.00000   0.00000   0.00003   0.00003  -0.00004
   D23       -3.14157   0.00001   0.00000   0.00029   0.00028  -3.14128
   D24        0.00022  -0.00001   0.00000  -0.00043  -0.00043  -0.00021
   D25        0.00001   0.00001   0.00000   0.00030   0.00030   0.00031
   D26       -3.14139  -0.00001   0.00000  -0.00041  -0.00041   3.14139
   D27        3.14151   0.00001   0.00000   0.00035   0.00035  -3.14133
   D28        0.00011  -0.00001   0.00000  -0.00035  -0.00036  -0.00025
         Item               Value     Threshold  Converged?
 Maximum Force            0.017860     0.000450     NO 
 RMS     Force            0.003967     0.000300     NO 
 Maximum Displacement     0.077141     0.001800     NO 
 RMS     Displacement     0.016868     0.001200     NO 
 Predicted change in Energy=-9.819820D-04
 GradGradGradGradGradGradGradGradGradGradGradGradGradGradGradGradGradGrad

                          Input orientation:                          
 ---------------------------------------------------------------------
 Center     Atomic      Atomic             Coordinates (Angstroms)
 Number     Number       Type             X           Y           Z
 ---------------------------------------------------------------------
      1          7           0       -0.440143   -1.463772   -0.000086
      2          6           0       -1.774082   -1.489916   -0.000024
      3          6           0       -2.566559   -0.317828    0.000036
      4          6           0       -1.941963    0.925404    0.000026
      5          6           0       -0.530531    0.975912   -0.000042
      6          6           0        0.177840   -0.261045   -0.000105
      7          6           0        1.657810   -0.216403   -0.000197
      8          8           0        2.296966    0.852632    0.000105
      9          8           0        2.268703   -1.414790   -0.000005
     10          8           0        0.076557    2.176798   -0.000054
     11          1           0       -2.242931   -2.480394   -0.000014
     12          1           0       -3.658276   -0.392814    0.000096
     13          1           0       -2.503272    1.863517    0.000075
     14          1           0        3.230946   -1.226603    0.000157
     15          1           0        1.056758    1.988110   -0.000074
 ---------------------------------------------------------------------
                    Distance matrix (angstroms):
                    1          2          3          4          5
     1  N    0.000000
     2  C    1.334195   0.000000
     3  C    2.415540   1.414853   0.000000
     4  C    2.821990   2.421148   1.391311   0.000000
     5  C    2.441358   2.761653   2.412296   1.412336   0.000000
     6  C    1.352204   2.306539   2.744986   2.429245   1.425431
     7  C    2.440765   3.660563   4.225587   3.776519   2.492078
     8  O    3.585734   4.696910   5.002384   4.239554   2.830183
     9  O    2.709289   4.043483   4.958133   4.817284   3.681191
    10  O    3.677054   4.107269   3.634449   2.374955   1.345616
    11  H    2.069678   1.095840   2.186648   3.419071   3.857249
    12  H    3.391656   2.180326   1.094289   2.164123   3.414118
    13  H    3.915016   3.431797   2.182263   1.093216   2.163226
    14  H    3.678742   5.011949   5.868299   5.602689   4.358874
    15  H    3.762472   4.484453   4.294855   3.181458   1.882560
                    6          7          8          9         10
     6  C    0.000000
     7  C    1.480644   0.000000
     8  O    2.393944   1.245534   0.000000
     9  O    2.388061   1.345110   2.267598   0.000000
    10  O    2.439946   2.868410   2.585272   4.207732   0.000000
    11  H    3.284150   4.510148   5.632027   4.635769   5.202833
    12  H    3.838378   5.319012   6.084081   6.014442   4.533418
    13  H    3.420837   4.651954   4.905525   5.789563   2.598781
    14  H    3.202149   1.869561   2.279372   0.980472   4.640400
    15  H    2.414786   2.284981   1.681495   3.612276   0.998197
                   11         12         13         14         15
    11  H    0.000000
    12  H    2.522141   0.000000
    13  H    4.351705   2.534770   0.000000
    14  H    5.615632   6.939494   6.513839   0.000000
    15  H    5.554771   5.282078   3.562210   3.880911   0.000000
 Stoichiometry    C6H5NO3
 Framework group  C1[X(C6H5NO3)]
 Deg. of freedom    39
 Full point group                 C1      NOp   1
 Largest Abelian subgroup         C1      NOp   1
 Largest concise Abelian subgroup C1      NOp   1
                         Standard orientation:                         
 ---------------------------------------------------------------------
 Center     Atomic      Atomic             Coordinates (Angstroms)
 Number     Number       Type             X           Y           Z
 ---------------------------------------------------------------------
      1          7           0        0.451499   -1.462284    0.000060
      2          6           0        1.785589   -1.479031   -0.000002
      3          6           0        2.569789   -0.301389   -0.000062
      4          6           0        1.936451    0.937413   -0.000051
      5          6           0        0.524698    0.977976    0.000017
      6          6           0       -0.174941   -0.263940    0.000080
      7          6           0       -1.655190   -0.229726    0.000172
      8          8           0       -2.301860    0.834780   -0.000130
      9          8           0       -2.257625   -1.432386   -0.000021
     10          8           0       -0.090835    2.174556    0.000029
     11          1           0        2.261404   -2.466181   -0.000012
     12          1           0        3.662007   -0.368682   -0.000121
     13          1           0        2.491137    1.879456   -0.000100
     14          1           0       -3.221169   -1.250983   -0.000183
     15          1           0       -1.069683    1.978966    0.000049
 ---------------------------------------------------------------------
 Rotational constants (GHZ):      2.3427264      1.2486922      0.8145372
 Standard basis: 6-31+G(d,p) (6D, 7F)
 There are   215 symmetry adapted cartesian basis functions of A   symmetry.
 There are   215 symmetry adapted basis functions of A   symmetry.
   215 basis functions,   355 primitive gaussians,   215 cartesian basis functions
    36 alpha electrons       36 beta electrons
       nuclear repulsion energy       504.7278821194 Hartrees.
 NAtoms=   15 NActive=   15 NUniq=   15 SFac= 1.00D+00 NAtFMM=   60 NAOKFM=F Big=F
 Integral buffers will be    131072 words long.
 Raffenetti 2 integral format.
 Two-electron integral symmetry is turned on.
 Nuclear repulsion after empirical dispersion term =      504.7122152414 Hartrees.
 One-electron integrals computed using PRISM.
 NBasis=   215 RedAO= T EigKep=  6.14D-06  NBF=   215
 NBsUse=   215 1.00D-06 EigRej= -1.00D+00 NBFU=   215
 Initial guess from the checkpoint file:  "pbe3HPAgd3.chk"
 B after Tr=     0.000000   -0.000000   -0.000000
         Rot=    0.999995    0.000004   -0.000001   -0.003030 Ang=   0.35 deg.
 ExpMin= 4.38D-02 ExpMax= 5.48D+03 ExpMxC= 8.25D+02 IAcc=2 IRadAn=         4 AccDes= 0.00D+00
 Harris functional with IExCor= 1009 and IRadAn=       4 diagonalized for initial guess.
 HarFok:  IExCor= 1009 AccDes= 0.00D+00 IRadAn=         4 IDoV= 1 UseB2=F ITyADJ=14
 ICtDFT=  3500011 ScaDFX=  1.000000  1.000000  1.000000  1.000000
 FoFCou: FMM=F IPFlag=           0 FMFlag=      100000 FMFlg1=           0
         NFxFlg=           0 DoJE=T BraDBF=F KetDBF=T FulRan=T
         wScrn=  0.000000 ICntrl=     500 IOpCl=  0 I1Cent=   200000004 NGrid=           0
         NMat0=    1 NMatS0=      1 NMatT0=    0 NMatD0=    1 NMtDS0=    0 NMtDT0=    0
 Petite list used in FoFCou.
 Keep J ints in memory in canonical form, NReq=274797245.
 Requested convergence on RMS density matrix=1.00D-08 within 128 cycles.
 Requested convergence on MAX density matrix=1.00D-06.
 Requested convergence on             energy=1.00D-06.
 No special actions if energy rises.
 SCF Done:  E(RPBE-PBE) =  -511.570877638     A.U. after   13 cycles
            NFock= 13  Conv=0.67D-08     -V/T= 2.0094
 Calling FoFJK, ICntrl=      2527 FMM=F ISym2X=0 I1Cent= 0 IOpClX= 0 NMat=1 NMatS=1 NMatT=0.
 ***** Axes restored to original set *****
 -------------------------------------------------------------------
 Center     Atomic                   Forces (Hartrees/Bohr)
 Number     Number              X              Y              Z
 -------------------------------------------------------------------
      1        7           0.000999865   -0.001296160   -0.000005568
      2        6          -0.000596816    0.001241553    0.000003267
      3        6           0.000633097   -0.000047100   -0.000000064
      4        6          -0.000232255   -0.000574810    0.000001763
      5        6          -0.000551454    0.001793098   -0.000002897
      6        6           0.001082809   -0.000367483   -0.000018223
      7        6          -0.005376799   -0.002490048    0.000066003
      8        8           0.002696242    0.001638182   -0.000026120
      9        8           0.000155385   -0.000462068   -0.000019396
     10        8          -0.005742708    0.000921672   -0.000000476
     11        1           0.000249466    0.000111286    0.000000353
     12        1           0.000122849   -0.000003687   -0.000000725
     13        1           0.000045171   -0.000119742   -0.000000137
     14        1           0.001162053    0.000393620   -0.000000166
     15        1           0.005353092   -0.000738313    0.000002387
 -------------------------------------------------------------------
 Cartesian Forces:  Max     0.005742708 RMS     0.001633939

 GradGradGradGradGradGradGradGradGradGradGradGradGradGradGradGradGradGrad
 Berny optimization.
 Using GEDIIS/GDIIS optimizer.
 FormGI is forming the generalized inverse of G from B-inverse, IUseBI=4.
 Internal  Forces:  Max     0.005401970 RMS     0.000977671
 Search for a local minimum.
 Step number   2 out of a maximum of   74
 All quantities printed in internal units (Hartrees-Bohrs-Radians)
 Mixed Optimization -- En-DIIS/RFO-DIIS
 Update second derivatives using D2CorX and points    1    2
 DE= -1.03D-03 DEPred=-9.82D-04 R= 1.04D+00
 TightC=F SS=  1.41D+00  RLast= 6.88D-02 DXNew= 5.0454D-01 2.0652D-01
 Trust test= 1.04D+00 RLast= 6.88D-02 DXMaxT set to 3.00D-01
 ITU=  1  0
 Use linear search instead of GDIIS.
     Eigenvalues ---    0.01051   0.01538   0.01702   0.01946   0.02057
     Eigenvalues ---    0.02100   0.02140   0.02171   0.02232   0.02432
     Eigenvalues ---    0.02454   0.02523   0.15878   0.16000   0.16000
     Eigenvalues ---    0.16000   0.16201   0.22069   0.23198   0.24617
     Eigenvalues ---    0.24985   0.25000   0.25000   0.26485   0.34092
     Eigenvalues ---    0.35218   0.35358   0.36154   0.39089   0.42608
     Eigenvalues ---    0.43824   0.46105   0.47509   0.52875   0.55403
     Eigenvalues ---    0.56800   0.58043   0.60203   0.86138
 RFO step:  Lambda=-1.62324891D-04 EMin= 1.05125748D-02
 Quartic linear search produced a step of  0.06489.
 Iteration  1 RMS(Cart)=  0.00526094 RMS(Int)=  0.00001428
 Iteration  2 RMS(Cart)=  0.00001820 RMS(Int)=  0.00000140
 Iteration  3 RMS(Cart)=  0.00000000 RMS(Int)=  0.00000140
 Variable       Old X    -DE/DX   Delta X   Delta X   Delta X     New X
                                 (Linear)    (Quad)   (Total)
    R1        2.52126   0.00002   0.00098   0.00027   0.00125   2.52251
    R2        2.55529   0.00003   0.00075   0.00042   0.00116   2.55646
    R3        2.67369  -0.00068   0.00086  -0.00159  -0.00073   2.67295
    R4        2.07084  -0.00021   0.00108  -0.00030   0.00078   2.07162
    R5        2.62920  -0.00069   0.00089  -0.00141  -0.00051   2.62868
    R6        2.06791  -0.00012   0.00104  -0.00004   0.00100   2.06890
    R7        2.66893  -0.00024   0.00081  -0.00027   0.00054   2.66947
    R8        2.06588  -0.00012   0.00101  -0.00006   0.00096   2.06684
    R9        2.69367   0.00194   0.00095   0.00536   0.00630   2.69998
   R10        2.54285  -0.00001   0.00039   0.00010   0.00049   2.54334
   R11        2.79801  -0.00140   0.00027  -0.00419  -0.00392   2.79409
   R12        2.35372   0.00278   0.00130   0.00371   0.00501   2.35873
   R13        2.54189   0.00067   0.00098   0.00153   0.00251   2.54440
   R14        1.85282   0.00121   0.00097   0.00273   0.00370   1.85653
   R15        1.88632   0.00540   0.00132   0.01191   0.01323   1.89955
    A1        2.06503  -0.00084  -0.00035  -0.00354  -0.00389   2.06114
    A2        2.14572   0.00061   0.00022   0.00237   0.00259   2.14831
    A3        2.03250  -0.00048  -0.00012  -0.00236  -0.00247   2.03003
    A4        2.10496  -0.00013  -0.00011  -0.00001  -0.00012   2.10485
    A5        2.08151   0.00038  -0.00001   0.00093   0.00092   2.08243
    A6        2.09674  -0.00019   0.00008  -0.00046  -0.00039   2.09635
    A7        2.10494  -0.00018  -0.00006  -0.00047  -0.00053   2.10441
    A8        2.07213   0.00013  -0.00011   0.00031   0.00021   2.07234
    A9        2.13683  -0.00008   0.00009  -0.00025  -0.00016   2.13667
   A10        2.07422  -0.00005   0.00002  -0.00006  -0.00004   2.07418
   A11        2.05511  -0.00065   0.00004  -0.00229  -0.00225   2.05286
   A12        2.07463  -0.00048   0.00043  -0.00212  -0.00168   2.07295
   A13        2.15344   0.00112  -0.00047   0.00441   0.00394   2.15738
   A14        2.14687   0.00036   0.00021   0.00222   0.00243   2.14930
   A15        2.07559  -0.00161   0.00052  -0.00700  -0.00648   2.06911
   A16        2.06072   0.00125  -0.00073   0.00478   0.00405   2.06477
   A17        2.13981   0.00127  -0.00024   0.00532   0.00508   2.14489
   A18        2.01207   0.00094  -0.00037   0.00390   0.00353   2.01560
   A19        2.13131  -0.00221   0.00060  -0.00922  -0.00862   2.12269
   A20        1.84909  -0.00029  -0.00092  -0.00223  -0.00314   1.84595
   A21        1.84869   0.00054  -0.00191   0.00290   0.00099   1.84968
    D1       -0.00001   0.00000  -0.00000   0.00006   0.00006   0.00005
    D2        3.14159   0.00000  -0.00000   0.00003   0.00002  -3.14157
    D3        0.00002  -0.00000   0.00000  -0.00005  -0.00005  -0.00003
    D4       -3.14157  -0.00000   0.00000  -0.00004  -0.00003   3.14158
    D5        0.00000  -0.00000   0.00000  -0.00004  -0.00004  -0.00003
    D6       -3.14158  -0.00000   0.00000  -0.00004  -0.00004   3.14156
    D7        3.14159  -0.00000  -0.00000  -0.00000  -0.00000   3.14159
    D8        0.00000  -0.00000  -0.00000  -0.00000  -0.00000  -0.00000
    D9       -0.00000   0.00000  -0.00000   0.00000   0.00000   0.00000
   D10       -3.14159   0.00000  -0.00000   0.00002   0.00002  -3.14157
   D11        3.14159   0.00000   0.00000   0.00001   0.00001   3.14159
   D12       -0.00000   0.00000  -0.00000   0.00002   0.00002   0.00002
   D13        0.00001   0.00000   0.00000   0.00000   0.00000   0.00001
   D14        3.14159   0.00000   0.00000   0.00007   0.00007  -3.14152
   D15       -3.14159  -0.00000   0.00000  -0.00001  -0.00001   3.14159
   D16       -0.00001   0.00000   0.00000   0.00006   0.00006   0.00005
   D17       -0.00001   0.00000  -0.00000   0.00002   0.00002   0.00001
   D18        3.14158   0.00000  -0.00000   0.00001   0.00000   3.14158
   D19        3.14159  -0.00000  -0.00000  -0.00005  -0.00005   3.14153
   D20       -0.00001  -0.00000  -0.00000  -0.00007  -0.00007  -0.00008
   D21        3.14156  -0.00000   0.00000  -0.00013  -0.00013   3.14143
   D22       -0.00004  -0.00000   0.00000  -0.00006  -0.00006  -0.00010
   D23       -3.14128  -0.00002   0.00002  -0.00133  -0.00131   3.14059
   D24       -0.00021   0.00001  -0.00003   0.00091   0.00089   0.00068
   D25        0.00031  -0.00002   0.00002  -0.00131  -0.00130  -0.00099
   D26        3.14139   0.00001  -0.00003   0.00093   0.00090  -3.14089
   D27       -3.14133  -0.00002   0.00002  -0.00113  -0.00110   3.14076
   D28       -0.00025   0.00002  -0.00002   0.00110   0.00107   0.00083
         Item               Value     Threshold  Converged?
 Maximum Force            0.005402     0.000450     NO 
 RMS     Force            0.000978     0.000300     NO 
 Maximum Displacement     0.020025     0.001800     NO 
 RMS     Displacement     0.005271     0.001200     NO 
 Predicted change in Energy=-8.475452D-05
 GradGradGradGradGradGradGradGradGradGradGradGradGradGradGradGradGradGrad

                          Input orientation:                          
 ---------------------------------------------------------------------
 Center     Atomic      Atomic             Coordinates (Angstroms)
 Number     Number       Type             X           Y           Z
 ---------------------------------------------------------------------
      1          7           0       -0.437306   -1.464552    0.000308
      2          6           0       -1.771939   -1.489011    0.000123
      3          6           0       -2.565740   -0.318288   -0.000131
      4          6           0       -1.944044    0.926094   -0.000156
      5          6           0       -0.532453    0.980056    0.000072
      6          6           0        0.177807   -0.259663    0.000304
      7          6           0        1.655866   -0.220793    0.000529
      8          8           0        2.305941    0.844743   -0.000508
      9          8           0        2.266966   -1.420563   -0.000107
     10          8           0        0.069794    2.183668    0.000132
     11          1           0       -2.239778   -2.480426    0.000151
     12          1           0       -3.657854   -0.395169   -0.000303
     13          1           0       -2.507861    1.863292   -0.000330
     14          1           0        3.230597   -1.229287   -0.000648
     15          1           0        1.057829    1.998706    0.000456
 ---------------------------------------------------------------------
                    Distance matrix (angstroms):
                    1          2          3          4          5
     1  N    0.000000
     2  C    1.334857   0.000000
     3  C    2.417469   1.414466   0.000000
     4  C    2.825853   2.421229   1.391040   0.000000
     5  C    2.446459   2.762719   2.412458   1.412622   0.000000
     6  C    1.352820   2.304953   2.744174   2.430694   1.428766
     7  C    2.434811   3.654890   4.222732   3.778188   2.496153
     8  O    3.585840   4.698459   5.008585   4.250764   2.841618
     9  O    2.704630   4.039486   4.956820   4.820727   3.687780
    10  O    3.683294   4.108595   3.633982   2.374244   1.345876
    11  H    2.069035   1.096256   2.186571   3.419332   3.858743
    12  H    3.393450   2.180175   1.094816   2.163996   3.414582
    13  H    3.919406   3.432130   2.182347   1.093723   2.163872
    14  H    3.675441   5.009274   5.867491   5.605585   4.363685
    15  H    3.772212   4.491298   4.301014   3.187749   1.888557
                    6          7          8          9         10
     6  C    0.000000
     7  C    1.478569   0.000000
     8  O    2.397638   1.248186   0.000000
     9  O    2.390036   1.346436   2.265641   0.000000
    10  O    2.445717   2.880461   2.606353   4.221143   0.000000
    11  H    3.282759   4.503552   5.632079   4.629693   5.204603
    12  H    3.838054   5.316580   6.091324   6.012896   4.532743
    13  H    3.423413   4.656182   4.920380   5.795056   2.597488
    14  H    3.203076   1.869984   2.270813   0.982431   4.651768
    15  H    2.423772   2.298658   1.699828   3.626763   1.005199
                   11         12         13         14         15
    11  H    0.000000
    12  H    2.521752   0.000000
    13  H    4.351983   2.534389   0.000000
    14  H    5.611627   6.938768   6.518738   0.000000
    15  H    5.562089   5.288507   3.568261   3.891126   0.000000
 Stoichiometry    C6H5NO3
 Framework group  C1[X(C6H5NO3)]
 Deg. of freedom    39
 Full point group                 C1      NOp   1
 Largest Abelian subgroup         C1      NOp   1
 Largest concise Abelian subgroup C1      NOp   1
                         Standard orientation:                         
 ---------------------------------------------------------------------
 Center     Atomic      Atomic             Coordinates (Angstroms)
 Number     Number       Type             X           Y           Z
 ---------------------------------------------------------------------
      1          7           0        0.442904   -1.464293   -0.000279
      2          6           0        1.777606   -1.484669   -0.000095
      3          6           0        2.567822   -0.311523    0.000160
      4          6           0        1.942322    0.930951    0.000185
      5          6           0        0.530572    0.980595   -0.000043
      6          6           0       -0.175892   -0.261291   -0.000275
      7          6           0       -1.654063   -0.226944   -0.000500
      8          8           0       -2.307395    0.836599    0.000537
      9          8           0       -2.261490   -1.428577    0.000136
     10          8           0       -0.075354    2.182359   -0.000103
     11          1           0        2.248476   -2.474648   -0.000123
     12          1           0        3.660165   -0.385063    0.000332
     13          1           0        2.503269    1.869870    0.000358
     14          1           0       -3.225702   -1.240250    0.000676
     15          1           0       -1.062819    1.994375   -0.000427
 ---------------------------------------------------------------------
 Rotational constants (GHZ):      2.3350088      1.2475005      0.8130962
 Standard basis: 6-31+G(d,p) (6D, 7F)
 There are   215 symmetry adapted cartesian basis functions of A   symmetry.
 There are   215 symmetry adapted basis functions of A   symmetry.
   215 basis functions,   355 primitive gaussians,   215 cartesian basis functions
    36 alpha electrons       36 beta electrons
       nuclear repulsion energy       504.2524087167 Hartrees.
 NAtoms=   15 NActive=   15 NUniq=   15 SFac= 1.00D+00 NAtFMM=   60 NAOKFM=F Big=F
 Integral buffers will be    131072 words long.
 Raffenetti 2 integral format.
 Two-electron integral symmetry is turned on.
 Nuclear repulsion after empirical dispersion term =      504.2367522541 Hartrees.
 One-electron integrals computed using PRISM.
 NBasis=   215 RedAO= T EigKep=  6.14D-06  NBF=   215
 NBsUse=   215 1.00D-06 EigRej= -1.00D+00 NBFU=   215
 Initial guess from the checkpoint file:  "pbe3HPAgd3.chk"
 B after Tr=    -0.000000    0.000000    0.000000
         Rot=    0.999999   -0.000025   -0.000009    0.001730 Ang=  -0.20 deg.
 ExpMin= 4.38D-02 ExpMax= 5.48D+03 ExpMxC= 8.25D+02 IAcc=2 IRadAn=         4 AccDes= 0.00D+00
 Harris functional with IExCor= 1009 and IRadAn=       4 diagonalized for initial guess.
 HarFok:  IExCor= 1009 AccDes= 0.00D+00 IRadAn=         4 IDoV= 1 UseB2=F ITyADJ=14
 ICtDFT=  3500011 ScaDFX=  1.000000  1.000000  1.000000  1.000000
 FoFCou: FMM=F IPFlag=           0 FMFlag=      100000 FMFlg1=           0
         NFxFlg=           0 DoJE=T BraDBF=F KetDBF=T FulRan=T
         wScrn=  0.000000 ICntrl=     500 IOpCl=  0 I1Cent=   200000004 NGrid=           0
         NMat0=    1 NMatS0=      1 NMatT0=    0 NMatD0=    1 NMtDS0=    0 NMtDT0=    0
 Petite list used in FoFCou.
 Keep J ints in memory in canonical form, NReq=274797245.
 Requested convergence on RMS density matrix=1.00D-08 within 128 cycles.
 Requested convergence on MAX density matrix=1.00D-06.
 Requested convergence on             energy=1.00D-06.
 No special actions if energy rises.
 SCF Done:  E(RPBE-PBE) =  -511.570936668     A.U. after   12 cycles
            NFock= 12  Conv=0.19D-08     -V/T= 2.0094
 Calling FoFJK, ICntrl=      2527 FMM=F ISym2X=0 I1Cent= 0 IOpClX= 0 NMat=1 NMatS=1 NMatT=0.
 ***** Axes restored to original set *****
 -------------------------------------------------------------------
 Center     Atomic                   Forces (Hartrees/Bohr)
 Number     Number              X              Y              Z
 -------------------------------------------------------------------
      1        7          -0.000275612    0.000153256    0.000016538
      2        6          -0.000438816    0.000068653   -0.000010747
      3        6           0.000188845   -0.000189499    0.000000044
      4        6           0.000137961   -0.000083948   -0.000005780
      5        6           0.000034070   -0.000112592    0.000013659
      6        6           0.000429987    0.000730904    0.000056862
      7        6          -0.000827857   -0.000116778   -0.000214868
      8        8          -0.000891958    0.000548814    0.000092992
      9        8           0.000553556    0.000120613    0.000062451
     10        8           0.000743729   -0.000888356    0.000009554
     11        1           0.000208443    0.000404801   -0.000001015
     12        1           0.000479623   -0.000021573    0.000001933
     13        1           0.000230931   -0.000389429    0.000000093
     14        1          -0.000621254    0.000124376    0.000000678
     15        1           0.000048353   -0.000349243   -0.000022393
 -------------------------------------------------------------------
 Cartesian Forces:  Max     0.000891958 RMS     0.000359570

 GradGradGradGradGradGradGradGradGradGradGradGradGradGradGradGradGradGrad
 Berny optimization.
 Using GEDIIS/GDIIS optimizer.
 FormGI is forming the generalized inverse of G from B-inverse, IUseBI=4.
 Internal  Forces:  Max     0.002830636 RMS     0.000765882
 Search for a local minimum.
 Step number   3 out of a maximum of   74
 All quantities printed in internal units (Hartrees-Bohrs-Radians)
 Mixed Optimization -- En-DIIS/RFO-DIIS
 Swapping is turned off.
 Update second derivatives using D2CorX and points    1    2    3
 DE= -5.90D-05 DEPred=-8.48D-05 R= 6.96D-01
 TightC=F SS=  1.41D+00  RLast= 2.30D-02 DXNew= 5.0454D-01 6.9061D-02
 Trust test= 6.96D-01 RLast= 2.30D-02 DXMaxT set to 3.00D-01
 ITU=  1  1  0
     Eigenvalues ---    0.01051   0.01537   0.01703   0.01946   0.02057
     Eigenvalues ---    0.02100   0.02140   0.02171   0.02232   0.02432
     Eigenvalues ---    0.02454   0.02523   0.13849   0.16000   0.16000
     Eigenvalues ---    0.16002   0.16150   0.19020   0.22102   0.23535
     Eigenvalues ---    0.24975   0.25000   0.25066   0.30237   0.34217
     Eigenvalues ---    0.35221   0.35357   0.36595   0.41244   0.43353
     Eigenvalues ---    0.44841   0.47306   0.52646   0.55265   0.56200
     Eigenvalues ---    0.58012   0.60222   0.66710   0.85840
 En-DIIS/RFO-DIIS IScMMF=        0 using points:     3    2
 RFO step:  Lambda=-5.36337993D-05.
 DidBck=T Rises=F RFO-DIIS coefs:    0.75939    0.24061
 Iteration  1 RMS(Cart)=  0.00940846 RMS(Int)=  0.00003167
 Iteration  2 RMS(Cart)=  0.00005014 RMS(Int)=  0.00000077
 Iteration  3 RMS(Cart)=  0.00000000 RMS(Int)=  0.00000077
 Variable       Old X    -DE/DX   Delta X   Delta X   Delta X     New X
                                 (Linear)    (Quad)   (Total)
    R1        2.52251  -0.00012  -0.00030   0.00096   0.00066   2.52318
    R2        2.55646  -0.00024  -0.00028   0.00059   0.00031   2.55677
    R3        2.67295  -0.00044   0.00018  -0.00090  -0.00073   2.67222
    R4        2.07162  -0.00046  -0.00019  -0.00021  -0.00039   2.07123
    R5        2.62868  -0.00022   0.00012  -0.00039  -0.00027   2.62842
    R6        2.06890  -0.00048  -0.00024  -0.00012  -0.00036   2.06854
    R7        2.66947  -0.00067  -0.00013  -0.00064  -0.00077   2.66869
    R8        2.06684  -0.00045  -0.00023  -0.00009  -0.00032   2.06651
    R9        2.69998  -0.00226  -0.00152   0.00013  -0.00139   2.69859
   R10        2.54334  -0.00075  -0.00012  -0.00060  -0.00072   2.54262
   R11        2.79409  -0.00177   0.00094  -0.00641  -0.00547   2.78862
   R12        2.35873  -0.00000  -0.00121   0.00359   0.00239   2.36112
   R13        2.54440  -0.00024  -0.00060   0.00157   0.00096   2.54536
   R14        1.85653  -0.00059  -0.00089   0.00179   0.00090   1.85742
   R15        1.89955   0.00012  -0.00318   0.00908   0.00589   1.90544
    A1        2.06114  -0.00062   0.00094  -0.00450  -0.00356   2.05758
    A2        2.14831  -0.00010  -0.00062   0.00169   0.00106   2.14937
    A3        2.03003   0.00004   0.00059  -0.00165  -0.00105   2.02898
    A4        2.10485   0.00006   0.00003  -0.00004  -0.00001   2.10483
    A5        2.08243   0.00010  -0.00022   0.00125   0.00103   2.08346
    A6        2.09635  -0.00010   0.00009  -0.00080  -0.00071   2.09565
    A7        2.10441  -0.00000   0.00013  -0.00046  -0.00033   2.10408
    A8        2.07234  -0.00034  -0.00005  -0.00110  -0.00115   2.07118
    A9        2.13667   0.00018   0.00004   0.00054   0.00058   2.13725
   A10        2.07418   0.00017   0.00001   0.00056   0.00057   2.07475
   A11        2.05286   0.00024   0.00054  -0.00096  -0.00042   2.05244
   A12        2.07295   0.00182   0.00041   0.00481   0.00521   2.07816
   A13        2.15738  -0.00206  -0.00095  -0.00385  -0.00480   2.15258
   A14        2.14930   0.00072  -0.00058   0.00362   0.00303   2.15233
   A15        2.06911   0.00211   0.00156   0.00264   0.00420   2.07331
   A16        2.06477  -0.00283  -0.00097  -0.00626  -0.00723   2.05754
   A17        2.14489  -0.00182  -0.00122  -0.00243  -0.00365   2.14124
   A18        2.01560   0.00118  -0.00085   0.00583   0.00498   2.02058
   A19        2.12269   0.00064   0.00207  -0.00340  -0.00133   2.12136
   A20        1.84595  -0.00044   0.00076  -0.00439  -0.00363   1.84232
   A21        1.84968  -0.00064  -0.00024  -0.00297  -0.00321   1.84647
    D1        0.00005  -0.00000  -0.00001  -0.00013  -0.00015  -0.00010
    D2       -3.14157  -0.00000  -0.00001  -0.00004  -0.00005   3.14156
    D3       -0.00003   0.00000   0.00001   0.00005   0.00006   0.00003
    D4        3.14158  -0.00000   0.00001  -0.00010  -0.00009   3.14148
    D5       -0.00003   0.00000   0.00001   0.00011   0.00012   0.00009
    D6        3.14156   0.00000   0.00001   0.00007   0.00008  -3.14154
    D7        3.14159   0.00000   0.00000   0.00002   0.00002  -3.14158
    D8       -0.00000  -0.00000   0.00000  -0.00002  -0.00002  -0.00002
    D9        0.00000  -0.00000  -0.00000  -0.00000  -0.00000  -0.00000
   D10       -3.14157  -0.00000  -0.00000  -0.00010  -0.00010   3.14151
   D11        3.14159   0.00000  -0.00000   0.00004   0.00003  -3.14156
   D12        0.00002  -0.00000  -0.00000  -0.00006  -0.00007  -0.00005
   D13        0.00001  -0.00000  -0.00000  -0.00007  -0.00007  -0.00006
   D14       -3.14152  -0.00001  -0.00002  -0.00031  -0.00032   3.14134
   D15        3.14159   0.00000   0.00000   0.00002   0.00003  -3.14157
   D16        0.00005  -0.00001  -0.00001  -0.00021  -0.00023  -0.00017
   D17        0.00001   0.00000  -0.00000   0.00005   0.00005   0.00005
   D18        3.14158   0.00000  -0.00000   0.00020   0.00020  -3.14140
   D19        3.14153   0.00001   0.00001   0.00030   0.00031  -3.14134
   D20       -0.00008   0.00001   0.00002   0.00045   0.00047   0.00039
   D21        3.14143   0.00002   0.00003   0.00071   0.00074  -3.14101
   D22       -0.00010   0.00002   0.00001   0.00046   0.00048   0.00038
   D23        3.14059   0.00007   0.00032   0.00279   0.00311  -3.13949
   D24        0.00068  -0.00004  -0.00021  -0.00138  -0.00159  -0.00091
   D25       -0.00099   0.00006   0.00031   0.00264   0.00296   0.00197
   D26       -3.14089  -0.00005  -0.00022  -0.00153  -0.00174   3.14055
   D27        3.14076   0.00005   0.00026   0.00206   0.00232  -3.14010
   D28        0.00083  -0.00005  -0.00026  -0.00206  -0.00232  -0.00149
         Item               Value     Threshold  Converged?
 Maximum Force            0.002831     0.000450     NO 
 RMS     Force            0.000766     0.000300     NO 
 Maximum Displacement     0.037549     0.001800     NO 
 RMS     Displacement     0.009437     0.001200     NO 
 Predicted change in Energy=-4.214769D-05
 GradGradGradGradGradGradGradGradGradGradGradGradGradGradGradGradGradGrad

                          Input orientation:                          
 ---------------------------------------------------------------------
 Center     Atomic      Atomic             Coordinates (Angstroms)
 Number     Number       Type             X           Y           Z
 ---------------------------------------------------------------------
      1          7           0       -0.440308   -1.469548   -0.000629
      2          6           0       -1.775369   -1.489315   -0.000255
      3          6           0       -2.566077   -0.316965    0.000291
      4          6           0       -1.942673    0.926403    0.000347
      5          6           0       -0.531357    0.976715   -0.000144
      6          6           0        0.174829   -0.264486   -0.000595
      7          6           0        1.649816   -0.219437   -0.000861
      8          8           0        2.292111    0.852278    0.001364
      9          8           0        2.272186   -1.413975   -0.000016
     10          8           0        0.080072    2.175259   -0.000391
     11          1           0       -2.245565   -2.479384   -0.000321
     12          1           0       -3.658133   -0.391921    0.000632
     13          1           0       -2.504524    1.864582    0.000680
     14          1           0        3.233744   -1.210236    0.001083
     15          1           0        1.069072    1.978836   -0.001291
 ---------------------------------------------------------------------
                    Distance matrix (angstroms):
                    1          2          3          4          5
     1  N    0.000000
     2  C    1.335207   0.000000
     3  C    2.418127   1.414080   0.000000
     4  C    2.828018   2.421505   1.390898   0.000000
     5  C    2.447957   2.762041   2.411160   1.412212   0.000000
     6  C    1.352986   2.302929   2.741409   2.429410   1.428033
     7  C    2.435446   3.653010   4.217020   3.770799   2.487628
     8  O    3.585666   4.693342   4.996911   4.235433   2.826210
     9  O    2.713063   4.048256   4.961070   4.821037   3.684460
    10  O    3.681768   4.107526   3.635009   2.377213   1.345494
    11  H    2.068506   1.096047   2.186043   3.419229   3.857865
    12  H    3.393475   2.179237   1.094625   2.163512   3.413194
    13  H    3.921405   3.432244   2.182416   1.093552   2.163723
    14  H    3.683192   5.016882   5.868207   5.600046   4.354164
    15  H    3.764251   4.485412   4.299420   3.190333   1.888286
                    6          7          8          9         10
     6  C    0.000000
     7  C    1.475674   0.000000
     8  O    2.393752   1.249449   0.000000
     9  O    2.391700   1.346946   2.266341   0.000000
    10  O    2.441584   2.863331   2.577479   4.205706   0.000000
    11  H    3.280866   4.503481   5.629429   4.641677   5.203296
    12  H    3.835080   5.310750   6.078933   6.017746   4.534820
    13  H    3.422260   4.647760   4.902292   5.793608   2.603202
    14  H    3.201782   1.868292   2.267297   0.982907   4.626794
    15  H    2.414987   2.273691   1.662818   3.599812   1.008317
                   11         12         13         14         15
    11  H    0.000000
    12  H    2.520486   0.000000
    13  H    4.351678   2.534289   0.000000
    14  H    5.624372   6.940288   6.510163   0.000000
    15  H    5.555406   5.288380   3.575422   3.854347   0.000000
 Stoichiometry    C6H5NO3
 Framework group  C1[X(C6H5NO3)]
 Deg. of freedom    39
 Full point group                 C1      NOp   1
 Largest Abelian subgroup         C1      NOp   1
 Largest concise Abelian subgroup C1      NOp   1
                         Standard orientation:                         
 ---------------------------------------------------------------------
 Center     Atomic      Atomic             Coordinates (Angstroms)
 Number     Number       Type             X           Y           Z
 ---------------------------------------------------------------------
      1          7           0        0.451327   -1.467145    0.000584
      2          6           0        1.786497   -1.477178    0.000209
      3          6           0        2.568637   -0.299095   -0.000336
      4          6           0        1.936185    0.939696   -0.000393
      5          6           0        0.524540    0.979717    0.000099
      6          6           0       -0.172579   -0.266598    0.000550
      7          6           0       -1.647855   -0.232304    0.000816
      8          8           0       -2.297946    0.834700   -0.001409
      9          8           0       -2.261500   -1.431347   -0.000029
     10          8           0       -0.095611    2.173772    0.000345
     11          1           0        2.263898   -2.463792    0.000275
     12          1           0        3.661210   -0.366087   -0.000677
     13          1           0        2.491181    1.881946   -0.000725
     14          1           0       -3.224518   -1.234624   -0.001128
     15          1           0       -1.083153    1.970144    0.001246
 ---------------------------------------------------------------------
 Rotational constants (GHZ):      2.3421189      1.2495726      0.8148384
 Standard basis: 6-31+G(d,p) (6D, 7F)
 There are   215 symmetry adapted cartesian basis functions of A   symmetry.
 There are   215 symmetry adapted basis functions of A   symmetry.
   215 basis functions,   355 primitive gaussians,   215 cartesian basis functions
    36 alpha electrons       36 beta electrons
       nuclear repulsion energy       504.6858438248 Hartrees.
 NAtoms=   15 NActive=   15 NUniq=   15 SFac= 1.00D+00 NAtFMM=   60 NAOKFM=F Big=F
 Integral buffers will be    131072 words long.
 Raffenetti 2 integral format.
 Two-electron integral symmetry is turned on.
 Nuclear repulsion after empirical dispersion term =      504.6701743630 Hartrees.
 One-electron integrals computed using PRISM.
 NBasis=   215 RedAO= T EigKep=  6.14D-06  NBF=   215
 NBsUse=   215 1.00D-06 EigRej= -1.00D+00 NBFU=   215
 Initial guess from the checkpoint file:  "pbe3HPAgd3.chk"
 B after Tr=    -0.000000   -0.000000   -0.000000
         Rot=    0.999998    0.000071    0.000035   -0.001914 Ang=   0.22 deg.
 ExpMin= 4.38D-02 ExpMax= 5.48D+03 ExpMxC= 8.25D+02 IAcc=2 IRadAn=         4 AccDes= 0.00D+00
 Harris functional with IExCor= 1009 and IRadAn=       4 diagonalized for initial guess.
 HarFok:  IExCor= 1009 AccDes= 0.00D+00 IRadAn=         4 IDoV= 1 UseB2=F ITyADJ=14
 ICtDFT=  3500011 ScaDFX=  1.000000  1.000000  1.000000  1.000000
 FoFCou: FMM=F IPFlag=           0 FMFlag=      100000 FMFlg1=           0
         NFxFlg=           0 DoJE=T BraDBF=F KetDBF=T FulRan=T
         wScrn=  0.000000 ICntrl=     500 IOpCl=  0 I1Cent=   200000004 NGrid=           0
         NMat0=    1 NMatS0=      1 NMatT0=    0 NMatD0=    1 NMtDS0=    0 NMtDT0=    0
 Petite list used in FoFCou.
 Keep J ints in memory in canonical form, NReq=274797245.
 Requested convergence on RMS density matrix=1.00D-08 within 128 cycles.
 Requested convergence on MAX density matrix=1.00D-06.
 Requested convergence on             energy=1.00D-06.
 No special actions if energy rises.
 SCF Done:  E(RPBE-PBE) =  -511.570960693     A.U. after   12 cycles
            NFock= 12  Conv=0.33D-08     -V/T= 2.0094
 Calling FoFJK, ICntrl=      2527 FMM=F ISym2X=0 I1Cent= 0 IOpClX= 0 NMat=1 NMatS=1 NMatT=0.
 ***** Axes restored to original set *****
 -------------------------------------------------------------------
 Center     Atomic                   Forces (Hartrees/Bohr)
 Number     Number              X              Y              Z
 -------------------------------------------------------------------
      1        7          -0.000576445    0.000487522   -0.000029494
      2        6           0.000080649   -0.000533800    0.000019554
      3        6          -0.000005983    0.000111819    0.000000315
      4        6          -0.000160780    0.000104358    0.000009631
      5        6           0.000459271    0.000988977   -0.000033470
      6        6           0.000426936    0.000257601   -0.000095418
      7        6           0.000297515   -0.000662565    0.000380321
      8        8           0.000298777   -0.000627915   -0.000183016
      9        8           0.000609287    0.001167142   -0.000106544
     10        8          -0.000626923   -0.000818453   -0.000029408
     11        1           0.000085758    0.000312008    0.000001238
     12        1           0.000347426   -0.000037699   -0.000002600
     13        1           0.000129563   -0.000324063    0.000000297
     14        1          -0.000848668   -0.000276158   -0.000000763
     15        1          -0.000516382   -0.000148774    0.000069358
 -------------------------------------------------------------------
 Cartesian Forces:  Max     0.001167142 RMS     0.000416237

 GradGradGradGradGradGradGradGradGradGradGradGradGradGradGradGradGradGrad
 Berny optimization.
 Using GEDIIS/GDIIS optimizer.
 FormGI is forming the generalized inverse of G from B-inverse, IUseBI=4.
 Internal  Forces:  Max     0.001450200 RMS     0.000405019
 Search for a local minimum.
 Step number   4 out of a maximum of   74
 All quantities printed in internal units (Hartrees-Bohrs-Radians)
 Mixed Optimization -- En-DIIS/RFO-DIIS
 Swapping is turned off.
 Update second derivatives using D2CorX and points    1    2    3    4
 DE= -2.40D-05 DEPred=-4.21D-05 R= 5.70D-01
 TightC=F SS=  1.41D+00  RLast= 1.80D-02 DXNew= 5.0454D-01 5.4015D-02
 Trust test= 5.70D-01 RLast= 1.80D-02 DXMaxT set to 3.00D-01
 ITU=  1  1  1  0
     Eigenvalues ---    0.01052   0.01566   0.01704   0.01947   0.02058
     Eigenvalues ---    0.02100   0.02140   0.02171   0.02232   0.02431
     Eigenvalues ---    0.02456   0.02523   0.12684   0.16000   0.16001
     Eigenvalues ---    0.16005   0.16212   0.21690   0.22437   0.23484
     Eigenvalues ---    0.24984   0.25013   0.25912   0.31957   0.34970
     Eigenvalues ---    0.35217   0.35353   0.35893   0.41971   0.43268
     Eigenvalues ---    0.44104   0.47158   0.53220   0.54761   0.57329
     Eigenvalues ---    0.58757   0.60846   0.73058   0.84014
 En-DIIS/RFO-DIIS IScMMF=        0 using points:     4    3    2
 RFO step:  Lambda=-1.40302538D-05.
 DidBck=T Rises=F RFO-DIIS coefs:    0.68730    0.26267    0.05003
 Iteration  1 RMS(Cart)=  0.00285648 RMS(Int)=  0.00000618
 Iteration  2 RMS(Cart)=  0.00000752 RMS(Int)=  0.00000192
 Iteration  3 RMS(Cart)=  0.00000000 RMS(Int)=  0.00000192
 Variable       Old X    -DE/DX   Delta X   Delta X   Delta X     New X
                                 (Linear)    (Quad)   (Total)
    R1        2.52318  -0.00046  -0.00027  -0.00039  -0.00066   2.52251
    R2        2.55677  -0.00002  -0.00016  -0.00001  -0.00017   2.55661
    R3        2.67222  -0.00033   0.00026  -0.00086  -0.00060   2.67162
    R4        2.07123  -0.00032   0.00008  -0.00089  -0.00081   2.07042
    R5        2.62842  -0.00026   0.00011  -0.00053  -0.00042   2.62800
    R6        2.06854  -0.00034   0.00006  -0.00092  -0.00086   2.06768
    R7        2.66869  -0.00001   0.00022  -0.00041  -0.00019   2.66850
    R8        2.06651  -0.00034   0.00005  -0.00090  -0.00085   2.06567
    R9        2.69859   0.00040   0.00012  -0.00036  -0.00024   2.69835
   R10        2.54262  -0.00138   0.00020  -0.00194  -0.00174   2.54088
   R11        2.78862   0.00034   0.00191  -0.00146   0.00045   2.78907
   R12        2.36112  -0.00039  -0.00100   0.00032  -0.00068   2.36044
   R13        2.54536  -0.00089  -0.00043  -0.00082  -0.00124   2.54411
   R14        1.85742  -0.00089  -0.00047  -0.00101  -0.00147   1.85595
   R15        1.90544  -0.00047  -0.00250   0.00099  -0.00151   1.90393
    A1        2.05758   0.00064   0.00131   0.00041   0.00172   2.05931
    A2        2.14937  -0.00022  -0.00046  -0.00049  -0.00095   2.14842
    A3        2.02898   0.00018   0.00045   0.00036   0.00081   2.02979
    A4        2.10483   0.00004   0.00001   0.00012   0.00013   2.10497
    A5        2.08346   0.00006  -0.00037   0.00044   0.00007   2.08353
[...]
 ! R13   R(7,9)                  1.3459         -DE/DX =    0.0                 !
 ! R14   R(9,14)                 0.9817         -DE/DX =    0.0001              !
 ! R15   R(10,15)                1.0074         -DE/DX =   -0.0001              !
 ! A1    A(2,1,6)              118.0289         -DE/DX =    0.0                 !
 ! A2    A(1,2,3)              123.0661         -DE/DX =    0.0                 !
 ! A3    A(1,2,11)             116.3207         -DE/DX =    0.0                 !
 ! A4    A(3,2,11)             120.6131         -DE/DX =    0.0                 !
 ! A5    A(2,3,4)              119.3845         -DE/DX =    0.0                 !
 ! A6    A(2,3,12)             120.0466         -DE/DX =    0.0                 !
 ! A7    A(4,3,12)             120.5689         -DE/DX =    0.0                 !
 ! A8    A(3,4,5)              118.7067         -DE/DX =    0.0                 !
 ! A9    A(3,4,13)             122.4158         -DE/DX =    0.0                 !
 ! A10   A(5,4,13)             118.8775         -DE/DX =    0.0                 !
 ! A11   A(4,5,6)              117.5847         -DE/DX =    0.0                 !
 ! A12   A(4,5,10)             119.0512         -DE/DX =    0.0                 !
 ! A13   A(6,5,10)             123.3642         -DE/DX =    0.0                 !
 ! A14   A(1,6,5)              123.2291         -DE/DX =    0.0                 !
 ! A15   A(1,6,7)              118.7098         -DE/DX =    0.0                 !
 ! A16   A(5,6,7)              118.0611         -DE/DX =   -0.0001              !
 ! A17   A(6,7,8)              122.7093         -DE/DX =    0.0                 !
 ! A18   A(6,7,9)              115.7681         -DE/DX =    0.0                 !
 ! A19   A(8,7,9)              121.5226         -DE/DX =    0.0                 !
 ! A20   A(7,9,14)             105.6418         -DE/DX =    0.0                 !
 ! A21   A(5,10,15)            105.7808         -DE/DX =   -0.0001              !
 ! D1    D(6,1,2,3)              0.001          -DE/DX =    0.0                 !
 ! D2    D(6,1,2,11)          -180.0001         -DE/DX =    0.0                 !
 ! D3    D(2,1,6,5)              0.0013         -DE/DX =    0.0                 !
 ! D4    D(2,1,6,7)            180.0066         -DE/DX =    0.0                 !
 ! D5    D(1,2,3,4)             -0.0016         -DE/DX =    0.0                 !
 ! D6    D(1,2,3,12)           179.9996         -DE/DX =    0.0                 !
 ! D7    D(11,2,3,4)           179.9996         -DE/DX =    0.0                 !
 ! D8    D(11,2,3,12)            0.0009         -DE/DX =    0.0                 !
 ! D9    D(2,3,4,5)             -0.0002         -DE/DX =    0.0                 !
 ! D10   D(2,3,4,13)           180.0023         -DE/DX =    0.0                 !
 ! D11   D(12,3,4,5)          -180.0014         -DE/DX =    0.0                 !
 ! D12   D(12,3,4,13)            0.0011         -DE/DX =    0.0                 !
 ! D13   D(3,4,5,6)              0.0022         -DE/DX =    0.0                 !
 ! D14   D(3,4,5,10)          -179.994          -DE/DX =    0.0                 !
 ! D15   D(13,4,5,6)           179.9999         -DE/DX =    0.0                 !
 ! D16   D(13,4,5,10)            0.0036         -DE/DX =    0.0                 !
 ! D17   D(4,5,6,1)             -0.0029         -DE/DX =    0.0                 !
 ! D18   D(4,5,6,7)            179.9918         -DE/DX =    0.0                 !
 ! D19   D(10,5,6,1)           179.9931         -DE/DX =    0.0                 !
 ! D20   D(10,5,6,7)            -0.0122         -DE/DX =    0.0                 !
 ! D21   D(4,5,10,15)         -180.0148         -DE/DX =    0.0                 !
 ! D22   D(6,5,10,15)           -0.0108         -DE/DX =    0.0                 !
 ! D23   D(1,6,7,8)           -180.0169         -DE/DX =    0.0                 !
 ! D24   D(1,6,7,9)             -0.0124         -DE/DX =    0.0                 !
 ! D25   D(5,6,7,8)             -0.0118         -DE/DX =    0.0                 !
 ! D26   D(5,6,7,9)           -180.0073         -DE/DX =    0.0                 !
 ! D27   D(6,7,9,14)          -180.0019         -DE/DX =    0.0                 !
 ! D28   D(8,7,9,14)             0.0025         -DE/DX =    0.0                 !
 --------------------------------------------------------------------------------
 GradGradGradGradGradGradGradGradGradGradGradGradGradGradGradGradGradGrad

 1\1\ WCSS.PL-BEM-QINLAB\Freq\RPBEPBE\6-31+G(d,p)\C6H5N1O3\PHZD\20-Jun-
 2024\0\\#N Geom=AllCheck Guess=TCheck SCRF=Check GenChk RPBEPBE/6-31+G
 (d,p) Freq\\[No Title]\\0,1\N,-0.4398869452,-1.4667913994,0.0000601701
 \C,-1.7743384904,-1.4890320518,0.0000368341\C,-2.5653349398,-0.3172563
 374,-0.0000418537\C,-1.9428015535,0.9262109124,-0.0000648998\C,-0.5315
 660087,0.9782581084,-0.0000048359\C,0.1758654012,-0.2621611769,0.00002
 72518\C,1.6509632156,-0.2200380391,-0.0000970249\O,2.2956686637,0.8498
 166447,-0.0004441567\O,2.2704117327,-1.4148796243,0.0000941765\O,0.077
 4154606,2.1766031863,0.000096866\H,-2.2436317203,-2.4788807052,0.00006
 23019\H,-3.656738565,-0.3930846645,-0.000063816\H,-2.5055433862,1.8631
 528886,-0.0000880173\H,3.2315349622,-1.214754368,-0.0000532459\H,1.065
 8071729,1.9816446263,0.0003742497\\Version=ES64L-G09RevE.01\State=1-A\
 HF=-511.5709714\RMSD=4.236e-09\RMSF=4.576e-05\ZeroPoint=0.1053361\Ther
 mal=0.1131848\Dipole=-0.446445,-0.1446566,0.0002598\DipoleDeriv=0.0798
 489,-0.0446879,0.0000102,0.4093782,-0.3730535,0.0000038,-0.0000566,0.0
 000174,-0.2301765,-0.2756563,0.0842788,0.0000082,0.2465962,0.2596482,-
 0.0000139,-0.0000101,-0.0000119,-0.0378772,0.1628494,0.0616888,0.00000
 58,-0.3019177,0.0751806,0.0000038,0.0000095,0.0000056,-0.0749548,0.007
 7851,-0.3877112,-0.0000105,0.0047768,-0.0100149,-0.0000093,0.0000026,-
 0.0000467,-0.1424617,0.2827892,0.6210099,0.0000506,0.404881,1.0487524,
 0.0001156,0.0000493,0.0001189,0.1413185,-0.616207,0.2840327,0.0000213,
 -0.3640568,-0.1221268,-0.0000214,0.000056,0.0000108,0.0466616,2.050733
 9,-0.2794847,-0.0000693,-0.223508,1.5123041,-0.0003006,-0.0000786,-0.0
 002863,0.2416901,-1.0937318,-0.2312738,0.0001188,-0.2332098,-0.954049,
 0.0001125,0.0002126,0.0001084,-0.3317075,-0.8030487,0.5514139,-0.00009
 89,0.6536444,-0.9432185,0.0001005,-0.0001067,0.0000763,-0.3077801,-0.6
 594979,-0.4357119,0.0000062,-0.3104163,-1.1568933,-0.0001165,-0.000024
 ,-0.0001005,-0.3053709,0.0026979,-0.0619215,0.0000017,-0.0899565,-0.05
 97753,0.000005,0.000006,-0.0000042,0.1178795,-0.087766,-0.0147381,-0.0
 000059,-0.0164257,0.0851753,0.,-0.0000076,0.0000132,0.1293075,0.059160
 5,0.0361824,-0.0000033,0.0517559,-0.0074668,0.0000041,-0.0000021,-0.00
 00151,0.1412773,0.304274,-0.0882886,0.0000252,-0.1370352,0.2700012,0.0
 000297,0.0000495,0.0000185,0.3308095,0.5857689,-0.0947888,-0.0000603,-
 0.0945066,0.3755362,0.0000869,-0.0001,0.0000957,0.2813848\Polar=127.58
 29208,2.823694,102.4619014,-0.001256,-0.0020773,47.9209816\PG=C01 [X(C
 6H5N1O3)]\NImag=0\\0.60465805,0.11244084,0.42182855,0.00000446,-0.0000
 0932,0.08871077,-0.36112380,-0.00208225,-0.00000770,0.66384809,-0.0141
 6318,-0.10494946,0.00000180,0.05154446,0.69626607,-0.00000573,0.000000
 41,-0.05869912,0.00001192,-0.00002273,0.13365512,-0.05181845,0.0213282
 0,-0.00000222,-0.16397998,0.10599830,-0.00000820,0.71034369,0.07443760
 ,0.03316595,-0.00000047,0.04719235,-0.24901533,0.00001137,0.03194568,0
 .64828964,-0.00000321,0.00000085,0.02181761,-0.00000710,0.00001295,-0.
 06245308,0.00001553,-0.00002066,0.12297425,-0.04133834,-0.02416712,0.0
 0000150,0.05577705,-0.01044572,0.00000073,-0.16936841,-0.07486288,0.00
 000126,0.64988015,-0.02886611,-0.01185490,0.00000004,0.02220997,-0.052
 46241,0.00000272,-0.12439373,-0.31913817,0.00000626,-0.00924506,0.7393
 3698,-0.00000025,-0.00000014,-0.00563093,0.00000057,0.00000117,0.00698
 774,0.00000195,0.00000525,-0.05083208,0.00002084,-0.00000906,0.1159835
 2,0.06141164,0.01866736,-0.00000029,-0.04667082,0.01968043,-0.00000131
 ,-0.01460014,-0.06647985,0.00000056,-0.30432075,0.04208166,-0.00001369
 ,0.68697365,-0.02154127,-0.05930124,0.00000070,0.02636653,-0.00570388,
 -0.00000012,-0.03711096,0.01923398,-0.00000203,-0.00839008,-0.11238805
 ,0.00000238,0.03621801,0.65423538,0.00000206,0.00000269,0.01335431,-0.
 00000113,0.00000071,-0.00807067,-0.00000003,-0.00000146,-0.00280375,-0
 .00001357,0.00000278,-0.06246453,0.00003881,0.00001451,0.15106825,-0.1
 2935029,-0.07441049,-0.00000073,-0.06600567,-0.03791704,-0.00000085,0.
 00172383,-0.01623274,0.00000003,-0.01399307,0.02570993,-0.00000027,-0.
 17509869,0.07966470,-0.00000266,0.61579463,-0.08300028,-0.27290769,0.0
 0000357,-0.06687091,-0.00177798,0.00000129,0.01413928,-0.04671840,0.00
 000123,0.04765761,0.02820875,0.00000048,0.04368685,-0.20551453,0.00000
 086,0.02277645,0.64625717,0.00000027,0.00000583,-0.05631798,0.00000259
 ,-0.00000071,0.00500276,-0.00000099,0.00000170,-0.00770299,-0.00000278
 ,-0.00000104,0.00772362,0.00000166,0.00000490,-0.06359079,-0.00001609,
 -0.00001638,0.13159751,-0.04086001,-0.03364728,0.00000368,0.02247626,-
 0.00636877,0.00000194,-0.00101245,0.01358802,-0.00000011,-0.00806741,-
 0.00127955,0.00000043,-0.00782547,0.04045132,0.00000199,-0.19424423,0.
 01263535,0.00000528,0.67939618,-0.03447489,-0.00571919,0.00000128,-0.0
 0508054,-0.00634199,0.00000063,-0.00002822,-0.00119080,0.00000012,0.00
 197685,-0.00639525,0.00000098,0.03477301,0.02331559,-0.00000102,0.0246
 9903,-0.08647248,-0.00000491,0.08964576,0.78072574,-0.00000007,0.00000
 189,-0.01248901,-0.00000174,0.00000073,0.01200784,0.00000013,-0.000001
 44,0.00030819,0.00000089,0.00000138,0.00615970,-0.00000528,-0.00000784
 ,0.00013673,0.00001364,-0.00000370,-0.06984862,-0.00007927,-0.00013191
 ,0.18824108,-0.00487257,0.00348497,0.00000137,-0.00511565,-0.00018425,
 -0.00000098,0.00011803,-0.00305424,-0.00000004,0.00134102,-0.00059327,
 0.00000055,0.00141917,-0.00193828,0.00000195,-0.02337736,-0.04026406,0
 .00001386,-0.25064952,-0.21399182,0.00007759,0.27358385,0.00373336,0.0
 0697240,-0.00000024,-0.00719640,0.00355647,-0.00000115,0.00063721,-0.0
 0648374,0.00000010,0.00600891,0.00392317,-0.00000031,-0.00980313,-0.03
 010507,-0.00000265,-0.03730753,-0.00758293,0.00001138,-0.19755547,-0.4
 3265063,0.00010871,0.24274087,0.53600200,0.00000335,0.00000004,0.00599
 661,-0.00000057,0.00000077,-0.00255149,-0.00000007,-0.00000102,0.00008
 850,0.00000213,0.00000155,-0.00073307,-0.00000278,-0.00000302,0.000498
 94,0.00000382,0.00001033,0.01623686,0.00008739,0.00012102,-0.06743786,
 -0.00009271,-0.00015731,0.03466727,0.00107597,0.00362184,-0.00000093,-
 0.00326193,0.00201487,0.00000026,-0.00005983,-0.00199770,0.00000020,0.
 00040364,0.00245126,0.,-0.00727625,-0.00940102,0.00000005,-0.03157237,
 0.04057463,-0.00000400,-0.16228448,0.09691091,-0.00000804,0.03368737,-
 0.01008786,-0.00000168,0.60375606,-0.00521858,-0.00129818,0.00000129,0
 .00461951,-0.00057203,-0.00000009,-0.00049269,0.00207542,-0.00000018,-
 0.00045751,0.00078818,0.00000005,-0.00319609,-0.00132289,0.00000022,0.
 01651134,-0.00360152,0.00000086,0.06023536,-0.24123938,0.00003094,0.01
 077166,-0.09623517,0.00002160,-0.01152323,0.39688205,0.00000108,0.0000
 0058,0.00162345,0.00000016,-0.00000018,-0.00137455,-0.00000005,0.00000
 030,-0.00013992,-0.00000034,-0.00000076,-0.00099461,0.00000183,0.00000
 143,0.00227331,-0.00000064,-0.00000077,0.00903944,-0.00000285,0.000024
 85,-0.05855720,-0.00000448,0.00003350,0.02423328,-0.00005750,-0.000077
 74,0.03750224,-0.01116765,-0.00285361,0.00000088,0.00956463,-0.0076807
 0,0.00000057,-0.00584456,0.01528122,-0.00000073,-0.03789409,-0.0584402
 9,-0.00000464,-0.14561039,-0.10503604,-0.00001801,0.02816876,0.0060473
 0,-0.00000159,-0.03456044,-0.02447363,0.00001170,-0.01615447,0.0477830
 3,0.00001224,0.00393872,0.00930870,-0.00000430,0.52842918,0.00109240,-
 0.00599753,0.00000070,0.00308987,-0.00448085,0.00000016,0.00370452,0.0
 0559496,-0.00000064,-0.02319507,-0.00598070,-0.00000512,-0.07548339,-0
 .29244949,-0.00000693,-0.00829909,-0.04363600,-0.00000360,-0.01889741,
 -0.00540064,0.00000353,0.01621422,0.00677300,-0.00000430,0.00304995,-0
 .00123055,0.00000001,0.04789701,0.40897583,-0.00000047,-0.00000196,0.0
 0700587,0.00000134,0.00000022,-0.00076263,-0.00000135,0.00000117,0.005
 85256,-0.00000416,-0.00000670,0.00561979,-0.00001921,-0.00002066,-0.04
 492896,0.00000004,0.00000017,0.00715772,-0.00000434,-0.00000091,0.0008
 7995,0.00000498,0.00000133,0.00452030,0.00000062,-0.00000131,-0.001130
 31,0.00011151,0.00000525,0.04016019,-0.02585899,-0.02968164,0.00000078
 ,-0.08965293,-0.09529345,0.00000224,0.00999301,0.01607405,-0.00000054,
 -0.00194258,0.00285414,-0.00000036,-0.00115479,0.00032744,-0.00000003,
 -0.00382231,-0.00103514,-0.00000035,0.00079965,-0.00114388,-0.00000022
 ,-0.00081037,-0.00023365,0.00000024,-0.00025086,0.00018074,0.,0.000375
 25,-0.00047673,0.,0.11153079,-0.00569077,0.00519711,-0.00000062,-0.096
 18727,-0.27936169,0.00000713,-0.01199812,-0.01682733,0.00000044,0.0038
 7958,-0.00237334,0.00000048,0.00090339,0.00014267,0.00000006,0.0017612
 8,0.00266787,0.00000032,0.00019702,0.00017698,0.00000008,-0.00011089,0
 .00001434,0.,-0.00016857,0.00003296,-0.00000003,-0.00014387,0.00005398
 ,-0.00000015,0.10798579,0.29081444,0.00000010,-0.00000128,-0.00652117,
 0.00000214,0.00000657,-0.03422680,0.00000071,0.00000208,0.00377827,-0.
 00000098,0.00000018,0.00523315,0.00000004,0.00000050,0.00094356,0.0000
 0040,0.00000015,0.01010106,-0.00000033,-0.00000017,0.00109166,-0.00000
 015,0.00000018,-0.00055703,0.,-0.00000003,0.00001525,-0.00000022,-0.00
 000024,-0.00164387,-0.00000200,-0.00000765,0.02388041,-0.00161826,0.00
 381448,-0.00000026,-0.01126170,-0.00647976,-0.00000010,-0.32645998,-0.
 01813792,-0.00000608,-0.00877796,0.00154243,-0.00000037,0.00180371,-0.
 00167097,-0.00000019,0.00159409,0.00069799,-0.00000003,-0.00008142,0.0
 0006062,0.00000002,-0.00018015,-0.00001669,0.00000012,-0.00012931,0.00
 005240,-0.00000002,-0.00092662,-0.00006756,-0.00000021,0.00040195,0.00
 024727,0.00000004,0.34457571,0.00469659,-0.00379799,0.00000053,0.02389
 111,0.00868058,0.00000046,-0.01734164,-0.05621867,0.00000054,-0.027714
 20,0.00222685,-0.00000040,-0.00088985,-0.00443175,0.00000043,-0.001215
 61,-0.00209051,0.00000011,0.00043937,-0.00015974,-0.00000009,-0.000039
 82,0.00020582,0.00000003,-0.00009494,0.00021646,-0.00000002,-0.0019281
 3,0.00024127,-0.00000036,-0.00059315,0.00038013,-0.00000018,0.02032866
 ,0.05418329,-0.00000058,0.00000086,0.00583424,-0.00000175,-0.00000058,
 0.00187897,-0.00000586,0.00000068,-0.03537437,0.00000064,-0.00000063,0
 .00360245,-0.00000014,0.00000017,0.00894758,0.00000041,0.00000008,-0.0
 0020923,-0.00000020,-0.00000014,-0.00223223,-0.00000004,0.00000014,0.0
 0039339,-0.00000006,0.,0.00038153,0.00000037,0.00000032,0.00014874,0.0
 0000012,-0.00000010,-0.00224277,0.00000683,-0.00000094,0.02365865,-0.0
 0067550,-0.00085274,0.00000018,-0.00071567,-0.00332015,-0.00000015,0.0
 1157905,-0.01308114,0.00000025,-0.12999142,0.12288587,-0.00000403,-0.0
 1092665,0.02832408,-0.00000092,-0.00508034,-0.00207749,-0.00000008,0.0
 0032529,0.00182269,-0.00000032,0.00014542,-0.00052661,-0.00000016,-0.0
 0078166,-0.00008631,0.00000012,0.00310424,-0.00036935,0.00000051,0.000
 47545,-0.00074206,0.00000013,0.00080764,0.00041030,0.00000015,0.132161
 20,-0.00027230,0.00026517,-0.00000010,-0.00455891,-0.00245026,0.000000
 06,0.01534768,-0.01671181,0.00000067,0.12452835,-0.25453396,0.00000528
 ,-0.00259693,0.00283578,-0.00000017,-0.00040761,0.00120350,-0.00000001
 ,-0.00062725,-0.00003197,0.00000016,0.00012447,0.00019941,-0.00000009,
 0.00003886,-0.00005104,0.00000002,0.00049746,0.00079892,0.00000015,0.0
 0087819,-0.00086626,0.00000010,-0.00008738,0.00101714,-0.00000004,-0.1
 3276599,0.26827378,-0.00000053,-0.00000067,-0.00332337,0.00000047,0.00
 000017,0.00847906,0.00000006,0.00000091,0.00316275,-0.00000505,0.00000
 387,-0.03423357,0.00000119,0.00000137,0.00575611,-0.00000044,0.0000001
 4,0.00576139,-0.00000032,0.00000001,-0.00054237,0.00000013,0.00000017,
 0.00002448,-0.00000011,0.00000004,0.00001162,0.00000021,0.00000014,-0.
 00314315,0.,0.,0.00005407,0.00000017,-0.00000011,-0.00433075,0.0000041
 9,-0.00000594,0.02274816,0.00034015,-0.00005788,0.00000014,0.00065590,
 -0.00038101,-0.00000002,0.00007385,0.00042078,-0.00000001,-0.00021299,
 0.00051016,-0.00000006,-0.00114176,-0.00091485,-0.00000011,0.00198923,
 0.00317691,0.00000049,-0.03571739,0.00486897,0.00000308,0.00343718,-0.
 00866917,0.00000026,-0.43443928,-0.06907571,0.00005970,0.00138403,-0.0
 0022849,-0.00000001,-0.00000258,0.00001699,-0.00000001,0.00002980,0.00
 000711,0.,-0.00010124,-0.00002320,0.,0.46524893,-0.00145199,0.00006842
 ,-0.00000013,-0.00000768,0.00038993,-0.00000010,-0.00020737,-0.0000712
 4,0.00000002,0.00010217,-0.00054699,-0.00000008,0.00172086,0.00125885,
 0.00000013,0.00116208,-0.00655192,0.00000203,0.05209361,0.00635090,-0.
 00000628,-0.00729252,0.00130671,0.00000030,-0.11580433,-0.06098652,0.0
 0002266,-0.00175821,0.00019778,0.00000005,-0.00005050,-0.00004223,0.,-
 0.00005386,0.00003165,0.,0.00014808,0.00001479,0.00000003,0.06957458,0
 .05976228,0.00000005,-0.00000017,-0.00036175,0.,0.00000005,0.00000469,
 0.00000004,0.00000004,0.00003690,-0.00000008,0.00000013,-0.00041101,-0
 .00000021,-0.00000025,0.00066382,0.,0.00000195,0.00491850,-0.00000627,
 -0.00000129,0.00374828,0.00000061,-0.00000084,-0.00588338,0.00007006,0
 .00001786,-0.01532415,0.00000056,-0.00000029,0.00001025,0.00000001,0.,
 0.00000769,0.,0.,-0.00002134,-0.00000003,0.,0.00003682,-0.00006396,-0.
 00001766,0.01263949,0.00119805,0.00439531,-0.00000084,-0.00453377,0.00
 299597,-0.00000032,-0.00068766,-0.00509325,0.,0.00850517,0.00257258,-0
 .00000066,-0.03698246,-0.02534860,-0.00000819,-0.00672623,0.00185549,0
 .00000177,0.03230543,0.02443514,-0.00001210,-0.01257194,-0.02950687,-0
 .00001158,-0.00280579,-0.01162960,0.00000728,-0.32280659,0.05196912,-0
 .00008924,-0.00008071,0.00005021,0.00000014,0.00022250,0.00004421,0.00
 000011,-0.00032579,-0.00007544,0.00000003,-0.00154382,0.00182509,-0.00
 000077,0.34683363,-0.00172143,-0.00167143,0.00000096,0.00307014,-0.001
 77717,-0.00000004,-0.00152814,0.00401554,0.00000033,-0.00567583,-0.008
 81018,-0.00000095,-0.03928233,0.01019467,-0.00001015,0.00350529,-0.001
 48334,-0.00000049,-0.01091007,-0.02496714,0.00000384,-0.00586705,0.014
 10420,0.00001008,0.00041532,0.00654221,-0.00000386,0.07549978,-0.06345
 998,0.00002371,0.00020777,-0.00000963,-0.00000019,-0.00022972,-0.00048
 453,0.00000017,0.00023081,0.00003682,-0.00000014,0.00077481,-0.0011824
 3,0.00000047,-0.01848936,0.06895239,-0.00000053,0.00000039,-0.00099952
 ,0.00000081,-0.00000093,0.00012217,0.00000035,0.00000155,0.00128716,-0
 .00000102,-0.00000070,0.00398984,-0.00000118,0.00000797,-0.00178390,0.
 00000336,0.00000059,0.00013075,-0.00000700,-0.00000855,-0.00146615,-0.
 00000263,0.00000697,-0.00949680,0.00000114,0.00000649,0.00244064,-0.00
 010854,0.00001100,-0.01974644,0.00000011,0.00000003,0.00008652,0.00000
 009,-0.00000002,-0.00043485,0.00000016,-0.00000008,-0.00046124,0.00000
 052,-0.00000098,-0.00006481,0.00011435,-0.00002374,0.02639663\\-0.0000
 1975,0.00003046,-0.00000082,-0.00009161,-0.00001934,0.00000102,0.00001
 367,-0.00003102,0.00000028,-0.00001214,0.00003805,-0.00000031,-0.00002
 482,0.00001356,-0.00000733,0.00007802,0.00006406,0.00000292,-0.0000510
 0,0.00003418,0.00000594,-0.00002581,-0.00008430,-0.00001642,0.00011379
 ,-0.00000395,0.00000075,-0.00008645,-0.00005258,-0.00001009,0.00001475
 ,0.00005591,-0.00000045,0.00006442,-0.00000306,0.00000053,0.00003716,-
 0.00004879,0.00000033,-0.00011100,-0.00001767,0.00000046,0.00010075,0.
 00002448,0.00002320\\\@


 ...THE PHYSICISTS HAVE MADE THEIR UNIVERSE, AND IF YOU DO NOT LIKE
 IT, YOU MUST MAKE YOUR OWN.
                               -- E. R. HARRISON IN "COSMOLOGY" (1980)
 Job cpu time:       0 days  0 hours 17 minutes 26.0 seconds.
 File lengths (MBytes):  RWF=     79 Int=      0 D2E=      0 Chk=      5 Scr=      1
 Normal termination of Gaussian 09 at Thu Jun 20 12:00:14 2024.
