 Entering Gaussian System, Link 0=g09
 Input=B2PLYPD3BJPNA.gjf
 Output=B2PLYPD3BJPNA.log
 Initial command:
 /home/c612/g09E/g09/l1.exe "/mnt/ja_sm883/scratch/Gau-1920306.inp" -scrdir="/mnt/ja_sm883/scratch/"
 Default is to use a total of  18 processors:
                               18 via shared-memory
                                1 via Linda
 Entering Link 1 = /home/c612/g09E/g09/l1.exe PID=   1920308.
  
 Copyright (c) 1988,1990,1992,1993,1995,1998,2003,2009,2015,
            Gaussian, Inc.  All Rights Reserved.
  
 This is part of the Gaussian(R) 09 program.  It is based on
 the Gaussian(R) 03 system (copyright 2003, Gaussian, Inc.),
 the Gaussian(R) 98 system (copyright 1998, Gaussian, Inc.),
 the Gaussian(R) 94 system (copyright 1995, Gaussian, Inc.),
 the Gaussian 92(TM) system (copyright 1992, Gaussian, Inc.),
 the Gaussian 90(TM) system (copyright 1990, Gaussian, Inc.),
 the Gaussian 88(TM) system (copyright 1988, Gaussian, Inc.),
 the Gaussian 86(TM) system (copyright 1986, Carnegie Mellon
 University), and the Gaussian 82(TM) system (copyright 1983,
 Carnegie Mellon University). Gaussian is a federally registered
 trademark of Gaussian, Inc.
  
 This software contains proprietary and confidential information,
 including trade secrets, belonging to Gaussian, Inc.
  
 This software is provided under written license and may be
 used, copied, transmitted, or stored only in accord with that
 written license.
  
 The following legend is applicable only to US Government
 contracts under FAR:
  
                    RESTRICTED RIGHTS LEGEND
  
 Use, reproduction and disclosure by the US Government is
 subject to restrictions as set forth in subparagraphs (a)
 and (c) of the Commercial Computer Software - Restricted
 Rights clause in FAR 52.227-19.
  
 Gaussian, Inc.
 340 Quinnipiac St., Bldg. 40, Wallingford CT 06492
  
  
 ---------------------------------------------------------------
 Warning -- This program may not be used in any manner that
 competes with the business of Gaussian, Inc. or will provide
 assistance to any competitor of Gaussian, Inc.  The licensee
 of this program is prohibited from giving any competitor of
 Gaussian, Inc. access to this program.  By using this program,
 the user acknowledges that Gaussian, Inc. is engaged in the
 business of creating and licensing software in the field of
 computational chemistry and represents and warrants to the
 licensee that it is not a competitor of Gaussian, Inc. and that
 it will not use this program in any manner prohibited above.
 ---------------------------------------------------------------
  

 Cite this work as:
 Gaussian 09, Revision E.01,
 M. J. Frisch, G. W. Trucks, H. B. Schlegel, G. E. Scuseria, 
 M. A. Robb, J. R. Cheeseman, G. Scalmani, V. Barone, B. Mennucci, 
 G. A. Petersson, H. Nakatsuji, M. Caricato, X. Li, H. P. Hratchian, 
 A. F. Izmaylov, J. Bloino, G. Zheng, J. L. Sonnenberg, M. Hada, 
 M. Ehara, K. Toyota, R. Fukuda, J. Hasegawa, M. Ishida, T. Nakajima, 
 Y. Honda, O. Kitao, H. Nakai, T. Vreven, J. A. Montgomery, Jr., 
 J. E. Peralta, F. Ogliaro, M. Bearpark, J. J. Heyd, E. Brothers, 
 K. N. Kudin, V. N. Staroverov, T. Keith, R. Kobayashi, J. Normand, 
 K. Raghavachari, A. Rendell, J. C. Burant, S. S. Iyengar, J. Tomasi, 
 M. Cossi, N. Rega, J. M. Millam, M. Klene, J. E. Knox, J. B. Cross, 
 V. Bakken, C. Adamo, J. Jaramillo, R. Gomperts, R. E. Stratmann, 
 O. Yazyev, A. J. Austin, R. Cammi, C. Pomelli, J. W. Ochterski, 
 R. L. Martin, K. Morokuma, V. G. Zakrzewski, G. A. Voth, 
 P. Salvador, J. J. Dannenberg, S. Dapprich, A. D. Daniels, 
 O. Farkas, J. B. Foresman, J. V. Ortiz, J. Cioslowski, 
 and D. J. Fox, Gaussian, Inc., Wallingford CT, 2013.
 
 ******************************************
 Gaussian 09:  ES64L-G09RevE.01 30-Nov-2015
                18-Dec-2024 
 ******************************************
 %chk=B2PLYPD3BJPNA.chk
 -------------------------------------------------------
 # opt freq B2PLYP/6-31+g(d,p) EmpiricalDispersion=GD3BJ
 -------------------------------------------------------
 1/18=20,19=15,38=1/1,3;
 2/9=110,12=2,17=6,18=5,40=1/2;
 3/5=1,6=6,7=111,11=9,16=1,25=1,30=1,71=1,74=-47,124=41/1,2,3;
 4//1;
 5/5=2,38=5/2;
 8/6=4,10=2/1;
 9/15=2,16=-3/6;
 10/5=1/2;
 6/7=2,8=2,9=2,10=2/1;
 7/12=2/1,2,3,16;
 1/18=20,19=15/3(2);
 2/9=110/2;
 99//99;
 2/9=110/2;
 3/5=1,6=6,7=111,11=9,16=1,25=1,30=1,71=1,74=-47,124=41/1,2,3;
 4/5=5,16=3,69=1/1;
 5/5=2,38=5/2;
 8/6=4,10=2/1;
 9/15=2,16=-3/6;
 10/5=1/2;
 7/12=2/1,2,3,16;
 1/18=20,19=15/3(-8);
 2/9=110/2;
 6/7=2,8=2,9=2,10=2/1;
 99//99;
 ----------
 [No Title]
 ----------
 Symbolic Z-matrix:
 Charge =  0 Multiplicity = 1
 C                    -0.02265   1.21427  -0.00009 
 C                    -0.71135   0.       -0.00008 
 C                    -0.02265  -1.21427  -0.00002 
 C                     1.36059  -1.21428   0.00003 
 C                     2.07997   0.        0.00002 
 C                     1.36059   1.21428  -0.00004 
 N                     3.44517   0.        0.00007 
 N                    -2.16111   0.       -0.00014 
 O                    -2.73864  -1.08697   0.00014 
 O                    -2.73864   1.08698   0.00007 
 H                    -0.58253   2.14253  -0.00014 
 H                    -0.58253  -2.14253  -0.00002 
 H                     1.89882  -2.15832   0.00008 
 H                     1.89882   2.15832  -0.00005 
 H                     3.96512   0.86023   0.00005 
 H                     3.96512  -0.86023   0.0001 
 

 GradGradGradGradGradGradGradGradGradGradGradGradGradGradGradGradGradGrad
 Berny optimization.
 Initialization pass.
                           ----------------------------
                           !    Initial Parameters    !
                           ! (Angstroms and Degrees)  !
 --------------------------                            --------------------------
 ! Name  Definition              Value          Derivative Info.                !
 --------------------------------------------------------------------------------
 ! R1    R(1,2)                  1.396          estimate D2E/DX2                !
 ! R2    R(1,6)                  1.3832         estimate D2E/DX2                !
 ! R3    R(1,11)                 1.084          estimate D2E/DX2                !
 ! R4    R(2,3)                  1.396          estimate D2E/DX2                !
 ! R5    R(2,8)                  1.4498         estimate D2E/DX2                !
 ! R6    R(3,4)                  1.3832         estimate D2E/DX2                !
 ! R7    R(3,12)                 1.084          estimate D2E/DX2                !
 ! R8    R(4,5)                  1.4114         estimate D2E/DX2                !
 ! R9    R(4,13)                 1.0867         estimate D2E/DX2                !
 ! R10   R(5,6)                  1.4114         estimate D2E/DX2                !
 ! R11   R(5,7)                  1.3652         estimate D2E/DX2                !
 ! R12   R(6,14)                 1.0867         estimate D2E/DX2                !
 ! R13   R(7,15)                 1.0052         estimate D2E/DX2                !
 ! R14   R(7,16)                 1.0052         estimate D2E/DX2                !
 ! R15   R(8,9)                  1.2309         estimate D2E/DX2                !
 ! R16   R(8,10)                 1.2309         estimate D2E/DX2                !
 ! A1    A(2,1,6)              119.5611         estimate D2E/DX2                !
 ! A2    A(2,1,11)             119.3425         estimate D2E/DX2                !
 ! A3    A(6,1,11)             121.0964         estimate D2E/DX2                !
 ! A4    A(1,2,3)              120.8784         estimate D2E/DX2                !
 ! A5    A(1,2,8)              119.5608         estimate D2E/DX2                !
 ! A6    A(3,2,8)              119.5608         estimate D2E/DX2                !
 ! A7    A(2,3,4)              119.5611         estimate D2E/DX2                !
 ! A8    A(2,3,12)             119.3426         estimate D2E/DX2                !
 ! A9    A(4,3,12)             121.0964         estimate D2E/DX2                !
 ! A10   A(3,4,5)              120.6437         estimate D2E/DX2                !
 ! A11   A(3,4,13)             119.6893         estimate D2E/DX2                !
 ! A12   A(5,4,13)             119.667          estimate D2E/DX2                !
 ! A13   A(4,5,6)              118.7121         estimate D2E/DX2                !
 ! A14   A(4,5,7)              120.6439         estimate D2E/DX2                !
 ! A15   A(6,5,7)              120.644          estimate D2E/DX2                !
 ! A16   A(1,6,5)              120.6437         estimate D2E/DX2                !
 ! A17   A(1,6,14)             119.6892         estimate D2E/DX2                !
 ! A18   A(5,6,14)             119.667          estimate D2E/DX2                !
 ! A19   A(5,7,15)             121.1503         estimate D2E/DX2                !
 ! A20   A(5,7,16)             121.1503         estimate D2E/DX2                !
 ! A21   A(15,7,16)            117.6995         estimate D2E/DX2                !
 ! A22   A(2,8,9)              117.9828         estimate D2E/DX2                !
 ! A23   A(2,8,10)             117.9827         estimate D2E/DX2                !
 ! A24   A(9,8,10)             124.0346         estimate D2E/DX2                !
 ! D1    D(6,1,2,3)              0.0            estimate D2E/DX2                !
 ! D2    D(6,1,2,8)           -179.9999         estimate D2E/DX2                !
 ! D3    D(11,1,2,3)           179.9999         estimate D2E/DX2                !
 ! D4    D(11,1,2,8)             0.0001         estimate D2E/DX2                !
 ! D5    D(2,1,6,5)              0.0            estimate D2E/DX2                !
 ! D6    D(2,1,6,14)           180.0            estimate D2E/DX2                !
 ! D7    D(11,1,6,5)          -179.9999         estimate D2E/DX2                !
 ! D8    D(11,1,6,14)            0.0            estimate D2E/DX2                !
 ! D9    D(1,2,3,4)              0.0            estimate D2E/DX2                !
 ! D10   D(1,2,3,12)           180.0            estimate D2E/DX2                !
 ! D11   D(8,2,3,4)            179.9999         estimate D2E/DX2                !
 ! D12   D(8,2,3,12)            -0.0001         estimate D2E/DX2                !
 ! D13   D(1,2,8,9)           -179.9862         estimate D2E/DX2                !
 ! D14   D(1,2,8,10)            -0.0138         estimate D2E/DX2                !
 ! D15   D(3,2,8,9)              0.0139         estimate D2E/DX2                !
 ! D16   D(3,2,8,10)           179.9863         estimate D2E/DX2                !
 ! D17   D(2,3,4,5)             -0.0001         estimate D2E/DX2                !
 ! D18   D(2,3,4,13)           179.9999         estimate D2E/DX2                !
 ! D19   D(12,3,4,5)           180.0            estimate D2E/DX2                !
 ! D20   D(12,3,4,13)            0.0            estimate D2E/DX2                !
 ! D21   D(3,4,5,6)              0.0001         estimate D2E/DX2                !
 ! D22   D(3,4,5,7)            179.9998         estimate D2E/DX2                !
 ! D23   D(13,4,5,6)          -179.9999         estimate D2E/DX2                !
 ! D24   D(13,4,5,7)            -0.0002         estimate D2E/DX2                !
 ! D25   D(4,5,6,1)              0.0            estimate D2E/DX2                !
 ! D26   D(4,5,6,14)           180.0            estimate D2E/DX2                !
 ! D27   D(7,5,6,1)           -179.9998         estimate D2E/DX2                !
 ! D28   D(7,5,6,14)             0.0002         estimate D2E/DX2                !
 ! D29   D(4,5,7,15)           179.9988         estimate D2E/DX2                !
 ! D30   D(4,5,7,16)             0.0013         estimate D2E/DX2                !
 ! D31   D(6,5,7,15)            -0.0014         estimate D2E/DX2                !
 ! D32   D(6,5,7,16)          -179.999          estimate D2E/DX2                !
 --------------------------------------------------------------------------------
 Trust Radius=3.00D-01 FncErr=1.00D-07 GrdErr=1.00D-07
 Number of steps in this run=     82 maximum allowed number of steps=    100.
 GradGradGradGradGradGradGradGradGradGradGradGradGradGradGradGradGradGrad

                          Input orientation:                          
 ---------------------------------------------------------------------
 Center     Atomic      Atomic             Coordinates (Angstroms)
 Number     Number       Type             X           Y           Z
 ---------------------------------------------------------------------
      1          6           0       -0.022648    1.214272   -0.000093
      2          6           0       -0.711353    0.000000   -0.000083
      3          6           0       -0.022648   -1.214273   -0.000023
      4          6           0        1.360591   -1.214279    0.000028
      5          6           0        2.079971    0.000000    0.000018
      6          6           0        1.360590    1.214278   -0.000043
      7          7           0        3.445165    0.000000    0.000072
      8          7           0       -2.161106    0.000000   -0.000138
      9          8           0       -2.738641   -1.086974    0.000135
     10          8           0       -2.738639    1.086975    0.000069
     11          1           0       -0.582534    2.142528   -0.000141
     12          1           0       -0.582533   -2.142529   -0.000016
     13          1           0        1.898821   -2.158317    0.000076
     14          1           0        1.898820    2.158317   -0.000051
     15          1           0        3.965121    0.860234    0.000048
     16          1           0        3.965121   -0.860233    0.000100
 ---------------------------------------------------------------------
                    Distance matrix (angstroms):
                    1          2          3          4          5
     1  C    0.000000
     2  C    1.395984   0.000000
     3  C    2.428545   1.395985   0.000000
     4  C    2.794854   2.401546   1.383239   0.000000
     5  C    2.428057   2.791324   2.428058   1.411376   0.000000
     6  C    1.383238   2.401545   2.794854   2.428557   1.411375
     7  N    3.674260   4.156518   3.674260   2.412452   1.365194
     8  N    2.459158   1.449753   2.459159   3.725161   4.241077
     9  O    3.559825   2.300306   2.718975   4.101208   4.939690
    10  O    2.718973   2.300305   3.559824   4.701006   4.939688
    11  H    1.084035   2.146397   3.403173   3.878645   3.417508
    12  H    3.403173   2.146398   1.084034   2.153457   3.417508
    13  H    3.881546   3.386937   2.140855   1.086692   2.165906
    14  H    2.140855   3.386936   3.881546   3.415274   2.165906
    15  H    4.003454   4.754936   4.495095   3.329742   2.072147
    16  H    4.495094   4.754935   4.003454   2.628483   2.072147
                    6          7          8          9         10
     6  C    0.000000
     7  N    2.412452   0.000000
     8  N    3.725160   5.606271   0.000000
     9  O    4.701006   6.278612   1.230877   0.000000
    10  O    4.101205   6.278610   1.230877   2.173949   0.000000
    11  H    2.153457   4.562103   2.661262   3.883102   2.400621
    12  H    3.878644   4.562103   2.661263   2.400625   3.883103
    13  H    3.415273   2.655092   4.597971   4.759604   5.660208
    14  H    1.086693   2.655092   4.597970   5.660208   4.759601
    15  H    2.628484   1.005165   6.186328   6.980834   6.707593
    16  H    3.329741   1.005164   6.186328   6.707595   6.980832
                   11         12         13         14         15
    11  H    0.000000
    12  H    4.285057   0.000000
    13  H    4.965319   2.481404   0.000000
    14  H    2.481404   4.965319   4.316634   0.000000
    15  H    4.724981   5.449564   3.658039   2.440209   0.000000
    16  H    5.449563   4.724980   2.440209   3.658038   1.720467
                   16
    16  H    0.000000
 Stoichiometry    C6H6N2O2
 Framework group  C1[X(C6H6N2O2)]
 Deg. of freedom    42
 Full point group                 C1      NOp   1
 Largest Abelian subgroup         C1      NOp   1
 Largest concise Abelian subgroup C1      NOp   1
                         Standard orientation:                         
 ---------------------------------------------------------------------
 Center     Atomic      Atomic             Coordinates (Angstroms)
 Number     Number       Type             X           Y           Z
 ---------------------------------------------------------------------
      1          6           0       -0.022648   -1.214272    0.000093
      2          6           0       -0.711353    0.000000    0.000083
      3          6           0       -0.022648    1.214273    0.000023
      4          6           0        1.360591    1.214279   -0.000028
      5          6           0        2.079971   -0.000000   -0.000018
      6          6           0        1.360590   -1.214278    0.000043
      7          7           0        3.445165   -0.000000   -0.000072
      8          7           0       -2.161106    0.000000    0.000138
      9          8           0       -2.738641    1.086974   -0.000135
     10          8           0       -2.738639   -1.086975   -0.000069
     11          1           0       -0.582534   -2.142528    0.000141
     12          1           0       -0.582533    2.142529    0.000016
     13          1           0        1.898821    2.158317   -0.000076
     14          1           0        1.898820   -2.158317    0.000051
     15          1           0        3.965121   -0.860234   -0.000048
     16          1           0        3.965121    0.860233   -0.000100
 ---------------------------------------------------------------------
 Rotational constants (GHZ):      3.9266588      0.8246873      0.6815470
 Standard basis: 6-31+G(d,p) (6D, 7F)
 There are   220 symmetry adapted cartesian basis functions of A   symmetry.
 There are   220 symmetry adapted basis functions of A   symmetry.
   220 basis functions,   362 primitive gaussians,   220 cartesian basis functions
    36 alpha electrons       36 beta electrons
       nuclear repulsion energy       495.7061428626 Hartrees.
 NAtoms=   16 NActive=   16 NUniq=   16 SFac= 1.00D+00 NAtFMM=   60 NAOKFM=F Big=F
 Integral buffers will be    131072 words long.
 Regular integral format.
 Two-electron integral symmetry is turned on.
 Nuclear repulsion after empirical dispersion term =      495.6887715804 Hartrees.
 One-electron integrals computed using PRISM.
 NBasis=   220 RedAO= T EigKep=  3.22D-06  NBF=   220
 NBsUse=   220 1.00D-06 EigRej= -1.00D+00 NBFU=   220
 ExpMin= 4.38D-02 ExpMax= 5.48D+03 ExpMxC= 8.25D+02 IAcc=2 IRadAn=         4 AccDes= 0.00D+00
 Harris functional with IExCor=  419 and IRadAn=       4 diagonalized for initial guess.
 HarFok:  IExCor=  419 AccDes= 0.00D+00 IRadAn=         4 IDoV= 1 UseB2=F ITyADJ=14
 ICtDFT=  3500011 ScaDFX=  1.000000  1.000000  1.000000  1.000000
 FoFCou: FMM=F IPFlag=           0 FMFlag=      100000 FMFlg1=           0
         NFxFlg=           0 DoJE=T BraDBF=F KetDBF=T FulRan=T
         wScrn=  0.000000 ICntrl=     500 IOpCl=  0 I1Cent=   200000004 NGrid=           0
         NMat0=    1 NMatS0=      1 NMatT0=    0 NMatD0=    1 NMtDS0=    0 NMtDT0=    0
 Petite list used in FoFCou.
 Keep R1 ints in memory in canonical form, NReq=301066375.
 Requested convergence on RMS density matrix=1.00D-08 within 128 cycles.
 Requested convergence on MAX density matrix=1.00D-06.
 Requested convergence on             energy=1.00D-06.
 No special actions if energy rises.
 SCF Done:  E(RB2PLYP) =  -491.181429359     A.U. after   15 cycles
            NFock= 15  Conv=0.29D-08     -V/T= 2.0069
 DoSCS=T DFT=T ScalE2(SS,OS)=  0.270000  0.270000
 ExpMin= 4.38D-02 ExpMax= 5.48D+03 ExpMxC= 8.25D+02 IAcc=3 IRadAn=         5 AccDes= 0.00D+00
 HarFok:  IExCor=  205 AccDes= 0.00D+00 IRadAn=         5 IDoV=-2 UseB2=F ITyADJ=14
 ICtDFT= 12500011 ScaDFX=  1.000000  1.000000  1.000000  1.000000
 Range of M.O.s used for correlation:    11   220
 NBasis=   220 NAE=    36 NBE=    36 NFC=    10 NFV=     0
 NROrb=    210 NOA=    26 NOB=    26 NVA=   184 NVB=   184

 **** Warning!!: The largest alpha MO coefficient is  0.13741078D+03

 DoSCS=T DFT=T ScalE2(SS,OS)=  0.270000  0.270000
 Fully direct method using O(ONN) memory.
 JobTyp=1 Pass  1:  I=  11 to  18 NPSUse= 18 ParTrn=T ParDer=T DoDerP=T.
 JobTyp=1 Pass  2:  I=  19 to  26 NPSUse= 18 ParTrn=T ParDer=T DoDerP=T.
 JobTyp=1 Pass  3:  I=  27 to  34 NPSUse= 18 ParTrn=T ParDer=T DoDerP=T.
 JobTyp=1 Pass  4:  I=  35 to  36 NPSUse= 18 ParTrn=T ParDer=T DoDerP=T.
 Spin components of T(2) and E(2):
     alpha-alpha T2 =       0.1166865243D+00 E2=     -0.6981269671D-01
     alpha-beta  T2 =       0.6017582641D+00 E2=     -0.3678052378D+00
     beta-beta   T2 =       0.1166865243D+00 E2=     -0.6981269671D-01
 E2(B2PLYP) =    -0.5074306312D+00 E(B2PLYP) =    -0.49168885999020D+03
          IDoAtm=1111111111111111
          Differentiating once with respect to electric field.
                with respect to dipole field.
          Differentiating once with respect to nuclear coordinates.
 Keep R1 ints in memory in canonical form, NReq=300899106.
          There are     1 degrees of freedom in the 1st order CPHF.  IDoFFX=0 NUNeed=     1.
 LinEq1:  Iter=  0 NonCon=     1 RMS=2.29D-03 Max=7.49D-02 NDo=     1
 AX will form     1 AO Fock derivatives at one time.
 LinEq1:  Iter=  1 NonCon=     1 RMS=9.50D-04 Max=2.21D-02 NDo=     1
 LinEq1:  Iter=  2 NonCon=     1 RMS=4.06D-04 Max=1.25D-02 NDo=     1
 LinEq1:  Iter=  3 NonCon=     1 RMS=2.98D-04 Max=1.15D-02 NDo=     1
 LinEq1:  Iter=  4 NonCon=     1 RMS=1.08D-04 Max=5.09D-03 NDo=     1
 LinEq1:  Iter=  5 NonCon=     1 RMS=6.32D-05 Max=2.93D-03 NDo=     1
 LinEq1:  Iter=  6 NonCon=     1 RMS=2.64D-05 Max=7.32D-04 NDo=     1
 LinEq1:  Iter=  7 NonCon=     1 RMS=1.14D-05 Max=1.85D-04 NDo=     1
 LinEq1:  Iter=  8 NonCon=     1 RMS=3.98D-06 Max=7.12D-05 NDo=     1
 LinEq1:  Iter=  9 NonCon=     1 RMS=1.73D-06 Max=3.70D-05 NDo=     1
 LinEq1:  Iter= 10 NonCon=     1 RMS=5.34D-07 Max=7.99D-06 NDo=     1
 LinEq1:  Iter= 11 NonCon=     1 RMS=1.70D-07 Max=2.61D-06 NDo=     1
 LinEq1:  Iter= 12 NonCon=     1 RMS=7.21D-08 Max=9.14D-07 NDo=     1
 LinEq1:  Iter= 13 NonCon=     1 RMS=1.65D-08 Max=3.04D-07 NDo=     1
 LinEq1:  Iter= 14 NonCon=     1 RMS=7.97D-09 Max=4.05D-07 NDo=     1
 LinEq1:  Iter= 15 NonCon=     1 RMS=4.45D-09 Max=1.01D-07 NDo=     1
 LinEq1:  Iter= 16 NonCon=     1 RMS=2.52D-09 Max=6.04D-08 NDo=     1
 LinEq1:  Iter= 17 NonCon=     1 RMS=7.69D-10 Max=2.42D-08 NDo=     1
 LinEq1:  Iter= 18 NonCon=     1 RMS=1.89D-10 Max=7.72D-09 NDo=     1
 LinEq1:  Iter= 19 NonCon=     1 RMS=4.94D-11 Max=1.78D-09 NDo=     1
 LinEq1:  Iter= 20 NonCon=     0 RMS=1.75D-11 Max=3.03D-10 NDo=     1
 Linear equations converged to 1.000D-10 1.000D-09 after    20 iterations.
 End of Minotr F.D. properties file   721 does not exist.
 End of Minotr F.D. properties file   722 does not exist.
 End of Minotr F.D. properties file   788 does not exist.

 **********************************************************************

            Population analysis using the SCF density.

 **********************************************************************

 Orbital symmetries:
       Occupied  (A) (A) (A) (A) (A) (A) (A) (A) (A) (A) (A) (A)
                 (A) (A) (A) (A) (A) (A) (A) (A) (A) (A) (A) (A)
                 (A) (A) (A) (A) (A) (A) (A) (A) (A) (A) (A) (A)
       Virtual   (A) (A) (A) (A) (A) (A) (A) (A) (A) (A) (A) (A)
                 (A) (A) (A) (A) (A) (A) (A) (A) (A) (A) (A) (A)
                 (A) (A) (A) (A) (A) (A) (A) (A) (A) (A) (A) (A)
                 (A) (A) (A) (A) (A) (A) (A) (A) (A) (A) (A) (A)
                 (A) (A) (A) (A) (A) (A) (A) (A) (A) (A) (A) (A)
                 (A) (A) (A) (A) (A) (A) (A) (A) (A) (A) (A) (A)
                 (A) (A) (A) (A) (A) (A) (A) (A) (A) (A) (A) (A)
                 (A) (A) (A) (A) (A) (A) (A) (A) (A) (A) (A) (A)
                 (A) (A) (A) (A) (A) (A) (A) (A) (A) (A) (A) (A)
                 (A) (A) (A) (A) (A) (A) (A) (A) (A) (A) (A) (A)
                 (A) (A) (A) (A) (A) (A) (A) (A) (A) (A) (A) (A)
                 (A) (A) (A) (A) (A) (A) (A) (A) (A) (A) (A) (A)
                 (A) (A) (A) (A) (A) (A) (A) (A) (A) (A) (A) (A)
                 (A) (A) (A) (A) (A) (A) (A) (A) (A) (A) (A) (A)
                 (A) (A) (A) (A) (A) (A) (A) (A) (A) (A) (A) (A)
                 (A) (A) (A) (A)
 The electronic state is 1-A.
 Alpha  occ. eigenvalues --  -19.77576 -19.77573 -15.10648 -14.89779 -10.71524
 Alpha  occ. eigenvalues --  -10.68469 -10.66611 -10.66609 -10.65326 -10.65326
 Alpha  occ. eigenvalues --   -1.37841  -1.18949  -1.08910  -1.00814  -0.91292
 Alpha  occ. eigenvalues --   -0.89344  -0.80170  -0.74284  -0.69775  -0.65129
 Alpha  occ. eigenvalues --   -0.63359  -0.62546  -0.60580  -0.59114  -0.54359
 Alpha  occ. eigenvalues --   -0.53362  -0.52156  -0.49615  -0.48081  -0.43641
 Alpha  occ. eigenvalues --   -0.40192  -0.38301  -0.36816  -0.36400  -0.32131
 Alpha  occ. eigenvalues --   -0.27329
 Alpha virt. eigenvalues --   -0.03239   0.01280   0.01884   0.03527   0.04155
 Alpha virt. eigenvalues --    0.05961   0.06381   0.06785   0.09096   0.09138
 Alpha virt. eigenvalues --    0.10475   0.10848   0.11685   0.12247   0.13955
 Alpha virt. eigenvalues --    0.15275   0.15656   0.15916   0.16294   0.16582
 Alpha virt. eigenvalues --    0.17718   0.19398   0.19740   0.20037   0.20428
 Alpha virt. eigenvalues --    0.20611   0.20624   0.23168   0.23278   0.24624
 Alpha virt. eigenvalues --    0.25065   0.25225   0.25267   0.26321   0.27202
 Alpha virt. eigenvalues --    0.27291   0.28437   0.29992   0.30057   0.30209
 Alpha virt. eigenvalues --    0.32052   0.32947   0.33224   0.36001   0.36446
 Alpha virt. eigenvalues --    0.36679   0.37167   0.38624   0.39800   0.41373
 Alpha virt. eigenvalues --    0.44244   0.44390   0.45829   0.47474   0.48212
 Alpha virt. eigenvalues --    0.52395   0.52696   0.58743   0.67372   0.69484
 Alpha virt. eigenvalues --    0.72519   0.73526   0.73860   0.78665   0.78771
 Alpha virt. eigenvalues --    0.79703   0.81883   0.83731   0.86906   0.87675
 Alpha virt. eigenvalues --    0.90029   0.92321   0.93175   0.96135   0.99432
 Alpha virt. eigenvalues --    0.99605   1.02217   1.03019   1.04358   1.08219
 Alpha virt. eigenvalues --    1.08632   1.11246   1.13250   1.15539   1.15927
 Alpha virt. eigenvalues --    1.17385   1.18483   1.25311   1.25322   1.28336
 Alpha virt. eigenvalues --    1.30570   1.31447   1.31536   1.32934   1.34391
 Alpha virt. eigenvalues --    1.37788   1.40593   1.41373   1.42961   1.45055
 Alpha virt. eigenvalues --    1.45979   1.47446   1.48043   1.48132   1.52800
 Alpha virt. eigenvalues --    1.52861   1.54717   1.56078   1.56314   1.62992
 Alpha virt. eigenvalues --    1.72563   1.79208   1.83052   1.86696   1.90949
 Alpha virt. eigenvalues --    1.93083   1.93339   1.95872   1.97325   1.99302
 Alpha virt. eigenvalues --    2.03351   2.03470   2.03816   2.07647   2.07874
 Alpha virt. eigenvalues --    2.08413   2.09499   2.15355   2.19433   2.20460
 Alpha virt. eigenvalues --    2.25067   2.25269   2.25583   2.29680   2.31242
 Alpha virt. eigenvalues --    2.34611   2.35323   2.42434   2.49921   2.50762
 Alpha virt. eigenvalues --    2.50937   2.53936   2.55178   2.55834   2.61273
 Alpha virt. eigenvalues --    2.64080   2.65901   2.66475   2.68277   2.70406
 Alpha virt. eigenvalues --    2.71547   2.73196   2.80209   2.82635   2.86219
 Alpha virt. eigenvalues --    2.86921   2.91899   2.95367   2.96244   2.97993
 Alpha virt. eigenvalues --    3.13022   3.16468   3.18523   3.20696   3.25836
 Alpha virt. eigenvalues --    3.26458   3.33514   3.41744   3.48444   3.49260
 Alpha virt. eigenvalues --    3.56252   3.66859   3.81101   3.98763   4.28907
 Alpha virt. eigenvalues --    4.38108   4.44986   4.45140   4.49725   4.63967
 Alpha virt. eigenvalues --    4.65611   4.69255   4.97666   5.02209
          Condensed to atoms (all electrons):
               1          2          3          4          5          6
     1  C    9.947657  -0.102267  -2.725996  -1.072314   0.021339  -0.680846
     2  C   -0.102267  10.184121  -0.102247  -1.038531  -0.685481  -1.038544
     3  C   -2.725996  -0.102247   9.947631  -0.680834   0.021339  -1.072319
     4  C   -1.072314  -1.038531  -0.680834   9.147142   0.348321  -0.914850
     5  C    0.021339  -0.685481   0.021339   0.348321   5.714511   0.348318
     6  C   -0.680846  -1.038544  -1.072319  -0.914850   0.348318   9.147176
     7  N    0.053076  -0.032611   0.053076  -0.102471   0.162028  -0.102471
     8  N    0.163030  -0.621819   0.163030  -0.008809  -0.011647  -0.008810
     9  O    0.090577  -0.397362   0.038285   0.189666   0.017118  -0.018410
    10  O    0.038286  -0.397364   0.090575  -0.018410   0.017118   0.189668
    11  H   -0.010892   0.316997   0.096084   0.002253  -0.039463  -0.001852
    12  H    0.096084   0.316996  -0.010891  -0.001853  -0.039463   0.002253
    13  H    0.000890   0.003187   0.122429   0.111857   0.085326   0.015360
    14  H    0.122430   0.003187   0.000890   0.015360   0.085326   0.111856
    15  H    0.019441   0.000245  -0.002956   0.062900  -0.006618  -0.085575
    16  H   -0.002956   0.000245   0.019441  -0.085574  -0.006619   0.062900
               7          8          9         10         11         12
     1  C    0.053076   0.163030   0.090577   0.038286  -0.010892   0.096084
     2  C   -0.032611  -0.621819  -0.397362  -0.397364   0.316997   0.316996
     3  C    0.053076   0.163030   0.038285   0.090575   0.096084  -0.010891
     4  C   -0.102471  -0.008809   0.189666  -0.018410   0.002253  -0.001853
     5  C    0.162028  -0.011647   0.017118   0.017118  -0.039463  -0.039463
     6  C   -0.102471  -0.008810  -0.018410   0.189668  -0.001852   0.002253
     7  N    6.979368   0.000828  -0.000238  -0.000238  -0.000437  -0.000437
     8  N    0.000828   6.731002   0.398621   0.398620  -0.046489  -0.046489
     9  O   -0.000238   0.398621   7.869731  -0.070723  -0.002889   0.016492
    10  O   -0.000238   0.398620  -0.070723   7.869732   0.016492  -0.002889
    11  H   -0.000437  -0.046489  -0.002889   0.016492   0.482867  -0.000125
    12  H   -0.000437  -0.046489   0.016492  -0.002889  -0.000125   0.482867
    13  H   -0.016520  -0.000488   0.000050   0.000032   0.000010  -0.003560
    14  H   -0.016520  -0.000488   0.000032   0.000050  -0.003560   0.000010
    15  H    0.344215   0.000003   0.000000   0.000000  -0.000006   0.000002
    16  H    0.344215   0.000003   0.000000   0.000000   0.000002  -0.000006
              13         14         15         16
     1  C    0.000890   0.122430   0.019441  -0.002956
     2  C    0.003187   0.003187   0.000245   0.000245
     3  C    0.122429   0.000890  -0.002956   0.019441
     4  C    0.111857   0.015360   0.062900  -0.085574
     5  C    0.085326   0.085326  -0.006618  -0.006619
     6  C    0.015360   0.111856  -0.085575   0.062900
     7  N   -0.016520  -0.016520   0.344215   0.344215
     8  N   -0.000488  -0.000488   0.000003   0.000003
     9  O    0.000050   0.000032   0.000000   0.000000
    10  O    0.000032   0.000050   0.000000   0.000000
    11  H    0.000010  -0.003560  -0.000006   0.000002
    12  H   -0.003560   0.000010   0.000002  -0.000006
    13  H    0.537277  -0.000124  -0.000050   0.003952
    14  H   -0.000124   0.537277   0.003952  -0.000050
    15  H   -0.000050   0.003952   0.369432  -0.023530
    16  H    0.003952  -0.000050  -0.023530   0.369432
 Mulliken charges:
               1
     1  C    0.042461
     2  C   -0.408751
     3  C    0.042463
     4  C    0.046146
     5  C   -0.031453
     6  C    0.046146
     7  N   -0.664866
     8  N   -0.110097
     9  O   -0.130950
    10  O   -0.130949
    11  H    0.191009
    12  H    0.191009
    13  H    0.140372
    14  H    0.140372
    15  H    0.318544
    16  H    0.318544
 Sum of Mulliken charges =  -0.00000
 Mulliken charges with hydrogens summed into heavy atoms:
               1
     1  C    0.233470
     2  C   -0.408751
     3  C    0.233472
     4  C    0.186517
     5  C   -0.031453
     6  C    0.186518
     7  N   -0.027778
     8  N   -0.110097
     9  O   -0.130950
    10  O   -0.130949
 Electronic spatial extent (au):  <R**2>=           1558.4309
 Charge=             -0.0000 electrons
 Dipole moment (field-independent basis, Debye):
    X=              7.8255    Y=             -0.0000    Z=              0.0005  Tot=              7.8255
 Quadrupole moment (field-independent basis, Debye-Ang):
   XX=            -57.8370   YY=            -53.0054   ZZ=            -61.1529
   XY=              0.0000   XZ=             -0.0018   YZ=             -0.0002
 Traceless Quadrupole moment (field-independent basis, Debye-Ang):
   XX=             -0.5052   YY=              4.3263   ZZ=             -3.8211
   XY=              0.0000   XZ=             -0.0018   YZ=             -0.0002
 Octapole moment (field-independent basis, Debye-Ang**2):
  XXX=            109.5374  YYY=              0.0000  ZZZ=             -0.0008  XYY=             17.1628
  XXY=             -0.0000  XXZ=              0.0025  XZZ=            -13.6765  YZZ=             -0.0000
  YYZ=             -0.0003  XYZ=             -0.0009
 Hexadecapole moment (field-independent basis, Debye-Ang**3):
 XXXX=          -1376.3538 YYYY=           -365.0519 ZZZZ=            -66.8178 XXXY=             -0.0000
 XXXZ=             -0.0141 YYYX=             -0.0000 YYYZ=              0.0032 ZZZX=              0.0030
 ZZZY=              0.0055 XXYY=           -299.7142 XXZZ=           -280.8811 YYZZ=            -85.0910
 XXYZ=              0.0005 YYXZ=             -0.0001 ZZXY=              0.0000
 N-N= 4.956887715804D+02 E-N=-2.137851087418D+03  KE= 4.878217284597D+02
 Calling FoFJK, ICntrl=  10002127 FMM=F ISym2X=0 I1Cent= 0 IOpClX= 0 NMat=1 NMatS=1 NMatT=0.
 ***** Axes restored to original set *****
 -------------------------------------------------------------------
 Center     Atomic                   Forces (Hartrees/Bohr)
 Number     Number              X              Y              Z
 -------------------------------------------------------------------
      1        6          -0.003976800    0.003091328   -0.000003819
      2        6           0.003751688   -0.000000798   -0.000015364
      3        6          -0.003975969   -0.003090487   -0.000003437
      4        6           0.003479907   -0.001592383    0.000001064
      5        6          -0.004051422   -0.000000321   -0.000000688
      6        6           0.003481096    0.001593125    0.000001003
      7        7           0.005407385    0.000000792    0.000000585
      8        7           0.009412082    0.000000112    0.000066096
      9        8          -0.006999493   -0.014653038   -0.000022426
     10        8          -0.006999791    0.014653117   -0.000023312
     11        1           0.001247736   -0.001654184   -0.000000011
     12        1           0.001247447    0.001653928   -0.000000165
     13        1          -0.000655085    0.001571327    0.000000306
     14        1          -0.000655350   -0.001571830    0.000000431
     15        1          -0.000356904   -0.000566037   -0.000000108
     16        1          -0.000356526    0.000565350   -0.000000155
 -------------------------------------------------------------------
 Cartesian Forces:  Max     0.014653117 RMS     0.004007927

 GradGradGradGradGradGradGradGradGradGradGradGradGradGradGradGradGradGrad
 Berny optimization.
 FormGI is forming the generalized inverse of G from B-inverse, IUseBI=4.
 Internal  Forces:  Max     0.016224339 RMS     0.002912407
 Search for a local minimum.
 Step number   1 out of a maximum of   82
 All quantities printed in internal units (Hartrees-Bohrs-Radians)
 Mixed Optimization -- RFO/linear search
 Second derivative matrix not updated -- first step.
 ITU=  0
     Eigenvalues ---    0.01034   0.01034   0.01805   0.01968   0.02043
     Eigenvalues ---    0.02099   0.02130   0.02152   0.02152   0.02182
     Eigenvalues ---    0.02192   0.02236   0.02242   0.16000   0.16000
     Eigenvalues ---    0.16000   0.16000   0.16000   0.16000   0.22000
     Eigenvalues ---    0.22969   0.24000   0.25000   0.25000   0.25000
     Eigenvalues ---    0.25000   0.35198   0.35198   0.35511   0.35511
     Eigenvalues ---    0.38277   0.41007   0.41966   0.45111   0.45347
     Eigenvalues ---    0.46792   0.46792   0.47048   0.48515   0.51911
     Eigenvalues ---    0.90722   0.90722
 RFO step:  Lambda=-7.79250259D-04 EMin= 1.03364348D-02
 Linear search not attempted -- first point.
 Iteration  1 RMS(Cart)=  0.00576104 RMS(Int)=  0.00000778
 Iteration  2 RMS(Cart)=  0.00000949 RMS(Int)=  0.00000080
 Iteration  3 RMS(Cart)=  0.00000000 RMS(Int)=  0.00000080
 Variable       Old X    -DE/DX   Delta X   Delta X   Delta X     New X
                                 (Linear)    (Quad)   (Total)
    R1        2.63803   0.00131   0.00000   0.00295   0.00295   2.64098
    R2        2.61394   0.00315   0.00000   0.00648   0.00648   2.62042
    R3        2.04853  -0.00206   0.00000  -0.00579  -0.00579   2.04274
    R4        2.63803   0.00131   0.00000   0.00295   0.00295   2.64098
    R5        2.73964   0.00459   0.00000   0.01196   0.01196   2.75160
    R6        2.61394   0.00315   0.00000   0.00647   0.00647   2.62042
    R7        2.04853  -0.00206   0.00000  -0.00579  -0.00579   2.04274
    R8        2.66711   0.00032   0.00000   0.00062   0.00062   2.66773
    R9        2.05355  -0.00169   0.00000  -0.00479  -0.00479   2.04876
   R10        2.66711   0.00032   0.00000   0.00062   0.00062   2.66773
   R11        2.57984   0.00469   0.00000   0.00903   0.00903   2.58887
   R12        2.05355  -0.00169   0.00000  -0.00479  -0.00479   2.04876
   R13        1.89949  -0.00067   0.00000  -0.00143  -0.00143   1.89806
   R14        1.89949  -0.00067   0.00000  -0.00143  -0.00143   1.89806
   R15        2.32602   0.01622   0.00000   0.01787   0.01787   2.34389
   R16        2.32602   0.01622   0.00000   0.01787   0.01787   2.34389
    A1        2.08673  -0.00031   0.00000  -0.00115  -0.00115   2.08558
    A2        2.08292   0.00038   0.00000   0.00194   0.00194   2.08486
    A3        2.11353  -0.00006   0.00000  -0.00079  -0.00079   2.11274
    A4        2.10973   0.00001   0.00000   0.00047   0.00047   2.11020
    A5        2.08673  -0.00000   0.00000  -0.00023  -0.00024   2.08650
    A6        2.08673  -0.00000   0.00000  -0.00024  -0.00024   2.08649
    A7        2.08673  -0.00031   0.00000  -0.00115  -0.00115   2.08558
    A8        2.08292   0.00038   0.00000   0.00194   0.00194   2.08486
    A9        2.11353  -0.00006   0.00000  -0.00079  -0.00079   2.11274
   A10        2.10563   0.00027   0.00000   0.00097   0.00096   2.10659
   A11        2.08897   0.00008   0.00000   0.00085   0.00085   2.08983
   A12        2.08858  -0.00035   0.00000  -0.00182  -0.00182   2.08677
   A13        2.07192   0.00009   0.00000  -0.00009  -0.00009   2.07182
   A14        2.10563  -0.00004   0.00000   0.00005   0.00005   2.10568
   A15        2.10563  -0.00004   0.00000   0.00005   0.00005   2.10568
   A16        2.10563   0.00027   0.00000   0.00096   0.00096   2.10659
   A17        2.08897   0.00008   0.00000   0.00085   0.00085   2.08983
   A18        2.08858  -0.00035   0.00000  -0.00182  -0.00182   2.08677
   A19        2.11447  -0.00001   0.00000  -0.00005  -0.00005   2.11442
   A20        2.11447  -0.00001   0.00000  -0.00005  -0.00005   2.11442
   A21        2.05424   0.00002   0.00000   0.00010   0.00010   2.05434
   A22        2.05919  -0.00054   0.00000  -0.00215  -0.00215   2.05704
   A23        2.05919  -0.00054   0.00000  -0.00214  -0.00215   2.05704
   A24        2.16481   0.00108   0.00000   0.00429   0.00429   2.16910
    D1        0.00000  -0.00000   0.00000  -0.00006  -0.00006  -0.00006
    D2       -3.14159  -0.00000   0.00000  -0.00002  -0.00002   3.14157
    D3        3.14159  -0.00000   0.00000  -0.00003  -0.00003   3.14156
    D4        0.00000   0.00000   0.00000   0.00001   0.00001   0.00001
    D5       -0.00000   0.00000   0.00000   0.00003   0.00003   0.00003
    D6        3.14159   0.00000   0.00000   0.00003   0.00003  -3.14156
    D7       -3.14159  -0.00000   0.00000  -0.00000  -0.00000   3.14159
    D8        0.00000  -0.00000   0.00000  -0.00000  -0.00000  -0.00000
    D9        0.00000   0.00000   0.00000   0.00006   0.00006   0.00006
   D10        3.14159   0.00000   0.00000   0.00003   0.00003  -3.14156
   D11        3.14159   0.00000   0.00000   0.00002   0.00002  -3.14157
   D12       -0.00000  -0.00000   0.00000  -0.00001  -0.00001  -0.00001
   D13       -3.14135  -0.00003   0.00000  -0.00241  -0.00241   3.13942
   D14       -0.00024   0.00003   0.00000   0.00237   0.00237   0.00213
   D15        0.00024  -0.00003   0.00000  -0.00237  -0.00237  -0.00213
   D16        3.14135   0.00003   0.00000   0.00241   0.00241  -3.13942
   D17       -0.00000  -0.00000   0.00000  -0.00003  -0.00003  -0.00003
   D18        3.14159  -0.00000   0.00000  -0.00003  -0.00003   3.14156
   D19        3.14159   0.00000   0.00000   0.00000   0.00000  -3.14159
   D20       -0.00000   0.00000   0.00000   0.00000   0.00000   0.00000
   D21        0.00000  -0.00000   0.00000  -0.00000  -0.00000  -0.00000
   D22        3.14159  -0.00000   0.00000  -0.00000  -0.00000   3.14159
   D23       -3.14159   0.00000   0.00000  -0.00000  -0.00000  -3.14159
   D24       -0.00000   0.00000   0.00000  -0.00000  -0.00000  -0.00000
   D25       -0.00000   0.00000   0.00000   0.00000   0.00000   0.00000
   D26        3.14159  -0.00000   0.00000   0.00000   0.00000   3.14159
   D27       -3.14159   0.00000   0.00000   0.00000   0.00000  -3.14159
   D28        0.00000  -0.00000   0.00000  -0.00000  -0.00000   0.00000
   D29        3.14157  -0.00000   0.00000  -0.00000  -0.00000   3.14157
   D30        0.00002   0.00000   0.00000   0.00000   0.00000   0.00003
   D31       -0.00003  -0.00000   0.00000  -0.00000  -0.00000  -0.00003
   D32       -3.14157   0.00000   0.00000   0.00001   0.00001  -3.14157
         Item               Value     Threshold  Converged?
 Maximum Force            0.016224     0.000450     NO 
 RMS     Force            0.002912     0.000300     NO 
 Maximum Displacement     0.019626     0.001800     NO 
 RMS     Displacement     0.005758     0.001200     NO 
 Predicted change in Energy=-3.900747D-04
 GradGradGradGradGradGradGradGradGradGradGradGradGradGradGradGradGradGrad

                          Input orientation:                          
 ---------------------------------------------------------------------
 Center     Atomic      Atomic             Coordinates (Angstroms)
 Number     Number       Type             X           Y           Z
 ---------------------------------------------------------------------
      1          6           0       -0.024137    1.215792    0.000375
      2          6           0       -0.713326    0.000000    0.000585
      3          6           0       -0.024137   -1.215792    0.000446
      4          6           0        1.362527   -1.214525    0.000172
      5          6           0        2.082130   -0.000000   -0.000005
      6          6           0        1.362527    1.214525    0.000101
      7          7           0        3.452102    0.000000   -0.000268
      8          7           0       -2.169407   -0.000000    0.000898
      9          8           0       -2.749023   -1.096570   -0.001303
     10          8           0       -2.749025    1.096569   -0.001370
     11          1           0       -0.580861    2.142375    0.000461
     12          1           0       -0.580862   -2.142374    0.000586
     13          1           0        1.901169   -2.155409    0.000094
     14          1           0        1.901170    2.155408   -0.000032
     15          1           0        3.971625    0.859613   -0.000416
     16          1           0        3.971625   -0.859613   -0.000365
 ---------------------------------------------------------------------
                    Distance matrix (angstroms):
                    1          2          3          4          5
     1  C    0.000000
     2  C    1.397544   0.000000
     3  C    2.431584   1.397544   0.000000
     4  C    2.798085   2.405044   1.386665   0.000000
     5  C    2.431977   2.795456   2.431977   1.411701   0.000000
     6  C    1.386665   2.405044   2.798085   2.429050   1.411701
     7  N    3.682715   4.165428   3.682715   2.416898   1.369972
     8  N    2.465834   1.456082   2.465833   3.734921   4.251538
     9  O    3.573797   2.312258   2.727493   4.113242   4.954040
    10  O    2.727495   2.312258   3.573797   4.716568   4.954041
    11  H    1.080970   2.146466   3.404001   3.878857   3.417791
    12  H    3.404001   2.146466   1.080970   2.153524   3.417791
    13  H    3.882242   3.388417   2.142355   1.084157   2.162992
    14  H    2.142355   3.388417   3.882241   3.412710   2.162992
    15  H    4.011605   4.763160   4.502602   3.333083   2.075843
    16  H    4.502602   4.763161   4.011606   2.633126   2.075843
                    6          7          8          9         10
     6  C    0.000000
     7  N    2.416898   0.000000
     8  N    3.734921   5.621510   0.000000
     9  O    4.716568   6.297335   1.240333   0.000000
    10  O    4.113244   6.297336   1.240333   2.193140   0.000000
    11  H    2.153524   4.566680   2.667067   3.897652   2.407207
    12  H    3.878857   4.566680   2.667067   2.407204   3.897652
    13  H    3.412710   2.655406   4.606016   4.769217   5.674475
    14  H    1.084157   2.655405   4.606016   5.674474   4.769219
    15  H    2.633126   1.004410   6.200904   6.999554   6.724825
    16  H    3.333083   1.004410   6.200904   6.724824   6.999556
                   11         12         13         14         15
    11  H    0.000000
    12  H    4.284749   0.000000
    13  H    4.963005   2.482065   0.000000
    14  H    2.482065   4.963005   4.310817   0.000000
    15  H    4.729757   5.453170   3.657478   2.442513   0.000000
    16  H    5.453170   4.729758   2.442514   3.657477   1.719227
                   16
    16  H    0.000000
 Stoichiometry    C6H6N2O2
 Framework group  C1[X(C6H6N2O2)]
 Deg. of freedom    42
 Full point group                 C1      NOp   1
 Largest Abelian subgroup         C1      NOp   1
 Largest concise Abelian subgroup C1      NOp   1
                         Standard orientation:                         
 ---------------------------------------------------------------------
 Center     Atomic      Atomic             Coordinates (Angstroms)
 Number     Number       Type             X           Y           Z
 ---------------------------------------------------------------------
      1          6           0       -0.022080   -1.215792   -0.000467
      2          6           0       -0.711268   -0.000000   -0.000677
      3          6           0       -0.022080    1.215792   -0.000538
      4          6           0        1.364585    1.214525   -0.000263
      5          6           0        2.084188    0.000000   -0.000087
      6          6           0        1.364585   -1.214525   -0.000193
      7          7           0        3.454160    0.000000    0.000176
      8          7           0       -2.167350   -0.000000   -0.000990
      9          8           0       -2.746966    1.096570    0.001211
     10          8           0       -2.746967   -1.096569    0.001279
     11          1           0       -0.578804   -2.142375   -0.000552
     12          1           0       -0.578804    2.142374   -0.000678
     13          1           0        1.903227    2.155409   -0.000186
     14          1           0        1.903227   -2.155408   -0.000060
     15          1           0        3.973682   -0.859613    0.000325
     16          1           0        3.973682    0.859613    0.000273
 ---------------------------------------------------------------------
 Rotational constants (GHZ):      3.9040748      0.8202228      0.6778175
 Standard basis: 6-31+G(d,p) (6D, 7F)
 There are   220 symmetry adapted cartesian basis functions of A   symmetry.
 There are   220 symmetry adapted basis functions of A   symmetry.
   220 basis functions,   362 primitive gaussians,   220 cartesian basis functions
    36 alpha electrons       36 beta electrons
       nuclear repulsion energy       494.3242415925 Hartrees.
 NAtoms=   16 NActive=   16 NUniq=   16 SFac= 1.00D+00 NAtFMM=   60 NAOKFM=F Big=F
 Integral buffers will be    131072 words long.
 Regular integral format.
 Two-electron integral symmetry is turned on.
 Nuclear repulsion after empirical dispersion term =      494.3068950584 Hartrees.
 One-electron integrals computed using PRISM.
 NBasis=   220 RedAO= T EigKep=  3.27D-06  NBF=   220
 NBsUse=   220 1.00D-06 EigRej= -1.00D+00 NBFU=   220
 Initial guess from the checkpoint file:  "B2PLYPD3BJPNA.chk"
 B after Tr=    -0.000000   -0.000000    0.000000
         Rot=    1.000000    0.000000   -0.000052    0.000000 Ang=   0.01 deg.
 Keep R1 ints in memory in canonical form, NReq=301066375.
 Requested convergence on RMS density matrix=1.00D-08 within 128 cycles.
 Requested convergence on MAX density matrix=1.00D-06.
 Requested convergence on             energy=1.00D-06.
 No special actions if energy rises.
 SCF Done:  E(RB2PLYP) =  -491.180213936     A.U. after   12 cycles
            NFock= 12  Conv=0.74D-08     -V/T= 2.0071
 DoSCS=T DFT=T ScalE2(SS,OS)=  0.270000  0.270000
 ExpMin= 4.38D-02 ExpMax= 5.48D+03 ExpMxC= 8.25D+02 IAcc=3 IRadAn=         5 AccDes= 0.00D+00
 HarFok:  IExCor=  205 AccDes= 0.00D+00 IRadAn=         5 IDoV=-2 UseB2=F ITyADJ=14
 ICtDFT= 12500011 ScaDFX=  1.000000  1.000000  1.000000  1.000000
 Range of M.O.s used for correlation:    11   220
 NBasis=   220 NAE=    36 NBE=    36 NFC=    10 NFV=     0
 NROrb=    210 NOA=    26 NOB=    26 NVA=   184 NVB=   184

 **** Warning!!: The largest alpha MO coefficient is  0.13624247D+03

 DoSCS=T DFT=T ScalE2(SS,OS)=  0.270000  0.270000
 Fully direct method using O(ONN) memory.
 JobTyp=1 Pass  1:  I=  11 to  18 NPSUse= 18 ParTrn=T ParDer=T DoDerP=T.
 JobTyp=1 Pass  2:  I=  19 to  26 NPSUse= 18 ParTrn=T ParDer=T DoDerP=T.
 JobTyp=1 Pass  3:  I=  27 to  34 NPSUse= 18 ParTrn=T ParDer=T DoDerP=T.
 JobTyp=1 Pass  4:  I=  35 to  36 NPSUse= 18 ParTrn=T ParDer=T DoDerP=T.
 Spin components of T(2) and E(2):
     alpha-alpha T2 =       0.1176944559D+00 E2=     -0.7002915395D-01
     alpha-beta  T2 =       0.6072963867D+00 E2=     -0.3690090212D+00
     beta-beta   T2 =       0.1176944559D+00 E2=     -0.7002915395D-01
 E2(B2PLYP) =    -0.5090673291D+00 E(B2PLYP) =    -0.49168928126537D+03
          IDoAtm=1111111111111111
          Differentiating once with respect to electric field.
                with respect to dipole field.
          Differentiating once with respect to nuclear coordinates.
 Keep R1 ints in memory in canonical form, NReq=300899106.
          There are     1 degrees of freedom in the 1st order CPHF.  IDoFFX=0 NUNeed=     1.
 LinEq1:  Iter=  0 NonCon=     1 RMS=2.33D-03 Max=7.77D-02 NDo=     1
 AX will form     1 AO Fock derivatives at one time.
 LinEq1:  Iter=  1 NonCon=     1 RMS=9.74D-04 Max=2.27D-02 NDo=     1
 LinEq1:  Iter=  2 NonCon=     1 RMS=4.25D-04 Max=1.26D-02 NDo=     1
 LinEq1:  Iter=  3 NonCon=     1 RMS=3.09D-04 Max=1.16D-02 NDo=     1
 LinEq1:  Iter=  4 NonCon=     1 RMS=1.11D-04 Max=5.23D-03 NDo=     1
 LinEq1:  Iter=  5 NonCon=     1 RMS=6.59D-05 Max=3.08D-03 NDo=     1
 LinEq1:  Iter=  6 NonCon=     1 RMS=2.79D-05 Max=8.01D-04 NDo=     1
 LinEq1:  Iter=  7 NonCon=     1 RMS=1.21D-05 Max=2.09D-04 NDo=     1
 LinEq1:  Iter=  8 NonCon=     1 RMS=4.22D-06 Max=7.64D-05 NDo=     1
 LinEq1:  Iter=  9 NonCon=     1 RMS=1.86D-06 Max=3.94D-05 NDo=     1
 LinEq1:  Iter= 10 NonCon=     1 RMS=5.71D-07 Max=8.22D-06 NDo=     1
 LinEq1:  Iter= 11 NonCon=     1 RMS=1.84D-07 Max=2.71D-06 NDo=     1
 LinEq1:  Iter= 12 NonCon=     1 RMS=8.10D-08 Max=1.21D-06 NDo=     1
 LinEq1:  Iter= 13 NonCon=     1 RMS=2.01D-08 Max=6.25D-07 NDo=     1
 LinEq1:  Iter= 14 NonCon=     1 RMS=6.03D-09 Max=2.47D-07 NDo=     1
 LinEq1:  Iter= 15 NonCon=     1 RMS=4.40D-09 Max=1.69D-07 NDo=     1
 LinEq1:  Iter= 16 NonCon=     1 RMS=3.08D-09 Max=1.20D-07 NDo=     1
 LinEq1:  Iter= 17 NonCon=     1 RMS=1.55D-09 Max=3.52D-08 NDo=     1
 LinEq1:  Iter= 18 NonCon=     1 RMS=3.43D-10 Max=6.00D-09 NDo=     1
 LinEq1:  Iter= 19 NonCon=     1 RMS=7.37D-11 Max=1.81D-09 NDo=     1
 LinEq1:  Iter= 20 NonCon=     0 RMS=1.74D-11 Max=2.57D-10 NDo=     1
 Linear equations converged to 1.000D-10 1.000D-09 after    20 iterations.
 End of Minotr F.D. properties file   721 does not exist.
 End of Minotr F.D. properties file   722 does not exist.
 End of Minotr F.D. properties file   788 does not exist.
 Calling FoFJK, ICntrl=  10002127 FMM=F ISym2X=0 I1Cent= 0 IOpClX= 0 NMat=1 NMatS=1 NMatT=0.
 ***** Axes restored to original set *****
 -------------------------------------------------------------------
 Center     Atomic                   Forces (Hartrees/Bohr)
 Number     Number              X              Y              Z
 -------------------------------------------------------------------
      1        6          -0.000741099   -0.000027560    0.000033942
      2        6           0.001055684    0.000000183    0.000129585
      3        6          -0.000741383    0.000027367    0.000033917
      4        6           0.000472464    0.000297984   -0.000008355
      5        6          -0.001463152   -0.000000015    0.000004053
      6        6           0.000472357   -0.000298032   -0.000008353
      7        7           0.000658777   -0.000000009    0.000000511
      8        7           0.003706773   -0.000000069   -0.000615280
      9        8          -0.001580155   -0.001849017    0.000218348
     10        8          -0.001580055    0.001849072    0.000218235
     11        1           0.000075656    0.000112173    0.000001179
     12        1           0.000075661   -0.000112105    0.000001187
     13        1          -0.000076156   -0.000070602   -0.000004140
     14        1          -0.000076160    0.000070617   -0.000004145
     15        1          -0.000129592    0.000077425   -0.000000346
     16        1          -0.000129619   -0.000077411   -0.000000339
 -------------------------------------------------------------------
 Cartesian Forces:  Max     0.003706773 RMS     0.000811147

 GradGradGradGradGradGradGradGradGradGradGradGradGradGradGradGradGradGrad
 Berny optimization.
 Using GEDIIS/GDIIS optimizer.
 FormGI is forming the generalized inverse of G from B-inverse, IUseBI=4.
 Internal  Forces:  Max     0.002372747 RMS     0.000463589
 Search for a local minimum.
 Step number   2 out of a maximum of   82
 All quantities printed in internal units (Hartrees-Bohrs-Radians)
 Mixed Optimization -- En-DIIS/RFO-DIIS
 Update second derivatives using D2CorX and points    1    2
 DE= -4.21D-04 DEPred=-3.90D-04 R= 1.08D+00
 TightC=F SS=  1.41D+00  RLast= 3.40D-02 DXNew= 5.0454D-01 1.0193D-01
 Trust test= 1.08D+00 RLast= 3.40D-02 DXMaxT set to 3.00D-01
 ITU=  1  0
 Use linear search instead of GDIIS.
     Eigenvalues ---    0.01034   0.01040   0.01806   0.01968   0.02043
     Eigenvalues ---    0.02099   0.02130   0.02152   0.02152   0.02182
     Eigenvalues ---    0.02191   0.02236   0.02242   0.15958   0.16000
     Eigenvalues ---    0.16000   0.16000   0.16000   0.16028   0.22000
     Eigenvalues ---    0.22891   0.23838   0.25000   0.25000   0.25000
     Eigenvalues ---    0.25287   0.35198   0.35248   0.35511   0.35671
     Eigenvalues ---    0.39302   0.40993   0.41970   0.45113   0.45659
     Eigenvalues ---    0.46792   0.46815   0.47049   0.49292   0.51745
     Eigenvalues ---    0.77995   0.90722
 RFO step:  Lambda=-4.93114842D-05 EMin= 1.03364348D-02
 Quartic linear search produced a step of  0.10218.
 Iteration  1 RMS(Cart)=  0.00614842 RMS(Int)=  0.00012062
 Iteration  2 RMS(Cart)=  0.00010674 RMS(Int)=  0.00007389
 Iteration  3 RMS(Cart)=  0.00000002 RMS(Int)=  0.00007389
 Variable       Old X    -DE/DX   Delta X   Delta X   Delta X     New X
                                 (Linear)    (Quad)   (Total)
    R1        2.64098  -0.00042   0.00030  -0.00110  -0.00080   2.64018
    R2        2.62042  -0.00014   0.00066  -0.00053   0.00013   2.62055
    R3        2.04274   0.00006  -0.00059   0.00037  -0.00022   2.04251
    R4        2.64098  -0.00042   0.00030  -0.00110  -0.00080   2.64018
    R5        2.75160  -0.00055   0.00122  -0.00197  -0.00075   2.75085
    R6        2.62042  -0.00014   0.00066  -0.00053   0.00013   2.62055
    R7        2.04274   0.00006  -0.00059   0.00037  -0.00023   2.04251
    R8        2.66773  -0.00037   0.00006  -0.00095  -0.00089   2.66684
    R9        2.04876   0.00002  -0.00049   0.00023  -0.00026   2.04850
   R10        2.66773  -0.00037   0.00006  -0.00095  -0.00089   2.66684
   R11        2.58887   0.00040   0.00092   0.00054   0.00146   2.59033
   R12        2.04876   0.00002  -0.00049   0.00023  -0.00026   2.04850
   R13        1.89806  -0.00000  -0.00015   0.00005  -0.00010   1.89796
   R14        1.89806  -0.00000  -0.00015   0.00005  -0.00010   1.89796
   R15        2.34389   0.00237   0.00183   0.00224   0.00407   2.34795
   R16        2.34389   0.00237   0.00183   0.00224   0.00407   2.34795
    A1        2.08558  -0.00040  -0.00012  -0.00184  -0.00196   2.08362
    A2        2.08486   0.00033   0.00020   0.00175   0.00195   2.08681
    A3        2.11274   0.00007  -0.00008   0.00010   0.00001   2.11276
    A4        2.11020   0.00072   0.00005   0.00327   0.00331   2.11351
    A5        2.08650  -0.00036  -0.00002  -0.00163  -0.00166   2.08484
    A6        2.08649  -0.00036  -0.00002  -0.00163  -0.00166   2.08484
    A7        2.08558  -0.00040  -0.00012  -0.00184  -0.00196   2.08362
    A8        2.08486   0.00033   0.00020   0.00175   0.00195   2.08681
    A9        2.11274   0.00007  -0.00008   0.00010   0.00001   2.11276
   A10        2.10659  -0.00019   0.00010  -0.00084  -0.00075   2.10585
   A11        2.08983  -0.00001   0.00009  -0.00033  -0.00024   2.08959
   A12        2.08677   0.00020  -0.00019   0.00117   0.00098   2.08775
   A13        2.07182   0.00046  -0.00001   0.00211   0.00210   2.07392
   A14        2.10568  -0.00023   0.00000  -0.00105  -0.00105   2.10463
   A15        2.10568  -0.00023   0.00000  -0.00106  -0.00105   2.10463
   A16        2.10659  -0.00019   0.00010  -0.00084  -0.00075   2.10585
   A17        2.08983  -0.00001   0.00009  -0.00033  -0.00024   2.08959
   A18        2.08677   0.00020  -0.00019   0.00117   0.00099   2.08775
   A19        2.11442  -0.00010  -0.00001  -0.00066  -0.00066   2.11376
   A20        2.11442  -0.00010  -0.00001  -0.00066  -0.00066   2.11376
   A21        2.05434   0.00019   0.00001   0.00131   0.00132   2.05567
   A22        2.05704   0.00042  -0.00022   0.00197   0.00139   2.05842
   A23        2.05704   0.00042  -0.00022   0.00197   0.00139   2.05842
   A24        2.16910  -0.00083   0.00044  -0.00374  -0.00366   2.16544
    D1       -0.00006   0.00001  -0.00001   0.00070   0.00069   0.00063
    D2        3.14157   0.00001  -0.00000   0.00024   0.00024  -3.14138
    D3        3.14156   0.00001  -0.00000   0.00033   0.00032  -3.14130
    D4        0.00001  -0.00000   0.00000  -0.00014  -0.00014  -0.00012
    D5        0.00003  -0.00001   0.00000  -0.00033  -0.00032  -0.00029
    D6       -3.14156  -0.00001   0.00000  -0.00036  -0.00036   3.14126
    D7        3.14159   0.00000  -0.00000   0.00006   0.00006  -3.14154
    D8       -0.00000   0.00000  -0.00000   0.00002   0.00002   0.00001
    D9        0.00006  -0.00001   0.00001  -0.00070  -0.00069  -0.00063
   D10       -3.14156  -0.00001   0.00000  -0.00033  -0.00032   3.14130
   D11       -3.14157  -0.00001   0.00000  -0.00024  -0.00024   3.14138
   D12       -0.00001   0.00000  -0.00000   0.00014   0.00014   0.00012
   D13        3.13942   0.00024  -0.00025   0.02446   0.02421  -3.11956
   D14        0.00213  -0.00023   0.00024  -0.02400  -0.02375  -0.02162
   D15       -0.00213   0.00023  -0.00024   0.02400   0.02375   0.02163
   D16       -3.13942  -0.00024   0.00025  -0.02446  -0.02421   3.11956
   D17       -0.00003   0.00001  -0.00000   0.00032   0.00032   0.00029
   D18        3.14156   0.00001  -0.00000   0.00036   0.00036  -3.14126
   D19       -3.14159  -0.00000   0.00000  -0.00006  -0.00006   3.14154
   D20        0.00000  -0.00000   0.00000  -0.00002  -0.00002  -0.00001
   D21       -0.00000   0.00000  -0.00000   0.00004   0.00004   0.00004
   D22        3.14159   0.00000  -0.00000   0.00004   0.00003  -3.14156
   D23       -3.14159  -0.00000  -0.00000   0.00000  -0.00000   3.14159
   D24       -0.00000  -0.00000  -0.00000  -0.00000  -0.00000  -0.00001
   D25        0.00000  -0.00000   0.00000  -0.00004  -0.00004  -0.00004
   D26        3.14159   0.00000   0.00000  -0.00000   0.00000   3.14159
   D27       -3.14159  -0.00000   0.00000  -0.00004  -0.00003   3.14156
   D28        0.00000   0.00000  -0.00000   0.00000   0.00000   0.00001
   D29        3.14157  -0.00000  -0.00000  -0.00001  -0.00001   3.14155
   D30        0.00003   0.00000   0.00000   0.00002   0.00002   0.00005
   D31       -0.00003  -0.00000  -0.00000  -0.00002  -0.00002  -0.00005
   D32       -3.14157   0.00000   0.00000   0.00001   0.00001  -3.14155
         Item               Value     Threshold  Converged?
 Maximum Force            0.002373     0.000450     NO 
 RMS     Force            0.000464     0.000300     NO 
 Maximum Displacement     0.027208     0.001800     NO 
 RMS     Displacement     0.006162     0.001200     NO 
 Predicted change in Energy=-2.856860D-05
 GradGradGradGradGradGradGradGradGradGradGradGradGradGradGradGradGradGrad

                          Input orientation:                          
 ---------------------------------------------------------------------
 Center     Atomic      Atomic             Coordinates (Angstroms)
 Number     Number       Type             X           Y           Z
 ---------------------------------------------------------------------
      1          6           0       -0.024210    1.216564   -0.004303
      2          6           0       -0.711173   -0.000000   -0.006124
      3          6           0       -0.024210   -1.216565   -0.004232
      4          6           0        1.362521   -1.214876   -0.001246
      5          6           0        2.080608   -0.000000    0.000243
      6          6           0        1.362521    1.214875   -0.001317
      7          7           0        3.451349    0.000000    0.003161
      8          7           0       -2.166855   -0.000000   -0.009533
      9          8           0       -2.749053   -1.097407    0.013095
     10          8           0       -2.749053    1.097407    0.013027
     11          1           0       -0.580603    2.143206   -0.005559
     12          1           0       -0.580603   -2.143207   -0.005434
     13          1           0        1.901155   -2.155605   -0.000075
     14          1           0        1.901155    2.155604   -0.000201
     15          1           0        3.970274    0.859913    0.004203
     16          1           0        3.970275   -0.859911    0.004254
 ---------------------------------------------------------------------
                    Distance matrix (angstroms):
                    1          2          3          4          5
     1  C    0.000000
     2  C    1.397122   0.000000
     3  C    2.433129   1.397122   0.000000
     4  C    2.799095   2.403363   1.386736   0.000000
     5  C    2.431112   2.791788   2.431113   1.411231   0.000000
     6  C    1.386735   2.403363   2.799095   2.429751   1.411231
     7  N    3.682335   4.162533   3.682336   2.416433   1.370745
     8  N    2.463937   1.455686   2.463937   3.732625   4.247474
     9  O    3.574848   2.314655   2.727502   4.113277   4.952786
    10  O    2.727502   2.314655   3.574847   4.717192   4.952786
    11  H    1.080851   2.147180   3.405530   3.879750   3.416930
    12  H    3.405530   2.147180   1.080851   2.153497   3.416930
    13  H    3.883114   3.386876   2.142159   1.084020   2.163062
    14  H    2.142159   3.386875   3.883114   3.413248   2.163061
    15  H    4.010384   4.759780   4.501971   3.332440   2.076128
    16  H    4.501970   4.759781   4.010385   2.631808   2.076128
                    6          7          8          9         10
     6  C    0.000000
     7  N    2.416432   0.000000
     8  N    3.732625   5.618219   0.000000
     9  O    4.717192   6.296776   1.242484   0.000000
    10  O    4.113277   6.296776   1.242484   2.194814   0.000000
    11  H    2.153497   4.566185   2.666373   3.899243   2.407533
    12  H    3.879750   4.566186   2.666373   2.407532   3.899243
    13  H    3.413248   2.655136   4.603849   4.769108   5.675094
    14  H    1.084020   2.655135   4.603849   5.675094   4.769108
    15  H    2.631806   1.004357   6.197096   6.998610   6.723529
    16  H    3.332439   1.004357   6.197097   6.723530   6.998610
                   11         12         13         14         15
    11  H    0.000000
    12  H    4.286413   0.000000
    13  H    4.963762   2.481795   0.000000
    14  H    2.481795   4.963761   4.311209   0.000000
    15  H    4.728363   5.452459   3.657133   2.441330   0.000000
    16  H    5.452458   4.728365   2.441332   3.657132   1.719824
                   16
    16  H    0.000000
 Stoichiometry    C6H6N2O2
 Framework group  C1[X(C6H6N2O2)]
 Deg. of freedom    42
 Full point group                 C1      NOp   1
 Largest Abelian subgroup         C1      NOp   1
 Largest concise Abelian subgroup C1      NOp   1
                         Standard orientation:                         
 ---------------------------------------------------------------------
 Center     Atomic      Atomic             Coordinates (Angstroms)
 Number     Number       Type             X           Y           Z
 ---------------------------------------------------------------------
      1          6           0       -0.022325   -1.216565    0.005117
      2          6           0       -0.709286   -0.000000    0.007612
      3          6           0       -0.022325    1.216565    0.005118
      4          6           0        1.364403    1.214876    0.000843
      5          6           0        2.082488    0.000000   -0.001348
      6          6           0        1.364403   -1.214875    0.000842
      7          7           0        3.453226   -0.000000   -0.005539
      8          7           0       -2.164964   -0.000000    0.012373
      9          8           0       -2.747183    1.097407   -0.009682
     10          8           0       -2.747183   -1.097407   -0.009680
     11          1           0       -0.578716   -2.143206    0.006862
     12          1           0       -0.578717    2.143206    0.006863
     13          1           0        1.903035    2.155605   -0.000799
     14          1           0        1.903036   -2.155604   -0.000801
     15          1           0        3.972150   -0.859912   -0.007089
     16          1           0        3.972151    0.859911   -0.007089
 ---------------------------------------------------------------------
 Rotational constants (GHZ):      3.8998183      0.8206838      0.6780166
 Standard basis: 6-31+G(d,p) (6D, 7F)
 There are   220 symmetry adapted cartesian basis functions of A   symmetry.
 There are   220 symmetry adapted basis functions of A   symmetry.
   220 basis functions,   362 primitive gaussians,   220 cartesian basis functions
    36 alpha electrons       36 beta electrons
       nuclear repulsion energy       494.2713288026 Hartrees.
 NAtoms=   16 NActive=   16 NUniq=   16 SFac= 1.00D+00 NAtFMM=   60 NAOKFM=F Big=F
 Integral buffers will be    131072 words long.
 Regular integral format.
 Two-electron integral symmetry is turned on.
 Nuclear repulsion after empirical dispersion term =      494.2539805528 Hartrees.
 One-electron integrals computed using PRISM.
 NBasis=   220 RedAO= T EigKep=  3.27D-06  NBF=   220
 NBsUse=   220 1.00D-06 EigRej= -1.00D+00 NBFU=   220
 Initial guess from the checkpoint file:  "B2PLYPD3BJPNA.chk"
 B after Tr=    -0.000000   -0.000000   -0.000000
         Rot=    1.000000   -0.000015    0.000052   -0.000000 Ang=  -0.01 deg.
 ExpMin= 4.38D-02 ExpMax= 5.48D+03 ExpMxC= 8.25D+02 IAcc=2 IRadAn=         4 AccDes= 0.00D+00
 Harris functional with IExCor=  419 and IRadAn=       4 diagonalized for initial guess.
 HarFok:  IExCor=  419 AccDes= 0.00D+00 IRadAn=         4 IDoV= 1 UseB2=F ITyADJ=14
 ICtDFT=  3500011 ScaDFX=  1.000000  1.000000  1.000000  1.000000
 FoFCou: FMM=F IPFlag=           0 FMFlag=      100000 FMFlg1=           0
         NFxFlg=           0 DoJE=T BraDBF=F KetDBF=T FulRan=T
         wScrn=  0.000000 ICntrl=     500 IOpCl=  0 I1Cent=   200000004 NGrid=           0
         NMat0=    1 NMatS0=      1 NMatT0=    0 NMatD0=    1 NMtDS0=    0 NMtDT0=    0
 Petite list used in FoFCou.
 Keep R1 ints in memory in canonical form, NReq=301066375.
 Requested convergence on RMS density matrix=1.00D-08 within 128 cycles.
 Requested convergence on MAX density matrix=1.00D-06.
 Requested convergence on             energy=1.00D-06.
 No special actions if energy rises.
 SCF Done:  E(RB2PLYP) =  -491.179841843     A.U. after   12 cycles
            NFock= 12  Conv=0.63D-08     -V/T= 2.0071
 DoSCS=T DFT=T ScalE2(SS,OS)=  0.270000  0.270000
 ExpMin= 4.38D-02 ExpMax= 5.48D+03 ExpMxC= 8.25D+02 IAcc=3 IRadAn=         5 AccDes= 0.00D+00
 HarFok:  IExCor=  205 AccDes= 0.00D+00 IRadAn=         5 IDoV=-2 UseB2=F ITyADJ=14
 ICtDFT= 12500011 ScaDFX=  1.000000  1.000000  1.000000  1.000000
 Range of M.O.s used for correlation:    11   220
 NBasis=   220 NAE=    36 NBE=    36 NFC=    10 NFV=     0
 NROrb=    210 NOA=    26 NOB=    26 NVA=   184 NVB=   184

 **** Warning!!: The largest alpha MO coefficient is  0.13666136D+03

 DoSCS=T DFT=T ScalE2(SS,OS)=  0.270000  0.270000
 Fully direct method using O(ONN) memory.
 JobTyp=1 Pass  1:  I=  11 to  18 NPSUse= 18 ParTrn=T ParDer=T DoDerP=T.
 JobTyp=1 Pass  2:  I=  19 to  26 NPSUse= 18 ParTrn=T ParDer=T DoDerP=T.
 JobTyp=1 Pass  3:  I=  27 to  34 NPSUse= 18 ParTrn=T ParDer=T DoDerP=T.
 JobTyp=1 Pass  4:  I=  35 to  36 NPSUse= 18 ParTrn=T ParDer=T DoDerP=T.
 Spin components of T(2) and E(2):
     alpha-alpha T2 =       0.1178584623D+00 E2=     -0.7007099170D-01
     alpha-beta  T2 =       0.6082266213D+00 E2=     -0.3692132489D+00
     beta-beta   T2 =       0.1178584623D+00 E2=     -0.7007099170D-01
 E2(B2PLYP) =    -0.5093552323D+00 E(B2PLYP) =    -0.49168919707567D+03
          IDoAtm=1111111111111111
          Differentiating once with respect to electric field.
                with respect to dipole field.
          Differentiating once with respect to nuclear coordinates.
 Keep R1 ints in memory in canonical form, NReq=300899106.
          There are     1 degrees of freedom in the 1st order CPHF.  IDoFFX=0 NUNeed=     1.
 LinEq1:  Iter=  0 NonCon=     1 RMS=2.33D-03 Max=7.81D-02 NDo=     1
 AX will form     1 AO Fock derivatives at one time.
 LinEq1:  Iter=  1 NonCon=     1 RMS=9.79D-04 Max=2.26D-02 NDo=     1
 LinEq1:  Iter=  2 NonCon=     1 RMS=4.29D-04 Max=1.26D-02 NDo=     1
 LinEq1:  Iter=  3 NonCon=     1 RMS=3.11D-04 Max=1.16D-02 NDo=     1
 LinEq1:  Iter=  4 NonCon=     1 RMS=1.12D-04 Max=5.24D-03 NDo=     1
 LinEq1:  Iter=  5 NonCon=     1 RMS=6.65D-05 Max=3.11D-03 NDo=     1
 LinEq1:  Iter=  6 NonCon=     1 RMS=2.81D-05 Max=8.08D-04 NDo=     1
 LinEq1:  Iter=  7 NonCon=     1 RMS=1.23D-05 Max=2.12D-04 NDo=     1
 LinEq1:  Iter=  8 NonCon=     1 RMS=4.33D-06 Max=7.69D-05 NDo=     1
 LinEq1:  Iter=  9 NonCon=     1 RMS=1.90D-06 Max=3.79D-05 NDo=     1
 LinEq1:  Iter= 10 NonCon=     1 RMS=6.48D-07 Max=2.06D-05 NDo=     1
 LinEq1:  Iter= 11 NonCon=     1 RMS=2.41D-07 Max=9.32D-06 NDo=     1
 LinEq1:  Iter= 12 NonCon=     1 RMS=1.30D-07 Max=4.88D-06 NDo=     1
 LinEq1:  Iter= 13 NonCon=     1 RMS=4.36D-08 Max=1.15D-06 NDo=     1
 LinEq1:  Iter= 14 NonCon=     1 RMS=9.18D-09 Max=2.10D-07 NDo=     1
 LinEq1:  Iter= 15 NonCon=     1 RMS=3.83D-09 Max=6.96D-08 NDo=     1
 LinEq1:  Iter= 16 NonCon=     1 RMS=1.05D-09 Max=2.78D-08 NDo=     1
 LinEq1:  Iter= 17 NonCon=     1 RMS=8.16D-10 Max=4.16D-08 NDo=     1
 LinEq1:  Iter= 18 NonCon=     1 RMS=3.62D-10 Max=6.30D-09 NDo=     1
 LinEq1:  Iter= 19 NonCon=     1 RMS=8.48D-11 Max=1.91D-09 NDo=     1
 LinEq1:  Iter= 20 NonCon=     0 RMS=2.22D-11 Max=3.29D-10 NDo=     1
 Linear equations converged to 1.000D-10 1.000D-09 after    20 iterations.
 End of Minotr F.D. properties file   721 does not exist.
 End of Minotr F.D. properties file   722 does not exist.
 End of Minotr F.D. properties file   788 does not exist.
 Calling FoFJK, ICntrl=  10002127 FMM=F ISym2X=0 I1Cent= 0 IOpClX= 0 NMat=1 NMatS=1 NMatT=0.
 ***** Axes restored to original set *****
 -------------------------------------------------------------------
 Center     Atomic                   Forces (Hartrees/Bohr)
 Number     Number              X              Y              Z
 -------------------------------------------------------------------
      1        6           0.000004587   -0.000097146   -0.000340503
      2        6          -0.000429809   -0.000000669   -0.001308261
      3        6           0.000005203    0.000097743   -0.000340513
      4        6           0.000010097    0.000137389    0.000082534
      5        6          -0.000065028   -0.000000062   -0.000040487
      6        6           0.000010250   -0.000137313    0.000082519
      7        7          -0.000009086   -0.000000079   -0.000000095
      8        7           0.000471343    0.000000215    0.006303989
      9        8           0.000050444    0.000151428   -0.002251650
     10        8           0.000050452   -0.000151543   -0.002251634
     11        1          -0.000078194    0.000049798   -0.000012085
     12        1          -0.000078205   -0.000049790   -0.000012078
     13        1           0.000048169   -0.000086528    0.000042461
     14        1           0.000048201    0.000086549    0.000042459
     15        1          -0.000019201    0.000043925    0.000001678
     16        1          -0.000019221   -0.000043918    0.000001667
 -------------------------------------------------------------------
 Cartesian Forces:  Max     0.006303989 RMS     0.001044861

 GradGradGradGradGradGradGradGradGradGradGradGradGradGradGradGradGradGrad
 Berny optimization.
 Using GEDIIS/GDIIS optimizer.
 FormGI is forming the generalized inverse of G from B-inverse, IUseBI=4.
 Internal  Forces:  Max     0.002370344 RMS     0.000557075
 Search for a local minimum.
 Step number   3 out of a maximum of   82
 All quantities printed in internal units (Hartrees-Bohrs-Radians)
 Mixed Optimization -- En-DIIS/RFO-DIIS
 Swapping is turned off.
 Update second derivatives using D2CorX and points    1    2    3
 DE=  8.42D-05 DEPred=-2.86D-05 R=-2.95D+00
 Trust test=-2.95D+00 RLast= 4.90D-02 DXMaxT set to 1.50D-01
 ITU= -1  1  0
     Eigenvalues ---    0.01034   0.01806   0.01968   0.02043   0.02099
     Eigenvalues ---    0.02130   0.02152   0.02152   0.02178   0.02191
     Eigenvalues ---    0.02236   0.02242   0.06723   0.14929   0.16000
     Eigenvalues ---    0.16000   0.16000   0.16009   0.16023   0.17841
     Eigenvalues ---    0.22000   0.23109   0.24874   0.25000   0.25000
     Eigenvalues ---    0.25000   0.33679   0.35198   0.35339   0.35511
     Eigenvalues ---    0.37989   0.39816   0.41368   0.41978   0.45115
     Eigenvalues ---    0.46565   0.46792   0.46845   0.47047   0.49490
     Eigenvalues ---    0.55989   0.90722
 En-DIIS/RFO-DIIS IScMMF=        0 using points:     3    2
 RFO step:  Lambda=-7.39567325D-05.
 DidBck=T Rises=F RFO-DIIS coefs:    0.20293    0.79707
 Iteration  1 RMS(Cart)=  0.00729524 RMS(Int)=  0.00013789
 Iteration  2 RMS(Cart)=  0.00014545 RMS(Int)=  0.00004240
 Iteration  3 RMS(Cart)=  0.00000003 RMS(Int)=  0.00004240
 Variable       Old X    -DE/DX   Delta X   Delta X   Delta X     New X
                                 (Linear)    (Quad)   (Total)
    R1        2.64018  -0.00009   0.00064  -0.00094  -0.00030   2.63988
    R2        2.62055   0.00000  -0.00011   0.00184   0.00173   2.62228
    R3        2.04251   0.00008   0.00018  -0.00179  -0.00161   2.04090
    R4        2.64018  -0.00009   0.00064  -0.00094  -0.00030   2.63988
    R5        2.75085  -0.00058   0.00060   0.00101   0.00160   2.75245
    R6        2.62055   0.00000  -0.00011   0.00184   0.00173   2.62228
    R7        2.04251   0.00008   0.00018  -0.00179  -0.00161   2.04090
    R8        2.66684  -0.00006   0.00071  -0.00166  -0.00096   2.66588
    R9        2.04850   0.00010   0.00021  -0.00160  -0.00140   2.04710
   R10        2.66684  -0.00006   0.00071  -0.00166  -0.00096   2.66588
   R11        2.59033  -0.00005  -0.00116   0.00509   0.00393   2.59426
   R12        2.04850   0.00010   0.00021  -0.00160  -0.00140   2.04710
   R13        1.89796   0.00003   0.00008  -0.00053  -0.00045   1.89751
   R14        1.89796   0.00003   0.00008  -0.00053  -0.00045   1.89751
   R15        2.34795  -0.00020  -0.00324   0.01245   0.00921   2.35717
   R16        2.34795  -0.00020  -0.00324   0.01245   0.00921   2.35717
    A1        2.08362  -0.00002   0.00156  -0.00424  -0.00267   2.08095
    A2        2.08681  -0.00003  -0.00155   0.00431   0.00276   2.08957
    A3        2.11276   0.00005  -0.00001  -0.00007  -0.00009   2.11267
    A4        2.11351   0.00006  -0.00264   0.00682   0.00417   2.11768
    A5        2.08484  -0.00003   0.00132  -0.00341  -0.00209   2.08275
    A6        2.08484  -0.00003   0.00132  -0.00341  -0.00209   2.08275
    A7        2.08362  -0.00002   0.00156  -0.00424  -0.00267   2.08095
    A8        2.08681  -0.00003  -0.00155   0.00431   0.00276   2.08957
    A9        2.11276   0.00005  -0.00001  -0.00007  -0.00009   2.11267
   A10        2.10585  -0.00002   0.00059  -0.00129  -0.00069   2.10516
   A11        2.08959   0.00001   0.00019  -0.00027  -0.00008   2.08951
   A12        2.08775   0.00001  -0.00078   0.00156   0.00077   2.08852
   A13        2.07392   0.00003  -0.00167   0.00423   0.00255   2.07648
   A14        2.10463  -0.00002   0.00084  -0.00211  -0.00128   2.10336
   A15        2.10463  -0.00002   0.00084  -0.00211  -0.00128   2.10335
   A16        2.10585  -0.00002   0.00059  -0.00129  -0.00069   2.10516
   A17        2.08959   0.00001   0.00019  -0.00027  -0.00008   2.08951
   A18        2.08775   0.00001  -0.00079   0.00156   0.00077   2.08852
   A19        2.11376  -0.00002   0.00053  -0.00138  -0.00085   2.11291
   A20        2.11376  -0.00002   0.00053  -0.00138  -0.00085   2.11291
   A21        2.05567   0.00005  -0.00105   0.00275   0.00170   2.05737
   A22        2.05842   0.00011  -0.00110   0.00315   0.00184   2.06026
   A23        2.05842   0.00011  -0.00110   0.00315   0.00184   2.06026
   A24        2.16544  -0.00002   0.00292  -0.00556  -0.00285   2.16259
    D1        0.00063  -0.00013  -0.00055  -0.00025  -0.00081  -0.00018
    D2       -3.14138  -0.00006  -0.00019  -0.00009  -0.00028   3.14153
    D3       -3.14130  -0.00006  -0.00026  -0.00011  -0.00037   3.14151
    D4       -0.00012   0.00002   0.00011   0.00005   0.00016   0.00004
    D5       -0.00029   0.00006   0.00026   0.00012   0.00037   0.00008
    D6        3.14126   0.00007   0.00029   0.00014   0.00042  -3.14150
    D7       -3.14154  -0.00001  -0.00004  -0.00002  -0.00007   3.14158
    D8        0.00001  -0.00000  -0.00001  -0.00000  -0.00002  -0.00000
    D9       -0.00063   0.00013   0.00055   0.00025   0.00081   0.00018
   D10        3.14130   0.00006   0.00026   0.00011   0.00037  -3.14151
   D11        3.14138   0.00006   0.00019   0.00009   0.00028  -3.14153
[...]
 ! A24   A(9,8,10)             124.0532         -DE/DX =    0.0001              !
 ! D1    D(6,1,2,3)             -0.0005         -DE/DX =    0.0                 !
 ! D2    D(6,1,2,8)           -180.0003         -DE/DX =    0.0                 !
 ! D3    D(11,1,2,3)           179.9998         -DE/DX =    0.0                 !
 ! D4    D(11,1,2,8)             0.0            -DE/DX =    0.0                 !
 ! D5    D(2,1,6,5)              0.0003         -DE/DX =    0.0                 !
 ! D6    D(2,1,6,14)          -179.9997         -DE/DX =    0.0                 !
 ! D7    D(11,1,6,5)          -180.0            -DE/DX =    0.0                 !
 ! D8    D(11,1,6,14)            0.0            -DE/DX =    0.0                 !
 ! D9    D(1,2,3,4)              0.0005         -DE/DX =    0.0                 !
 ! D10   D(1,2,3,12)           180.0002         -DE/DX =    0.0                 !
 ! D11   D(8,2,3,4)            180.0002         -DE/DX =    0.0                 !
 ! D12   D(8,2,3,12)             0.0            -DE/DX =    0.0                 !
 ! D13   D(1,2,8,9)           -180.0131         -DE/DX =    0.0                 !
 ! D14   D(1,2,8,10)             0.013          -DE/DX =    0.0                 !
 ! D15   D(3,2,8,9)             -0.0129         -DE/DX =    0.0                 !
 ! D16   D(3,2,8,10)          -179.9867         -DE/DX =    0.0                 !
 ! D17   D(2,3,4,5)             -0.0003         -DE/DX =    0.0                 !
 ! D18   D(2,3,4,13)           179.9997         -DE/DX =    0.0                 !
 ! D19   D(12,3,4,5)           180.0            -DE/DX =    0.0                 !
 ! D20   D(12,3,4,13)            0.0            -DE/DX =    0.0                 !
 ! D21   D(3,4,5,6)              0.0            -DE/DX =    0.0                 !
 ! D22   D(3,4,5,7)            179.9997         -DE/DX =    0.0                 !
 ! D23   D(13,4,5,6)          -179.9999         -DE/DX =    0.0                 !
 ! D24   D(13,4,5,7)            -0.0003         -DE/DX =    0.0                 !
 ! D25   D(4,5,6,1)              0.0            -DE/DX =    0.0                 !
 ! D26   D(4,5,6,14)           179.9999         -DE/DX =    0.0                 !
 ! D27   D(7,5,6,1)           -179.9997         -DE/DX =    0.0                 !
 ! D28   D(7,5,6,14)             0.0003         -DE/DX =    0.0                 !
 ! D29   D(4,5,7,15)           179.9977         -DE/DX =    0.0                 !
 ! D30   D(4,5,7,16)             0.0026         -DE/DX =    0.0                 !
 ! D31   D(6,5,7,15)            -0.0026         -DE/DX =    0.0                 !
 ! D32   D(6,5,7,16)          -179.9978         -DE/DX =    0.0                 !
 --------------------------------------------------------------------------------
 GradGradGradGradGradGradGradGradGradGradGradGradGradGradGradGradGradGrad

 1\1\ WCSS.PL-BEM-JP\Freq\RB2PLYP-FC\6-31+G(d,p)\C6H6N2O2\C612\18-Dec-2
 024\0\\#N Geom=AllCheck Guess=TCheck SCRF=Check GenChk RB2PLYP(FC)/6-3
 1+G(d,p) Freq\\[No Title]\\0,1\C,-0.0242086853,1.2165670181,0.00000023
 77\C,-0.7107805224,0.0000000298,0.0000480423\C,-0.0242087852,-1.216567
 1742,0.0000713791\C,1.3623902211,-1.2149003916,0.0000570154\C,2.080212
 0396,-0.0000001981,0.0000137579\C,1.3623900746,1.2148997631,-0.0000139
 975\N,3.4508090218,0.0000001968,0.0000067794\N,-2.1654912494,-0.000000
 172,0.0000685797\O,-2.7481935312,-1.0971328463,-0.0001404148\O,-2.7481
 935498,1.0971325369,-0.0002072045\H,-0.581007702,2.143220998,-0.000020
 6075\H,-0.5810078259,-2.1432210719,0.0001048278\H,1.9010886856,-2.1558
 375299,0.0000799217\H,1.9010885311,2.1558369545,-0.0000461076\H,3.9696
 052741,0.8600504402,-0.0000578205\H,3.9696060033,-0.8600495619,-0.0000
 063887\\Version=ES64L-G09RevE.01\State=1-A\HF=-491.180014\MP2=-491.689
 2996\RMSD=6.625e-09\RMSF=7.454e-05\ZeroPoint=0.1186948\Thermal=0.12688
 51\Dipole=2.9804618,0.,0.0001522\DipoleDeriv=0.5272469,0.0991006,-0.00
 0003,0.2855446,0.0668294,0.0000024,0.0000314,-0.0000152,-0.0553983,-1.
 1218755,0.0000002,-0.0000264,-0.0000006,-0.1743467,0.0000054,0.0000666
 ,0.0000055,0.0039552,0.5272467,-0.0991011,0.0000027,-0.2855438,0.06682
 92,-0.0000095,0.0000484,0.0000076,-0.0553983,-0.6298543,-0.0132378,-0.
 000006,-0.572049,0.0440473,-0.0000071,0.0000324,-0.0000059,-0.1947287,
 2.1184958,0.0000006,0.0000059,0.0000006,0.076972,0.0000017,-0.0000065,
 0.0000016,0.1310762,-0.629854,0.0132379,-0.0000068,0.5720488,0.0440479
 ,-0.0000069,-0.0000016,-0.000008,-0.1947287,-1.9235066,-0.0000003,-0.0
 000177,-0.0000004,-0.1518189,-0.0000136,-0.000062,-0.0000136,-0.608469
 7,2.39107,0.,0.0000233,0.0000002,1.3658196,-0.0000354,0.0000605,-0.000
 0352,0.2124324,-0.9274256,-0.3202584,0.0000171,-0.3972927,-0.8325872,0
 .0000717,-0.0000897,-0.0001156,-0.2443618,-0.9274257,0.3202584,-0.0000
 025,0.3972927,-0.8325874,-0.0000357,-0.0001137,0.0001514,-0.2443618,0.
 1004884,0.0396304,0.0000009,0.0236073,0.0526322,0.0000009,0.,0.000003,
 0.1430554,0.1004883,-0.0396304,0.0000032,-0.0236073,0.0526322,0.000004
 3,0.0000013,0.0000024,0.1430555,-0.0113236,0.0789218,-0.0000029,0.0726
 021,-0.0365846,0.0000043,-0.0000146,0.0000003,0.1469767,-0.0113237,-0.
 0789219,0.0000018,-0.0726022,-0.0365848,0.0000064,-0.0000102,0.0000105
 ,0.1469766,0.2087763,0.0477008,0.0000037,0.0974202,0.1473499,0.0000102
 ,0.0000262,0.0000109,0.3349596,0.2087764,-0.0477007,0.0000066,-0.09742
 03,0.1473499,0.0000009,0.0000314,0.0000003,0.3349596\Polar=154.9717012
 ,0.0000017,99.5904333,0.0020299,-0.0014438,50.7957034\PG=C01 [X(C6H6N2
 O2)]\NImag=1\\0.72876092,-0.04151683,0.73571356,-0.00000745,-0.0000179
 8,0.11245742,-0.14680337,-0.10681969,0.00000687,0.57416003,-0.05653908
 ,-0.29456322,0.00000848,0.00000020,0.75947325,0.00000616,0.00000915,-0
 .03584437,0.00000359,-0.00001974,0.08729102,0.04745694,0.01830700,-0.0
 0000161,-0.14680332,0.05653890,0.00000287,0.72876032,-0.01830703,-0.05
 494801,0.00000242,0.10681953,-0.29456310,0.00000599,0.04151700,0.73571
 354,-0.00000056,0.00000041,-0.00652906,0.00000063,0.00000666,-0.035844
 40,-0.00000992,-0.00001844,0.11245746,-0.03635557,-0.02627649,0.000001
 64,-0.03826388,0.06502349,-0.00000208,-0.37659175,-0.02816196,0.000005
 54,0.73799275,-0.01666981,-0.01508506,0.00000112,0.02114819,0.02689546
 ,-0.00000265,0.02900972,-0.12697594,0.00000277,-0.04060775,0.70387923,
 0.00000132,0.00000152,0.00791546,0.00000040,-0.00000243,-0.00773095,0.
 00000262,0.00000363,-0.03614211,-0.00000535,-0.00001654,0.09615315,-0.
 03220247,0.03042265,-0.00000129,0.01543825,0.,0.00000023,-0.03220242,-
 0.03042267,0.00000047,-0.15699038,-0.09810598,0.00000423,0.74597474,0.
 07018062,0.03820096,-0.00000244,-0.00000002,-0.06534010,0.00000217,-0.
 07018058,0.03820088,-0.00000058,-0.03925084,-0.27304565,0.00000639,-0.
 00000006,0.69444977,-0.00000258,-0.00000246,-0.01327008,0.00000033,0.0
 0000215,0.00811015,0.00000151,-0.00000055,-0.01327007,0.00000313,0.000
 00794,-0.04533799,-0.00000744,-0.00001664,0.12706504,-0.37659231,0.028
 16208,0.00000386,-0.03826392,-0.06502351,0.00000171,-0.03635557,0.0262
 7649,0.00000011,0.04950897,0.01166237,-0.00000136,-0.15699046,0.039250
 96,0.00000083,0.73799348,-0.02900964,-0.12697596,0.00000254,-0.0211482
 0,0.02689559,0.00000061,0.01666978,-0.01508501,0.00000020,-0.01166235,
 -0.04262554,0.00000112,0.09810616,-0.27304578,0.00000539,0.04060744,0.
 70387911,0.00000433,0.00000165,-0.03614208,0.00000164,0.00000039,-0.00
 773088,0.00000033,-0.00000016,0.00791545,-0.00000069,0.00000097,-0.006
 41418,-0.00000151,0.00000693,-0.04533797,-0.00000772,-0.00001894,0.096
 15305,0.01049264,0.00134210,0.00000069,-0.01774057,0.,-0.00000054,0.01
 049262,-0.00134210,0.00000079,-0.04368817,-0.01645424,0.00000071,-0.35
 991342,-0.00000006,0.00000200,-0.04368824,0.01645427,-0.00000026,0.789
 84794,-0.00640619,-0.01069129,0.00000070,0.,0.00730632,-0.00000028,0.0
 0640619,-0.01069130,0.00000023,-0.04984687,0.00161452,0.00000056,-0.00
 000008,-0.13102092,0.00000319,0.04984688,0.00161452,-0.00000034,-0.000
 00019,0.89134738,0.00000083,0.00000051,0.00506416,-0.00000076,-0.00000
 027,-0.00197798,0.00000047,0.00000041,0.00506415,0.00000134,-0.0000005
 0,0.00547461,0.00000688,0.00000321,-0.02362222,-0.00000158,0.00000071,
 0.00547462,-0.00002885,-0.00002684,-0.00628505,-0.04127724,-0.01948908
 ,0.00000136,-0.14517933,0.,0.00001463,-0.04127727,0.01948906,0.0000002
 2,0.01336800,0.00814338,-0.00000191,-0.01671969,-0.00000002,0.00000034
 ,0.01336801,-0.00814334,-0.00000141,0.01587624,0.,0.00000064,0.6460334
 0,-0.02558418,0.01362540,0.00000123,0.00000002,-0.10847857,0.00000146,
 0.02558415,0.01362539,-0.00000261,0.00503469,-0.00700175,-0.00000029,-
 0.00000006,-0.00554049,0.00000008,-0.00503463,-0.00700181,0.00000120,0
 .,0.00034720,-0.00000002,0.00000008,0.91259722,0.00000036,-0.00000298,
 -0.01044672,-0.00000994,0.00000146,-0.05771625,-0.00000112,0.00000154,
 -0.01044672,-0.00000041,-0.00000019,0.00887478,-0.00000038,0.00000006,
 -0.00322235,-0.00000011,0.00000115,0.00887479,0.00000024,-0.00000002,-
 0.00025531,0.00008753,-0.00002140,0.20740526,-0.00321513,0.00739319,-0
 .00000169,-0.03711615,-0.04979775,-0.00001188,-0.00153781,-0.00219889,
 -0.00000090,-0.00164702,-0.00228780,0.00000041,0.00417140,-0.00183679,
 -0.00000032,-0.00398683,-0.00063522,0.00000097,-0.00425903,0.00030861,
 -0.00000010,-0.22306807,-0.17100421,-0.00003298,0.23347631,0.00020400,
 0.00280043,-0.00000083,-0.03397894,-0.01234970,-0.00000793,0.01058271,
 -0.00723632,0.00000105,-0.00377689,0.00018552,0.00000059,0.00372374,0.
 00046221,-0.00000015,-0.00158032,0.00165014,0.00000024,-0.00317944,0.0
 0048187,-0.00000015,-0.15787087,-0.40305117,-0.00003905,0.20263864,0.5
 1356481,-0.00000167,0.00000126,0.00434012,0.00000051,-0.00000570,0.014
 83003,0.00000052,-0.00000104,0.00253783,-0.00000051,0.,-0.00086855,0.0
 0000050,0.00000026,0.00047887,0.00000027,-0.00000062,-0.00093392,-0.00
 000039,0.00000005,-0.00000579,-0.00004659,-0.00006123,-0.06939834,0.00
 004516,0.00005280,0.02550118,-0.00153783,0.00219890,-0.00000103,-0.037
 11615,0.04979775,-0.00001490,-0.00321515,-0.00739316,-0.00000126,-0.00
 398681,0.00063522,0.00000094,0.00417137,0.00183680,-0.00000041,-0.0016
 4700,0.00228776,0.00000026,-0.00425903,-0.00030861,-0.00000008,-0.2230
 6805,0.17100413,-0.00004348,0.04171740,-0.01827524,0.00000280,0.233476
 31,-0.01058269,-0.00723634,-0.00000050,0.03397892,-0.01234970,0.000009
 64,-0.00020399,0.00280042,0.00000091,0.00158029,0.00165014,-0.00000039
 ,-0.00372368,0.00046219,0.00000014,0.00377686,0.00018556,-0.00000063,0
 .00317943,0.00048187,0.00000013,0.15787079,-0.40305099,0.00005937,0.01
 827524,-0.10074173,0.00001391,-0.20263856,0.51356462,0.00000110,0.0000
 0164,0.00253786,-0.00000150,0.00000736,0.01483002,-0.00000172,-0.00000
 117,0.00434015,0.00000025,0.00000050,-0.00093393,0.00000061,-0.0000002
 5,0.00047887,-0.00000067,-0.00000011,-0.00086857,-0.00000058,-0.000000
 08,-0.00000579,-0.00005627,0.00008153,-0.06939838,0.00000169,-0.000006
 33,0.02408468,0.00005760,-0.00008249,0.02550121,-0.13336017,0.13094802
 ,-0.00000235,0.01288087,-0.01285530,0.00000003,-0.00183053,-0.00357578
 ,0.00000012,-0.00089836,-0.00066681,0.00000008,-0.00487036,-0.00114932
 ,0.00000018,-0.00994970,0.02623756,-0.00000044,-0.00027134,0.00139396,
 -0.00000004,0.00114356,-0.00040929,0.00000012,0.00034295,0.00117970,0.
 00000005,-0.00406596,-0.00038874,-0.00000041,0.13924208,0.12925669,-0.
 28151190,0.00000547,0.01543144,-0.01834620,0.00000029,-0.00401770,-0.0
 0318119,0.00000044,-0.00072682,0.00041281,-0.00000005,-0.00164847,0.00
 112388,0.00000028,-0.00321666,0.00631823,0.00000005,-0.00003808,0.0002
 8295,0.,0.00296187,-0.00324645,0.00000050,-0.00012165,0.00120095,0.000
 00004,0.00086450,0.00309929,-0.00000047,-0.13978226,0.29391246,-0.0000
 0172,0.00000670,-0.03609307,-0.00000177,-0.00000002,0.00286197,0.00000
 018,0.00000049,0.00541980,0.00000023,-0.00000005,-0.00149894,0.0000002
 6,-0.00000003,0.00915636,-0.00000001,-0.00000057,0.00245191,-0.0000000
 3,0.,-0.00007676,0.00000094,0.00000013,-0.00362168,-0.00000022,-0.0000
 0017,0.00033318,-0.00000050,-0.00000005,-0.00008205,0.00000269,-0.0000
 0634,0.02579142,-0.00183053,0.00357579,-0.00000009,0.01288086,0.012855
 30,-0.00000071,-0.13336021,-0.13094811,0.00000533,-0.00994970,-0.02623
 755,0.00000110,-0.00487036,0.00114932,0.00000012,-0.00089837,0.0006668
 2,0.00000004,-0.00027134,-0.00139396,0.00000004,0.00114356,0.00040929,
 0.00000009,-0.00406597,0.00038874,-0.00000043,0.00034295,-0.00117970,0
 .00000012,0.00074509,0.00089056,0.00000003,0.13924214,0.00401771,-0.00
 318120,0.00000006,-0.01543145,-0.01834617,0.00000094,-0.12925677,-0.28
 151199,0.00000890,0.00321667,0.00631823,-0.00000028,0.00164847,0.00112
 387,0.00000019,0.00072681,0.00041283,-0.00000006,0.00003808,0.00028295
 ,-0.00000002,-0.00296187,-0.00324646,-0.00000052,-0.00086450,0.0030993
 0,0.00000028,0.00012165,0.00120095,-0.00000010,-0.00089056,-0.00087787
 ,0.00000006,0.13978234,0.29391251,-0.00000005,0.00000001,0.00541980,-0
 .00000089,0.00000129,0.00286197,0.00000588,0.00000767,-0.03609305,-0.0
 0000021,0.00000034,0.00245191,0.00000017,0.00000050,0.00915635,0.00000
 018,-0.00000005,-0.00149894,-0.00000003,-0.00000002,-0.00007676,0.0000
 0111,-0.00000015,-0.00362168,-0.00000043,-0.00000017,-0.00008205,-0.00
 000024,0.00000013,0.00033318,0.00000008,0.00000002,0.00061870,-0.00000
 551,-0.00000935,0.02579140,-0.00092961,-0.00077944,0.00000005,-0.00481
 013,-0.00200939,0.00000052,-0.01201163,0.02943517,-0.00000057,-0.12820
 237,0.12204070,-0.00000294,0.00956760,-0.01527287,0.00000039,-0.001389
 18,-0.00307712,0.00000006,0.00235845,-0.00059897,-0.00000007,0.0003847
 3,0.00191460,0.00000005,-0.00016645,-0.00018851,-0.00000009,-0.0009765
 9,0.00020819,-0.00000020,0.00004032,0.00008528,0.,0.00124076,-0.000184
 76,-0.00000009,0.13448019,-0.00116546,-0.00004675,0.00000001,-0.000797
 37,0.00188934,0.00000019,-0.00231509,0.00410968,0.,0.12201110,-0.27661
 515,0.00000587,0.01772860,-0.01872043,0.00000041,-0.00401305,-0.002960
 17,0.00000027,0.00087098,0.00193492,-0.00000018,-0.00042352,0.00021093
 ,0.00000010,0.00015624,-0.00000319,0.,-0.00001942,0.00003722,-0.000000
 04,0.00005786,0.00000860,-0.00000002,0.00014822,0.00078421,-0.00000020
 ,-0.13130343,0.29070318,0.00000015,0.00000011,-0.00108284,0.00000026,-
 0.00000007,0.00788415,0.00000010,-0.00000058,0.00020758,-0.00000297,0.
 00000600,-0.02939753,-0.00000031,0.00000076,0.00152598,0.00000015,0.00
 000037,0.00576829,-0.00000028,0.,-0.00228271,-0.00000008,0.00000021,0.
 00157884,-0.00000001,-0.00000006,-0.00009435,0.00000018,-0.00000013,-0
 .00068943,-0.00000002,-0.00000003,-0.00058390,-0.00000007,-0.00000010,
 -0.00439897,0.00000280,-0.00000649,0.02182658,-0.01201166,-0.02943518,
 0.00000116,-0.00481014,0.00200939,0.00000040,-0.00092960,0.00077943,0.
 ,-0.00138918,0.00307712,-0.00000012,0.00956759,0.01527286,-0.00000051,
 -0.12820234,-0.12204062,0.00000420,0.00235845,0.00059898,-0.00000011,0
 .00038473,-0.00191460,0.00000016,-0.00097659,-0.00020819,-0.00000018,-
 0.00016645,0.00018851,-0.00000010,0.00124076,0.00018476,-0.00000010,0.
 00004032,-0.00008528,0.,0.00061100,0.00080301,-0.00000003,0.13448020,0
 .00231509,0.00410967,-0.00000022,0.00079737,0.00188935,0.00000016,0.00
 116546,-0.00004676,-0.00000007,0.00401305,-0.00296016,0.00000024,-0.01
 772860,-0.01872045,0.00000078,-0.12201105,-0.27661506,0.00000858,-0.00
 087098,0.00193492,-0.00000007,0.00042352,0.00021093,-0.00000002,0.0000
 1942,0.00003723,0.,-0.00015624,-0.00000319,0.,-0.00014821,0.00078421,-
 0.00000010,-0.00005786,0.00000860,-0.00000002,-0.00080301,-0.00103704,
 0.00000004,0.13130338,0.29070311,-0.00000004,0.00000033,0.00020759,0.0
 0000022,0.00000043,0.00788415,0.00000009,-0.00000018,-0.00108283,-0.00
 000008,0.00000015,0.00576828,0.00000073,0.00000041,0.00152599,0.000004
 17,0.00000846,-0.02939756,-0.00000023,-0.00000025,-0.00228271,-0.00000
 011,-0.00000013,0.00157884,0.00000018,0.00000009,-0.00068943,0.,0.0000
 0005,-0.00009435,-0.00000006,-0.00000020,-0.00439897,-0.00000002,0.,-0
 .00058390,0.00000002,0.00000001,-0.00016861,-0.00000489,-0.00000923,0.
 02182660,-0.00056451,-0.00000220,-0.00000006,0.00077347,0.00032186,-0.
 00000002,-0.00003010,-0.00196918,0.00000004,-0.00512695,0.00329002,0.0
 0000008,-0.01206569,-0.03240580,0.00000218,0.00222041,-0.00202325,-0.0
 0000007,-0.17866743,-0.17702445,0.00001600,-0.00055629,-0.00000813,-0.
 00000006,0.00020569,0.00028040,0.00000005,0.00012530,-0.00006047,0.000
 00002,0.00001835,0.00000800,0.00000001,-0.00040755,0.00013146,0.,0.000
 10321,-0.00017725,0.,-0.00030029,0.00156141,0.00000003,0.18028049,-0.0
 0099664,-0.00063736,-0.00000015,0.00158685,-0.00000628,0.00000007,-0.0
 0080341,0.00042710,0.00000001,0.00253015,0.00183679,0.00000003,0.00000
 538,0.00570502,-0.00000052,0.00309950,0.00151653,-0.00000019,-0.175178
 12,-0.37761305,0.00002515,-0.00156369,0.00000031,-0.00000005,0.0003455
 7,0.00030370,0.00000004,0.00039009,-0.00040403,0.00000008,0.00008551,-
 0.00000537,0.,0.00003634,0.00002561,0.,0.00014079,0.00029131,0.,-0.000
 39278,-0.00058667,0.00000013,0.18939602,0.38295838,-0.00000011,-0.0000
 0005,-0.00098918,0.00000016,0.00000003,0.00014568,-0.00000004,-0.00000
 006,0.00245501,-0.00000015,0.00000011,0.00293517,-0.00000160,-0.000000
 82,-0.00671847,0.00000016,-0.00000021,-0.00124918,0.00001866,0.0000288
 6,0.00789676,-0.00000015,0.,-0.00009254,0.00000007,0.00000004,-0.00002
 760,0.00000003,-0.00000003,-0.00000586,0.,0.,0.00012613,-0.00000005,-0
 .00000001,-0.00040411,0.,0.,-0.00075453,0.00000009,0.,0.00066144,-0.00
 001638,-0.00002649,0.00088093,-0.00003010,0.00196920,-0.00000006,0.000
 77348,-0.00032187,0.,-0.00056452,0.00000221,-0.00000006,0.00222042,0.0
 0202324,-0.00000018,-0.01206570,0.03240579,0.00000025,-0.00512694,-0.0
 0329003,0.00000027,-0.17866777,0.17702469,0.00000539,-0.00055629,0.000
 00813,-0.00000006,0.00012530,0.00006046,0.00000001,0.00020569,-0.00028
 040,0.00000007,-0.00040755,-0.00013146,0.,0.00001835,-0.00000800,0.000
 00001,-0.00030029,-0.00156140,0.00000012,0.00010321,0.00017725,0.,0.01
 399190,-0.01868154,-0.00000072,0.18028083,0.00080341,0.00042707,0.0000
 0010,-0.00158686,-0.00000626,-0.00000006,0.00099664,-0.00063737,0.0000
 0013,-0.00309949,0.00151654,0.00000003,-0.00000539,0.00570503,-0.00000
 023,-0.00253015,0.00183681,0.00000004,0.17517835,-0.37761285,-0.000002
 07,0.00156369,0.00000031,0.00000005,-0.00039009,-0.00040403,-0.0000000
 6,-0.00034557,0.00030370,-0.00000006,-0.00003634,0.00002561,-0.0000000
 2,-0.00008551,-0.00000537,0.,0.00039278,-0.00058667,-0.00000005,-0.000
 14079,0.00029131,-0.00000006,0.01868156,-0.01381198,-0.00000137,-0.189
 39626,0.38295815,-0.00000008,0.00000018,0.00245501,0.00000025,-0.00000
 002,0.00014568,-0.00000017,0.00000003,-0.00098918,0.00000034,0.0000000
 5,-0.00124918,-0.00000155,0.00000006,-0.00671848,0.,-0.00000004,0.0029
 3517,0.00000811,-0.00000578,0.00789679,-0.00000024,0.,-0.00009254,0.00
 000005,0.00000006,-0.00000586,0.00000009,-0.00000006,-0.00002760,-0.00
 000004,-0.00000001,-0.00040411,0.00000001,0.,0.00012613,0.00000006,0.0
 0000007,0.00066144,0.,-0.00000007,-0.00075453,-0.00000184,0.00000191,-
 0.00485964,-0.00000502,0.00000363,0.00088090\\0.00000515,-0.00014061,-
 0.00000368,0.00033670,0.00000017,-0.00001365,0.00000495,0.00014055,-0.
 00000369,-0.00007285,0.00007897,0.00000089,-0.00003014,0.00000007,-0.0
 0000011,-0.00007302,-0.00007918,0.00000089,-0.00013803,-0.00000002,-0.
 00000089,-0.00001462,-0.00000007,0.00006598,-0.00000492,0.00014608,-0.
 00002353,-0.00000491,-0.00014606,-0.00002353,-0.00001692,0.00008501,-0
 .00000014,-0.00001688,-0.00008499,-0.00000013,0.00000223,-0.00005507,0
 .00000047,0.00000222,0.00005510,0.00000047,0.00001053,0.00001931,0.000
 00032,0.00001053,-0.00001927,0.00000032\\\@


 Sacred cows make the best hamburger.
                               -- Mark Twain
 Job cpu time:       0 days  2 hours 37 minutes  6.4 seconds.
 File lengths (MBytes):  RWF=  12602 Int=      0 D2E=      0 Chk=      6 Scr=      1
 Normal termination of Gaussian 09 at Wed Dec 18 23:07:22 2024.
