 Entering Gaussian System, Link 0=g09
 Input=B2PLYPD3BJPNAyang.gjf
 Output=B2PLYPD3BJPNAyang.log
 Initial command:
 /home/c612/g09E/g09/l1.exe "/mnt/ja_sm883/scratch/Gau-1924206.inp" -scrdir="/mnt/ja_sm883/scratch/"
 Default is to use a total of  18 processors:
                               18 via shared-memory
                                1 via Linda
 Entering Link 1 = /home/c612/g09E/g09/l1.exe PID=   1924208.
  
 Copyright (c) 1988,1990,1992,1993,1995,1998,2003,2009,2015,
            Gaussian, Inc.  All Rights Reserved.
  
 This is part of the Gaussian(R) 09 program.  It is based on
 the Gaussian(R) 03 system (copyright 2003, Gaussian, Inc.),
 the Gaussian(R) 98 system (copyright 1998, Gaussian, Inc.),
 the Gaussian(R) 94 system (copyright 1995, Gaussian, Inc.),
 the Gaussian 92(TM) system (copyright 1992, Gaussian, Inc.),
 the Gaussian 90(TM) system (copyright 1990, Gaussian, Inc.),
 the Gaussian 88(TM) system (copyright 1988, Gaussian, Inc.),
 the Gaussian 86(TM) system (copyright 1986, Carnegie Mellon
 University), and the Gaussian 82(TM) system (copyright 1983,
 Carnegie Mellon University). Gaussian is a federally registered
 trademark of Gaussian, Inc.
  
 This software contains proprietary and confidential information,
 including trade secrets, belonging to Gaussian, Inc.
  
 This software is provided under written license and may be
 used, copied, transmitted, or stored only in accord with that
 written license.
  
 The following legend is applicable only to US Government
 contracts under FAR:
  
                    RESTRICTED RIGHTS LEGEND
  
 Use, reproduction and disclosure by the US Government is
 subject to restrictions as set forth in subparagraphs (a)
 and (c) of the Commercial Computer Software - Restricted
 Rights clause in FAR 52.227-19.
  
 Gaussian, Inc.
 340 Quinnipiac St., Bldg. 40, Wallingford CT 06492
  
  
 ---------------------------------------------------------------
 Warning -- This program may not be used in any manner that
 competes with the business of Gaussian, Inc. or will provide
 assistance to any competitor of Gaussian, Inc.  The licensee
 of this program is prohibited from giving any competitor of
 Gaussian, Inc. access to this program.  By using this program,
 the user acknowledges that Gaussian, Inc. is engaged in the
 business of creating and licensing software in the field of
 computational chemistry and represents and warrants to the
 licensee that it is not a competitor of Gaussian, Inc. and that
 it will not use this program in any manner prohibited above.
 ---------------------------------------------------------------
  

 Cite this work as:
 Gaussian 09, Revision E.01,
 M. J. Frisch, G. W. Trucks, H. B. Schlegel, G. E. Scuseria, 
 M. A. Robb, J. R. Cheeseman, G. Scalmani, V. Barone, B. Mennucci, 
 G. A. Petersson, H. Nakatsuji, M. Caricato, X. Li, H. P. Hratchian, 
 A. F. Izmaylov, J. Bloino, G. Zheng, J. L. Sonnenberg, M. Hada, 
 M. Ehara, K. Toyota, R. Fukuda, J. Hasegawa, M. Ishida, T. Nakajima, 
 Y. Honda, O. Kitao, H. Nakai, T. Vreven, J. A. Montgomery, Jr., 
 J. E. Peralta, F. Ogliaro, M. Bearpark, J. J. Heyd, E. Brothers, 
 K. N. Kudin, V. N. Staroverov, T. Keith, R. Kobayashi, J. Normand, 
 K. Raghavachari, A. Rendell, J. C. Burant, S. S. Iyengar, J. Tomasi, 
 M. Cossi, N. Rega, J. M. Millam, M. Klene, J. E. Knox, J. B. Cross, 
 V. Bakken, C. Adamo, J. Jaramillo, R. Gomperts, R. E. Stratmann, 
 O. Yazyev, A. J. Austin, R. Cammi, C. Pomelli, J. W. Ochterski, 
 R. L. Martin, K. Morokuma, V. G. Zakrzewski, G. A. Voth, 
 P. Salvador, J. J. Dannenberg, S. Dapprich, A. D. Daniels, 
 O. Farkas, J. B. Foresman, J. V. Ortiz, J. Cioslowski, 
 and D. J. Fox, Gaussian, Inc., Wallingford CT, 2013.
 
 ******************************************
 Gaussian 09:  ES64L-G09RevE.01 30-Nov-2015
                18-Dec-2024 
 ******************************************
 %chk=B2PLYPD3BJPNAyang.chk
 -------------------------------------------------------
 # opt freq B2PLYP/6-31+g(d,p) EmpiricalDispersion=GD3BJ
 -------------------------------------------------------
 1/18=20,19=15,38=1/1,3;
 2/9=110,12=2,17=6,18=5,40=1/2;
 3/5=1,6=6,7=111,11=9,16=1,25=1,30=1,71=1,74=-47,124=41/1,2,3;
 4//1;
 5/5=2,38=5/2;
 8/6=4,10=2/1;
 9/15=2,16=-3/6;
 10/5=1/2;
 6/7=2,8=2,9=2,10=2/1;
 7/12=2/1,2,3,16;
 1/18=20,19=15/3(2);
 2/9=110/2;
 99//99;
 2/9=110/2;
 3/5=1,6=6,7=111,11=9,16=1,25=1,30=1,71=1,74=-47,124=41/1,2,3;
 4/5=5,16=3,69=1/1;
 5/5=2,38=5/2;
 8/6=4,10=2/1;
 9/15=2,16=-3/6;
 10/5=1/2;
 7/12=2/1,2,3,16;
 1/18=20,19=15/3(-8);
 2/9=110/2;
 6/7=2,8=2,9=2,10=2/1;
 99//99;
 ----------
 [No Title]
 ----------
 Symbolic Z-matrix:
 Charge =  1 Multiplicity = 1
 C                    -0.05732   1.26042  -0.00002 
 C                     0.66742   0.03633  -0.00007 
 C                    -0.00651  -1.21605  -0.00004 
 C                    -1.37145  -1.23715  0. 
 C                    -2.11785  -0.01758   0.00003 
 C                    -1.42089   1.23142   0.00002 
 N                    -3.45088  -0.0439    0.00006 
 N                     2.03076   0.1071   -0.00011 
 O                     2.66654  -1.09534   0.00005 
 O                     2.70408   1.11458   0.00003 
 H                     0.48219   2.20135  -0.00003 
 H                     0.55649  -2.1417   -0.00007 
 H                    -1.89792  -2.18652   0. 
 H                    -1.98382   2.15968   0.00004 
 H                    -3.9962    0.80656   0.00008 
 H                    -3.96284  -0.91482   0.00007 
 H                     3.6175   -0.86525   0.00015 
 

 GradGradGradGradGradGradGradGradGradGradGradGradGradGradGradGradGradGrad
 Berny optimization.
 Initialization pass.
                           ----------------------------
                           !    Initial Parameters    !
                           ! (Angstroms and Degrees)  !
 --------------------------                            --------------------------
 ! Name  Definition              Value          Derivative Info.                !
 --------------------------------------------------------------------------------
 ! R1    R(1,2)                  1.4225         estimate D2E/DX2                !
 ! R2    R(1,6)                  1.3639         estimate D2E/DX2                !
 ! R3    R(1,11)                 1.0846         estimate D2E/DX2                !
 ! R4    R(2,3)                  1.4222         estimate D2E/DX2                !
 ! R5    R(2,8)                  1.3652         estimate D2E/DX2                !
 ! R6    R(3,4)                  1.3651         estimate D2E/DX2                !
 ! R7    R(3,12)                 1.0834         estimate D2E/DX2                !
 ! R8    R(4,5)                  1.4298         estimate D2E/DX2                !
 ! R9    R(4,13)                 1.0856         estimate D2E/DX2                !
 ! R10   R(5,6)                  1.4303         estimate D2E/DX2                !
 ! R11   R(5,7)                  1.3333         estimate D2E/DX2                !
 ! R12   R(6,14)                 1.0856         estimate D2E/DX2                !
 ! R13   R(7,15)                 1.0103         estimate D2E/DX2                !
 ! R14   R(7,16)                 1.0102         estimate D2E/DX2                !
 ! R15   R(8,9)                  1.3602         estimate D2E/DX2                !
 ! R16   R(8,10)                 1.2118         estimate D2E/DX2                !
 ! R17   R(9,17)                 0.9784         estimate D2E/DX2                !
 ! A1    A(2,1,6)              119.4098         estimate D2E/DX2                !
 ! A2    A(2,1,11)             119.543          estimate D2E/DX2                !
 ! A3    A(6,1,11)             121.0472         estimate D2E/DX2                !
 ! A4    A(1,2,3)              121.0867         estimate D2E/DX2                !
 ! A5    A(1,2,8)              117.6568         estimate D2E/DX2                !
 ! A6    A(3,2,8)              121.2565         estimate D2E/DX2                !
 ! A7    A(2,3,4)              119.171          estimate D2E/DX2                !
 ! A8    A(2,3,12)             120.4063         estimate D2E/DX2                !
 ! A9    A(4,3,12)             120.4227         estimate D2E/DX2                !
 ! A10   A(3,4,5)              120.582          estimate D2E/DX2                !
 ! A11   A(3,4,13)             119.8964         estimate D2E/DX2                !
 ! A12   A(5,4,13)             119.5216         estimate D2E/DX2                !
 ! A13   A(4,5,6)              119.3699         estimate D2E/DX2                !
 ! A14   A(4,5,7)              120.3369         estimate D2E/DX2                !
 ! A15   A(6,5,7)              120.2932         estimate D2E/DX2                !
 ! A16   A(1,6,5)              120.3806         estimate D2E/DX2                !
 ! A17   A(1,6,14)             120.0161         estimate D2E/DX2                !
 ! A18   A(5,6,14)             119.6033         estimate D2E/DX2                !
 ! A19   A(5,7,15)             121.5378         estimate D2E/DX2                !
 ! A20   A(5,7,16)             121.5796         estimate D2E/DX2                !
 ! A21   A(15,7,16)            116.8826         estimate D2E/DX2                !
 ! A22   A(2,8,9)              114.8957         estimate D2E/DX2                !
 ! A23   A(2,8,10)             126.7268         estimate D2E/DX2                !
 ! A24   A(9,8,10)             118.3775         estimate D2E/DX2                !
 ! A25   A(8,9,17)             104.265          estimate D2E/DX2                !
 ! D1    D(6,1,2,3)             -0.0016         estimate D2E/DX2                !
 ! D2    D(6,1,2,8)            179.9998         estimate D2E/DX2                !
 ! D3    D(11,1,2,3)           179.9994         estimate D2E/DX2                !
 ! D4    D(11,1,2,8)             0.0007         estimate D2E/DX2                !
 ! D5    D(2,1,6,5)              0.0007         estimate D2E/DX2                !
 ! D6    D(2,1,6,14)          -179.999          estimate D2E/DX2                !
 ! D7    D(11,1,6,5)           179.9998         estimate D2E/DX2                !
 ! D8    D(11,1,6,14)            0.0            estimate D2E/DX2                !
 ! D9    D(1,2,3,4)              0.0015         estimate D2E/DX2                !
 ! D10   D(1,2,3,12)          -179.9992         estimate D2E/DX2                !
 ! D11   D(8,2,3,4)           -179.9999         estimate D2E/DX2                !
 ! D12   D(8,2,3,12)            -0.0006         estimate D2E/DX2                !
 ! D13   D(1,2,8,9)            179.9904         estimate D2E/DX2                !
 ! D14   D(1,2,8,10)             0.0082         estimate D2E/DX2                !
 ! D15   D(3,2,8,9)             -0.0082         estimate D2E/DX2                !
 ! D16   D(3,2,8,10)          -179.9904         estimate D2E/DX2                !
 ! D17   D(2,3,4,5)             -0.0006         estimate D2E/DX2                !
 ! D18   D(2,3,4,13)           179.9992         estimate D2E/DX2                !
 ! D19   D(12,3,4,5)          -179.9999         estimate D2E/DX2                !
 ! D20   D(12,3,4,13)           -0.0001         estimate D2E/DX2                !
 ! D21   D(3,4,5,6)             -0.0002         estimate D2E/DX2                !
 ! D22   D(3,4,5,7)            179.9999         estimate D2E/DX2                !
 ! D23   D(13,4,5,6)           180.0            estimate D2E/DX2                !
 ! D24   D(13,4,5,7)             0.0001         estimate D2E/DX2                !
 ! D25   D(4,5,6,1)              0.0001         estimate D2E/DX2                !
 ! D26   D(4,5,6,14)           179.9999         estimate D2E/DX2                !
 ! D27   D(7,5,6,1)           -179.9999         estimate D2E/DX2                !
 ! D28   D(7,5,6,14)            -0.0002         estimate D2E/DX2                !
 ! D29   D(4,5,7,15)           180.0            estimate D2E/DX2                !
 ! D30   D(4,5,7,16)            -0.0001         estimate D2E/DX2                !
 ! D31   D(6,5,7,15)             0.0001         estimate D2E/DX2                !
 ! D32   D(6,5,7,16)           180.0            estimate D2E/DX2                !
 ! D33   D(2,8,9,17)          -179.9909         estimate D2E/DX2                !
 ! D34   D(10,8,9,17)           -0.0071         estimate D2E/DX2                !
 --------------------------------------------------------------------------------
 Trust Radius=3.00D-01 FncErr=1.00D-07 GrdErr=1.00D-07
 Number of steps in this run=     86 maximum allowed number of steps=    102.
 GradGradGradGradGradGradGradGradGradGradGradGradGradGradGradGradGradGrad

                          Input orientation:                          
 ---------------------------------------------------------------------
 Center     Atomic      Atomic             Coordinates (Angstroms)
 Number     Number       Type             X           Y           Z
 ---------------------------------------------------------------------
      1          6           0       -0.057318    1.260419   -0.000021
      2          6           0        0.667415    0.036333   -0.000068
      3          6           0       -0.006506   -1.216048   -0.000043
      4          6           0       -1.371446   -1.237151   -0.000004
      5          6           0       -2.117853   -0.017584    0.000025
      6          6           0       -1.420885    1.231421    0.000017
      7          7           0       -3.450875   -0.043897    0.000061
      8          7           0        2.030763    0.107099   -0.000109
      9          8           0        2.666538   -1.095343    0.000053
     10          8           0        2.704081    1.114584    0.000029
     11          1           0        0.482190    2.201352   -0.000031
     12          1           0        0.556485   -2.141698   -0.000066
     13          1           0       -1.897923   -2.186524    0.000002
     14          1           0       -1.983821    2.159680    0.000037
     15          1           0       -3.996204    0.806563    0.000082
     16          1           0       -3.962836   -0.914815    0.000067
     17          1           0        3.617496   -0.865246    0.000148
 ---------------------------------------------------------------------
                    Distance matrix (angstroms):
                    1          2          3          4          5
     1  C    0.000000
     2  C    1.422542   0.000000
     3  C    2.476988   1.422191   0.000000
     4  C    2.822196   2.403896   1.365103   0.000000
     5  C    2.424685   2.785790   2.427777   1.429849   0.000000
     6  C    1.363875   2.406082   2.826760   2.469067   1.430307
     7  N    3.635584   4.119071   3.638353   2.397474   1.333282
     8  N    2.385420   1.365183   2.429235   3.658146   4.150489
     9  O    3.601251   2.297212   2.675768   4.040473   4.904280
    10  O    2.765247   2.304481   3.574791   4.705378   4.953065
    11  H    1.084631   2.172928   3.452165   3.906311   3.418172
    12  H    3.457044   2.180854   1.083414   2.129583   3.415252
    13  H    3.907588   3.394415   2.125860   1.085581   2.180062
    14  H    2.126049   3.396712   3.912201   3.451589   2.181386
    15  H    3.964947   4.726796   4.473102   3.326578   2.051200
    16  H    4.470427   4.726934   3.967781   2.611360   2.051581
    17  H    4.245316   3.084773   3.640941   5.002785   5.797651
                    6          7          8          9         10
     6  C    0.000000
     7  N    2.397352   0.000000
     8  N    3.630148   5.483717   0.000000
     9  O    4.703282   6.207115   1.360175   0.000000
    10  O    4.126620   6.263031   1.211769   2.210246   0.000000
    11  H    2.135992   4.528813   2.604606   3.954690   2.473432
    12  H    3.909977   4.523240   2.688974   2.355246   3.900710
    13  H    3.451074   2.646226   4.549207   4.693078   5.663546
    14  H    1.085616   2.647263   4.508877   5.676356   4.802984
    15  H    2.610129   1.010280   6.067420   6.928880   6.707361
    16  H    3.326837   1.010249   6.080094   6.631832   6.968948
    17  H    5.457224   7.115932   1.860961   0.978400   2.180379
                   11         12         13         14         15
    11  H    0.000000
    12  H    4.343685   0.000000
    13  H    4.991833   2.454817   0.000000
    14  H    2.466363   4.995499   4.347053   0.000000
    15  H    4.690570   5.423949   3.655318   2.424997   0.000000
    16  H    5.428513   4.682895   2.425100   3.656367   1.721701
    17  H    4.385677   3.316492   5.671474   6.365919   7.795086
                   16         17
    16  H    0.000000
    17  H    7.580494   0.000000
 Stoichiometry    C6H7N2O2(1+)
 Framework group  C1[X(C6H7N2O2)]
 Deg. of freedom    45
 Full point group                 C1      NOp   1
 Largest Abelian subgroup         C1      NOp   1
 Largest concise Abelian subgroup C1      NOp   1
                         Standard orientation:                         
 ---------------------------------------------------------------------
 Center     Atomic      Atomic             Coordinates (Angstroms)
 Number     Number       Type             X           Y           Z
 ---------------------------------------------------------------------
      1          6           0       -0.057318    1.260419   -0.000021
      2          6           0        0.667415    0.036333   -0.000068
      3          6           0       -0.006506   -1.216048   -0.000043
      4          6           0       -1.371446   -1.237151   -0.000004
      5          6           0       -2.117853   -0.017584    0.000025
      6          6           0       -1.420885    1.231421    0.000017
      7          7           0       -3.450875   -0.043897    0.000061
      8          7           0        2.030763    0.107099   -0.000109
      9          8           0        2.666538   -1.095343    0.000053
     10          8           0        2.704081    1.114584    0.000029
     11          1           0        0.482190    2.201352   -0.000031
     12          1           0        0.556485   -2.141698   -0.000066
     13          1           0       -1.897923   -2.186524    0.000002
     14          1           0       -1.983821    2.159680    0.000037
     15          1           0       -3.996204    0.806563    0.000082
     16          1           0       -3.962836   -0.914815    0.000067
     17          1           0        3.617496   -0.865246    0.000148
 ---------------------------------------------------------------------
 Rotational constants (GHZ):      3.7744281      0.8229505      0.6756388
 Standard basis: 6-31+G(d,p) (6D, 7F)
 There are   225 symmetry adapted cartesian basis functions of A   symmetry.
 There are   225 symmetry adapted basis functions of A   symmetry.
   225 basis functions,   369 primitive gaussians,   225 cartesian basis functions
    36 alpha electrons       36 beta electrons
       nuclear repulsion energy       508.9631194315 Hartrees.
 NAtoms=   17 NActive=   17 NUniq=   17 SFac= 1.00D+00 NAtFMM=   60 NAOKFM=F Big=F
 Integral buffers will be    131072 words long.
 Regular integral format.
 Two-electron integral symmetry is turned on.
 Nuclear repulsion after empirical dispersion term =      508.9451823634 Hartrees.
 One-electron integrals computed using PRISM.
 NBasis=   225 RedAO= T EigKep=  3.35D-06  NBF=   225
 NBsUse=   225 1.00D-06 EigRej= -1.00D+00 NBFU=   225
 ExpMin= 4.38D-02 ExpMax= 5.48D+03 ExpMxC= 8.25D+02 IAcc=2 IRadAn=         4 AccDes= 0.00D+00
 Harris functional with IExCor=  419 and IRadAn=       4 diagonalized for initial guess.
 HarFok:  IExCor=  419 AccDes= 0.00D+00 IRadAn=         4 IDoV= 1 UseB2=F ITyADJ=14
 ICtDFT=  3500011 ScaDFX=  1.000000  1.000000  1.000000  1.000000
 FoFCou: FMM=F IPFlag=           0 FMFlag=      100000 FMFlg1=           0
         NFxFlg=           0 DoJE=T BraDBF=F KetDBF=T FulRan=T
         wScrn=  0.000000 ICntrl=     500 IOpCl=  0 I1Cent=   200000004 NGrid=           0
         NMat0=    1 NMatS0=      1 NMatT0=    0 NMatD0=    1 NMtDS0=    0 NMtDT0=    0
 Petite list used in FoFCou.
 Keep R1 ints in memory in canonical form, NReq=329175655.
 Requested convergence on RMS density matrix=1.00D-08 within 128 cycles.
 Requested convergence on MAX density matrix=1.00D-06.
 Requested convergence on             energy=1.00D-06.
 No special actions if energy rises.
 SCF Done:  E(RB2PLYP) =  -491.527603797     A.U. after   16 cycles
            NFock= 16  Conv=0.34D-08     -V/T= 2.0069
 DoSCS=T DFT=T ScalE2(SS,OS)=  0.270000  0.270000
 ExpMin= 4.38D-02 ExpMax= 5.48D+03 ExpMxC= 8.25D+02 IAcc=3 IRadAn=         5 AccDes= 0.00D+00
 HarFok:  IExCor=  205 AccDes= 0.00D+00 IRadAn=         5 IDoV=-2 UseB2=F ITyADJ=14
 ICtDFT= 12500011 ScaDFX=  1.000000  1.000000  1.000000  1.000000
 Range of M.O.s used for correlation:    11   225
 NBasis=   225 NAE=    36 NBE=    36 NFC=    10 NFV=     0
 NROrb=    215 NOA=    26 NOB=    26 NVA=   189 NVB=   189

 **** Warning!!: The largest alpha MO coefficient is  0.12522582D+03

 DoSCS=T DFT=T ScalE2(SS,OS)=  0.270000  0.270000
 Fully direct method using O(ONN) memory.
 JobTyp=1 Pass  1:  I=  11 to  18 NPSUse= 18 ParTrn=T ParDer=T DoDerP=T.
 JobTyp=1 Pass  2:  I=  19 to  26 NPSUse= 18 ParTrn=T ParDer=T DoDerP=T.
 JobTyp=1 Pass  3:  I=  27 to  34 NPSUse= 18 ParTrn=T ParDer=T DoDerP=T.
 JobTyp=1 Pass  4:  I=  35 to  36 NPSUse= 18 ParTrn=T ParDer=T DoDerP=T.
 Spin components of T(2) and E(2):
     alpha-alpha T2 =       0.1136990243D+00 E2=     -0.6876892455D-01
     alpha-beta  T2 =       0.6164762012D+00 E2=     -0.3690965191D+00
     beta-beta   T2 =       0.1136990243D+00 E2=     -0.6876892455D-01
 E2(B2PLYP) =    -0.5066343682D+00 E(B2PLYP) =    -0.49203423816517D+03
          IDoAtm=11111111111111111
          Differentiating once with respect to electric field.
                with respect to dipole field.
          Differentiating once with respect to nuclear coordinates.
 Keep R1 ints in memory in canonical form, NReq=329001650.
          There are     1 degrees of freedom in the 1st order CPHF.  IDoFFX=0 NUNeed=     1.
 LinEq1:  Iter=  0 NonCon=     1 RMS=2.46D-03 Max=1.11D-01 NDo=     1
 AX will form     1 AO Fock derivatives at one time.
 LinEq1:  Iter=  1 NonCon=     1 RMS=1.15D-03 Max=4.06D-02 NDo=     1
 LinEq1:  Iter=  2 NonCon=     1 RMS=5.09D-04 Max=9.05D-03 NDo=     1
 LinEq1:  Iter=  3 NonCon=     1 RMS=4.30D-04 Max=1.59D-02 NDo=     1
 LinEq1:  Iter=  4 NonCon=     1 RMS=1.94D-04 Max=7.12D-03 NDo=     1
 LinEq1:  Iter=  5 NonCon=     1 RMS=9.79D-05 Max=4.40D-03 NDo=     1
 LinEq1:  Iter=  6 NonCon=     1 RMS=6.98D-05 Max=2.99D-03 NDo=     1
 LinEq1:  Iter=  7 NonCon=     1 RMS=2.56D-05 Max=8.54D-04 NDo=     1
 LinEq1:  Iter=  8 NonCon=     1 RMS=9.68D-06 Max=1.78D-04 NDo=     1
 LinEq1:  Iter=  9 NonCon=     1 RMS=4.16D-06 Max=1.01D-04 NDo=     1
 LinEq1:  Iter= 10 NonCon=     1 RMS=1.95D-06 Max=4.21D-05 NDo=     1
 LinEq1:  Iter= 11 NonCon=     1 RMS=7.13D-07 Max=1.20D-05 NDo=     1
 LinEq1:  Iter= 12 NonCon=     1 RMS=2.61D-07 Max=6.30D-06 NDo=     1
 LinEq1:  Iter= 13 NonCon=     1 RMS=1.39D-07 Max=3.03D-06 NDo=     1
 LinEq1:  Iter= 14 NonCon=     1 RMS=4.93D-08 Max=6.91D-07 NDo=     1
 LinEq1:  Iter= 15 NonCon=     1 RMS=2.61D-08 Max=5.99D-07 NDo=     1
 LinEq1:  Iter= 16 NonCon=     1 RMS=1.04D-08 Max=2.30D-07 NDo=     1
 LinEq1:  Iter= 17 NonCon=     1 RMS=3.32D-09 Max=8.19D-08 NDo=     1
 LinEq1:  Iter= 18 NonCon=     1 RMS=1.59D-09 Max=3.17D-08 NDo=     1
 LinEq1:  Iter= 19 NonCon=     1 RMS=3.82D-10 Max=7.98D-09 NDo=     1
 LinEq1:  Iter= 20 NonCon=     1 RMS=1.17D-10 Max=3.12D-09 NDo=     1
 LinEq1:  Iter= 21 NonCon=     1 RMS=6.02D-11 Max=1.41D-09 NDo=     1
 LinEq1:  Iter= 22 NonCon=     0 RMS=2.07D-11 Max=6.32D-10 NDo=     1
 Linear equations converged to 1.000D-10 1.000D-09 after    22 iterations.
 End of Minotr F.D. properties file   721 does not exist.
 End of Minotr F.D. properties file   722 does not exist.
 End of Minotr F.D. properties file   788 does not exist.

 **********************************************************************

            Population analysis using the SCF density.

 **********************************************************************

 Orbital symmetries:
       Occupied  (A) (A) (A) (A) (A) (A) (A) (A) (A) (A) (A) (A)
                 (A) (A) (A) (A) (A) (A) (A) (A) (A) (A) (A) (A)
                 (A) (A) (A) (A) (A) (A) (A) (A) (A) (A) (A) (A)
       Virtual   (A) (A) (A) (A) (A) (A) (A) (A) (A) (A) (A) (A)
                 (A) (A) (A) (A) (A) (A) (A) (A) (A) (A) (A) (A)
                 (A) (A) (A) (A) (A) (A) (A) (A) (A) (A) (A) (A)
                 (A) (A) (A) (A) (A) (A) (A) (A) (A) (A) (A) (A)
                 (A) (A) (A) (A) (A) (A) (A) (A) (A) (A) (A) (A)
                 (A) (A) (A) (A) (A) (A) (A) (A) (A) (A) (A) (A)
                 (A) (A) (A) (A) (A) (A) (A) (A) (A) (A) (A) (A)
                 (A) (A) (A) (A) (A) (A) (A) (A) (A) (A) (A) (A)
                 (A) (A) (A) (A) (A) (A) (A) (A) (A) (A) (A) (A)
                 (A) (A) (A) (A) (A) (A) (A) (A) (A) (A) (A) (A)
                 (A) (A) (A) (A) (A) (A) (A) (A) (A) (A) (A) (A)
                 (A) (A) (A) (A) (A) (A) (A) (A) (A) (A) (A) (A)
                 (A) (A) (A) (A) (A) (A) (A) (A) (A) (A) (A) (A)
                 (A) (A) (A) (A) (A) (A) (A) (A) (A) (A) (A) (A)
                 (A) (A) (A) (A) (A) (A) (A) (A) (A) (A) (A) (A)
                 (A) (A) (A) (A) (A) (A) (A) (A) (A)
 The electronic state is 1-A.
 Alpha  occ. eigenvalues --  -20.02127 -19.98449 -15.29683 -15.06962 -10.89308
 Alpha  occ. eigenvalues --  -10.86755 -10.83731 -10.83499 -10.81503 -10.81467
 Alpha  occ. eigenvalues --   -1.57582  -1.40279  -1.26271  -1.20345  -1.11761
 Alpha  occ. eigenvalues --   -1.06199  -0.99150  -0.91932  -0.89355  -0.84114
 Alpha  occ. eigenvalues --   -0.82697  -0.80062  -0.79978  -0.78492  -0.73079
 Alpha  occ. eigenvalues --   -0.69645  -0.69184  -0.68292  -0.66279  -0.64444
 Alpha  occ. eigenvalues --   -0.61095  -0.59649  -0.57493  -0.56502  -0.48768
 Alpha  occ. eigenvalues --   -0.43883
 Alpha virt. eigenvalues --   -0.24241  -0.12994  -0.10183  -0.10017  -0.08990
 Alpha virt. eigenvalues --   -0.07552  -0.06471  -0.05621  -0.04497  -0.03987
 Alpha virt. eigenvalues --   -0.02534  -0.01504  -0.00997  -0.00964   0.00307
 Alpha virt. eigenvalues --    0.00680   0.02596   0.03242   0.03356   0.04265
 Alpha virt. eigenvalues --    0.04359   0.04787   0.05639   0.07122   0.07233
 Alpha virt. eigenvalues --    0.07579   0.08307   0.08850   0.09457   0.09882
 Alpha virt. eigenvalues --    0.10605   0.11794   0.12283   0.12524   0.12811
 Alpha virt. eigenvalues --    0.13479   0.14268   0.14801   0.15498   0.16180
 Alpha virt. eigenvalues --    0.16575   0.17422   0.19238   0.19895   0.20252
 Alpha virt. eigenvalues --    0.21010   0.21448   0.23130   0.23731   0.24986
 Alpha virt. eigenvalues --    0.26051   0.29185   0.30081   0.30616   0.32412
 Alpha virt. eigenvalues --    0.35615   0.36367   0.38178   0.41917   0.50391
 Alpha virt. eigenvalues --    0.52763   0.56704   0.57539   0.58290   0.61547
 Alpha virt. eigenvalues --    0.63213   0.64513   0.66575   0.67922   0.72166
 Alpha virt. eigenvalues --    0.73213   0.74376   0.76652   0.77506   0.80423
 Alpha virt. eigenvalues --    0.82909   0.83759   0.87405   0.88236   0.89014
 Alpha virt. eigenvalues --    0.90791   0.91347   0.94164   0.95158   0.97659
 Alpha virt. eigenvalues --    0.99073   0.99230   1.01319   1.02900   1.07486
 Alpha virt. eigenvalues --    1.08486   1.10171   1.12981   1.13818   1.13867
 Alpha virt. eigenvalues --    1.16689   1.18999   1.20668   1.21741   1.23659
 Alpha virt. eigenvalues --    1.24377   1.26094   1.27272   1.31232   1.31354
 Alpha virt. eigenvalues --    1.31844   1.32668   1.36072   1.39678   1.40160
 Alpha virt. eigenvalues --    1.43807   1.45618   1.49456   1.59878   1.63491
 Alpha virt. eigenvalues --    1.68545   1.70479   1.74197   1.75682   1.78433
 Alpha virt. eigenvalues --    1.78612   1.83443   1.85336   1.85445   1.88755
 Alpha virt. eigenvalues --    1.90553   1.91802   1.91972   1.92344   1.98483
 Alpha virt. eigenvalues --    2.01288   2.04348   2.06289   2.07537   2.09782
 Alpha virt. eigenvalues --    2.13287   2.14560   2.16286   2.26848   2.27017
 Alpha virt. eigenvalues --    2.33690   2.34351   2.35484   2.35999   2.36815
 Alpha virt. eigenvalues --    2.40849   2.41373   2.44518   2.45761   2.49825
 Alpha virt. eigenvalues --    2.52130   2.52612   2.54753   2.54949   2.56348
 Alpha virt. eigenvalues --    2.58351   2.63805   2.63929   2.67805   2.72601
 Alpha virt. eigenvalues --    2.72688   2.77223   2.79986   2.82055   2.94042
 Alpha virt. eigenvalues --    2.97341   3.00903   3.04969   3.08454   3.13001
 Alpha virt. eigenvalues --    3.17296   3.26670   3.32245   3.33193   3.39402
 Alpha virt. eigenvalues --    3.48235   3.51135   3.67380   3.82658   4.13566
 Alpha virt. eigenvalues --    4.21484   4.28673   4.29982   4.34118   4.46005
 Alpha virt. eigenvalues --    4.48079   4.52654   4.78489   4.86101
          Condensed to atoms (all electrons):
               1          2          3          4          5          6
     1  C    9.469219   0.477212  -2.316897  -1.824191   0.258036  -0.676207
     2  C    0.477212  12.102363  -1.917150  -1.528678  -1.175000  -0.524903
     3  C   -2.316897  -1.917150  11.252745  -0.938051   0.465884  -1.431982
     4  C   -1.824191  -1.528678  -0.938051   9.687096   0.327162   0.027902
     5  C    0.258036  -1.175000   0.465884   0.327162   5.723085   0.092036
     6  C   -0.676207  -0.524903  -1.431982   0.027902   0.092036   8.158620
     7  N    0.078433  -0.030412   0.070470  -0.096365   0.224756  -0.107970
     8  N    0.366306  -0.835072  -0.012767   0.013579   0.047925   0.084540
     9  O    0.044952  -0.359157   0.144279   0.060201  -0.002186   0.032238
    10  O   -0.192982  -0.263524   0.286208   0.017714   0.014509   0.046913
    11  H    0.043475   0.255568   0.059837   0.006526  -0.037870   0.042147
    12  H    0.032695   0.290989  -0.017480   0.095125  -0.050432   0.018205
    13  H    0.011055   0.012827   0.136644   0.123590   0.067295  -0.003910
    14  H    0.112436   0.009079   0.002697  -0.000183   0.066286   0.156975
    15  H    0.018476   0.001354  -0.003894   0.033584  -0.023855  -0.040484
    16  H   -0.003989   0.001304   0.018262  -0.040252  -0.023159   0.033029
    17  H    0.035324   0.027284  -0.053678  -0.002667  -0.001343   0.004098
               7          8          9         10         11         12
     1  C    0.078433   0.366306   0.044952  -0.192982   0.043475   0.032695
     2  C   -0.030412  -0.835072  -0.359157  -0.263524   0.255568   0.290989
     3  C    0.070470  -0.012767   0.144279   0.286208   0.059837  -0.017480
     4  C   -0.096365   0.013579   0.060201   0.017714   0.006526   0.095125
     5  C    0.224756   0.047925  -0.002186   0.014509  -0.037870  -0.050432
     6  C   -0.107970   0.084540   0.032238   0.046913   0.042147   0.018205
     7  N    6.780142   0.000729  -0.000109  -0.000408  -0.000233  -0.000116
     8  N    0.000729   6.920650   0.226123   0.459031  -0.049791  -0.051079
     9  O   -0.000109   0.226123   7.770847  -0.082505  -0.002163   0.014802
    10  O   -0.000408   0.459031  -0.082505   7.705542   0.017258  -0.002315
    11  H   -0.000233  -0.049791  -0.002163   0.017258   0.447721  -0.000076
    12  H   -0.000116  -0.051079   0.014802  -0.002315  -0.000076   0.454286
    13  H   -0.014070  -0.000984   0.000102   0.000015   0.000008  -0.003342
    14  H   -0.013646  -0.000824   0.000048  -0.000012  -0.003053   0.000008
    15  H    0.341326  -0.000006   0.000000   0.000001  -0.000006   0.000002
    16  H    0.341326  -0.000002   0.000001  -0.000000   0.000002  -0.000006
    17  H    0.000004   0.026167   0.234588   0.008620   0.000005   0.000179
              13         14         15         16         17
     1  C    0.011055   0.112436   0.018476  -0.003989   0.035324
     2  C    0.012827   0.009079   0.001354   0.001304   0.027284
     3  C    0.136644   0.002697  -0.003894   0.018262  -0.053678
     4  C    0.123590  -0.000183   0.033584  -0.040252  -0.002667
     5  C    0.067295   0.066286  -0.023855  -0.023159  -0.001343
     6  C   -0.003910   0.156975  -0.040484   0.033029   0.004098
     7  N   -0.014070  -0.013646   0.341326   0.341326   0.000004
     8  N   -0.000984  -0.000824  -0.000006  -0.000002   0.026167
     9  O    0.000102   0.000048   0.000000   0.000001   0.234588
    10  O    0.000015  -0.000012   0.000001  -0.000000   0.008620
    11  H    0.000008  -0.003053  -0.000006   0.000002   0.000005
    12  H   -0.003342   0.000008   0.000002  -0.000006   0.000179
    13  H    0.481325  -0.000081  -0.000029   0.003372   0.000000
    14  H   -0.000081   0.479182   0.003377  -0.000031  -0.000000
    15  H   -0.000029   0.003377   0.332144  -0.017486   0.000000
    16  H    0.003372  -0.000031  -0.017486   0.332468  -0.000000
    17  H    0.000000  -0.000000   0.000000  -0.000000   0.311662
 Mulliken charges:
               1
     1  C    0.066648
     2  C   -0.544083
     3  C    0.254873
     4  C    0.037909
     5  C    0.026871
     6  C    0.088753
     7  N   -0.573855
     8  N   -0.194527
     9  O   -0.082060
    10  O   -0.014065
    11  H    0.220645
    12  H    0.218554
    13  H    0.186182
    14  H    0.187742
    15  H    0.355496
    16  H    0.355162
    17  H    0.409756
 Sum of Mulliken charges =   1.00000
 Mulliken charges with hydrogens summed into heavy atoms:
               1
     1  C    0.287292
     2  C   -0.544083
     3  C    0.473427
     4  C    0.224090
     5  C    0.026871
     6  C    0.276495
     7  N    0.136803
     8  N   -0.194527
     9  O    0.327696
    10  O   -0.014065
 Electronic spatial extent (au):  <R**2>=           1551.5021
 Charge=              1.0000 electrons
 Dipole moment (field-independent basis, Debye):
    X=             -3.4405    Y=             -1.1608    Z=              0.0001  Tot=              3.6311
 Quadrupole moment (field-independent basis, Debye-Ang):
   XX=             -9.2808   YY=            -44.8731   ZZ=            -59.0767
   XY=             -4.9451   XZ=             -0.0001   YZ=             -0.0001
 Traceless Quadrupole moment (field-independent basis, Debye-Ang):
   XX=             28.4627   YY=             -7.1296   ZZ=            -21.3332
   XY=             -4.9451   XZ=             -0.0001   YZ=             -0.0001
 Octapole moment (field-independent basis, Debye-Ang**2):
  XXX=            -38.6006  YYY=             -1.1430  ZZZ=              0.0004  XYY=            -12.8689
  XXY=            -22.3734  XXZ=              0.0056  XZZ=             11.7209  YZZ=              0.2851
  YYZ=              0.0005  XYZ=             -0.0011
 Hexadecapole moment (field-independent basis, Debye-Ang**3):
 XXXX=           -685.0006 YYYY=           -335.5507 ZZZZ=            -59.7991 XXXY=            -83.9152
 XXXZ=              0.0088 YYYX=             -3.9419 YYYZ=              0.0001 ZZZX=              0.0061
 ZZZY=             -0.0003 XXYY=           -246.8064 XXZZ=           -266.5560 YYZZ=            -82.3510
 XXYZ=             -0.0034 YYXZ=              0.0020 ZZXY=              0.2993
 N-N= 5.089451823634D+02 E-N=-2.151854535596D+03  KE= 4.881713490594D+02
 Calling FoFJK, ICntrl=  10002127 FMM=F ISym2X=0 I1Cent= 0 IOpClX= 0 NMat=1 NMatS=1 NMatT=0.
 ***** Axes restored to original set *****
 -------------------------------------------------------------------
 Center     Atomic                   Forces (Hartrees/Bohr)
 Number     Number              X              Y              Z
 -------------------------------------------------------------------
      1        6           0.003513996    0.002857374   -0.000004270
      2        6          -0.003727146   -0.000611869   -0.000005447
      3        6           0.003919347   -0.002862948   -0.000003806
      4        6          -0.003423469   -0.002102857    0.000000205
      5        6           0.002064997   -0.000269695   -0.000000176
      6        6          -0.003128384    0.002274398    0.000000091
      7        7          -0.003312518   -0.000019142    0.000000041
      8        7          -0.010693192   -0.004544448    0.000033566
      9        8           0.003522892   -0.010613667   -0.000008541
     10        8           0.009955781    0.015462911   -0.000012014
     11        1          -0.000854613   -0.001567370    0.000000130
     12        1          -0.000893044    0.001685295   -0.000000190
     13        1           0.000668128    0.001585845    0.000000741
     14        1           0.000721873   -0.001554812    0.000000865
     15        1           0.000311189   -0.000184920   -0.000000002
     16        1           0.000318176    0.000186208    0.000000012
     17        1           0.001035985    0.000279696   -0.000001208
 -------------------------------------------------------------------
 Cartesian Forces:  Max     0.015462911 RMS     0.003749952

 GradGradGradGradGradGradGradGradGradGradGradGradGradGradGradGradGradGrad
 Berny optimization.
 FormGI is forming the generalized inverse of G from B-inverse, IUseBI=4.
 GSVD:  received Info=                   1 from GESDD.
 Internal  Forces:  Max     0.018388330 RMS     0.002626838
 Search for a local minimum.
 Step number   1 out of a maximum of   86
 All quantities printed in internal units (Hartrees-Bohrs-Radians)
 Mixed Optimization -- RFO/linear search
 Second derivative matrix not updated -- first step.
 ITU=  0
     Eigenvalues ---    0.01727   0.01822   0.01848   0.01947   0.02012
     Eigenvalues ---    0.02055   0.02061   0.02152   0.02152   0.02156
     Eigenvalues ---    0.02278   0.02295   0.02574   0.02574   0.16000
     Eigenvalues ---    0.16000   0.16000   0.16000   0.16000   0.16000
     Eigenvalues ---    0.16000   0.22000   0.22950   0.24000   0.25000
     Eigenvalues ---    0.25000   0.25000   0.25000   0.35324   0.35328
     Eigenvalues ---    0.35441   0.35585   0.38330   0.39823   0.41618
     Eigenvalues ---    0.41716   0.45926   0.45931   0.49063   0.51697
     Eigenvalues ---    0.51913   0.52055   0.52912   0.58737   0.99125
 RFO step:  Lambda=-7.13607634D-04 EMin= 1.72716356D-02
 Linear search not attempted -- first point.
 Iteration  1 RMS(Cart)=  0.00568229 RMS(Int)=  0.00000726
 Iteration  2 RMS(Cart)=  0.00001532 RMS(Int)=  0.00000017
 Iteration  3 RMS(Cart)=  0.00000000 RMS(Int)=  0.00000017
 Variable       Old X    -DE/DX   Delta X   Delta X   Delta X     New X
                                 (Linear)    (Quad)   (Total)
    R1        2.68821   0.00100   0.00000   0.00240   0.00240   2.69061
    R2        2.57735   0.00278   0.00000   0.00532   0.00532   2.58267
    R3        2.04966  -0.00178   0.00000  -0.00503  -0.00503   2.04463
    R4        2.68755   0.00093   0.00000   0.00223   0.00223   2.68978
    R5        2.57982   0.00385   0.00000   0.00740   0.00740   2.58722
    R6        2.57967   0.00300   0.00000   0.00577   0.00577   2.58544
    R7        2.04736  -0.00190   0.00000  -0.00534  -0.00534   2.04202
    R8        2.70202   0.00067   0.00000   0.00160   0.00160   2.70362
    R9        2.05145  -0.00171   0.00000  -0.00483  -0.00483   2.04662
   R10        2.70289   0.00098   0.00000   0.00237   0.00237   2.70525
   R11        2.51954   0.00268   0.00000   0.00456   0.00456   2.52410
   R12        2.05152  -0.00170   0.00000  -0.00481  -0.00481   2.04670
   R13        1.90915  -0.00032   0.00000  -0.00070  -0.00070   1.90845
   R14        1.90909  -0.00032   0.00000  -0.00070  -0.00070   1.90839
   R15        2.57036   0.01127   0.00000   0.02126   0.02126   2.59162
   R16        2.28991   0.01839   0.00000   0.01854   0.01854   2.30845
   R17        1.84891   0.00107   0.00000   0.00207   0.00207   1.85098
    A1        2.08409  -0.00038   0.00000  -0.00161  -0.00161   2.08248
    A2        2.08642   0.00015   0.00000   0.00057   0.00057   2.08698
    A3        2.11267   0.00023   0.00000   0.00105   0.00105   2.11372
    A4        2.11336   0.00055   0.00000   0.00236   0.00236   2.11572
    A5        2.05350  -0.00013   0.00000  -0.00062  -0.00062   2.05288
    A6        2.11633  -0.00041   0.00000  -0.00174  -0.00174   2.11459
    A7        2.07993  -0.00038   0.00000  -0.00156  -0.00156   2.07837
    A8        2.10149   0.00007   0.00000   0.00006   0.00006   2.10154
    A9        2.10177   0.00030   0.00000   0.00150   0.00150   2.10327
   A10        2.10455  -0.00005   0.00000  -0.00020  -0.00020   2.10435
   A11        2.09259   0.00022   0.00000   0.00128   0.00128   2.09387
   A12        2.08605  -0.00016   0.00000  -0.00108  -0.00107   2.08497
   A13        2.08340   0.00030   0.00000   0.00117   0.00117   2.08457
   A14        2.10027  -0.00013   0.00000  -0.00049  -0.00049   2.09979
   A15        2.09951  -0.00018   0.00000  -0.00068  -0.00068   2.09883
   A16        2.10104  -0.00004   0.00000  -0.00016  -0.00016   2.10088
   A17        2.09468   0.00021   0.00000   0.00129   0.00129   2.09596
   A18        2.08747  -0.00018   0.00000  -0.00113  -0.00113   2.08634
   A19        2.12124  -0.00009   0.00000  -0.00057  -0.00057   2.12067
   A20        2.12196  -0.00013   0.00000  -0.00079  -0.00079   2.12118
   A21        2.03999   0.00022   0.00000   0.00135   0.00135   2.04134
   A22        2.00531  -0.00109   0.00000  -0.00436  -0.00436   2.00094
   A23        2.21180   0.00019   0.00000   0.00074   0.00074   2.21254
   A24        2.06608   0.00091   0.00000   0.00362   0.00362   2.06970
   A25        1.81977  -0.00005   0.00000  -0.00033  -0.00033   1.81944
    D1       -0.00003   0.00000   0.00000   0.00007   0.00007   0.00005
    D2        3.14159   0.00000   0.00000   0.00001   0.00001  -3.14159
    D3        3.14158   0.00000   0.00000   0.00003   0.00003  -3.14157
    D4        0.00001  -0.00000   0.00000  -0.00003  -0.00003  -0.00002
    D5        0.00001  -0.00000   0.00000  -0.00003  -0.00003  -0.00002
    D6       -3.14158  -0.00000   0.00000  -0.00005  -0.00005   3.14156
    D7        3.14159   0.00000   0.00000   0.00001   0.00001  -3.14159
    D8        0.00000  -0.00000   0.00000  -0.00000  -0.00000  -0.00000
    D9        0.00003  -0.00000   0.00000  -0.00007  -0.00007  -0.00005
   D10       -3.14158  -0.00000   0.00000  -0.00004  -0.00004   3.14157
   D11       -3.14159  -0.00000   0.00000  -0.00000  -0.00000   3.14159
   D12       -0.00001   0.00000   0.00000   0.00003   0.00003   0.00002
   D13        3.14143   0.00001   0.00000   0.00047   0.00047  -3.14129
   D14        0.00014  -0.00001   0.00000  -0.00041  -0.00041  -0.00027
   D15       -0.00014   0.00001   0.00000   0.00040   0.00040   0.00026
   D16       -3.14143  -0.00001   0.00000  -0.00048  -0.00048   3.14128
   D17       -0.00001   0.00000   0.00000   0.00003   0.00003   0.00002
   D18        3.14158   0.00000   0.00000   0.00004   0.00004  -3.14157
   D19       -3.14159  -0.00000   0.00000  -0.00000  -0.00000   3.14159
   D20       -0.00000   0.00000   0.00000   0.00001   0.00001   0.00001
   D21       -0.00000   0.00000   0.00000   0.00001   0.00001   0.00001
   D22        3.14159   0.00000   0.00000   0.00001   0.00001  -3.14159
   D23        3.14159  -0.00000   0.00000   0.00000   0.00000  -3.14159
   D24        0.00000  -0.00000   0.00000  -0.00000  -0.00000  -0.00000
   D25        0.00000  -0.00000   0.00000  -0.00001  -0.00001  -0.00001
   D26        3.14159   0.00000   0.00000   0.00001   0.00001  -3.14159
   D27       -3.14159  -0.00000   0.00000  -0.00001  -0.00001   3.14159
   D28       -0.00000   0.00000   0.00000   0.00001   0.00001   0.00000
   D29        3.14159   0.00000   0.00000   0.00000   0.00000  -3.14159
   D30       -0.00000   0.00000   0.00000   0.00000   0.00000   0.00000
   D31        0.00000  -0.00000   0.00000  -0.00000  -0.00000  -0.00000
   D32        3.14159   0.00000   0.00000  -0.00000  -0.00000   3.14159
   D33       -3.14143  -0.00001   0.00000  -0.00046  -0.00046   3.14129
   D34       -0.00012   0.00001   0.00000   0.00034   0.00034   0.00022
         Item               Value     Threshold  Converged?
 Maximum Force            0.018388     0.000450     NO 
 RMS     Force            0.002627     0.000300     NO 
 Maximum Displacement     0.024466     0.001800     NO 
 RMS     Displacement     0.005681     0.001200     NO 
 Predicted change in Energy=-3.572037D-04
 GradGradGradGradGradGradGradGradGradGradGradGradGradGradGradGradGradGrad

                          Input orientation:                          
 ---------------------------------------------------------------------
 Center     Atomic      Atomic             Coordinates (Angstroms)
 Number     Number       Type             X           Y           Z
 ---------------------------------------------------------------------
      1          6           0       -0.057793    1.264176    0.000069
      2          6           0        0.667143    0.038737    0.000142
      3          6           0       -0.004831   -1.216026    0.000102
      4          6           0       -1.372817   -1.237780    0.000047
      5          6           0       -2.119954   -0.017670    0.000006
      6          6           0       -1.424136    1.233408    0.000015
      7          7           0       -3.455371   -0.044998   -0.000041
      8          7           0        2.034383    0.110058    0.000201
      9          8           0        2.670434   -1.104953   -0.000109
     10          8           0        2.713645    1.125369   -0.000066
     11          1           0        0.480202    2.202911    0.000082
     12          1           0        0.558481   -2.138171    0.000134
     13          1           0       -1.898847   -2.184476    0.000040
     14          1           0       -1.988100    2.158060   -0.000013
     15          1           0       -4.000631    0.805063   -0.000071
     16          1           0       -3.965828   -0.916369   -0.000048
     17          1           0        3.623321   -0.878193   -0.000310
 ---------------------------------------------------------------------
                    Distance matrix (angstroms):
                    1          2          3          4          5
     1  C    0.000000
     2  C    1.423809   0.000000
     3  C    2.480768   1.423369   0.000000
     4  C    2.826495   2.406436   1.368159   0.000000
     5  C    2.428094   2.787668   2.431008   1.430693   0.000000
     6  C    1.366690   2.408462   2.830928   2.471721   1.431558
     7  N    3.641081   4.123364   3.643834   2.399950   1.335696
     8  N    2.389391   1.369099   2.432467   3.664107   4.156300
     9  O    3.613308   2.306773   2.677571   4.045432   4.912230
    10  O    2.774911   2.317097   3.587791   4.720556   4.966913
    11  H    1.081971   2.172233   3.453171   3.907945   3.419326
    12  H    3.457710   2.179618   1.080589   2.130872   3.416217
    13  H    3.909307   3.395141   2.127250   1.083024   2.178058
    14  H    2.127232   3.397330   3.913798   3.451132   2.179723
    15  H    3.969479   4.730262   4.477859   3.328456   2.052763
    16  H    4.475212   4.730396   3.972315   2.612855   2.053025
    17  H    4.259148   3.095117   3.643847   5.009062   5.807384
                    6          7          8          9         10
     6  C    0.000000
     7  N    2.400049   0.000000
     8  N    3.636382   5.491943   0.000000
     9  O    4.715235   6.216831   1.371427   0.000000
    10  O    4.139192   6.279053   1.221578   2.230740   0.000000
    11  H    2.136923   4.532309   2.606820   3.967251   2.479791
    12  H    3.911306   4.526851   2.689391   2.351146   3.910937
    13  H    3.450693   2.645777   4.553591   4.695072   5.677161
    14  H    1.083069   2.646950   4.513833   5.687636   4.813820
    15  H    2.611859   1.009907   6.074902   6.939112   6.721912
    16  H    3.328925   1.009879   6.087371   6.638941   6.984558
    17  H    5.471351   7.127559   1.871193   0.979496   2.200403
                   11         12         13         14         15
    11  H    0.000000
    12  H    4.341788   0.000000
    13  H    4.990896   2.457764   0.000000
    14  H    2.468709   4.994265   4.343454   0.000000
    15  H    4.693809   5.426614   3.654428   2.425053   0.000000
    16  H    5.431122   4.686382   2.424976   3.655616   1.721784
    17  H    4.401409   3.313727   5.674567   6.380195   7.807561
                   16         17
    16  H    0.000000
    17  H    7.589245   0.000000
 Stoichiometry    C6H7N2O2(1+)
 Framework group  C1[X(C6H7N2O2)]
 Deg. of freedom    45
 Full point group                 C1      NOp   1
 Largest Abelian subgroup         C1      NOp   1
 Largest concise Abelian subgroup C1      NOp   1
                         Standard orientation:                         
 ---------------------------------------------------------------------
 Center     Atomic      Atomic             Coordinates (Angstroms)
 Number     Number       Type             X           Y           Z
 ---------------------------------------------------------------------
      1          6           0       -0.058287    1.263415    0.000044
      2          6           0        0.666331    0.037788    0.000117
      3          6           0       -0.005968   -1.216801    0.000077
      4          6           0       -1.373959   -1.238201    0.000022
      5          6           0       -2.120781   -0.017897   -0.000019
      6          6           0       -1.424639    1.233001   -0.000010
      7          7           0       -3.456204   -0.044879   -0.000065
      8          7           0        2.033590    0.108756    0.000176
      9          8           0        2.669326   -1.106419   -0.000133
     10          8           0        2.713114    1.123891   -0.000091
     11          1           0        0.479950    2.202011    0.000057
     12          1           0        0.557106   -2.139091    0.000109
     13          1           0       -1.900234   -2.184761    0.000015
     14          1           0       -1.988363    2.157799   -0.000038
     15          1           0       -4.001245    0.805323   -0.000095
     16          1           0       -3.966887   -0.916118   -0.000073
     17          1           0        3.622272   -0.879907   -0.000335
 ---------------------------------------------------------------------
 Rotational constants (GHZ):      3.7485969      0.8200480      0.6728537
 Standard basis: 6-31+G(d,p) (6D, 7F)
 There are   225 symmetry adapted cartesian basis functions of A   symmetry.
 There are   225 symmetry adapted basis functions of A   symmetry.
   225 basis functions,   369 primitive gaussians,   225 cartesian basis functions
    36 alpha electrons       36 beta electrons
       nuclear repulsion energy       507.7377647377 Hartrees.
 NAtoms=   17 NActive=   17 NUniq=   17 SFac= 1.00D+00 NAtFMM=   60 NAOKFM=F Big=F
 Integral buffers will be    131072 words long.
 Regular integral format.
 Two-electron integral symmetry is turned on.
 Nuclear repulsion after empirical dispersion term =      507.7198477813 Hartrees.
 One-electron integrals computed using PRISM.
 NBasis=   225 RedAO= T EigKep=  3.39D-06  NBF=   225
 NBsUse=   225 1.00D-06 EigRej= -1.00D+00 NBFU=   225
 Initial guess from the checkpoint file:  "B2PLYPD3BJPNAyang.chk"
 B after Tr=    -0.000000   -0.000000    0.000000
         Rot=    1.000000   -0.000001    0.000002    0.000059 Ang=  -0.01 deg.
 ExpMin= 4.38D-02 ExpMax= 5.48D+03 ExpMxC= 8.25D+02 IAcc=2 IRadAn=         4 AccDes= 0.00D+00
 Harris functional with IExCor=  419 and IRadAn=       4 diagonalized for initial guess.
 HarFok:  IExCor=  419 AccDes= 0.00D+00 IRadAn=         4 IDoV= 1 UseB2=F ITyADJ=14
 ICtDFT=  3500011 ScaDFX=  1.000000  1.000000  1.000000  1.000000
 FoFCou: FMM=F IPFlag=           0 FMFlag=      100000 FMFlg1=           0
         NFxFlg=           0 DoJE=T BraDBF=F KetDBF=T FulRan=T
         wScrn=  0.000000 ICntrl=     500 IOpCl=  0 I1Cent=   200000004 NGrid=           0
         NMat0=    1 NMatS0=      1 NMatT0=    0 NMatD0=    1 NMtDS0=    0 NMtDT0=    0
 Petite list used in FoFCou.
 Keep R1 ints in memory in canonical form, NReq=329175655.
 Requested convergence on RMS density matrix=1.00D-08 within 128 cycles.
 Requested convergence on MAX density matrix=1.00D-06.
 Requested convergence on             energy=1.00D-06.
 No special actions if energy rises.
 SCF Done:  E(RB2PLYP) =  -491.526455434     A.U. after   12 cycles
            NFock= 12  Conv=0.77D-08     -V/T= 2.0071
 DoSCS=T DFT=T ScalE2(SS,OS)=  0.270000  0.270000
 ExpMin= 4.38D-02 ExpMax= 5.48D+03 ExpMxC= 8.25D+02 IAcc=3 IRadAn=         5 AccDes= 0.00D+00
 HarFok:  IExCor=  205 AccDes= 0.00D+00 IRadAn=         5 IDoV=-2 UseB2=F ITyADJ=14
 ICtDFT= 12500011 ScaDFX=  1.000000  1.000000  1.000000  1.000000
 Range of M.O.s used for correlation:    11   225
 NBasis=   225 NAE=    36 NBE=    36 NFC=    10 NFV=     0
 NROrb=    215 NOA=    26 NOB=    26 NVA=   189 NVB=   189

 **** Warning!!: The largest alpha MO coefficient is  0.12006826D+03

 DoSCS=T DFT=T ScalE2(SS,OS)=  0.270000  0.270000
 Fully direct method using O(ONN) memory.
 JobTyp=1 Pass  1:  I=  11 to  18 NPSUse= 18 ParTrn=T ParDer=T DoDerP=T.
 JobTyp=1 Pass  2:  I=  19 to  26 NPSUse= 18 ParTrn=T ParDer=T DoDerP=T.
 JobTyp=1 Pass  3:  I=  27 to  34 NPSUse= 18 ParTrn=T ParDer=T DoDerP=T.
 JobTyp=1 Pass  4:  I=  35 to  36 NPSUse= 18 ParTrn=T ParDer=T DoDerP=T.
 Spin components of T(2) and E(2):
     alpha-alpha T2 =       0.1146070886D+00 E2=     -0.6895780660D-01
     alpha-beta  T2 =       0.6226258988D+00 E2=     -0.3702738492D+00
     beta-beta   T2 =       0.1146070886D+00 E2=     -0.6895780660D-01
 E2(B2PLYP) =    -0.5081894624D+00 E(B2PLYP) =    -0.49203464489613D+03
          IDoAtm=11111111111111111
          Differentiating once with respect to electric field.
                with respect to dipole field.
          Differentiating once with respect to nuclear coordinates.
 Keep R1 ints in memory in canonical form, NReq=329001650.
          There are     1 degrees of freedom in the 1st order CPHF.  IDoFFX=0 NUNeed=     1.
 LinEq1:  Iter=  0 NonCon=     1 RMS=2.51D-03 Max=1.14D-01 NDo=     1
 AX will form     1 AO Fock derivatives at one time.
 LinEq1:  Iter=  1 NonCon=     1 RMS=1.20D-03 Max=4.19D-02 NDo=     1
 LinEq1:  Iter=  2 NonCon=     1 RMS=5.36D-04 Max=9.98D-03 NDo=     1
 LinEq1:  Iter=  3 NonCon=     1 RMS=4.53D-04 Max=1.66D-02 NDo=     1
 LinEq1:  Iter=  4 NonCon=     1 RMS=2.09D-04 Max=7.76D-03 NDo=     1
 LinEq1:  Iter=  5 NonCon=     1 RMS=1.05D-04 Max=4.68D-03 NDo=     1
 LinEq1:  Iter=  6 NonCon=     1 RMS=7.54D-05 Max=3.12D-03 NDo=     1
 LinEq1:  Iter=  7 NonCon=     1 RMS=2.73D-05 Max=9.00D-04 NDo=     1
 LinEq1:  Iter=  8 NonCon=     1 RMS=1.06D-05 Max=1.96D-04 NDo=     1
 LinEq1:  Iter=  9 NonCon=     1 RMS=4.51D-06 Max=1.13D-04 NDo=     1
 LinEq1:  Iter= 10 NonCon=     1 RMS=2.11D-06 Max=4.38D-05 NDo=     1
 LinEq1:  Iter= 11 NonCon=     1 RMS=7.55D-07 Max=1.16D-05 NDo=     1
 LinEq1:  Iter= 12 NonCon=     1 RMS=2.68D-07 Max=6.54D-06 NDo=     1
 LinEq1:  Iter= 13 NonCon=     1 RMS=1.39D-07 Max=2.85D-06 NDo=     1
 LinEq1:  Iter= 14 NonCon=     1 RMS=5.07D-08 Max=7.58D-07 NDo=     1
 LinEq1:  Iter= 15 NonCon=     1 RMS=2.86D-08 Max=7.26D-07 NDo=     1
 LinEq1:  Iter= 16 NonCon=     1 RMS=1.08D-08 Max=2.32D-07 NDo=     1
 LinEq1:  Iter= 17 NonCon=     1 RMS=3.79D-09 Max=1.06D-07 NDo=     1
 LinEq1:  Iter= 18 NonCon=     1 RMS=1.77D-09 Max=3.30D-08 NDo=     1
 LinEq1:  Iter= 19 NonCon=     1 RMS=4.31D-10 Max=9.02D-09 NDo=     1
 LinEq1:  Iter= 20 NonCon=     1 RMS=1.43D-10 Max=3.83D-09 NDo=     1
 LinEq1:  Iter= 21 NonCon=     1 RMS=7.60D-11 Max=2.36D-09 NDo=     1
 LinEq1:  Iter= 22 NonCon=     1 RMS=2.81D-11 Max=1.06D-09 NDo=     1
 LinEq1:  Iter= 23 NonCon=     0 RMS=8.88D-12 Max=1.92D-10 NDo=     1
 Linear equations converged to 1.000D-10 1.000D-09 after    23 iterations.
 End of Minotr F.D. properties file   721 does not exist.
 End of Minotr F.D. properties file   722 does not exist.
 End of Minotr F.D. properties file   788 does not exist.
 Calling FoFJK, ICntrl=  10002127 FMM=F ISym2X=0 I1Cent= 0 IOpClX= 0 NMat=1 NMatS=1 NMatT=0.
 ***** Axes restored to original set *****
 -------------------------------------------------------------------
 Center     Atomic                   Forces (Hartrees/Bohr)
 Number     Number              X              Y              Z
 -------------------------------------------------------------------
      1        6           0.000212626    0.000159031    0.000007480
      2        6          -0.000177900   -0.000137101    0.000009805
      3        6           0.000267577   -0.000183956    0.000006643
      4        6          -0.000172038    0.000161971   -0.000000179
      5        6           0.000739814   -0.000074115    0.000000397
      6        6          -0.000084673   -0.000046188    0.000000107
      7        7          -0.000227036    0.000023315   -0.000000051
      8        7          -0.004246390    0.000591988   -0.000064501
      9        8           0.001460825   -0.003175030    0.000016231
     10        8           0.002067211    0.002068292    0.000024158
     11        1           0.000039407    0.000037459   -0.000000150
     12        1           0.000016626   -0.000002147    0.000000464
     13        1           0.000010485   -0.000057229   -0.000001399
     14        1          -0.000008862    0.000045798   -0.000001640
     15        1           0.000083973    0.000079462   -0.000000005
     16        1           0.000088220   -0.000081008   -0.000000003
     17        1          -0.000069865    0.000589458    0.000002643
 -------------------------------------------------------------------
 Cartesian Forces:  Max     0.004246390 RMS     0.000890459

 GradGradGradGradGradGradGradGradGradGradGradGradGradGradGradGradGradGrad
 Berny optimization.
 Using GEDIIS/GDIIS optimizer.
 FormGI is forming the generalized inverse of G from B-inverse, IUseBI=4.
 Internal  Forces:  Max     0.002935211 RMS     0.000525351
 Search for a local minimum.
 Step number   2 out of a maximum of   86
 All quantities printed in internal units (Hartrees-Bohrs-Radians)
 Mixed Optimization -- En-DIIS/RFO-DIIS
 Update second derivatives using D2CorX and points    1    2
 DE= -4.07D-04 DEPred=-3.57D-04 R= 1.14D+00
 TightC=F SS=  1.41D+00  RLast= 3.35D-02 DXNew= 5.0454D-01 1.0038D-01
 Trust test= 1.14D+00 RLast= 3.35D-02 DXMaxT set to 3.00D-01
 ITU=  1  0
 Use linear search instead of GDIIS.
     Eigenvalues ---    0.01727   0.01822   0.01847   0.01947   0.02012
     Eigenvalues ---    0.02055   0.02061   0.02152   0.02152   0.02156
     Eigenvalues ---    0.02278   0.02295   0.02574   0.02574   0.15831
     Eigenvalues ---    0.16000   0.16000   0.16000   0.16000   0.16000
     Eigenvalues ---    0.16051   0.22000   0.22895   0.23601   0.24936
     Eigenvalues ---    0.25000   0.25000   0.25339   0.35326   0.35383
     Eigenvalues ---    0.35516   0.35834   0.38334   0.39828   0.41715
     Eigenvalues ---    0.41843   0.45640   0.45928   0.45939   0.49070
     Eigenvalues ---    0.51702   0.52007   0.54355   0.59028   0.93079
 RFO step:  Lambda=-3.71244034D-05 EMin= 1.72716049D-02
 Quartic linear search produced a step of  0.18153.
 Iteration  1 RMS(Cart)=  0.00190479 RMS(Int)=  0.00001009
 Iteration  2 RMS(Cart)=  0.00000896 RMS(Int)=  0.00000044
 Iteration  3 RMS(Cart)=  0.00000000 RMS(Int)=  0.00000044
 Variable       Old X    -DE/DX   Delta X   Delta X   Delta X     New X
                                 (Linear)    (Quad)   (Total)
    R1        2.69061  -0.00014   0.00043  -0.00069  -0.00026   2.69035
    R2        2.58267  -0.00024   0.00097  -0.00120  -0.00024   2.58243
    R3        2.04463   0.00005  -0.00091   0.00078  -0.00014   2.04449
    R4        2.68978  -0.00016   0.00040  -0.00073  -0.00032   2.68946
    R5        2.58722  -0.00078   0.00134  -0.00269  -0.00135   2.58587
    R6        2.58544  -0.00019   0.00105  -0.00114  -0.00009   2.58536
    R7        2.04202   0.00001  -0.00097   0.00068  -0.00029   2.04172
    R8        2.70362  -0.00017   0.00029  -0.00068  -0.00039   2.70323
    R9        2.04662   0.00004  -0.00088   0.00073  -0.00015   2.04647
   R10        2.70525  -0.00010   0.00043  -0.00059  -0.00016   2.70509
   R11        2.52410   0.00005   0.00083  -0.00046   0.00037   2.52447
   R12        2.04670   0.00004  -0.00087   0.00072  -0.00015   2.04655
   R13        1.90845   0.00002  -0.00013   0.00014   0.00001   1.90846
   R14        1.90839   0.00003  -0.00013   0.00015   0.00002   1.90842
   R15        2.59162   0.00294   0.00386   0.00394   0.00780   2.59942
   R16        2.30845   0.00287   0.00337   0.00108   0.00445   2.31289
   R17        1.85098   0.00007   0.00038  -0.00010   0.00028   1.85126
    A1        2.08248  -0.00029  -0.00029  -0.00125  -0.00154   2.08094
    A2        2.08698   0.00013   0.00010   0.00054   0.00064   2.08762
    A3        2.11372   0.00016   0.00019   0.00071   0.00090   2.11462
    A4        2.11572   0.00055   0.00043   0.00242   0.00285   2.11857
    A5        2.05288  -0.00036  -0.00011  -0.00168  -0.00179   2.05109
    A6        2.11459  -0.00019  -0.00032  -0.00074  -0.00106   2.11353
    A7        2.07837  -0.00032  -0.00028  -0.00142  -0.00170   2.07667
    A8        2.10154   0.00015   0.00001   0.00069   0.00070   2.10224
    A9        2.10327   0.00017   0.00027   0.00073   0.00100   2.10427
   A10        2.10435  -0.00015  -0.00004  -0.00068  -0.00072   2.10363
   A11        2.09387   0.00004   0.00023  -0.00007   0.00017   2.09403
   A12        2.08497   0.00011  -0.00020   0.00075   0.00055   2.08553
   A13        2.08457   0.00039   0.00021   0.00178   0.00199   2.08656
   A14        2.09979  -0.00017  -0.00009  -0.00079  -0.00088   2.09891
   A15        2.09883  -0.00022  -0.00012  -0.00099  -0.00111   2.09771
   A16        2.10088  -0.00018  -0.00003  -0.00085  -0.00088   2.10001
   A17        2.09596   0.00007   0.00023   0.00017   0.00041   2.09637
   A18        2.08634   0.00011  -0.00021   0.00067   0.00047   2.08681
   A19        2.12067  -0.00007  -0.00010  -0.00045  -0.00056   2.12011
   A20        2.12118  -0.00008  -0.00014  -0.00049  -0.00063   2.12055
   A21        2.04134   0.00015   0.00025   0.00094   0.00118   2.04252
   A22        2.00094   0.00035  -0.00079   0.00216   0.00136   2.00231
   A23        2.21254   0.00048   0.00013   0.00219   0.00232   2.21486
   A24        2.06970  -0.00083   0.00066  -0.00434  -0.00368   2.06601
   A25        1.81944  -0.00109  -0.00006  -0.00803  -0.00809   1.81135
    D1        0.00005  -0.00000   0.00001  -0.00016  -0.00015  -0.00010
    D2       -3.14159  -0.00000   0.00000  -0.00002  -0.00001   3.14158
    D3       -3.14157  -0.00000   0.00001  -0.00007  -0.00007   3.14155
    D4       -0.00002   0.00000  -0.00001   0.00007   0.00007   0.00005
    D5       -0.00002   0.00000  -0.00001   0.00007   0.00006   0.00004
    D6        3.14156   0.00000  -0.00001   0.00010   0.00009  -3.14153
    D7       -3.14159  -0.00000   0.00000  -0.00002  -0.00002   3.14158
    D8       -0.00000   0.00000  -0.00000   0.00001   0.00001   0.00001
    D9       -0.00005   0.00000  -0.00001   0.00016   0.00014   0.00010
   D10        3.14157   0.00000  -0.00001   0.00009   0.00008  -3.14154
   D11        3.14159   0.00000  -0.00000   0.00001   0.00001  -3.14159
   D12        0.00002  -0.00000   0.00000  -0.00006  -0.00005  -0.00004
   D13       -3.14129  -0.00002   0.00009  -0.00101  -0.00093   3.14097
   D14       -0.00027   0.00002  -0.00008   0.00089   0.00081   0.00054
   D15        0.00026  -0.00002   0.00007  -0.00087  -0.00079  -0.00053
   D16        3.14128   0.00002  -0.00009   0.00103   0.00094  -3.14096
   D17        0.00002  -0.00000   0.00001  -0.00006  -0.00006  -0.00004
   D18       -3.14157  -0.00000   0.00001  -0.00009  -0.00008   3.14154
   D19        3.14159   0.00000  -0.00000   0.00000   0.00000  -3.14159
   D20        0.00001  -0.00000   0.00000  -0.00002  -0.00002  -0.00001
   D21        0.00001  -0.00000   0.00000  -0.00002  -0.00002  -0.00001
   D22       -3.14159  -0.00000   0.00000  -0.00002  -0.00002   3.14158
   D23       -3.14159   0.00000   0.00000   0.00000   0.00000  -3.14159
   D24       -0.00000   0.00000  -0.00000   0.00001   0.00000   0.00000
   D25       -0.00001   0.00000  -0.00000   0.00002   0.00002   0.00001
   D26       -3.14159  -0.00000   0.00000  -0.00001  -0.00001   3.14158
   D27        3.14159   0.00000  -0.00000   0.00002   0.00002  -3.14158
   D28        0.00000  -0.00000   0.00000  -0.00002  -0.00001  -0.00001
   D29       -3.14159   0.00000   0.00000  -0.00000  -0.00000   3.14159
   D30        0.00000   0.00000   0.00000  -0.00000  -0.00000  -0.00000
   D31       -0.00000   0.00000  -0.00000   0.00000   0.00000   0.00000
   D32        3.14159  -0.00000  -0.00000   0.00000   0.00000  -3.14159
   D33        3.14129   0.00002  -0.00008   0.00101   0.00092  -3.14098
   D34        0.00022  -0.00001   0.00006  -0.00072  -0.00066  -0.00044
         Item               Value     Threshold  Converged?
 Maximum Force            0.002935     0.000450     NO 
 RMS     Force            0.000525     0.000300     NO 
 Maximum Displacement     0.011263     0.001800     NO 
 RMS     Displacement     0.001905     0.001200     NO 
 Predicted change in Energy=-2.767746D-05
 GradGradGradGradGradGradGradGradGradGradGradGradGradGradGradGradGradGrad

                          Input orientation:                          
 ---------------------------------------------------------------------
 Center     Atomic      Atomic             Coordinates (Angstroms)
 Number     Number       Type             X           Y           Z
 ---------------------------------------------------------------------
      1          6           0       -0.057778    1.264497   -0.000109
      2          6           0        0.665095    0.037997   -0.000274
      3          6           0       -0.005267   -1.217435   -0.000185
      4          6           0       -1.373216   -1.238536   -0.000053
      5          6           0       -2.118784   -0.017708    0.000045
      6          6           0       -1.423999    1.233846    0.000021
      7          7           0       -3.454406   -0.044610    0.000160
      8          7           0        2.031611    0.109508   -0.000413
      9          8           0        2.671438   -1.108181    0.000209
     10          8           0        2.714371    1.125305    0.000120
     11          1           0        0.481107    2.202638   -0.000141
     12          1           0        0.558449   -2.139151   -0.000261
     13          1           0       -1.899816   -2.184825   -0.000037
     14          1           0       -1.988219    2.158249    0.000088
     15          1           0       -3.998925    0.805934    0.000231
     16          1           0       -3.964603   -0.916150    0.000179
     17          1           0        3.622243   -0.872233    0.000598
 ---------------------------------------------------------------------
                    Distance matrix (angstroms):
                    1          2          3          4          5
     1  C    0.000000
     2  C    1.423674   0.000000
     3  C    2.482488   1.423199   0.000000
     4  C    2.827640   2.405047   1.368112   0.000000
     5  C    2.427302   2.784436   2.430288   1.430486   0.000000
     6  C    1.366564   2.407149   2.832239   2.472904   1.431473
     7  N    3.640171   4.120329   3.643087   2.399335   1.335893
     8  N    2.387373   1.368385   2.430976   3.661976   4.152344
     9  O    3.616383   2.310657   2.678933   4.046754   4.912775
    10  O    2.775642   2.319864   3.589548   4.721876   4.966474
    11  H    1.081899   2.172445   3.454483   3.908988   3.418972
    12  H    3.458982   2.179759   1.080433   2.131299   3.415859
    13  H    3.910362   3.394070   2.127243   1.082946   2.178151
    14  H    2.127297   3.396401   3.915015   3.452010   2.179871
    15  H    3.967735   4.726819   4.476978   3.327793   2.052637
    16  H    4.474204   4.726997   3.970783   2.611364   2.052863
    17  H    4.255370   3.094066   3.643898   5.008871   5.804274
                    6          7          8          9         10
     6  C    0.000000
     7  N    2.399376   0.000000
     8  N    3.633920   5.488181   0.000000
     9  O    4.717806   6.217487   1.375553   0.000000
    10  O    4.139793   6.278735   1.223930   2.233898   0.000000
    11  H    2.137284   4.531930   2.604852   3.969769   2.479539
    12  H    3.912443   4.526600   2.688247   2.351090   3.912119
    13  H    3.451625   2.645235   4.551932   4.696331   5.678704
    14  H    1.082989   2.646185   4.511803   5.690515   4.814699
    15  H    2.610241   1.009914   6.070616   6.939566   6.720889
    16  H    3.328236   1.009892   6.083301   6.638819   6.983998
    17  H    5.468101   7.124880   1.869205   0.979644   2.194172
                   11         12         13         14         15
    11  H    0.000000
    12  H    4.342477   0.000000
    13  H    4.991856   2.458689   0.000000
    14  H    2.469725   4.995314   4.343974   0.000000
    15  H    4.692704   5.426157   3.653888   2.423158   0.000000
    16  H    5.430577   4.685481   2.423403   3.654862   1.722425
    17  H    4.395630   3.315406   5.675917   6.376606   7.803746
                   16         17
    16  H    0.000000
    17  H    7.586973   0.000000
 Stoichiometry    C6H7N2O2(1+)
 Framework group  C1[X(C6H7N2O2)]
 Deg. of freedom    45
 Full point group                 C1      NOp   1
 Largest Abelian subgroup         C1      NOp   1
 Largest concise Abelian subgroup C1      NOp   1
                         Standard orientation:                         
 ---------------------------------------------------------------------
 Center     Atomic      Atomic             Coordinates (Angstroms)
 Number     Number       Type             X           Y           Z
 ---------------------------------------------------------------------
      1          6           0       -0.058497    1.264201   -0.000084
      2          6           0        0.664363    0.037693   -0.000249
      3          6           0       -0.006012   -1.217732   -0.000160
      4          6           0       -1.373961   -1.238819   -0.000028
      5          6           0       -2.119516   -0.017983    0.000070
      6          6           0       -1.424718    1.233564    0.000046
      7          7           0       -3.455139   -0.044871    0.000185
      8          7           0        2.030880    0.109189   -0.000388
      9          8           0        2.670694   -1.108506    0.000234
     10          8           0        2.713651    1.124979    0.000145
     11          1           0        0.480398    2.202335   -0.000116
     12          1           0        0.557694   -2.139454   -0.000237
     13          1           0       -1.900571   -2.185103   -0.000012
     14          1           0       -1.988928    2.157972    0.000113
     15          1           0       -3.999649    0.805679    0.000255
     16          1           0       -3.965345   -0.916405    0.000204
     17          1           0        3.621502   -0.872569    0.000623
 ---------------------------------------------------------------------
 Rotational constants (GHZ):      3.7432045      0.8203314      0.6728704
 Standard basis: 6-31+G(d,p) (6D, 7F)
 There are   225 symmetry adapted cartesian basis functions of A   symmetry.
 There are   225 symmetry adapted basis functions of A   symmetry.
   225 basis functions,   369 primitive gaussians,   225 cartesian basis functions
    36 alpha electrons       36 beta electrons
       nuclear repulsion energy       507.6241769169 Hartrees.
 NAtoms=   17 NActive=   17 NUniq=   17 SFac= 1.00D+00 NAtFMM=   60 NAOKFM=F Big=F
 Integral buffers will be    131072 words long.
 Regular integral format.
 Two-electron integral symmetry is turned on.
 Nuclear repulsion after empirical dispersion term =      507.6062586429 Hartrees.
 One-electron integrals computed using PRISM.
 NBasis=   225 RedAO= T EigKep=  3.40D-06  NBF=   225
 NBsUse=   225 1.00D-06 EigRej= -1.00D+00 NBFU=   225
 Initial guess from the checkpoint file:  "B2PLYPD3BJPNAyang.chk"
 B after Tr=     0.000000    0.000000   -0.000000
         Rot=    1.000000    0.000002   -0.000005   -0.000030 Ang=   0.00 deg.
 Keep R1 ints in memory in canonical form, NReq=329175655.
 Requested convergence on RMS density matrix=1.00D-08 within 128 cycles.
 Requested convergence on MAX density matrix=1.00D-06.
 Requested convergence on             energy=1.00D-06.
 No special actions if energy rises.
 SCF Done:  E(RB2PLYP) =  -491.526147355     A.U. after   12 cycles
            NFock= 12  Conv=0.23D-08     -V/T= 2.0071
 DoSCS=T DFT=T ScalE2(SS,OS)=  0.270000  0.270000
 ExpMin= 4.38D-02 ExpMax= 5.48D+03 ExpMxC= 8.25D+02 IAcc=3 IRadAn=         5 AccDes= 0.00D+00
 HarFok:  IExCor=  205 AccDes= 0.00D+00 IRadAn=         5 IDoV=-2 UseB2=F ITyADJ=14
 ICtDFT= 12500011 ScaDFX=  1.000000  1.000000  1.000000  1.000000
 Range of M.O.s used for correlation:    11   225
 NBasis=   225 NAE=    36 NBE=    36 NFC=    10 NFV=     0
 NROrb=    215 NOA=    26 NOB=    26 NVA=   189 NVB=   189

 **** Warning!!: The largest alpha MO coefficient is  0.11877607D+03

 DoSCS=T DFT=T ScalE2(SS,OS)=  0.270000  0.270000
 Fully direct method using O(ONN) memory.
 JobTyp=1 Pass  1:  I=  11 to  18 NPSUse= 18 ParTrn=T ParDer=T DoDerP=T.
 JobTyp=1 Pass  2:  I=  19 to  26 NPSUse= 18 ParTrn=T ParDer=T DoDerP=T.
 JobTyp=1 Pass  3:  I=  27 to  34 NPSUse= 18 ParTrn=T ParDer=T DoDerP=T.
 JobTyp=1 Pass  4:  I=  35 to  36 NPSUse= 18 ParTrn=T ParDer=T DoDerP=T.
 Spin components of T(2) and E(2):
     alpha-alpha T2 =       0.1147768781D+00 E2=     -0.6899929878D-01
     alpha-beta  T2 =       0.6238584390D+00 E2=     -0.3705298110D+00
     beta-beta   T2 =       0.1147768781D+00 E2=     -0.6899929878D-01
 E2(B2PLYP) =    -0.5085284085D+00 E(B2PLYP) =    -0.49203467576308D+03
          IDoAtm=11111111111111111
          Differentiating once with respect to electric field.
                with respect to dipole field.
          Differentiating once with respect to nuclear coordinates.
 Keep R1 ints in memory in canonical form, NReq=329001650.
          There are     1 degrees of freedom in the 1st order CPHF.  IDoFFX=0 NUNeed=     1.
 LinEq1:  Iter=  0 NonCon=     1 RMS=2.52D-03 Max=1.15D-01 NDo=     1
 AX will form     1 AO Fock derivatives at one time.
 LinEq1:  Iter=  1 NonCon=     1 RMS=1.21D-03 Max=4.23D-02 NDo=     1
 LinEq1:  Iter=  2 NonCon=     1 RMS=5.44D-04 Max=1.04D-02 NDo=     1
 LinEq1:  Iter=  3 NonCon=     1 RMS=4.58D-04 Max=1.67D-02 NDo=     1
 LinEq1:  Iter=  4 NonCon=     1 RMS=2.13D-04 Max=7.94D-03 NDo=     1
 LinEq1:  Iter=  5 NonCon=     1 RMS=1.07D-04 Max=4.75D-03 NDo=     1
 LinEq1:  Iter=  6 NonCon=     1 RMS=7.68D-05 Max=3.16D-03 NDo=     1
 LinEq1:  Iter=  7 NonCon=     1 RMS=2.76D-05 Max=9.09D-04 NDo=     1
 LinEq1:  Iter=  8 NonCon=     1 RMS=1.08D-05 Max=2.02D-04 NDo=     1
 LinEq1:  Iter=  9 NonCon=     1 RMS=4.60D-06 Max=1.15D-04 NDo=     1
 LinEq1:  Iter= 10 NonCon=     1 RMS=2.15D-06 Max=4.35D-05 NDo=     1
 LinEq1:  Iter= 11 NonCon=     1 RMS=7.63D-07 Max=1.14D-05 NDo=     1
 LinEq1:  Iter= 12 NonCon=     1 RMS=2.64D-07 Max=6.43D-06 NDo=     1
 LinEq1:  Iter= 13 NonCon=     1 RMS=1.35D-07 Max=2.71D-06 NDo=     1
 LinEq1:  Iter= 14 NonCon=     1 RMS=5.05D-08 Max=7.29D-07 NDo=     1
 LinEq1:  Iter= 15 NonCon=     1 RMS=2.88D-08 Max=7.12D-07 NDo=     1
 LinEq1:  Iter= 16 NonCon=     1 RMS=1.09D-08 Max=2.35D-07 NDo=     1
 LinEq1:  Iter= 17 NonCon=     1 RMS=3.93D-09 Max=1.10D-07 NDo=     1
 LinEq1:  Iter= 18 NonCon=     1 RMS=1.87D-09 Max=3.66D-08 NDo=     1
 LinEq1:  Iter= 19 NonCon=     1 RMS=4.74D-10 Max=1.44D-08 NDo=     1
 LinEq1:  Iter= 20 NonCon=     1 RMS=1.67D-10 Max=5.68D-09 NDo=     1
 LinEq1:  Iter= 21 NonCon=     1 RMS=9.11D-11 Max=3.12D-09 NDo=     1
 LinEq1:  Iter= 22 NonCon=     1 RMS=3.33D-11 Max=1.01D-09 NDo=     1
 LinEq1:  Iter= 23 NonCon=     0 RMS=1.17D-11 Max=1.41D-10 NDo=     1
 Linear equations converged to 1.000D-10 1.000D-09 after    23 iterations.
 End of Minotr F.D. properties file   721 does not exist.
 End of Minotr F.D. properties file   722 does not exist.
 End of Minotr F.D. properties file   788 does not exist.
 Calling FoFJK, ICntrl=  10002127 FMM=F ISym2X=0 I1Cent= 0 IOpClX= 0 NMat=1 NMatS=1 NMatT=0.
 ***** Axes restored to original set *****
 -------------------------------------------------------------------
 Center     Atomic                   Forces (Hartrees/Bohr)
 Number     Number              X              Y              Z
 -------------------------------------------------------------------
      1        6          -0.000283733    0.000029287   -0.000015340
      2        6           0.000814508    0.000049592   -0.000019139
      3        6          -0.000175901    0.000032776   -0.000013498
      4        6           0.000134493    0.000081191    0.000000298
      5        6          -0.000076605   -0.000009813   -0.000000819
      6        6           0.000143387   -0.000047884   -0.000000274
      7        7           0.000086034   -0.000000581    0.000000031
      8        7          -0.001057500    0.000962754    0.000131689
      9        8           0.000458654   -0.000628977   -0.000033716
     10        8          -0.000104476   -0.000408718   -0.000049935
     11        1           0.000089246    0.000034339    0.000000302
     12        1           0.000105568   -0.000058170   -0.000000960
     13        1          -0.000062686   -0.000070286    0.000002914
     14        1          -0.000072298    0.000062103    0.000003429
     15        1          -0.000010117    0.000015320    0.000000039
     16        1          -0.000013230   -0.000015853    0.000000047
     17        1           0.000024656   -0.000027080   -0.000005068
 -------------------------------------------------------------------
 Cartesian Forces:  Max     0.001057500 RMS     0.000270614

 GradGradGradGradGradGradGradGradGradGradGradGradGradGradGradGradGradGrad
 Berny optimization.
 Using GEDIIS/GDIIS optimizer.
 FormGI is forming the generalized inverse of G from B-inverse, IUseBI=4.
 GSVD:  received Info=                   1 from GESDD.
 Internal  Forces:  Max     0.000804992 RMS     0.000138121
 Search for a local minimum.
 Step number   3 out of a maximum of   86
 All quantities printed in internal units (Hartrees-Bohrs-Radians)
 Mixed Optimization -- En-DIIS/RFO-DIIS
 Swapping is turned off.
 Update second derivatives using D2CorX and points    1    2    3
 DE= -3.09D-05 DEPred=-2.77D-05 R= 1.12D+00
 TightC=F SS=  1.41D+00  RLast= 1.43D-02 DXNew= 5.0454D-01 4.2875D-02
 Trust test= 1.12D+00 RLast= 1.43D-02 DXMaxT set to 3.00D-01
 ITU=  1  1  0
     Eigenvalues ---    0.01727   0.01822   0.01847   0.01946   0.02012
     Eigenvalues ---    0.02060   0.02067   0.02152   0.02152   0.02156
     Eigenvalues ---    0.02278   0.02295   0.02574   0.02574   0.15597
     Eigenvalues ---    0.16000   0.16000   0.16000   0.16000   0.16005
     Eigenvalues ---    0.16546   0.21996   0.22621   0.23064   0.24626
     Eigenvalues ---    0.25000   0.25042   0.25347   0.35326   0.35384
     Eigenvalues ---    0.35515   0.35919   0.37990   0.38432   0.39895
     Eigenvalues ---    0.41737   0.41997   0.45927   0.45938   0.49069
     Eigenvalues ---    0.51704   0.52256   0.54581   0.59086   1.01617
 En-DIIS/RFO-DIIS IScMMF=        0 using points:     3    2
 RFO step:  Lambda=-2.23913527D-06.
 DidBck=F Rises=F RFO-DIIS coefs:    1.11127   -0.11127
 Iteration  1 RMS(Cart)=  0.00085060 RMS(Int)=  0.00000083
 Iteration  2 RMS(Cart)=  0.00000099 RMS(Int)=  0.00000040
 Variable       Old X    -DE/DX   Delta X   Delta X   Delta X     New X
                                 (Linear)    (Quad)   (Total)
    R1        2.69035   0.00012  -0.00003   0.00036   0.00033   2.69069
[...]
 ! D22   D(3,4,5,7)           -179.9999         -DE/DX =    0.0                 !
 ! D23   D(13,4,5,6)          -180.0            -DE/DX =    0.0                 !
 ! D24   D(13,4,5,7)             0.0            -DE/DX =    0.0                 !
 ! D25   D(4,5,6,1)             -0.0001         -DE/DX =    0.0                 !
 ! D26   D(4,5,6,14)           180.0001         -DE/DX =    0.0                 !
 ! D27   D(7,5,6,1)            179.9999         -DE/DX =    0.0                 !
 ! D28   D(7,5,6,14)             0.0001         -DE/DX =    0.0                 !
 ! D29   D(4,5,7,15)           180.0            -DE/DX =    0.0                 !
 ! D30   D(4,5,7,16)             0.0            -DE/DX =    0.0                 !
 ! D31   D(6,5,7,15)             0.0            -DE/DX =    0.0                 !
 ! D32   D(6,5,7,16)          -180.0            -DE/DX =    0.0                 !
 ! D33   D(2,8,9,17)           179.9941         -DE/DX =    0.0                 !
 ! D34   D(10,8,9,17)            0.0042         -DE/DX =    0.0                 !
 --------------------------------------------------------------------------------
 GradGradGradGradGradGradGradGradGradGradGradGradGradGradGradGradGradGrad

 1\1\ WCSS.PL-BEM-JP\Freq\RB2PLYP-FC\6-31+G(d,p)\C6H7N2O2(1+)\C612\18-D
 ec-2024\0\\#N Geom=AllCheck Guess=TCheck SCRF=Check GenChk RB2PLYP(FC)
 /6-31+G(d,p) Freq\\[No Title]\\1,1\C,-0.0581106317,1.2651306547,0.0000
 297146\C,0.6653354899,0.0385981025,0.0000513953\C,-0.0050733492,-1.217
 0367755,0.0000386169\C,-1.3728756488,-1.2384065958,0.0000244499\C,-2.1
 18648698,-0.0176748525,0.0000143404\C,-1.4241614033,1.2341504423,0.000
 0158772\N,-3.4541513514,-0.0448294303,0.0000030818\N,2.0307099493,0.10
 98035302,0.0000668685\O,2.6711032392,-1.1096246761,-0.0000412098\O,2.7
 145271326,1.1245050213,-0.0000239418\H,0.4811970675,2.2031747365,0.000
 0333365\H,0.5594123907,-2.1384471311,0.0000467627\H,-1.8996152837,-2.1
 847851108,0.0000233505\H,-1.9889717042,2.1583593164,0.0000094124\H,-3.
 9988590937,0.8056317033,-0.0000042953\H,-3.9642172897,-0.9164852243,0.
 0000016908\H,3.6217001846,-0.8729187106,-0.0001104505\\Version=ES64L-G
 09RevE.01\State=1-A\HF=-491.5261304\MP2=-492.0346784\RMSD=3.153e-09\RM
 SF=2.158e-05\ZeroPoint=0.1322551\Thermal=0.1409351\Dipole=-1.5209769,-
 0.4026016,-0.0000254\DipoleDeriv=0.7626826,0.0148085,0.0000018,-0.4318
 523,0.0422422,-0.0000001,0.0000025,0.,-0.0255787,-1.6167229,-0.0999505
 ,0.0000171,0.0475371,-0.1014972,-0.0000021,0.0000614,-0.0000112,0.0702
 13,0.7812625,0.059263,0.0000011,0.4401456,0.0796306,0.0000004,0.000007
 9,0.0000061,-0.0112752,-0.7735124,0.1071694,0.0000002,0.7296271,-0.026
 3054,0.0000012,-0.0000213,-0.0000021,-0.1411856,2.305164,0.0580483,0.0
 000058,0.0323392,0.3818259,-0.0000004,0.0000175,0.0000016,0.2391401,-0
 .7241254,-0.1652074,0.0000008,-0.7327175,-0.0877231,-0.0000022,-0.0000
 157,-0.0000016,-0.1359644,-2.1083457,-0.0603359,-0.0000036,-0.0370786,
 -0.1990209,-0.0000009,-0.0000137,-0.0000015,-0.4597728,3.2738837,-0.00
 59048,-0.0000289,0.1574696,1.3045934,0.0000426,-0.0004386,0.0000289,0.
 2098201,-1.1268091,0.4758012,0.0000216,1.0358885,-0.705308,-0.0000115,
 0.0001873,-0.0000656,-0.2484851,-1.3770825,-0.2701206,-0.0000053,-1.12
 37105,-0.6604408,-0.00003,0.0002219,0.0000433,-0.139905,0.0745442,-0.0
 150804,-0.0000003,0.0280121,0.1107655,0.0000006,0.0000025,-0.0000005,0
 .146812,0.0893898,0.0077425,-0.000001,-0.0135436,0.1028214,0.,0.000002
 3,0.000001,0.1471014,0.0388293,-0.0324269,-0.0000003,-0.0094544,0.0498
 178,-0.0000007,0.0000048,-0.0000008,0.1533043,0.0359219,0.0330572,-0.0
 000006,0.0069286,0.0535755,0.0000014,0.0000062,0.0000013,0.153875,0.35
 78556,-0.0623881,-0.0000003,-0.2490357,0.198981,-0.0000001,0.0000012,-
 0.0000003,0.3312295,0.3453514,0.0712342,-0.0000008,0.2540291,0.2186108
 ,0.0000009,-0.0000002,0.0000012,0.3307036,0.6617132,-0.1157096,-0.0000
 073,-0.1345841,0.2374312,0.000001,-0.000026,0.0000002,0.3799678\Polar=
 202.6162635,5.6877397,88.3234256,-0.0005247,-0.0000758,45.1156785\PG=C
 01 [X(C6H7N2O2)]\NImag=0\\0.77944105,0.05935786,0.70183416,0.00000790,
 -0.00000250,0.11482904,-0.12379470,0.07875594,-0.00000079,0.66960134,0
 .05167302,-0.26414416,0.00000278,0.00831477,0.71159434,-0.00000274,0.0
 0000263,-0.03797954,-0.00000127,-0.00000116,0.09164914,0.03003827,-0.0
 0417933,0.00000064,-0.12086857,-0.04774518,-0.00000220,0.77294297,0.00
 693687,-0.04581493,0.00000068,-0.07347468,-0.27376187,-0.00000113,-0.0
 5883460,0.70541004,0.00000067,-0.00000039,-0.00491207,-0.00000030,-0.0
 0000125,-0.03622176,0.00000780,-0.00000094,0.11445972,-0.01961164,0.01
 687936,-0.00000062,-0.04074564,-0.04158130,-0.00000004,-0.43421153,0.0
 1344571,-0.00000456,0.78180771,0.00678235,-0.00747331,0.00000016,-0.02
 094281,0.01329954,-0.00000089,-0.02799788,-0.12614134,-0.00000055,0.05
 918845,0.68912007,-0.00000034,0.00000055,0.00744501,-0.00000081,-0.000
 00059,-0.00583456,-0.00000403,0.00000033,-0.03726342,0.00000673,-0.000
 00060,0.10067649,-0.03560727,-0.03159369,0.00000023,0.02096039,0.00020
 191,-0.00000038,-0.03892829,0.02896642,-0.00000014,-0.14087596,0.07746
 483,-0.00000114,0.79792322,-0.04910688,0.02520840,-0.00000101,0.001534
 58,-0.02889850,-0.00000007,0.04740649,0.02802773,0.00000079,0.03833431
 ,-0.25802161,0.00000047,0.00184506,0.66937679,0.00000039,-0.00000092,-
 0.01245197,0.00000022,0.00000006,0.00351401,0.,0.00000066,-0.01274388,
 -0.00000149,0.00000134,-0.04912513,0.00000613,-0.00000163,0.14002577,-
 0.43930623,-0.02492144,-0.00000459,-0.04398182,0.03966586,-0.00000036,
 -0.01879917,-0.01698584,-0.00000040,0.03707096,0.00080727,0.00000056,-
 0.13561764,-0.03283672,-0.00000119,0.79011655,0.01549656,-0.12611725,0
 .00000107,0.01830298,0.01701753,0.00000076,-0.00752969,-0.00841714,-0.
 00000005,0.00204310,-0.03393809,0.00000003,-0.07195798,-0.26170904,0.0
 0000011,-0.05685451,0.68314673,-0.00000420,0.00000023,-0.03706199,-0.0
 0000104,0.00000038,-0.00640426,-0.00000022,-0.00000046,0.00741004,0.00
 000058,0.00000017,-0.00548106,-0.00000066,0.00000085,-0.04933142,0.000
 00699,-0.00000297,0.10133326,0.01543215,-0.00378056,0.00000002,-0.0228
 8192,0.00057622,0.00000039,0.01560061,0.00450564,0.00000003,-0.0511435
 0,0.01984202,-0.00000063,-0.43698436,-0.00606489,-0.00000359,-0.048248
 38,-0.02161597,-0.00000043,0.86446449,0.00342695,-0.00998861,0.0000001
 8,-0.00054740,0.00206233,0.00000008,-0.00264214,-0.00987509,-0.0000001
 2,0.04761510,0.00466676,0.00000057,-0.00588572,-0.14326684,0.00000025,
 -0.04962492,0.00183771,-0.00000052,-0.00032411,0.87934662,-0.00000004,
 0.00000010,0.00454667,-0.00000014,0.00000001,-0.00181141,0.,0.,0.00464
 048,-0.00000053,0.00000011,0.00610760,-0.00000343,0.00000027,-0.035569
 75,-0.00000020,-0.00000011,0.00605981,0.00000707,-0.00000276,0.0364313
 3,-0.06137874,0.02880126,-0.00000246,-0.28283831,-0.01137040,-0.000003
 37,-0.04834413,-0.02735541,-0.00000280,0.01717255,-0.01223521,0.000000
 73,-0.02320487,-0.00124038,-0.00000047,0.01775007,0.01359913,0.0000007
 5,0.02281126,0.00050143,0.00000018,0.84562862,0.03398898,0.01077625,0.
 00000028,-0.00261243,-0.12781139,-0.00000028,-0.03493108,0.01139288,-0
 .00000122,-0.00462253,-0.00844539,-0.00000014,0.00008655,-0.00546427,0
 .,0.00367637,-0.00717766,0.00000047,0.00039100,0.00067804,-0.00000002,
 0.15379469,0.69155769,0.00000062,-0.00000058,-0.00865865,0.00000560,0.
 00000027,-0.04908771,0.00000033,0.00000044,-0.01340156,0.00000004,0.00
 000107,0.00623737,0.00000192,0.00000068,-0.00291295,-0.00000027,-0.000
 00138,0.00593428,-0.00000230,-0.00000021,0.00007932,-0.00003452,-0.000
 01541,0.16870421,-0.00074467,-0.00942132,0.00000097,-0.03417659,0.0509
 5911,0.00000470,-0.00247663,0.00288776,0.00000038,-0.00197250,0.002155
 39,-0.00000019,0.00552753,0.00383002,0.00000020,-0.00492950,-0.0003681
 7,-0.00000044,-0.00542096,-0.00088153,-0.00000006,-0.17485296,0.050593
 14,0.00000835,0.62600839,-0.00809982,0.00508353,-0.00000073,0.02586894
 ,-0.00149029,-0.00000274,-0.00693054,-0.00530676,0.00000011,0.00362357
 ,-0.00237465,0.00000028,-0.00657352,-0.00217236,-0.00000013,0.00397785
 ,0.00482714,0.00000010,0.00669827,0.00080714,0.00000006,-0.00390291,-0
 .15422873,0.00000187,0.06844749,0.32622642,-0.00000049,0.00000071,0.00
 425267,0.00000014,-0.00000177,0.00627776,0.00000002,-0.00000052,0.0012
 9926,0.00000018,-0.00000032,-0.00105988,-0.00000086,-0.00000059,0.0002
 1954,0.00000042,0.00000060,0.00035037,0.00000103,0.00000018,0.00004263
 ,0.00000989,-0.00001092,-0.04261110,-0.00004228,0.00000178,0.01842046,
 0.00413347,-0.00551406,0.00000007,-0.04219671,-0.05259588,0.00000498,0
 .00064780,0.01003003,0.00000145,-0.00551272,0.00162562,-0.00000040,0.0
 0710850,-0.00353468,0.00000028,-0.00244052,-0.00354951,-0.00000017,-0.
 00742625,0.00062811,-0.00000010,-0.27967607,-0.20509559,0.00001754,0.0
 3699215,0.00848897,-0.00000064,0.28771957,0.01158925,-0.00677106,0.000
 00008,-0.03624114,-0.00683987,0.00000321,0.00502051,0.00428619,0.00000
 120,-0.00297200,0.00480710,-0.00000022,0.00705624,-0.00092843,0.000000
 13,-0.00360991,-0.00264658,-0.00000032,-0.00741279,0.00051617,-0.00000
 006,-0.20897228,-0.41651434,0.00001852,-0.01793889,-0.08850409,0.00000
 307,0.25794022,0.50947631,-0.00000056,0.00000055,-0.00041434,-0.000000
 86,0.00000142,0.01188844,-0.00000005,-0.00000051,0.00924975,0.00000010
 ,-0.00000049,-0.00056493,-0.00000103,-0.00000003,0.00030268,0.00000030
 ,0.00000056,-0.00074650,0.00000115,0.,0.00002140,0.00002497,0.00002715
 ,-0.06236911,-0.00000144,-0.00000348,0.01776093,-0.00002202,-0.0000261
 8,0.02859758,-0.13063666,-0.12882825,-0.00000087,0.01184818,0.01552928
 ,0.00000016,-0.00238593,0.00338689,-0.00000002,-0.00064937,0.00038359,
 0.,-0.00502507,0.00113516,-0.00000027,-0.00975251,-0.02679844,-0.00000
 017,-0.00026977,-0.00152576,0.00000003,0.00263413,0.00200398,-0.000000
 32,0.00008154,-0.00071538,0.00000007,-0.00340939,-0.00082238,0.0000002
 3,0.13604442,-0.12808905,-0.28701131,-0.00000076,-0.01269828,-0.017598
 22,-0.00000016,0.00385121,-0.00208262,0.00000011,0.00010152,0.00058416
 ,0.,0.00153941,-0.00002671,0.00000006,0.00309012,0.00705540,0.00000010
 ,0.00034625,0.00057517,0.,-0.00302819,-0.00288019,0.00000026,0.0000541
 8,0.00040200,0.,-0.00025422,0.00287541,-0.00000020,0.13562115,0.297894
 90,-0.00000112,-0.00000061,-0.03745484,0.00000070,0.00000017,0.0019053
 6,-0.00000022,0.00000006,0.00360990,-0.00000002,-0.00000006,-0.0015649
 5,-0.00000021,0.00000001,0.01137120,-0.00000006,-0.00000035,0.00452369
 ,0.00000004,-0.00000002,-0.00061018,-0.00000032,0.00000003,-0.00185647
 ,0.,0.,-0.00028258,0.00000012,0.00000008,0.00022218,0.00000104,0.00000
 068,0.02539076,-0.00211244,-0.00353556,0.,0.01166064,-0.01489294,0.000
 00028,-0.13922197,0.13524452,-0.00000161,-0.01073760,0.02637005,-0.000
 00034,-0.00511813,-0.00127736,-0.00000019,-0.00057173,-0.00035427,-0.0
 0000004,-0.00020816,0.00151215,0.00000001,0.00363720,-0.00083759,-0.00
 000048,-0.00604585,-0.00037098,0.00000049,-0.00045960,0.00036027,0.000
 00015,0.00069093,-0.00073372,0.,0.14766817,-0.00386681,-0.00224847,-0.
 00000008,0.01393666,-0.01700217,0.00000025,0.13377704,-0.28173366,0.00
 000215,-0.00361809,0.00769938,-0.00000017,-0.00175557,-0.00008253,0.,-
 0.00011466,0.00059210,-0.00000003,-0.00029508,0.00059623,0.,0.00275110
 ,-0.00196018,-0.00000032,0.00060617,0.00133313,0.00000008,-0.00042195,
 0.00025779,0.00000009,0.00078297,-0.00062396,0.00000002,-0.14161035,0.
 29146086,-0.00000018,-0.00000005,0.00386494,0.00000066,0.,0.00112062,-
 0.00000184,0.00000169,-0.03693078,-0.00000006,0.00000035,0.00462473,-0
 .00000023,0.00000012,0.01120776,-0.00000005,0.00000005,-0.00155436,0.0
 0000006,0.,-0.00059138,-0.00000038,-0.00000006,-0.00211381,0.00000033,
 -0.00000004,0.00112557,0.00000007,0.00000005,0.00006121,-0.00000002,0.
 ,0.00110176,0.00000164,-0.00000206,0.02478605,-0.00067327,0.00055398,-
 0.00000003,-0.00462180,0.00184266,-0.00000023,-0.01194296,-0.02892748,
 -0.00000026,-0.12768819,-0.12397205,-0.00000026,0.01041501,0.01741318,
 0.00000006,-0.00220835,0.00313159,-0.00000003,0.00227473,0.00035692,0.
 00000002,-0.00009608,-0.00204244,0.00000009,-0.00007203,-0.00002495,0.
 ,-0.00068604,0.00014091,0.,0.00006615,-0.00008538,0.,0.00110363,-0.000
 12948,0.00000006,0.13381713,0.00087837,-0.00001162,0.00000003,0.001316
 78,0.00123919,0.00000006,0.00251777,0.00513050,0.00000008,-0.12471715,
 -0.28529165,-0.00000045,-0.01492808,-0.01836638,-0.00000011,0.00366518
 ,-0.00223542,0.00000003,-0.00112755,0.00193720,-0.00000001,-0.00007625
 ,0.00038790,0.00000009,-0.00004064,-0.00006038,-0.00000001,0.00041649,
 0.00026631,-0.00000006,-0.00005886,0.00002995,0.,0.00008415,0.00086107
 ,-0.00000005,0.13118735,0.29715717,-0.00000004,0.00000003,-0.00110009,
 -0.00000054,-0.00000015,0.00897951,-0.00000009,-0.00000036,0.00179941,
 -0.00000020,-0.00000023,-0.03219958,-0.00000002,0.00000026,0.00119056,
 -0.00000008,0.00000008,0.00462282,0.00000010,0.,-0.00166713,0.00000034
 ,0.00000011,0.00223508,0.00000003,-0.00000003,0.00001898,-0.00000016,-
 0.00000014,-0.00138599,0.,0.,-0.00039776,0.00000010,0.00000002,-0.0053
 3884,0.00000058,0.00000040,0.02307217,-0.01287552,0.02821886,-0.000000
 47,-0.00447965,-0.00205589,-0.00000023,-0.00063103,-0.00057226,-0.0000
 0003,-0.00191785,-0.00312887,0.,0.01046212,-0.01614688,0.00000014,-0.1
 3815554,0.12996687,-0.00000100,0.00226221,-0.00033902,0.00000003,-0.00
 014817,0.00169786,0.00000011,-0.00082947,-0.00011863,0.00000001,0.0000
 3781,0.00013392,-0.00000003,0.00114356,0.00012030,0.00000006,0.0000551
 0,0.00008293,0.,0.00068051,-0.00074777,0.,0.14481563,-0.00317339,0.006
 21184,-0.00000013,-0.00159352,0.00111612,-0.00000004,-0.00089129,-0.00
 006120,-0.00000004,-0.00365397,-0.00247995,0.00000001,0.01609514,-0.01
 833254,0.00000024,0.13069152,-0.27487454,0.00000193,0.00113899,0.00195
 287,0.,0.00020743,0.00053246,-0.00000009,-0.00042305,0.00023248,0.0000
 0005,-0.00003635,-0.00018196,0.00000003,-0.00007355,0.00084212,0.00000
 002,0.00005408,0.00003150,0.,0.00080375,-0.00075593,0.00000001,-0.1375
 1599,0.28609630,-0.00000006,0.00000026,0.00186250,-0.00000056,0.000000
 18,0.00928819,-0.00000003,-0.00000003,-0.00106407,-0.00000004,-0.00000
 004,0.00457778,-0.00000016,-0.00000012,0.00121821,-0.00000091,0.000001
 68,-0.03249276,0.00000009,-0.00000002,-0.00163851,0.00000024,0.0000000
 7,0.00185968,-0.00000004,0.00000003,-0.00093469,0.00000001,0.,0.000105
 08,0.00000012,-0.00000005,-0.00543086,0.00000001,0.,-0.00043598,0.,0.,
 -0.00004725,0.00000140,-0.00000197,0.02317864,-0.00035515,0.00003107,-
 0.00000002,0.00117057,-0.00000890,-0.00000006,-0.00042116,0.00173338,-
 0.00000004,-0.00396841,-0.00349900,-0.00000007,-0.01510161,0.03200280,
 -0.00000019,0.00195607,0.00194607,0.00000006,-0.18304825,0.17289679,-0
 .00000205,-0.00147134,-0.00030238,0.00000032,0.00051589,-0.00061827,-0
 .00000011,0.00058220,0.00068795,-0.00000013,0.00005833,-0.00006938,0.,
 -0.00036987,-0.00012801,0.,0.00002430,0.00014397,0.,-0.00045047,-0.001
 49259,-0.00000002,0.18592544,0.00151813,-0.00095733,0.00000002,-0.0023
 4800,0.00021015,0.00000009,0.00125641,0.00075070,0.00000002,-0.0034163
 9,0.00186434,-0.00000005,0.00072439,0.00823442,-0.00000005,-0.00381766
 ,0.00136014,-0.00000006,0.17187562,-0.35921900,0.00000266,0.00302971,0
 .00038050,-0.00000048,-0.00062498,0.00090590,0.00000017,-0.00121205,-0
 .00146990,0.00000024,-0.00010493,0.00004410,0.,-0.00007346,-0.00003411
 ,0.,-0.00014554,0.00024404,0.,0.00008363,-0.00062794,0.,-0.18575357,0.
 36164544,0.00000004,-0.00000004,-0.00076541,0.00000003,0.00000009,0.00
 019496,-0.00000013,-0.00000008,0.00195955,0.00000007,-0.00000007,0.006
 47566,-0.00000008,0.00000026,-0.00363766,-0.00000003,0.,-0.00350180,-0
 .00000204,0.00000268,-0.00792885,-0.00000005,-0.00000003,-0.00010799,0
 .,0.,0.00008897,0.00000002,0.00000001,0.00002416,-0.00000002,0.,0.0004
 2388,0.00000003,0.,-0.00096305,0.,0.00000001,-0.00048572,-0.00000002,0
 .,0.00068961,0.00000210,-0.00000274,0.00966106,-0.00030578,-0.00177932
 ,-0.00000003,0.00106780,-0.00003397,-0.00000003,-0.00033935,-0.0000035
 8,-0.00000002,0.00188095,-0.00191418,0.00000009,-0.01376060,-0.0329359
 9,0.,-0.00422156,0.00324387,-0.00000008,-0.16940444,-0.16526042,-0.000
 00080,-0.00135040,-0.00016372,0.00000026,0.00032390,-0.00041872,-0.000
 00008,0.00070180,0.00082121,-0.00000013,-0.00036623,0.00011619,0.,0.00
 004926,0.00006492,0.,-0.00043614,0.00151194,-0.00000002,0.00002460,-0.
 00015276,0.,0.01513956,0.01871925,0.00000008,0.17116609,-0.00126577,0.
 00066425,0.,0.00239188,0.00004555,-0.00000011,-0.00150727,-0.00097129,
 -0.00000002,0.00382611,0.00137086,0.00000003,-0.00160222,0.00688551,-0
 .00000002,0.00314600,0.00210226,0.00000007,-0.16423431,-0.37276060,-0.
 00000023,-0.00310070,-0.00040537,0.00000051,0.00078737,-0.00106685,-0.
 00000019,0.00112533,0.00135182,-0.00000024,0.00007595,-0.00004107,-0.0
 0000001,0.00008339,0.00003513,0.,-0.00009499,-0.00055693,0.,0.00014142
 ,0.00024637,0.,-0.01758638,-0.01325277,-0.00000010,0.17812169,0.376282
 86,-0.00000012,0.00000008,0.00185259,0.00000001,-0.00000011,0.00036232
 ,0.00000005,0.00000007,-0.00083524,-0.00000004,-0.00000004,-0.00346485
 ,-0.00000011,-0.00000034,-0.00361968,0.00000007,0.00000012,0.00655299,
 -0.00000080,-0.00000025,-0.00798124,0.,0.00000002,-0.00002331,0.,0.,-0
 .00011989,-0.00000002,0.,-0.00001434,0.00000003,0.,-0.00099000,-0.0000
 0001,0.,0.00041734,-0.00000002,0.,0.00069300,0.,-0.00000002,-0.0004749
 5,0.00000020,0.00000018,-0.00207430,0.00000077,0.00000030,0.00964851,-
 0.00164288,0.00095520,0.00000004,0.00427679,0.00152163,0.00000040,-0.0
 0065893,-0.00098337,-0.00000015,0.00110276,-0.00092956,0.00000010,-0.0
 0217298,-0.00035782,-0.00000004,0.00133929,0.00129837,0.00000008,0.002
 19053,0.00009358,0.,-0.03627275,0.00437519,0.00000272,-0.43792821,-0.0
 8933137,0.00003220,0.00388400,-0.00578110,-0.00000064,-0.00007229,0.00
 011789,0.,-0.00001960,-0.00006179,-0.00000005,0.00004339,-0.00002571,0
 .,0.00000616,0.00001557,-0.00000004,-0.00018610,0.00028945,0.,-0.00016
 945,-0.00030751,0.,0.46628028,0.00195336,0.00075963,-0.00000007,0.0000
 3576,-0.00903827,-0.00000049,-0.00064043,-0.00083215,0.00000012,-0.000
 47581,0.00075376,-0.00000007,0.00031684,-0.00046363,0.00000002,0.00004
 551,-0.00082329,0.00000006,-0.00051875,0.00013390,0.,0.06859697,0.0091
 8178,-0.00000523,-0.15062203,-0.08461364,0.00000768,-0.00804047,0.0000
 1914,0.00000115,0.00000858,-0.00003912,-0.00000001,-0.00002238,0.00081
 790,0.00000002,-0.00000801,0.00002499,0.,0.00017950,0.00005200,0.,0.00
 001645,-0.00007868,0.,0.00006358,0.00007028,0.,0.08911134,0.08407540,0
 .00000026,-0.00000006,0.00214550,-0.00000104,-0.00000032,0.00215892,-0
 .00000003,0.00000010,-0.00105532,-0.00000009,0.00000010,0.00041373,0.0
 0000016,0.00000008,0.00034270,-0.00000019,-0.00000017,-0.00021312,-0.0
 0000019,-0.00000001,-0.00013079,0.00000728,-0.00000006,-0.00190729,0.0
 0002950,0.00000291,-0.00484900,-0.00000104,0.00000056,-0.00273820,0.,0
 .,0.00003891,-0.00000003,0.00000006,-0.00038177,0.,0.,0.00001084,0.,0.
 ,-0.00026060,0.,-0.00000003,-0.00005308,0.00000001,0.00000002,0.000071
 07,-0.00003463,-0.00000317,0.00640751\\-0.00000397,0.00000695,-0.00000
 255,0.00005883,0.00002495,-0.00000315,-0.00000041,-0.00000841,-0.00000
 224,-0.00000509,0.00000864,0.00000004,0.00001915,-0.00000547,-0.000000
 12,0.00000506,-0.00001271,-0.00000005,-0.00001109,-0.00000163,0.,-0.00
 007745,-0.00006992,0.00002184,-0.00000571,-0.00003115,-0.00000564,0.00
 003175,0.00006218,-0.00000826,0.00000983,0.00000148,0.00000006,0.00000
 590,-0.00000109,-0.00000015,-0.00000739,-0.00000604,0.00000048,-0.0000
 0528,0.00000531,0.00000057,0.00000162,0.00000165,0.,0.00000209,-0.0000
 0200,0.,-0.00001781,0.00002727,-0.00000084\\\@


 THE ONLY DIFFERENCE BETWEEN ECCENTRICS AND JOGGERS
 IS THAT JOGGERS WEAR SWEATBANDS WHEN THEY RUN IN THE RAIN.
 Job cpu time:       0 days  2 hours 35 minutes 14.5 seconds.
 File lengths (MBytes):  RWF=  13485 Int=      0 D2E=      0 Chk=      6 Scr=      1
 Normal termination of Gaussian 09 at Wed Dec 18 23:36:34 2024.
