 Entering Gaussian System, Link 0=g09
 Input=b3lypPNA.gjf
 Output=b3lypPNA.log
 Initial command:
 /home/phzd/g09E/g09/l1.exe "/home/phzd/g09E/scratch/Gau-54489.inp" -scrdir="/home/phzd/g09E/scratch/"
 Default is to use a total of  18 processors:
                               18 via shared-memory
                                1 via Linda
 Entering Link 1 = /home/phzd/g09E/g09/l1.exe PID=     54491.
  
 Copyright (c) 1988,1990,1992,1993,1995,1998,2003,2009,2015,
            Gaussian, Inc.  All Rights Reserved.
  
 This is part of the Gaussian(R) 09 program.  It is based on
 the Gaussian(R) 03 system (copyright 2003, Gaussian, Inc.),
 the Gaussian(R) 98 system (copyright 1998, Gaussian, Inc.),
 the Gaussian(R) 94 system (copyright 1995, Gaussian, Inc.),
 the Gaussian 92(TM) system (copyright 1992, Gaussian, Inc.),
 the Gaussian 90(TM) system (copyright 1990, Gaussian, Inc.),
 the Gaussian 88(TM) system (copyright 1988, Gaussian, Inc.),
 the Gaussian 86(TM) system (copyright 1986, Carnegie Mellon
 University), and the Gaussian 82(TM) system (copyright 1983,
 Carnegie Mellon University). Gaussian is a federally registered
 trademark of Gaussian, Inc.
  
 This software contains proprietary and confidential information,
 including trade secrets, belonging to Gaussian, Inc.
  
 This software is provided under written license and may be
 used, copied, transmitted, or stored only in accord with that
 written license.
  
 The following legend is applicable only to US Government
 contracts under FAR:
  
                    RESTRICTED RIGHTS LEGEND
  
 Use, reproduction and disclosure by the US Government is
 subject to restrictions as set forth in subparagraphs (a)
 and (c) of the Commercial Computer Software - Restricted
 Rights clause in FAR 52.227-19.
  
 Gaussian, Inc.
 340 Quinnipiac St., Bldg. 40, Wallingford CT 06492
  
  
 ---------------------------------------------------------------
 Warning -- This program may not be used in any manner that
 competes with the business of Gaussian, Inc. or will provide
 assistance to any competitor of Gaussian, Inc.  The licensee
 of this program is prohibited from giving any competitor of
 Gaussian, Inc. access to this program.  By using this program,
 the user acknowledges that Gaussian, Inc. is engaged in the
 business of creating and licensing software in the field of
 computational chemistry and represents and warrants to the
 licensee that it is not a competitor of Gaussian, Inc. and that
 it will not use this program in any manner prohibited above.
 ---------------------------------------------------------------
  

 Cite this work as:
 Gaussian 09, Revision E.01,
 M. J. Frisch, G. W. Trucks, H. B. Schlegel, G. E. Scuseria, 
 M. A. Robb, J. R. Cheeseman, G. Scalmani, V. Barone, B. Mennucci, 
 G. A. Petersson, H. Nakatsuji, M. Caricato, X. Li, H. P. Hratchian, 
 A. F. Izmaylov, J. Bloino, G. Zheng, J. L. Sonnenberg, M. Hada, 
 M. Ehara, K. Toyota, R. Fukuda, J. Hasegawa, M. Ishida, T. Nakajima, 
 Y. Honda, O. Kitao, H. Nakai, T. Vreven, J. A. Montgomery, Jr., 
 J. E. Peralta, F. Ogliaro, M. Bearpark, J. J. Heyd, E. Brothers, 
 K. N. Kudin, V. N. Staroverov, T. Keith, R. Kobayashi, J. Normand, 
 K. Raghavachari, A. Rendell, J. C. Burant, S. S. Iyengar, J. Tomasi, 
 M. Cossi, N. Rega, J. M. Millam, M. Klene, J. E. Knox, J. B. Cross, 
 V. Bakken, C. Adamo, J. Jaramillo, R. Gomperts, R. E. Stratmann, 
 O. Yazyev, A. J. Austin, R. Cammi, C. Pomelli, J. W. Ochterski, 
 R. L. Martin, K. Morokuma, V. G. Zakrzewski, G. A. Voth, 
 P. Salvador, J. J. Dannenberg, S. Dapprich, A. D. Daniels, 
 O. Farkas, J. B. Foresman, J. V. Ortiz, J. Cioslowski, 
 and D. J. Fox, Gaussian, Inc., Wallingford CT, 2013.
 
 ******************************************
 Gaussian 09:  ES64L-G09RevE.01 30-Nov-2015
                13-Jun-2024 
 ******************************************
 %chk=b3lypPNA.chk
 -------------------------------------
 # opt freq b3lyp/6-31+g(d,p) em=gd3bj
 -------------------------------------
 1/14=-1,18=20,19=15,26=3,38=1/1,3;
 2/9=110,12=2,17=6,18=5,40=1/2;
 3/5=1,6=6,7=111,11=2,16=1,25=1,30=1,71=1,74=-5,124=41/1,2,3;
 4//1;
 5/5=2,38=5/2;
 6/7=2,8=2,9=2,10=2,28=1/1;
 7//1,2,3,16;
 1/14=-1,18=20,19=15,26=3/3(2);
 2/9=110/2;
 99//99;
 2/9=110/2;
 3/5=1,6=6,7=111,11=2,16=1,25=1,30=1,71=1,74=-5,124=41/1,2,3;
 4/5=5,16=3,69=1/1;
 5/5=2,38=5/2;
 7//1,2,3,16;
 1/14=-1,18=20,19=15,26=3/3(-5);
 2/9=110/2;
 6/7=2,8=2,9=2,10=2,19=2,28=1/1;
 99/9=1/99;
 ----------
 [No Title]
 ----------
 Symbolic Z-matrix:
 Charge =  0 Multiplicity = 1
 C                    -1.13717   0.67325  -0.00001 
 C                    -1.16699  -0.67504  0. 
 C                     0.01594  -1.32193   0.00006 
 C                     1.18034  -0.65398   0.00007 
 C                     1.1867    0.68704   0.00003 
 C                     0.02175   1.35065   0.00001 
 N                     2.28529   1.31853   0.00001 
 N                    -2.25582  -1.30429  -0.00006 
 O                    -2.32851  -2.61632  -0.00007 
 O                    -3.42313  -0.70257  -0.00014 
 H                    -2.06589   1.26928  -0.00004 
 H                     0.06805  -2.42422   0.00009 
 H                     2.1293   -1.21754   0.00011 
 H                     0.00703   2.45419  -0.00002 
 H                     2.28831   2.36795  -0.00004 
 H                     3.19478   0.795     0.00001 
 

 GradGradGradGradGradGradGradGradGradGradGradGradGradGradGradGradGradGrad
 Berny optimization.
 Initialization pass.
                           ----------------------------
                           !    Initial Parameters    !
                           ! (Angstroms and Degrees)  !
 --------------------------                            --------------------------
 ! Name  Definition              Value          Derivative Info.                !
 --------------------------------------------------------------------------------
 ! R1    R(1,2)                  1.3486         estimate D2E/DX2                !
 ! R2    R(1,6)                  1.3424         estimate D2E/DX2                !
 ! R3    R(1,11)                 1.1035         estimate D2E/DX2                !
 ! R4    R(2,3)                  1.3483         estimate D2E/DX2                !
 ! R5    R(2,8)                  1.2576         estimate D2E/DX2                !
 ! R6    R(3,4)                  1.3424         estimate D2E/DX2                !
 ! R7    R(3,12)                 1.1035         estimate D2E/DX2                !
 ! R8    R(4,5)                  1.341          estimate D2E/DX2                !
 ! R9    R(4,13)                 1.1037         estimate D2E/DX2                !
 ! R10   R(5,6)                  1.3407         estimate D2E/DX2                !
 ! R11   R(5,7)                  1.2672         estimate D2E/DX2                !
 ! R12   R(6,14)                 1.1036         estimate D2E/DX2                !
 ! R13   R(7,15)                 1.0494         estimate D2E/DX2                !
 ! R14   R(7,16)                 1.0494         estimate D2E/DX2                !
 ! R15   R(8,9)                  1.314          estimate D2E/DX2                !
 ! R16   R(8,10)                 1.3133         estimate D2E/DX2                !
 ! A1    A(2,1,6)              121.5737         estimate D2E/DX2                !
 ! A2    A(2,1,11)             121.4248         estimate D2E/DX2                !
 ! A3    A(6,1,11)             117.0015         estimate D2E/DX2                !
 ! A4    A(1,2,3)              117.4052         estimate D2E/DX2                !
 ! A5    A(1,2,8)              121.2914         estimate D2E/DX2                !
 ! A6    A(3,2,8)              121.3034         estimate D2E/DX2                !
 ! A7    A(2,3,4)              121.4872         estimate D2E/DX2                !
 ! A8    A(2,3,12)             121.3788         estimate D2E/DX2                !
 ! A9    A(4,3,12)             117.134          estimate D2E/DX2                !
 ! A10   A(3,4,5)              120.1124         estimate D2E/DX2                !
 ! A11   A(3,4,13)             119.4544         estimate D2E/DX2                !
 ! A12   A(5,4,13)             120.4332         estimate D2E/DX2                !
 ! A13   A(4,5,6)              119.3963         estimate D2E/DX2                !
 ! A14   A(4,5,7)              120.1634         estimate D2E/DX2                !
 ! A15   A(6,5,7)              120.4403         estimate D2E/DX2                !
 ! A16   A(1,6,5)              120.0251         estimate D2E/DX2                !
 ! A17   A(1,6,14)             119.5426         estimate D2E/DX2                !
 ! A18   A(5,6,14)             120.4323         estimate D2E/DX2                !
 ! A19   A(5,7,15)             120.0569         estimate D2E/DX2                !
 ! A20   A(5,7,16)             120.1824         estimate D2E/DX2                !
 ! A21   A(15,7,16)            119.7607         estimate D2E/DX2                !
 ! A22   A(2,8,9)              123.1952         estimate D2E/DX2                !
 ! A23   A(2,8,10)             122.7054         estimate D2E/DX2                !
 ! A24   A(9,8,10)             114.0994         estimate D2E/DX2                !
 ! D1    D(6,1,2,3)              0.0021         estimate D2E/DX2                !
 ! D2    D(6,1,2,8)           -179.998          estimate D2E/DX2                !
 ! D3    D(11,1,2,3)          -179.9989         estimate D2E/DX2                !
 ! D4    D(11,1,2,8)             0.0011         estimate D2E/DX2                !
 ! D5    D(2,1,6,5)             -0.0001         estimate D2E/DX2                !
 ! D6    D(2,1,6,14)           179.999          estimate D2E/DX2                !
 ! D7    D(11,1,6,5)          -179.9992         estimate D2E/DX2                !
 ! D8    D(11,1,6,14)           -0.0001         estimate D2E/DX2                !
 ! D9    D(1,2,3,4)             -0.0021         estimate D2E/DX2                !
 ! D10   D(1,2,3,12)           179.9989         estimate D2E/DX2                !
 ! D11   D(8,2,3,4)            179.998          estimate D2E/DX2                !
 ! D12   D(8,2,3,12)            -0.001          estimate D2E/DX2                !
 ! D13   D(1,2,8,9)            179.9989         estimate D2E/DX2                !
 ! D14   D(1,2,8,10)             0.0012         estimate D2E/DX2                !
 ! D15   D(3,2,8,9)             -0.0011         estimate D2E/DX2                !
 ! D16   D(3,2,8,10)          -179.9989         estimate D2E/DX2                !
 ! D17   D(2,3,4,5)              0.0001         estimate D2E/DX2                !
 ! D18   D(2,3,4,13)          -179.999          estimate D2E/DX2                !
 ! D19   D(12,3,4,5)           179.9992         estimate D2E/DX2                !
 ! D20   D(12,3,4,13)            0.0001         estimate D2E/DX2                !
 ! D21   D(3,4,5,6)              0.002          estimate D2E/DX2                !
 ! D22   D(3,4,5,7)           -179.9983         estimate D2E/DX2                !
 ! D23   D(13,4,5,6)          -179.999          estimate D2E/DX2                !
 ! D24   D(13,4,5,7)             0.0008         estimate D2E/DX2                !
 ! D25   D(4,5,6,1)             -0.002          estimate D2E/DX2                !
 ! D26   D(4,5,6,14)           179.999          estimate D2E/DX2                !
 ! D27   D(7,5,6,1)            179.9983         estimate D2E/DX2                !
 ! D28   D(7,5,6,14)            -0.0008         estimate D2E/DX2                !
 ! D29   D(4,5,7,15)           179.9994         estimate D2E/DX2                !
 ! D30   D(4,5,7,16)             0.0008         estimate D2E/DX2                !
 ! D31   D(6,5,7,15)            -0.0008         estimate D2E/DX2                !
 ! D32   D(6,5,7,16)          -179.9995         estimate D2E/DX2                !
 --------------------------------------------------------------------------------
 Trust Radius=3.00D-01 FncErr=1.00D-07 GrdErr=1.00D-06
 Number of steps in this run=     82 maximum allowed number of steps=    100.
 GradGradGradGradGradGradGradGradGradGradGradGradGradGradGradGradGradGrad

                          Input orientation:                          
 ---------------------------------------------------------------------
 Center     Atomic      Atomic             Coordinates (Angstroms)
 Number     Number       Type             X           Y           Z
 ---------------------------------------------------------------------
      1          6           0       -1.137174    0.673245   -0.000009
      2          6           0       -1.166993   -0.675038   -0.000004
      3          6           0        0.015944   -1.321930    0.000059
      4          6           0        1.180342   -0.653976    0.000073
      5          6           0        1.186704    0.687036    0.000026
      6          6           0        0.021754    1.350652    0.000005
      7          7           0        2.285286    1.318534    0.000006
      8          7           0       -2.255823   -1.304294   -0.000055
      9          8           0       -2.328505   -2.616319   -0.000073
     10          8           0       -3.423126   -0.702574   -0.000138
     11          1           0       -2.065891    1.269282   -0.000040
     12          1           0        0.068054   -2.424218    0.000085
     13          1           0        2.129297   -1.217536    0.000108
     14          1           0        0.007034    2.454186   -0.000017
     15          1           0        2.288313    2.367950   -0.000040
     16          1           0        3.194785    0.795000    0.000014
 ---------------------------------------------------------------------
                    Distance matrix (angstroms):
                    1          2          3          4          5
     1  C    0.000000
     2  C    1.348613   0.000000
     3  C    2.304431   1.348262   0.000000
     4  C    2.670655   2.347429   1.342380   0.000000
     5  C    2.323919   2.719400   2.325215   1.341027   0.000000
     6  C    1.342384   2.348731   2.672588   2.315353   1.340707
     7  N    3.482762   3.986547   3.481661   2.260906   1.267151
     8  N    2.272011   1.257583   2.271835   3.497162   3.976982
     9  O    3.498643   2.262229   2.678037   4.020298   4.823779
    10  O    2.668043   2.256301   3.494396   4.603725   4.814722
    11  H    1.103529   2.142055   3.323916   3.773188   3.304298
    12  H    3.323680   2.141255   1.103519   2.090680   3.306249
    13  H    3.774240   3.340633   2.115930   1.103683   2.125059
    14  H    2.116828   3.342212   3.776127   3.322247   2.124721
    15  H    3.821778   4.604228   4.333460   3.218639   2.009730
    16  H    4.333670   4.602838   3.819218   2.481433   2.010981
                    6          7          8          9         10
     6  C    0.000000
     7  N    2.263760   0.000000
     8  N    3.498013   5.244130   0.000000
     9  O    4.610919   6.063838   1.314037   0.000000
    10  O    4.010354   6.055646   1.313264   2.204680   0.000000
    11  H    2.089230   4.351456   2.580575   3.894465   2.393805
    12  H    3.775154   4.350208   2.579658   2.404246   3.892608
    13  H    3.322247   2.540863   4.385978   4.672108   5.576252
    14  H    1.103632   2.545611   4.387105   5.582541   4.661666
    15  H    2.484388   1.049420   5.842478   6.793964   6.484493
    16  H    3.221316   1.049417   5.840904   6.491828   6.785239
                   11         12         13         14         15
    11  H    0.000000
    12  H    4.265638   0.000000
    13  H    4.876871   2.388473   0.000000
    14  H    2.387680   4.878786   4.240937   0.000000
    15  H    4.490675   5.281517   3.589010   2.282908   0.000000
    16  H    5.282012   4.487740   2.277184   3.593697   1.815451
                   16
    16  H    0.000000
 Stoichiometry    C6H6N2O2
 Framework group  C1[X(C6H6N2O2)]
 Deg. of freedom    42
 Full point group                 C1      NOp   1
 Largest Abelian subgroup         C1      NOp   1
 Largest concise Abelian subgroup C1      NOp   1
                         Standard orientation:                         
 ---------------------------------------------------------------------
 Center     Atomic      Atomic             Coordinates (Angstroms)
 Number     Number       Type             X           Y           Z
 ---------------------------------------------------------------------
      1          6           0       -0.013100    1.151570    0.000005
      2          6           0       -0.713412   -0.000958    0.000010
      3          6           0       -0.012750   -1.152861    0.000073
      4          6           0        1.329624   -1.156998    0.000087
      5          6           0        2.005987    0.000968    0.000040
      6          6           0        1.329267    1.158355    0.000019
      7          7           0        3.273136   -0.001810    0.000020
      8          7           0       -1.970994   -0.001117   -0.000041
      9          8           0       -2.690281   -1.100807   -0.000059
     10          8           0       -2.680716    1.103853   -0.000124
     11          1           0       -0.519079    2.132264   -0.000026
     12          1           0       -0.519060   -2.133374    0.000099
     13          1           0        1.869374   -2.119695    0.000122
     14          1           0        1.868575    2.121241   -0.000003
     15          1           0        3.800738    0.905339   -0.000026
     16          1           0        3.798745   -0.910111    0.000028
 ---------------------------------------------------------------------
 Rotational constants (GHZ):      4.1157125      0.8899396      0.7317200
 Standard basis: 6-31+G(d,p) (6D, 7F)
 There are   220 symmetry adapted cartesian basis functions of A   symmetry.
 There are   220 symmetry adapted basis functions of A   symmetry.
   220 basis functions,   362 primitive gaussians,   220 cartesian basis functions
    36 alpha electrons       36 beta electrons
       nuclear repulsion energy       510.1291953720 Hartrees.
 NAtoms=   16 NActive=   16 NUniq=   16 SFac= 1.00D+00 NAtFMM=   60 NAOKFM=F Big=F
 Integral buffers will be    131072 words long.
 Raffenetti 2 integral format.
 Two-electron integral symmetry is turned on.
 Nuclear repulsion after empirical dispersion term =      510.0998833032 Hartrees.
 One-electron integrals computed using PRISM.
 NBasis=   220 RedAO= T EigKep=  2.33D-06  NBF=   220
 NBsUse=   220 1.00D-06 EigRej= -1.00D+00 NBFU=   220
 ExpMin= 4.38D-02 ExpMax= 5.48D+03 ExpMxC= 8.25D+02 IAcc=2 IRadAn=         4 AccDes= 0.00D+00
 Harris functional with IExCor=  402 and IRadAn=       4 diagonalized for initial guess.
 HarFok:  IExCor=  402 AccDes= 0.00D+00 IRadAn=         4 IDoV= 1 UseB2=F ITyADJ=14
 ICtDFT=  3500011 ScaDFX=  1.000000  1.000000  1.000000  1.000000
 FoFCou: FMM=F IPFlag=           0 FMFlag=      100000 FMFlg1=           0
         NFxFlg=           0 DoJE=T BraDBF=F KetDBF=T FulRan=T
         wScrn=  0.000000 ICntrl=     500 IOpCl=  0 I1Cent=   200000004 NGrid=           0
         NMat0=    1 NMatS0=      1 NMatT0=    0 NMatD0=    1 NMtDS0=    0 NMtDT0=    0
 Petite list used in FoFCou.
 Keep R1 ints in memory in canonical form, NReq=301066375.
 Requested convergence on RMS density matrix=1.00D-08 within 128 cycles.
 Requested convergence on MAX density matrix=1.00D-06.
 Requested convergence on             energy=1.00D-06.
 No special actions if energy rises.
 SCF Done:  E(RB3LYP) =  -492.099011831     A.U. after   15 cycles
            NFock= 15  Conv=0.39D-08     -V/T= 2.0069

 **********************************************************************

            Population analysis using the SCF density.

 **********************************************************************

 Orbital symmetries:
       Occupied  (A) (A) (A) (A) (A) (A) (A) (A) (A) (A) (A) (A)
                 (A) (A) (A) (A) (A) (A) (A) (A) (A) (A) (A) (A)
                 (A) (A) (A) (A) (A) (A) (A) (A) (A) (A) (A) (A)
       Virtual   (A) (A) (A) (A) (A) (A) (A) (A) (A) (A) (A) (A)
                 (A) (A) (A) (A) (A) (A) (A) (A) (A) (A) (A) (A)
                 (A) (A) (A) (A) (A) (A) (A) (A) (A) (A) (A) (A)
                 (A) (A) (A) (A) (A) (A) (A) (A) (A) (A) (A) (A)
                 (A) (A) (A) (A) (A) (A) (A) (A) (A) (A) (A) (A)
                 (A) (A) (A) (A) (A) (A) (A) (A) (A) (A) (A) (A)
                 (A) (A) (A) (A) (A) (A) (A) (A) (A) (A) (A) (A)
                 (A) (A) (A) (A) (A) (A) (A) (A) (A) (A) (A) (A)
                 (A) (A) (A) (A) (A) (A) (A) (A) (A) (A) (A) (A)
                 (A) (A) (A) (A) (A) (A) (A) (A) (A) (A) (A) (A)
                 (A) (A) (A) (A) (A) (A) (A) (A) (A) (A) (A) (A)
                 (A) (A) (A) (A) (A) (A) (A) (A) (A) (A) (A) (A)
                 (A) (A) (A) (A) (A) (A) (A) (A) (A) (A) (A) (A)
                 (A) (A) (A) (A) (A) (A) (A) (A) (A) (A) (A) (A)
                 (A) (A) (A) (A) (A) (A) (A) (A) (A) (A) (A) (A)
                 (A) (A) (A) (A)
 The electronic state is 1-A.
 Alpha  occ. eigenvalues --  -19.15397 -19.15366 -14.53764 -14.40699 -10.26318
 Alpha  occ. eigenvalues --  -10.23418 -10.22132 -10.22129 -10.21176 -10.21165
 Alpha  occ. eigenvalues --   -1.16348  -1.01133  -0.97342  -0.92426  -0.84741
 Alpha  occ. eigenvalues --   -0.79863  -0.72585  -0.67470  -0.62228  -0.58305
 Alpha  occ. eigenvalues --   -0.57562  -0.52916  -0.51115  -0.49918  -0.47230
 Alpha  occ. eigenvalues --   -0.45790  -0.45424  -0.44552  -0.43013  -0.37538
 Alpha  occ. eigenvalues --   -0.35964  -0.29919  -0.29617  -0.27178  -0.24924
 Alpha  occ. eigenvalues --   -0.24825
 Alpha virt. eigenvalues --   -0.10309  -0.03398  -0.03201  -0.00490   0.00589
 Alpha virt. eigenvalues --    0.01601   0.03007   0.03824   0.05646   0.05779
 Alpha virt. eigenvalues --    0.06885   0.07503   0.08200   0.08358   0.10536
 Alpha virt. eigenvalues --    0.11655   0.12208   0.12385   0.13341   0.13458
 Alpha virt. eigenvalues --    0.14785   0.14895   0.15609   0.16261   0.16677
 Alpha virt. eigenvalues --    0.17193   0.17223   0.18694   0.19428   0.19818
 Alpha virt. eigenvalues --    0.20687   0.21629   0.21768   0.22668   0.23405
 Alpha virt. eigenvalues --    0.24441   0.24604   0.24686   0.25336   0.27479
 Alpha virt. eigenvalues --    0.27507   0.28130   0.28932   0.29836   0.31104
 Alpha virt. eigenvalues --    0.31501   0.32369   0.33520   0.34518   0.36659
 Alpha virt. eigenvalues --    0.40763   0.41179   0.42453   0.43323   0.43681
 Alpha virt. eigenvalues --    0.47111   0.50490   0.54164   0.62025   0.62714
 Alpha virt. eigenvalues --    0.65022   0.65779   0.68016   0.68176   0.70342
 Alpha virt. eigenvalues --    0.70405   0.71513   0.74319   0.79060   0.80505
 Alpha virt. eigenvalues --    0.80676   0.82414   0.85132   0.86143   0.88872
 Alpha virt. eigenvalues --    0.89080   0.89888   0.92138   0.95313   0.96682
 Alpha virt. eigenvalues --    0.96898   1.01500   1.03238   1.04841   1.07529
 Alpha virt. eigenvalues --    1.07723   1.10215   1.14918   1.17864   1.20113
 Alpha virt. eigenvalues --    1.20658   1.20927   1.24259   1.26224   1.26872
 Alpha virt. eigenvalues --    1.29084   1.31475   1.32586   1.32723   1.33135
 Alpha virt. eigenvalues --    1.36587   1.38106   1.38113   1.39563   1.41816
 Alpha virt. eigenvalues --    1.45066   1.47420   1.48493   1.53931   1.57008
 Alpha virt. eigenvalues --    1.70676   1.73715   1.77412   1.78688   1.81990
 Alpha virt. eigenvalues --    1.85050   1.85442   1.86443   1.88285   1.93491
 Alpha virt. eigenvalues --    1.94388   1.94577   1.96738   1.96976   1.98264
 Alpha virt. eigenvalues --    1.99487   1.99605   2.02317   2.06367   2.10220
 Alpha virt. eigenvalues --    2.13967   2.15526   2.16513   2.20176   2.21221
 Alpha virt. eigenvalues --    2.22891   2.23410   2.33201   2.35521   2.37057
 Alpha virt. eigenvalues --    2.38277   2.40211   2.42102   2.46838   2.47075
 Alpha virt. eigenvalues --    2.52132   2.55794   2.56365   2.58245   2.59820
 Alpha virt. eigenvalues --    2.60290   2.62302   2.65026   2.68522   2.74396
 Alpha virt. eigenvalues --    2.79408   2.80269   2.81305   2.82214   2.90022
 Alpha virt. eigenvalues --    2.95814   3.03463   3.05250   3.07921   3.10674
 Alpha virt. eigenvalues --    3.18103   3.22701   3.24154   3.30470   3.42047
 Alpha virt. eigenvalues --    3.48236   3.50820   3.74843   3.97481   4.19362
 Alpha virt. eigenvalues --    4.24493   4.27383   4.35290   4.42792   4.48555
 Alpha virt. eigenvalues --    4.49777   4.58088   4.76699   4.96584
          Condensed to atoms (all electrons):
               1          2          3          4          5          6
     1  C    9.928575   0.179230  -2.031305  -1.602245  -0.113060  -0.869727
     2  C    0.179230  10.501944   0.207275  -1.498743  -0.719418  -1.497809
     3  C   -2.031305   0.207275   9.911113  -0.876357  -0.107128  -1.603456
     4  C   -1.602245  -1.498743  -0.876357  12.998471  -0.115017  -3.246693
     5  C   -0.113060  -0.719418  -0.107128  -0.115017   7.062243  -0.144136
     6  C   -0.869727  -1.497809  -1.603456  -3.246693  -0.144136  13.030200
     7  N    0.030133  -0.022413   0.030993   0.014333  -0.128866   0.012593
     8  N    0.227795  -0.979463   0.229058   0.035853  -0.047142   0.028266
     9  O    0.047733  -0.319266  -0.081289   0.210824   0.012359   0.016829
    10  O   -0.080496  -0.320538   0.041338   0.018903   0.010898   0.217807
    11  H    0.017121   0.272666   0.081092   0.001125  -0.038207   0.016944
    12  H    0.083057   0.273582   0.016726   0.015089  -0.038638   0.000542
    13  H   -0.008269   0.006415   0.168181   0.068480   0.067187   0.020923
    14  H    0.168380   0.006845  -0.008006   0.020608   0.067449   0.067574
    15  H    0.038660  -0.000363  -0.003295   0.124261   0.034722  -0.200951
    16  H   -0.003083  -0.000387   0.039734  -0.200012   0.033980   0.122874
               7          8          9         10         11         12
     1  C    0.030133   0.227795   0.047733  -0.080496   0.017121   0.083057
     2  C   -0.022413  -0.979463  -0.319266  -0.320538   0.272666   0.273582
     3  C    0.030993   0.229058  -0.081289   0.041338   0.081092   0.016726
     4  C    0.014333   0.035853   0.210824   0.018903   0.001125   0.015089
     5  C   -0.128866  -0.047142   0.012359   0.010898  -0.038207  -0.038638
     6  C    0.012593   0.028266   0.016829   0.217807   0.016944   0.000542
     7  N    7.125054   0.001433  -0.000616  -0.000597  -0.000838  -0.000833
     8  N    0.001433   7.397540   0.387649   0.383297  -0.053732  -0.053479
     9  O   -0.000616   0.387649   7.897447  -0.119775  -0.002611   0.016051
    10  O   -0.000597   0.383297  -0.119775   7.901359   0.015873  -0.002628
    11  H   -0.000838  -0.053732  -0.002611   0.015873   0.522601  -0.000162
    12  H   -0.000833  -0.053479   0.016051  -0.002628  -0.000162   0.522800
    13  H   -0.029168  -0.000965   0.000022   0.000075   0.000019  -0.006831
    14  H   -0.028962  -0.000959   0.000074   0.000029  -0.006853   0.000019
    15  H    0.311759   0.000015  -0.000001   0.000005  -0.000022   0.000006
    16  H    0.311758   0.000016   0.000005  -0.000001   0.000006  -0.000023
              13         14         15         16
     1  C   -0.008269   0.168380   0.038660  -0.003083
     2  C    0.006415   0.006845  -0.000363  -0.000387
     3  C    0.168181  -0.008006  -0.003295   0.039734
     4  C    0.068480   0.020608   0.124261  -0.200012
     5  C    0.067187   0.067449   0.034722   0.033980
     6  C    0.020923   0.067574  -0.200951   0.122874
     7  N   -0.029168  -0.028962   0.311759   0.311758
     8  N   -0.000965  -0.000959   0.000015   0.000016
     9  O    0.000022   0.000074  -0.000001   0.000005
    10  O    0.000075   0.000029   0.000005  -0.000001
    11  H    0.000019  -0.006853  -0.000022   0.000006
    12  H   -0.006831   0.000019   0.000006  -0.000023
    13  H    0.587827  -0.000202  -0.000111   0.008290
    14  H   -0.000202   0.587470   0.008237  -0.000117
    15  H   -0.000111   0.008237   0.405354  -0.028338
    16  H    0.008290  -0.000117  -0.028338   0.405060
 Mulliken charges:
               1
     1  C   -0.012501
     2  C   -0.089556
     3  C   -0.014673
     4  C    0.031121
     5  C    0.162773
     6  C    0.028221
     7  N   -0.625765
     8  N   -0.555183
     9  O   -0.065433
    10  O   -0.065548
    11  H    0.174979
    12  H    0.174723
    13  H    0.118126
    14  H    0.118416
    15  H    0.310063
    16  H    0.310238
 Sum of Mulliken charges =  -0.00000
 Mulliken charges with hydrogens summed into heavy atoms:
               1
     1  C    0.162479
     2  C   -0.089556
     3  C    0.160050
     4  C    0.149247
     5  C    0.162773
     6  C    0.146636
     7  N   -0.005465
     8  N   -0.555183
     9  O   -0.065433
    10  O   -0.065548
 Electronic spatial extent (au):  <R**2>=           1462.1332
 Charge=             -0.0000 electrons
 Dipole moment (field-independent basis, Debye):
    X=             10.3333    Y=             -0.0042    Z=              0.0002  Tot=             10.3333
 Quadrupole moment (field-independent basis, Debye-Ang):
   XX=            -58.9869   YY=            -53.6008   ZZ=            -59.6369
   XY=             -0.0038   XZ=             -0.0009   YZ=             -0.0002
 Traceless Quadrupole moment (field-independent basis, Debye-Ang):
   XX=             -1.5787   YY=              3.8074   ZZ=             -2.2287
   XY=             -0.0038   XZ=             -0.0009   YZ=             -0.0002
 Octapole moment (field-independent basis, Debye-Ang**2):
  XXX=            126.1955  YYY=              0.0153  ZZZ=             -0.0011  XYY=             20.3595
  XXY=             -0.0102  XXZ=              0.0016  XZZ=             -9.6778  YZZ=              0.0102
  YYZ=              0.0005  XYZ=             -0.0009
 Hexadecapole moment (field-independent basis, Debye-Ang**3):
 XXXX=          -1299.6466 YYYY=           -358.2054 ZZZZ=            -63.1882 XXXY=             -0.2747
 XXXZ=             -0.0238 YYYX=             -0.0729 YYYZ=              0.0033 ZZZX=             -0.0151
 ZZZY=              0.0054 XXYY=           -285.0510 XXZZ=           -259.7734 YYZZ=            -81.7519
 XXYZ=              0.0007 YYXZ=             -0.0056 ZZXY=             -0.0020
 N-N= 5.100998833032D+02 E-N=-2.168010091577D+03  KE= 4.887435620840D+02
 Calling FoFJK, ICntrl=      2127 FMM=F ISym2X=0 I1Cent= 0 IOpClX= 0 NMat=1 NMatS=1 NMatT=0.
 ***** Axes restored to original set *****
 -------------------------------------------------------------------
 Center     Atomic                   Forces (Hartrees/Bohr)
 Number     Number              X              Y              Z
 -------------------------------------------------------------------
      1        6          -0.047456947    0.068911886   -0.000002402
      2        6           0.081717314    0.046731651    0.000006656
      3        6           0.036039646   -0.075272421    0.000002358
      4        6           0.032854689   -0.066267060    0.000002904
      5        6          -0.016872859   -0.010641876    0.000001274
      6        6          -0.040551457    0.061508690   -0.000001476
      7        7           0.128174097    0.074545476   -0.000002804
      8        7          -0.227125565   -0.129990903   -0.000017047
      9        8           0.024232119    0.052439091    0.000003748
     10        8           0.056030488   -0.006262137    0.000005617
     11        1           0.007370573   -0.013200602    0.000000301
     12        1          -0.007578624    0.012898094   -0.000000522
     13        1          -0.008868574    0.005932528   -0.000000146
     14        1           0.000588867   -0.010631903    0.000000432
     15        1           0.006891571   -0.033195606    0.000001508
     16        1          -0.025445337    0.022495091   -0.000000401
 -------------------------------------------------------------------
 Cartesian Forces:  Max     0.227125565 RMS     0.052854225

 GradGradGradGradGradGradGradGradGradGradGradGradGradGradGradGradGradGrad
 Berny optimization.
 FormGI is forming the generalized inverse of G from B-inverse, IUseBI=4.
 Internal  Forces:  Max     0.169093651 RMS     0.034436241
 Search for a local minimum.
 Step number   1 out of a maximum of   82
 All quantities printed in internal units (Hartrees-Bohrs-Radians)
 Mixed Optimization -- RFO/linear search
 Second derivative matrix not updated -- first step.
 ITU=  0
     Eigenvalues ---    0.02782   0.02806   0.02813   0.02839   0.02859
     Eigenvalues ---    0.02862   0.02868   0.03023   0.03061   0.03449
     Eigenvalues ---    0.03449   0.03576   0.03576   0.16000   0.16000
     Eigenvalues ---    0.16000   0.16000   0.16000   0.16000   0.22000
     Eigenvalues ---    0.22970   0.24000   0.25000   0.25000   0.25000
     Eigenvalues ---    0.25000   0.33278   0.33284   0.33295   0.33296
     Eigenvalues ---    0.39957   0.39958   0.49778   0.50195   0.55635
     Eigenvalues ---    0.56268   0.56674   0.56949   0.63441   0.63640
     Eigenvalues ---    0.77208   0.80497
 RFO step:  Lambda=-1.13505707D-01 EMin= 2.78210263D-02
 Linear search not attempted -- first point.
 Maximum step size (   0.300) exceeded in Quadratic search.
    -- Step size scaled by   0.747
 Iteration  1 RMS(Cart)=  0.05714015 RMS(Int)=  0.00040737
 Iteration  2 RMS(Cart)=  0.00046486 RMS(Int)=  0.00004276
 Iteration  3 RMS(Cart)=  0.00000024 RMS(Int)=  0.00004276
 Variable       Old X    -DE/DX   Delta X   Delta X   Delta X     New X
                                 (Linear)    (Quad)   (Total)
    R1        2.54851   0.07228   0.00000   0.08016   0.08009   2.62860
    R2        2.53674   0.04420   0.00000   0.04854   0.04854   2.58527
    R3        2.08537  -0.01333   0.00000  -0.02231  -0.02231   2.06306
    R4        2.54785   0.07277   0.00000   0.08063   0.08056   2.62840
    R5        2.37649   0.16909   0.00000   0.13753   0.13753   2.51401
    R6        2.53673   0.04410   0.00000   0.04843   0.04843   2.58516
    R7        2.08535  -0.01324   0.00000  -0.02216  -0.02216   2.06319
    R8        2.53417   0.08758   0.00000   0.09656   0.09664   2.63081
    R9        2.08566  -0.01065   0.00000  -0.01783  -0.01783   2.06782
   R10        2.53357   0.08780   0.00000   0.09670   0.09677   2.63034
   R11        2.39457   0.12686   0.00000   0.10700   0.10700   2.50157
   R12        2.08556  -0.01064   0.00000  -0.01781  -0.01781   2.06776
   R13        1.98312  -0.03318   0.00000  -0.04830  -0.04830   1.93482
   R14        1.98311  -0.03328   0.00000  -0.04845  -0.04845   1.93466
   R15        2.48317  -0.05370   0.00000  -0.05363  -0.05363   2.42954
   R16        2.48171  -0.05267   0.00000  -0.05247  -0.05247   2.42924
    A1        2.12186  -0.00124   0.00000  -0.00466  -0.00474   2.11712
    A2        2.11926  -0.00681   0.00000  -0.01797  -0.01793   2.10133
    A3        2.04206   0.00805   0.00000   0.02263   0.02267   2.06473
    A4        2.04911   0.00425   0.00000   0.00545   0.00530   2.05440
    A5        2.11693  -0.00172   0.00000  -0.00191  -0.00183   2.11511
    A6        2.11714  -0.00252   0.00000  -0.00355  -0.00347   2.11367
    A7        2.12035  -0.00084   0.00000  -0.00374  -0.00382   2.11653
    A8        2.11846  -0.00684   0.00000  -0.01795  -0.01791   2.10055
    A9        2.04437   0.00768   0.00000   0.02170   0.02173   2.06611
   A10        2.09636   0.00496   0.00000   0.01248   0.01255   2.10891
   A11        2.08487  -0.00188   0.00000  -0.00461  -0.00465   2.08023
   A12        2.10196  -0.00308   0.00000  -0.00787  -0.00791   2.09405
   A13        2.08386  -0.01251   0.00000  -0.02295  -0.02279   2.06106
   A14        2.09725   0.00694   0.00000   0.01287   0.01279   2.11004
   A15        2.10208   0.00557   0.00000   0.01008   0.01000   2.11208
   A16        2.09483   0.00539   0.00000   0.01343   0.01350   2.10834
   A17        2.08641  -0.00223   0.00000  -0.00544  -0.00548   2.08093
   A18        2.10194  -0.00316   0.00000  -0.00799  -0.00802   2.09392
   A19        2.09539   0.00474   0.00000   0.01295   0.01295   2.10834
   A20        2.09758   0.00437   0.00000   0.01195   0.01195   2.10952
   A21        2.09022  -0.00912   0.00000  -0.02490  -0.02490   2.06532
   A22        2.15016  -0.01862   0.00000  -0.03826  -0.03826   2.11190
   A23        2.14161  -0.01564   0.00000  -0.03214  -0.03214   2.10947
   A24        1.99141   0.03426   0.00000   0.07040   0.07040   2.06181
    D1        0.00004  -0.00000   0.00000  -0.00000  -0.00000   0.00003
    D2       -3.14156  -0.00000   0.00000  -0.00000  -0.00000  -3.14156
    D3       -3.14157  -0.00000   0.00000  -0.00000  -0.00000  -3.14157
    D4        0.00002  -0.00000   0.00000  -0.00000  -0.00000   0.00002
    D5       -0.00000   0.00000   0.00000   0.00000   0.00000  -0.00000
    D6        3.14157   0.00000   0.00000   0.00000   0.00000   3.14158
    D7       -3.14158  -0.00000   0.00000  -0.00000  -0.00000  -3.14158
    D8       -0.00000   0.00000   0.00000   0.00000   0.00000  -0.00000
    D9       -0.00004   0.00000   0.00000   0.00000   0.00000  -0.00003
   D10        3.14157   0.00000   0.00000   0.00000   0.00000   3.14157
   D11        3.14156   0.00000   0.00000   0.00000   0.00000   3.14156
   D12       -0.00002   0.00000   0.00000   0.00000   0.00000  -0.00002
   D13        3.14157   0.00000   0.00000   0.00001   0.00001   3.14158
   D14        0.00002  -0.00000   0.00000  -0.00001  -0.00001   0.00001
   D15       -0.00002   0.00000   0.00000   0.00001   0.00001  -0.00001
   D16       -3.14157  -0.00000   0.00000  -0.00001  -0.00001  -3.14158
   D17        0.00000  -0.00000   0.00000  -0.00000  -0.00000   0.00000
   D18       -3.14157  -0.00000   0.00000  -0.00000  -0.00000  -3.14158
   D19        3.14158   0.00000   0.00000   0.00000   0.00000   3.14158
   D20        0.00000  -0.00000   0.00000  -0.00000  -0.00000   0.00000
   D21        0.00003  -0.00000   0.00000  -0.00000  -0.00000   0.00003
   D22       -3.14156  -0.00000   0.00000  -0.00000  -0.00000  -3.14156
   D23       -3.14157  -0.00000   0.00000  -0.00000  -0.00000  -3.14158
   D24        0.00001  -0.00000   0.00000  -0.00000  -0.00000   0.00001
   D25       -0.00003   0.00000   0.00000   0.00000   0.00000  -0.00003
   D26        3.14158   0.00000   0.00000   0.00000   0.00000   3.14158
   D27        3.14156   0.00000   0.00000   0.00000   0.00000   3.14156
   D28       -0.00001   0.00000   0.00000   0.00000   0.00000  -0.00001
   D29        3.14158   0.00000   0.00000   0.00000   0.00000   3.14158
   D30        0.00001  -0.00000   0.00000  -0.00000  -0.00000   0.00001
   D31       -0.00001   0.00000   0.00000   0.00000   0.00000  -0.00001
   D32       -3.14158  -0.00000   0.00000  -0.00000  -0.00000  -3.14158
         Item               Value     Threshold  Converged?
 Maximum Force            0.169094     0.000450     NO 
 RMS     Force            0.034436     0.000300     NO 
 Maximum Displacement     0.191753     0.001800     NO 
 RMS     Displacement     0.057161     0.001200     NO 
 Predicted change in Energy=-5.822720D-02
 GradGradGradGradGradGradGradGradGradGradGradGradGradGradGradGradGradGrad

                          Input orientation:                          
 ---------------------------------------------------------------------
 Center     Atomic      Atomic             Coordinates (Angstroms)
 Number     Number       Type             X           Y           Z
 ---------------------------------------------------------------------
      1          6           0       -1.172346    0.697944   -0.000015
      2          6           0       -1.200116   -0.692773   -0.000008
      3          6           0        0.018115   -1.363957    0.000056
      4          6           0        1.204285   -0.682455    0.000072
      5          6           0        1.227433    0.709518    0.000026
      6          6           0        0.010543    1.385246    0.000001
      7          7           0        2.374505    1.370281    0.000010
      8          7           0       -2.351743   -1.358812   -0.000059
      9          8           0       -2.373286   -2.644286   -0.000064
     10          8           0       -3.475050   -0.733761   -0.000129
     11          1           0       -2.102781    1.269040   -0.000045
     12          1           0        0.046691   -2.455378    0.000081
     13          1           0        2.142897   -1.244932    0.000108
     14          1           0       -0.007208    2.479312   -0.000019
     15          1           0        2.389784    2.394027   -0.000033
     16          1           0        3.268278    0.870986    0.000019
 ---------------------------------------------------------------------
                    Distance matrix (angstroms):
                    1          2          3          4          5
     1  C    0.000000
     2  C    1.390994   0.000000
     3  C    2.380889   1.390890   0.000000
     4  C    2.748432   2.404423   1.368008   0.000000
     5  C    2.399807   2.803464   2.400365   1.392166   0.000000
     6  C    1.368068   2.404965   2.749214   2.387553   1.391916
     7  N    3.610012   4.127239   3.609520   2.362867   1.323776
     8  N    2.370912   1.330359   2.369863   3.619779   4.133823
     9  O    3.551444   2.277001   2.712570   4.080171   4.920689
    10  O    2.711499   2.275304   3.549556   4.679617   4.918984
    11  H    1.091723   2.159517   3.380957   3.839925   3.376890
    12  H    3.380753   2.159005   1.091795   2.117376   3.377976
    13  H    3.842604   3.388306   2.128114   1.094245   2.158229
    14  H    2.128572   3.388975   3.843353   3.385925   2.157895
    15  H    3.945310   4.734524   4.443789   3.296991   2.046614
    16  H    4.443995   4.734119   3.944431   2.583263   2.047223
                    6          7          8          9         10
     6  C    0.000000
     7  N    2.364010   0.000000
     8  N    3.620808   5.457597   0.000000
     9  O    4.681855   6.217577   1.285655   0.000000
    10  O    4.079160   6.216453   1.285499   2.205446   0.000000
    11  H    2.116516   4.478431   2.639619   3.922664   2.427825
    12  H    3.840794   4.478212   2.637223   2.427339   3.920029
    13  H    3.385967   2.625449   4.496083   4.728012   5.641155
    14  H    1.094210   2.627263   4.497559   5.643543   4.727554
    15  H    2.584266   1.023860   6.046973   6.933356   6.646754
    16  H    3.298076   1.023780   6.046209   6.647133   6.931644
                   11         12         13         14         15
    11  H    0.000000
    12  H    4.300177   0.000000
    13  H    4.934151   2.420591   0.000000
    14  H    2.419955   4.934984   4.300343   0.000000
    15  H    4.631278   5.385798   3.647325   2.398509   0.000000
    16  H    5.385789   4.630693   2.396579   3.649045   1.758240
                   16
    16  H    0.000000
 Stoichiometry    C6H6N2O2
 Framework group  C1[X(C6H6N2O2)]
 Deg. of freedom    42
 Full point group                 C1      NOp   1
 Largest Abelian subgroup         C1      NOp   1
 Largest concise Abelian subgroup C1      NOp   1
                         Standard orientation:                         
 ---------------------------------------------------------------------
 Center     Atomic      Atomic             Coordinates (Angstroms)
 Number     Number       Type             X           Y           Z
 ---------------------------------------------------------------------
      1          6           0       -0.018684    1.190696   -0.000001
      2          6           0       -0.738361    0.000347    0.000006
      3          6           0       -0.019204   -1.190193    0.000069
      4          6           0        1.348801   -1.193390    0.000085
      5          6           0        2.065103    0.000359    0.000039
      6          6           0        1.349379    1.194163    0.000015
      7          7           0        3.388878   -0.001239    0.000023
      8          7           0       -2.068719   -0.000345   -0.000045
      9          8           0       -2.730362   -1.102678   -0.000050
     10          8           0       -2.728757    1.102768   -0.000116
     11          1           0       -0.538700    2.150615   -0.000032
     12          1           0       -0.540383   -2.149562    0.000094
     13          1           0        1.880208   -2.149935    0.000122
     14          1           0        1.881256    2.150408   -0.000005
     15          1           0        3.914182    0.877593   -0.000019
     16          1           0        3.913062   -0.880646    0.000033
 ---------------------------------------------------------------------
 Rotational constants (GHZ):      3.9697172      0.8446922      0.6964902
 Standard basis: 6-31+G(d,p) (6D, 7F)
 There are   220 symmetry adapted cartesian basis functions of A   symmetry.
 There are   220 symmetry adapted basis functions of A   symmetry.
   220 basis functions,   362 primitive gaussians,   220 cartesian basis functions
    36 alpha electrons       36 beta electrons
       nuclear repulsion energy       499.4577663941 Hartrees.
 NAtoms=   16 NActive=   16 NUniq=   16 SFac= 1.00D+00 NAtFMM=   60 NAOKFM=F Big=F
 Integral buffers will be    131072 words long.
 Raffenetti 2 integral format.
 Two-electron integral symmetry is turned on.
 Nuclear repulsion after empirical dispersion term =      499.4287234856 Hartrees.
 One-electron integrals computed using PRISM.
 NBasis=   220 RedAO= T EigKep=  2.90D-06  NBF=   220
 NBsUse=   220 1.00D-06 EigRej= -1.00D+00 NBFU=   220
 Initial guess from the checkpoint file:  "b3lypPNA.chk"
 B after Tr=    -0.000000   -0.000000    0.000000
         Rot=    1.000000    0.000000   -0.000001   -0.000136 Ang=   0.02 deg.
 ExpMin= 4.38D-02 ExpMax= 5.48D+03 ExpMxC= 8.25D+02 IAcc=2 IRadAn=         4 AccDes= 0.00D+00
 Harris functional with IExCor=  402 and IRadAn=       4 diagonalized for initial guess.
 HarFok:  IExCor=  402 AccDes= 0.00D+00 IRadAn=         4 IDoV= 1 UseB2=F ITyADJ=14
 ICtDFT=  3500011 ScaDFX=  1.000000  1.000000  1.000000  1.000000
 FoFCou: FMM=F IPFlag=           0 FMFlag=      100000 FMFlg1=           0
         NFxFlg=           0 DoJE=T BraDBF=F KetDBF=T FulRan=T
         wScrn=  0.000000 ICntrl=     500 IOpCl=  0 I1Cent=   200000004 NGrid=           0
         NMat0=    1 NMatS0=      1 NMatT0=    0 NMatD0=    1 NMtDS0=    0 NMtDT0=    0
 Petite list used in FoFCou.
 Keep R1 ints in memory in canonical form, NReq=301066375.
 Requested convergence on RMS density matrix=1.00D-08 within 128 cycles.
 Requested convergence on MAX density matrix=1.00D-06.
 Requested convergence on             energy=1.00D-06.
 No special actions if energy rises.
 SCF Done:  E(RB3LYP) =  -492.156532611     A.U. after   14 cycles
            NFock= 14  Conv=0.27D-08     -V/T= 2.0088
 Calling FoFJK, ICntrl=      2127 FMM=F ISym2X=0 I1Cent= 0 IOpClX= 0 NMat=1 NMatS=1 NMatT=0.
 ***** Axes restored to original set *****
 -------------------------------------------------------------------
 Center     Atomic                   Forces (Hartrees/Bohr)
 Number     Number              X              Y              Z
 -------------------------------------------------------------------
      1        6          -0.019249849    0.020368650   -0.000001574
      2        6           0.054892767    0.031477421    0.000004270
      3        6           0.008069049   -0.026696808   -0.000000093
      4        6           0.012466656   -0.017647268    0.000000487
      5        6          -0.013652111   -0.008366080    0.000000872
      6        6          -0.008925807    0.019586658   -0.000000805
      7        7           0.046347755    0.027097450   -0.000000592
      8        7          -0.119400745   -0.068627038   -0.000008253
      9        8           0.013460938    0.039175703    0.000001815
     10        8           0.040263394   -0.008082720    0.000003401
     11        1           0.002813472   -0.006731211    0.000000069
     12        1          -0.004299467    0.005851646   -0.000000305
     13        1          -0.004106597    0.003220657   -0.000000034
     14        1           0.000659169   -0.005153980    0.000000261
     15        1           0.002276272   -0.014706445    0.000000646
     16        1          -0.011614897    0.009233366   -0.000000165
 -------------------------------------------------------------------
 Cartesian Forces:  Max     0.119400745 RMS     0.026063481

 GradGradGradGradGradGradGradGradGradGradGradGradGradGradGradGradGradGrad
 Berny optimization.
 Using GEDIIS/GDIIS optimizer.
 FormGI is forming the generalized inverse of G from B-inverse, IUseBI=4.
 Internal  Forces:  Max     0.075644200 RMS     0.014006118
 Search for a local minimum.
 Step number   2 out of a maximum of   82
 All quantities printed in internal units (Hartrees-Bohrs-Radians)
 Mixed Optimization -- RFO/linear search
 Update second derivatives using D2CorX and points    1    2
 DE= -5.75D-02 DEPred=-5.82D-02 R= 9.88D-01
 TightC=F SS=  1.41D+00  RLast= 3.00D-01 DXNew= 5.0454D-01 9.0000D-01
 Trust test= 9.88D-01 RLast= 3.00D-01 DXMaxT set to 5.05D-01
 ITU=  1  0
 Use linear search instead of GDIIS.
     Eigenvalues ---    0.02782   0.02807   0.02814   0.02839   0.02859
     Eigenvalues ---    0.02862   0.02868   0.03023   0.03063   0.03449
     Eigenvalues ---    0.03449   0.03576   0.03576   0.15973   0.16000
     Eigenvalues ---    0.16000   0.16000   0.16000   0.16048   0.22000
     Eigenvalues ---    0.22939   0.23874   0.24745   0.25000   0.25000
     Eigenvalues ---    0.25005   0.33239   0.33281   0.33294   0.33295
     Eigenvalues ---    0.39712   0.39957   0.50088   0.50412   0.55332
     Eigenvalues ---    0.55636   0.56764   0.56946   0.63539   0.65071
     Eigenvalues ---    0.77049   0.80473
 RFO step:  Lambda=-9.42761962D-03 EMin= 2.78191855D-02
 Quartic linear search produced a step of  0.80541.
 Iteration  1 RMS(Cart)=  0.03806275 RMS(Int)=  0.00124191
 Iteration  2 RMS(Cart)=  0.00137330 RMS(Int)=  0.00002560
 Iteration  3 RMS(Cart)=  0.00000243 RMS(Int)=  0.00002552
 Iteration  4 RMS(Cart)=  0.00000000 RMS(Int)=  0.00002552
 Variable       Old X    -DE/DX   Delta X   Delta X   Delta X     New X
                                 (Linear)    (Quad)   (Total)
    R1        2.62860   0.01738   0.06450  -0.02557   0.03889   2.66749
    R2        2.58527   0.01347   0.03909  -0.00651   0.03258   2.61786
    R3        2.06306  -0.00592  -0.01797  -0.00863  -0.02660   2.03646
    R4        2.62840   0.01763   0.06488  -0.02529   0.03954   2.66794
    R5        2.51401   0.07564   0.11077   0.03017   0.14093   2.65494
    R6        2.58516   0.01346   0.03901  -0.00641   0.03259   2.61775
    R7        2.06319  -0.00596  -0.01784  -0.00901  -0.02685   2.03634
    R8        2.63081   0.02391   0.07783  -0.02143   0.05645   2.68726
    R9        2.06782  -0.00518  -0.01436  -0.00926  -0.02362   2.04420
   R10        2.63034   0.02407   0.07794  -0.02117   0.05682   2.68716
   R11        2.50157   0.04286   0.08618  -0.00799   0.07820   2.57977
   R12        2.06776  -0.00516  -0.01434  -0.00921  -0.02355   2.04420
   R13        1.93482  -0.01467  -0.03890  -0.01603  -0.05493   1.87988
   R14        1.93466  -0.01464  -0.03902  -0.01576  -0.05478   1.87988
   R15        2.42954  -0.03940  -0.04320  -0.05666  -0.09985   2.32968
   R16        2.42924  -0.03911  -0.04226  -0.05670  -0.09896   2.33029
    A1        2.11712  -0.00284  -0.00382  -0.01898  -0.02285   2.09428
    A2        2.10133  -0.00298  -0.01444  -0.01638  -0.03080   2.07053
    A3        2.06473   0.00582   0.01826   0.03536   0.05365   2.11838
    A4        2.05440   0.00599   0.00427   0.03288   0.03705   2.09146
    A5        2.11511  -0.00313  -0.00147  -0.01823  -0.01966   2.09545
    A6        2.11367  -0.00286  -0.00279  -0.01465  -0.01740   2.09628
    A7        2.11653  -0.00270  -0.00308  -0.01882  -0.02194   2.09459
    A8        2.10055  -0.00292  -0.01443  -0.01564  -0.03005   2.07050
    A9        2.06611   0.00563   0.01750   0.03446   0.05198   2.11809
   A10        2.10891   0.00037   0.01011  -0.00687   0.00329   2.11220
   A11        2.08023   0.00049  -0.00374   0.00892   0.00516   2.08538
   A12        2.09405  -0.00086  -0.00637  -0.00205  -0.00844   2.08560
   A13        2.06106  -0.00135  -0.01836   0.01845   0.00018   2.06125
   A14        2.11004   0.00091   0.01030  -0.00901   0.00124   2.11129
   A15        2.11208   0.00044   0.00805  -0.00944  -0.00143   2.11065
   A16        2.10834   0.00053   0.01088  -0.00666   0.00426   2.11260
   A17        2.08093   0.00033  -0.00441   0.00835   0.00391   2.08485
   A18        2.09392  -0.00086  -0.00646  -0.00169  -0.00817   2.08574
   A19        2.10834   0.00167   0.01043   0.00445   0.01488   2.12321
   A20        2.10952   0.00148   0.00962   0.00344   0.01306   2.12258
   A21        2.06532  -0.00315  -0.02005  -0.00788  -0.02794   2.03739
   A22        2.11190  -0.01060  -0.03082  -0.03477  -0.06559   2.04631
   A23        2.10947  -0.00990  -0.02588  -0.03611  -0.06199   2.04748
   A24        2.06181   0.02050   0.05670   0.07088   0.12758   2.18939
    D1        0.00003  -0.00000  -0.00000  -0.00003  -0.00003   0.00000
    D2       -3.14156  -0.00000  -0.00000  -0.00003  -0.00003  -3.14159
    D3       -3.14157  -0.00000  -0.00000  -0.00001  -0.00001  -3.14159
    D4        0.00002  -0.00000  -0.00000  -0.00001  -0.00001   0.00001
    D5       -0.00000   0.00000   0.00000   0.00000   0.00000   0.00000
    D6        3.14158   0.00000   0.00000   0.00002   0.00002  -3.14159
    D7       -3.14158  -0.00000  -0.00000  -0.00001  -0.00002   3.14159
    D8       -0.00000   0.00000   0.00000   0.00000   0.00000  -0.00000
    D9       -0.00003   0.00000   0.00000   0.00003   0.00003  -0.00000
   D10        3.14157   0.00000   0.00000   0.00001   0.00001   3.14158
   D11        3.14156   0.00000   0.00000   0.00003   0.00003   3.14159
   D12       -0.00002   0.00000   0.00000   0.00001   0.00001  -0.00001
   D13        3.14158   0.00000   0.00001   0.00003   0.00004  -3.14157
   D14        0.00001  -0.00000  -0.00001  -0.00003  -0.00004  -0.00003
   D15       -0.00001   0.00000   0.00001   0.00003   0.00004   0.00003
   D16       -3.14158  -0.00000  -0.00001  -0.00003  -0.00003   3.14157
   D17        0.00000  -0.00000  -0.00000  -0.00000  -0.00001  -0.00000
   D18       -3.14158  -0.00000  -0.00000  -0.00002  -0.00002   3.14159
   D19        3.14158   0.00000   0.00000   0.00001   0.00002  -3.14159
   D20        0.00000  -0.00000  -0.00000  -0.00000  -0.00000   0.00000
   D21        0.00003  -0.00000  -0.00000  -0.00002  -0.00002   0.00001
   D22       -3.14156  -0.00000  -0.00000  -0.00002  -0.00002  -3.14159
   D23       -3.14158  -0.00000  -0.00000  -0.00001  -0.00001  -3.14158
   D24        0.00001  -0.00000  -0.00000  -0.00000  -0.00000   0.00001
   D25       -0.00003   0.00000   0.00000   0.00002   0.00002  -0.00001
   D26        3.14158   0.00000   0.00000   0.00001   0.00001   3.14158
   D27        3.14156   0.00000   0.00000   0.00002   0.00002   3.14159
   D28       -0.00001   0.00000   0.00000   0.00000   0.00000  -0.00001
   D29        3.14158  -0.00000   0.00000   0.00000   0.00000   3.14158
   D30        0.00001  -0.00000  -0.00000  -0.00000  -0.00000   0.00001
   D31       -0.00001   0.00000   0.00000   0.00000   0.00000  -0.00001
   D32       -3.14158  -0.00000  -0.00000  -0.00000  -0.00000  -3.14158
         Item               Value     Threshold  Converged?
 Maximum Force            0.075644     0.000450     NO 
 RMS     Force            0.014006     0.000300     NO 
 Maximum Displacement     0.130452     0.001800     NO 
 RMS     Displacement     0.037805     0.001200     NO 
 Predicted change in Energy=-1.282851D-02
 GradGradGradGradGradGradGradGradGradGradGradGradGradGradGradGradGradGrad

                          Input orientation:                          
 ---------------------------------------------------------------------
 Center     Atomic      Atomic             Coordinates (Angstroms)
 Number     Number       Type             X           Y           Z
 ---------------------------------------------------------------------
      1          6           0       -1.201751    0.716474   -0.000048
      2          6           0       -1.203792   -0.695098   -0.000026
      3          6           0        0.019927   -1.399181    0.000024
      4          6           0        1.218697   -0.705002    0.000049
      5          6           0        1.242175    0.716841    0.000021
      6          6           0       -0.000954    1.407250   -0.000023
      7          7           0        2.424174    1.399868    0.000037
      8          7           0       -2.420776   -1.397092   -0.000054
      9          8           0       -2.361998   -2.628504   -0.000005
     10          8           0       -3.458351   -0.730717   -0.000070
     11          1           0       -2.146867    1.234242   -0.000078
     12          1           0       -0.004214   -2.476495    0.000047
     13          1           0        2.151312   -1.253089    0.000093
     14          1           0       -0.009589    2.488962   -0.000035
     15          1           0        2.452461    2.394257    0.000009
     16          1           0        3.299546    0.927284    0.000060
 ---------------------------------------------------------------------
                    Distance matrix (angstroms):
                    1          2          3          4          5
     1  C    0.000000
     2  C    1.411573   0.000000
     3  C    2.443049   1.411814   0.000000
     4  C    2.806985   2.422510   1.385256   0.000000
     5  C    2.443927   2.824240   2.443653   1.422037   0.000000
     6  C    1.385311   2.422124   2.806508   2.439089   1.421982
     7  N    3.689765   4.189394   3.689862   2.425625   1.365155
     8  N    2.439914   1.404936   2.440703   3.704693   4.229175
     9  O    3.540487   2.253775   2.680448   4.064633   4.917459
    10  O    2.680784   2.254840   3.541929   4.677119   4.918371
    11  H    1.077650   2.147498   3.410266   3.884288   3.428310
    12  H    3.410153   2.147641   1.077585   2.152603   3.427956
    13  H    3.888729   3.401188   2.136386   1.081744   2.169598
    14  H    2.136110   3.400641   3.888255   3.422001   2.169637
    15  H    4.020973   4.786680   4.506372   3.335803   2.068457
    16  H    4.506231   4.786666   4.020987   2.644672   2.068105
                    6          7          8          9         10
     6  C    0.000000
     7  N    2.425139   0.000000
     8  N    3.704034   5.594330   0.000000
     9  O    4.675665   6.255816   1.232814   0.000000
    10  O    4.065033   6.256477   1.233134   2.191709   0.000000
    11  H    2.152876   4.574041   2.645553   3.868733   2.362426
    12  H    3.883746   4.574195   2.646673   2.362679   3.870246
    13  H    3.421937   2.666952   4.574355   4.718235   5.633933
    14  H    1.081747   2.666332   4.573318   5.632254   4.718081
    15  H    2.644509   0.994791   6.174364   6.957525   6.686043
    16  H    3.335216   0.994792   6.174528   6.685560   6.958314
                   11         12         13         14         15
    11  H    0.000000
    12  H    4.284919   0.000000
    13  H    4.966001   2.478511   0.000000
    14  H    2.478362   4.965460   4.321161   0.000000
    15  H    4.743359   5.455225   3.659757   2.463871   0.000000
    16  H    5.455056   4.743473   2.464237   3.659126   1.693978
                   16
    16  H    0.000000
 Stoichiometry    C6H6N2O2
 Framework group  C1[X(C6H6N2O2)]
 Deg. of freedom    42
 Full point group                 C1      NOp   1
 Largest Abelian subgroup         C1      NOp   1
 Largest concise Abelian subgroup C1      NOp   1
                         Standard orientation:                         
 ---------------------------------------------------------------------
 Center     Atomic      Atomic             Coordinates (Angstroms)
 Number     Number       Type             X           Y           Z
 ---------------------------------------------------------------------
      1          6           0       -0.035616    1.221295   -0.000039
      2          6           0       -0.742976   -0.000254   -0.000017
      3          6           0       -0.035051   -1.221754    0.000032
      4          6           0        1.350203   -1.219743    0.000058
      5          6           0        2.081264   -0.000014    0.000029
      6          6           0        1.349693    1.219346   -0.000014
      7          7           0        3.446419    0.000722    0.000046
      8          7           0       -2.147911    0.000070   -0.000045
      9          8           0       -2.712541   -1.095842    0.000004
     10          8           0       -2.713464    1.095867   -0.000061
     11          1           0       -0.595372    2.142165   -0.000069
     12          1           0       -0.594469   -2.142754    0.000056
     13          1           0        1.883978   -2.160623    0.000101
     14          1           0        1.882922    2.160538   -0.000026
     15          1           0        3.967976    0.847827    0.000018
     16          1           0        3.968355   -0.846151    0.000069
 ---------------------------------------------------------------------
 Rotational constants (GHZ):      3.8866410      0.8317947      0.6851608
 Standard basis: 6-31+G(d,p) (6D, 7F)
 There are   220 symmetry adapted cartesian basis functions of A   symmetry.
 There are   220 symmetry adapted basis functions of A   symmetry.
   220 basis functions,   362 primitive gaussians,   220 cartesian basis functions
    36 alpha electrons       36 beta electrons
       nuclear repulsion energy       496.2537955688 Hartrees.
 NAtoms=   16 NActive=   16 NUniq=   16 SFac= 1.00D+00 NAtFMM=   60 NAOKFM=F Big=F
 Integral buffers will be    131072 words long.
 Raffenetti 2 integral format.
 Two-electron integral symmetry is turned on.
 Nuclear repulsion after empirical dispersion term =      496.2249720778 Hartrees.
 One-electron integrals computed using PRISM.
 NBasis=   220 RedAO= T EigKep=  3.37D-06  NBF=   220
 NBsUse=   220 1.00D-06 EigRej= -1.00D+00 NBFU=   220
 Initial guess from the checkpoint file:  "b3lypPNA.chk"
 B after Tr=    -0.000000    0.000000    0.000000
         Rot=    1.000000   -0.000000   -0.000003   -0.000125 Ang=  -0.01 deg.
 ExpMin= 4.38D-02 ExpMax= 5.48D+03 ExpMxC= 8.25D+02 IAcc=2 IRadAn=         4 AccDes= 0.00D+00
 Harris functional with IExCor=  402 and IRadAn=       4 diagonalized for initial guess.
 HarFok:  IExCor=  402 AccDes= 0.00D+00 IRadAn=         4 IDoV= 1 UseB2=F ITyADJ=14
 ICtDFT=  3500011 ScaDFX=  1.000000  1.000000  1.000000  1.000000
 FoFCou: FMM=F IPFlag=           0 FMFlag=      100000 FMFlg1=           0
         NFxFlg=           0 DoJE=T BraDBF=F KetDBF=T FulRan=T
         wScrn=  0.000000 ICntrl=     500 IOpCl=  0 I1Cent=   200000004 NGrid=           0
         NMat0=    1 NMatS0=      1 NMatT0=    0 NMatD0=    1 NMtDS0=    0 NMtDT0=    0
 Petite list used in FoFCou.
 Keep R1 ints in memory in canonical form, NReq=301066375.
 Requested convergence on RMS density matrix=1.00D-08 within 128 cycles.
 Requested convergence on MAX density matrix=1.00D-06.
 Requested convergence on             energy=1.00D-06.
 No special actions if energy rises.
 SCF Done:  E(RB3LYP) =  -492.171843516     A.U. after   14 cycles
            NFock= 14  Conv=0.39D-08     -V/T= 2.0092
 Calling FoFJK, ICntrl=      2127 FMM=F ISym2X=0 I1Cent= 0 IOpClX= 0 NMat=1 NMatS=1 NMatT=0.
 ***** Axes restored to original set *****
 -------------------------------------------------------------------
 Center     Atomic                   Forces (Hartrees/Bohr)
 Number     Number              X              Y              Z
 -------------------------------------------------------------------
      1        6           0.005100927   -0.010010727    0.000000490
      2        6           0.034168098    0.019820779   -0.000001667
      3        6          -0.006299358    0.009369152   -0.000000156
      4        6          -0.002248981    0.006330680   -0.000000196
      5        6          -0.010155994   -0.005746133   -0.000000264
      6        6           0.004215811   -0.005032626    0.000000201
      7        7          -0.006846096   -0.004083359    0.000000314
      8        7          -0.005639144   -0.003123545    0.000007717
      9        8          -0.008555613   -0.010460343   -0.000002689
     10        8          -0.012850861   -0.002282486   -0.000002978
     11        1          -0.002371488    0.002575131   -0.000000326
     12        1           0.001026383   -0.003389511   -0.000000136
     13        1           0.002782993   -0.001220831   -0.000000068
     14        1           0.000383124    0.003025933   -0.000000203
     15        1          -0.001576785    0.011107420   -0.000000336
     16        1           0.008866981   -0.006879535    0.000000297
 -------------------------------------------------------------------
 Cartesian Forces:  Max     0.034168098 RMS     0.007626211

 GradGradGradGradGradGradGradGradGradGradGradGradGradGradGradGradGradGrad
 Berny optimization.
 Using GEDIIS/GDIIS optimizer.
 FormGI is forming the generalized inverse of G from B-inverse, IUseBI=4.
 Internal  Forces:  Max     0.031355291 RMS     0.005301736
 Search for a local minimum.
 Step number   3 out of a maximum of   82
 All quantities printed in internal units (Hartrees-Bohrs-Radians)
 Mixed Optimization -- RFO/linear search
 Update second derivatives using D2CorX and points    2    3
 DE= -1.53D-02 DEPred=-1.28D-02 R= 1.19D+00
 TightC=F SS=  1.41D+00  RLast= 3.20D-01 DXNew= 8.4853D-01 9.5915D-01
 Trust test= 1.19D+00 RLast= 3.20D-01 DXMaxT set to 8.49D-01
 ITU=  1  1  0
 Use linear search instead of GDIIS.
     Eigenvalues ---    0.02781   0.02809   0.02816   0.02839   0.02859
     Eigenvalues ---    0.02862   0.02868   0.03017   0.03060   0.03449
     Eigenvalues ---    0.03449   0.03576   0.03576   0.15837   0.16000
     Eigenvalues ---    0.16000   0.16000   0.16001   0.16047   0.22000
     Eigenvalues ---    0.22909   0.23920   0.25000   0.25000   0.25003
     Eigenvalues ---    0.26255   0.33280   0.33289   0.33295   0.33413
     Eigenvalues ---    0.39957   0.41210   0.45544   0.50392   0.50731
     Eigenvalues ---    0.55625   0.56743   0.56946   0.63538   0.65895
     Eigenvalues ---    0.73226   0.81356
 RFO step:  Lambda=-3.05885414D-03 EMin= 2.78111396D-02
 Quartic linear search produced a step of -0.09581.
 Iteration  1 RMS(Cart)=  0.01439438 RMS(Int)=  0.00009732
 Iteration  2 RMS(Cart)=  0.00010012 RMS(Int)=  0.00000208
 Iteration  3 RMS(Cart)=  0.00000001 RMS(Int)=  0.00000208
 Variable       Old X    -DE/DX   Delta X   Delta X   Delta X     New X
                                 (Linear)    (Quad)   (Total)
    R1        2.66749  -0.00731  -0.00373  -0.00522  -0.00895   2.65854
    R2        2.61786  -0.00262  -0.00312   0.00112  -0.00200   2.61586
    R3        2.03646   0.00332   0.00255   0.00495   0.00750   2.04396
    R4        2.66794  -0.00753  -0.00379  -0.00547  -0.00926   2.65868
    R5        2.65494   0.03136  -0.01350   0.05676   0.04325   2.69820
    R6        2.61775  -0.00260  -0.00312   0.00115  -0.00198   2.61578
    R7        2.03634   0.00337   0.00257   0.00505   0.00762   2.04396
    R8        2.68726  -0.00777  -0.00541  -0.00290  -0.00830   2.67896
    R9        2.04420   0.00302   0.00226   0.00463   0.00689   2.05109
   R10        2.68716  -0.00776  -0.00544  -0.00282  -0.00826   2.67890
   R11        2.57977   0.00046  -0.00749   0.01310   0.00560   2.58537
   R12        2.04420   0.00302   0.00226   0.00465   0.00690   2.05111
   R13        1.87988   0.01106   0.00526   0.01656   0.02182   1.90170
   R14        1.87988   0.01107   0.00525   0.01661   0.02185   1.90174
   R15        2.32968   0.01004   0.00957  -0.00031   0.00926   2.33894
   R16        2.33029   0.00958   0.00948  -0.00086   0.00862   2.33890
    A1        2.09428   0.00031   0.00219  -0.00172   0.00046   2.09474
    A2        2.07053   0.00098   0.00295   0.00118   0.00414   2.07467
    A3        2.11838  -0.00130  -0.00514   0.00054  -0.00460   2.11378
    A4        2.09146   0.00025  -0.00355   0.00616   0.00260   2.09406
    A5        2.09545  -0.00003   0.00188  -0.00287  -0.00098   2.09447
    A6        2.09628  -0.00023   0.00167  -0.00329  -0.00162   2.09466
    A7        2.09459   0.00025   0.00210  -0.00190   0.00020   2.09479
    A8        2.07050   0.00100   0.00288   0.00135   0.00423   2.07472
    A9        2.11809  -0.00125  -0.00498   0.00055  -0.00442   2.11367
   A10        2.11220  -0.00143  -0.00031  -0.00496  -0.00527   2.10693
   A11        2.08538   0.00108  -0.00049   0.00545   0.00496   2.09034
   A12        2.08560   0.00035   0.00081  -0.00050   0.00031   2.08591
   A13        2.06125   0.00215  -0.00002   0.00762   0.00761   2.06886
   A14        2.11129  -0.00115  -0.00012  -0.00389  -0.00401   2.10728
   A15        2.11065  -0.00100   0.00014  -0.00374  -0.00360   2.10705
   A16        2.11260  -0.00153  -0.00041  -0.00520  -0.00560   2.10699
   A17        2.08485   0.00118  -0.00038   0.00575   0.00537   2.09022
   A18        2.08574   0.00035   0.00078  -0.00055   0.00023   2.08597
   A19        2.12321  -0.00122  -0.00143  -0.00457  -0.00600   2.11722
   A20        2.12258  -0.00112  -0.00125  -0.00430  -0.00556   2.11703
   A21        2.03739   0.00234   0.00268   0.00888   0.01155   2.04894
   A22        2.04631   0.00716   0.00628   0.01609   0.02238   2.06869
   A23        2.04748   0.00675   0.00594   0.01519   0.02113   2.06861
   A24        2.18939  -0.01391  -0.01222  -0.03129  -0.04351   2.14589
    D1        0.00000  -0.00000   0.00000  -0.00001  -0.00000  -0.00000
    D2       -3.14159  -0.00000   0.00000  -0.00000  -0.00000  -3.14159
    D3       -3.14159  -0.00000   0.00000  -0.00001  -0.00001  -3.14159
    D4        0.00001  -0.00000   0.00000  -0.00000  -0.00000   0.00001
    D5        0.00000  -0.00000  -0.00000   0.00000  -0.00000   0.00000
    D6       -3.14159  -0.00000  -0.00000   0.00000  -0.00000  -3.14159
    D7        3.14159   0.00000   0.00000   0.00000   0.00000   3.14159
    D8       -0.00000   0.00000  -0.00000   0.00000   0.00000   0.00000
    D9       -0.00000   0.00000  -0.00000   0.00001   0.00000   0.00000
   D10        3.14158   0.00000  -0.00000   0.00001   0.00001   3.14159
   D11        3.14159   0.00000  -0.00000   0.00000   0.00000   3.14159
   D12       -0.00001   0.00000  -0.00000   0.00000   0.00000  -0.00001
   D13       -3.14157  -0.00000  -0.00000  -0.00007  -0.00007   3.14154
   D14       -0.00003   0.00000   0.00000   0.00007   0.00007   0.00005
   D15        0.00003  -0.00000  -0.00000  -0.00007  -0.00007  -0.00004
   D16        3.14157   0.00000   0.00000   0.00007   0.00007  -3.14154
   D17       -0.00000   0.00000   0.00000  -0.00000   0.00000  -0.00000
   D18        3.14159   0.00000   0.00000  -0.00000   0.00000   3.14159
   D19       -3.14159  -0.00000  -0.00000  -0.00000  -0.00000  -3.14159
   D20        0.00000  -0.00000   0.00000  -0.00000  -0.00000  -0.00000
   D21        0.00001  -0.00000   0.00000  -0.00001  -0.00000   0.00000
   D22       -3.14159  -0.00000   0.00000  -0.00001  -0.00000  -3.14159
   D23       -3.14158  -0.00000   0.00000  -0.00001  -0.00000  -3.14159
   D24        0.00001  -0.00000   0.00000  -0.00001  -0.00000   0.00000
   D25       -0.00001   0.00000  -0.00000   0.00001   0.00000  -0.00000
   D26        3.14158   0.00000  -0.00000   0.00001   0.00000   3.14159
   D27        3.14159   0.00000  -0.00000   0.00001   0.00000   3.14159
   D28       -0.00001   0.00000  -0.00000   0.00001   0.00000  -0.00000
   D29        3.14158   0.00000  -0.00000   0.00000   0.00000   3.14158
   D30        0.00001  -0.00000   0.00000  -0.00000  -0.00000   0.00001
   D31       -0.00001   0.00000  -0.00000   0.00000   0.00000  -0.00001
   D32       -3.14158  -0.00000   0.00000  -0.00000  -0.00000  -3.14158
         Item               Value     Threshold  Converged?
 Maximum Force            0.031355     0.000450     NO 
 RMS     Force            0.005302     0.000300     NO 
 Maximum Displacement     0.069676     0.001800     NO 
 RMS     Displacement     0.014404     0.001200     NO 
 Predicted change in Energy=-1.711749D-03
 GradGradGradGradGradGradGradGradGradGradGradGradGradGradGradGradGradGrad

                          Input orientation:                          
 ---------------------------------------------------------------------
 Center     Atomic      Atomic             Coordinates (Angstroms)
 Number     Number       Type             X           Y           Z
 ---------------------------------------------------------------------
      1          6           0       -1.193729    0.717473   -0.000035
      2          6           0       -1.193968   -0.689366   -0.000005
      3          6           0        0.024573   -1.392621    0.000036
      4          6           0        1.223493   -0.700792    0.000051
      5          6           0        1.241588    0.716735    0.000020
      6          6           0        0.004949    1.409806   -0.000021
      7          7           0        2.426334    1.400936    0.000030
      8          7           0       -2.430568   -1.403160   -0.000020
      9          8           0       -2.398869   -2.640467   -0.000044
     10          8           0       -3.486072   -0.756786   -0.000109
     11          1           0       -2.140836    1.239858   -0.000065
     12          1           0        0.003479   -2.474033    0.000061
     13          1           0        2.161134   -1.247508    0.000088
     14          1           0        0.000228    2.495196   -0.000039
     15          1           0        2.449179    2.407015    0.000000
     16          1           0        3.309085    0.917714    0.000052
 ---------------------------------------------------------------------
                    Distance matrix (angstroms):
                    1          2          3          4          5
     1  C    0.000000
     2  C    1.406838   0.000000
     3  C    2.436546   1.406915   0.000000
     4  C    2.802577   2.417488   1.384210   0.000000
     5  C    2.435317   2.812304   2.435263   1.417642   0.000000
     6  C    1.384253   2.417421   2.802495   2.437103   1.417611
     7  N    3.684017   4.180424   3.684075   2.421587   1.368120
     8  N    2.454965   1.427824   2.455164   3.720952   4.240128
     9  O    3.567650   2.293160   2.725838   4.108997   4.952145
    10  O    2.725487   2.293096   3.567761   4.709898   4.951973
    11  H    1.081618   2.149061   3.408657   3.883920   3.422638
    12  H    3.408668   2.149166   1.081618   2.152399   3.422560
    13  H    3.887963   3.401211   2.141483   1.085389   2.168829
    14  H    2.141456   3.401108   3.887893   3.422092   2.168847
    15  H    4.015636   4.781223   4.507321   3.340774   2.077335
    16  H    4.507265   4.781233   4.015677   2.639934   2.077243
                    6          7          8          9         10
     6  C    0.000000
     7  N    2.421401   0.000000
     8  N    3.720823   5.608249   0.000000
     9  O    4.709889   6.294086   1.237713   0.000000
    10  O    4.108692   6.293831   1.237694   2.174917   0.000000
    11  H    2.152505   4.570010   2.658852   3.888896   2.407540
    12  H    3.883840   4.570078   2.659202   2.408106   3.889203
    13  H    3.422054   2.661688   4.594340   4.768015   5.668487
    14  H    1.085400   2.661465   4.594121   5.668395   4.767565
    15  H    2.639827   1.006339   6.191072   6.998618   6.725834
    16  H    3.340579   1.006356   6.191129   6.726173   6.998437
                   11         12         13         14         15
    11  H    0.000000
    12  H    4.288482   0.000000
    13  H    4.969300   2.481903   0.000000
    14  H    2.481940   4.969230   4.321730   0.000000
    15  H    4.736084   5.459495   3.665857   2.450538   0.000000
    16  H    5.459434   4.736136   2.450709   3.665649   1.719726
                   16
    16  H    0.000000
 Stoichiometry    C6H6N2O2
 Framework group  C1[X(C6H6N2O2)]
 Deg. of freedom    42
 Full point group                 C1      NOp   1
 Largest Abelian subgroup         C1      NOp   1
 Largest concise Abelian subgroup C1      NOp   1
                         Standard orientation:                         
 ---------------------------------------------------------------------
 Center     Atomic      Atomic             Coordinates (Angstroms)
 Number     Number       Type             X           Y           Z
 ---------------------------------------------------------------------
      1          6           0       -0.022620    1.218192   -0.000024
      2          6           0       -0.726209   -0.000068    0.000006
      3          6           0       -0.022511   -1.218354    0.000047
      4          6           0        1.361699   -1.218630    0.000061
      5          6           0        2.086095   -0.000041    0.000030
      6          6           0        1.361633    1.218473   -0.000010
      7          7           0        3.454215    0.000163    0.000041
      8          7           0       -2.154033    0.000024   -0.000009
      9          8           0       -2.745201   -1.087383   -0.000033
     10          8           0       -2.744973    1.087534   -0.000098
     11          1           0       -0.581674    2.144127   -0.000054
     12          1           0       -0.581458   -2.144355    0.000072
     13          1           0        1.900390   -2.160905    0.000099
     14          1           0        1.900210    2.160825   -0.000028
     15          1           0        3.977013    0.860047    0.000011
     16          1           0        3.977116   -0.859679    0.000063
 ---------------------------------------------------------------------
 Rotational constants (GHZ):      3.9098777      0.8214615      0.6788382
 Standard basis: 6-31+G(d,p) (6D, 7F)
 There are   220 symmetry adapted cartesian basis functions of A   symmetry.
 There are   220 symmetry adapted basis functions of A   symmetry.
   220 basis functions,   362 primitive gaussians,   220 cartesian basis functions
    36 alpha electrons       36 beta electrons
       nuclear repulsion energy       494.7086576105 Hartrees.
 NAtoms=   16 NActive=   16 NUniq=   16 SFac= 1.00D+00 NAtFMM=   60 NAOKFM=F Big=F
 Integral buffers will be    131072 words long.
 Raffenetti 2 integral format.
 Two-electron integral symmetry is turned on.
 Nuclear repulsion after empirical dispersion term =      494.6798971476 Hartrees.
 One-electron integrals computed using PRISM.
 NBasis=   220 RedAO= T EigKep=  3.32D-06  NBF=   220
 NBsUse=   220 1.00D-06 EigRej= -1.00D+00 NBFU=   220
 Initial guess from the checkpoint file:  "b3lypPNA.chk"
 B after Tr=    -0.000000    0.000000   -0.000000
         Rot=    1.000000    0.000000    0.000001    0.000050 Ang=   0.01 deg.
 ExpMin= 4.38D-02 ExpMax= 5.48D+03 ExpMxC= 8.25D+02 IAcc=2 IRadAn=         4 AccDes= 0.00D+00
 Harris functional with IExCor=  402 and IRadAn=       4 diagonalized for initial guess.
 HarFok:  IExCor=  402 AccDes= 0.00D+00 IRadAn=         4 IDoV= 1 UseB2=F ITyADJ=14
 ICtDFT=  3500011 ScaDFX=  1.000000  1.000000  1.000000  1.000000
 FoFCou: FMM=F IPFlag=           0 FMFlag=      100000 FMFlg1=           0
         NFxFlg=           0 DoJE=T BraDBF=F KetDBF=T FulRan=T
         wScrn=  0.000000 ICntrl=     500 IOpCl=  0 I1Cent=   200000004 NGrid=           0
         NMat0=    1 NMatS0=      1 NMatT0=    0 NMatD0=    1 NMtDS0=    0 NMtDT0=    0
 Petite list used in FoFCou.
 Keep R1 ints in memory in canonical form, NReq=301066375.
 Requested convergence on RMS density matrix=1.00D-08 within 128 cycles.
 Requested convergence on MAX density matrix=1.00D-06.
 Requested convergence on             energy=1.00D-06.
[...]
 ! D5    D(2,1,6,5)              0.0028         -DE/DX =    0.0                 !
 ! D6    D(2,1,6,14)          -179.9966         -DE/DX =    0.0                 !
 ! D7    D(11,1,6,5)          -180.001          -DE/DX =    0.0                 !
 ! D8    D(11,1,6,14)           -0.0004         -DE/DX =    0.0                 !
 ! D9    D(1,2,3,4)              0.0059         -DE/DX =    0.0                 !
 ! D10   D(1,2,3,12)          -179.9978         -DE/DX =    0.0                 !
 ! D11   D(8,2,3,4)            180.0034         -DE/DX =    0.0                 !
 ! D12   D(8,2,3,12)            -0.0003         -DE/DX =    0.0                 !
 ! D13   D(1,2,8,9)           -180.0765         -DE/DX =    0.0002              !
 ! D14   D(1,2,8,10)             0.0742         -DE/DX =   -0.0001              !
 ! D15   D(3,2,8,9)             -0.0741         -DE/DX =    0.0001              !
 ! D16   D(3,2,8,10)          -179.9234         -DE/DX =   -0.0002              !
 ! D17   D(2,3,4,5)             -0.0028         -DE/DX =    0.0                 !
 ! D18   D(2,3,4,13)           179.9966         -DE/DX =    0.0                 !
 ! D19   D(12,3,4,5)           180.001          -DE/DX =    0.0                 !
 ! D20   D(12,3,4,13)            0.0004         -DE/DX =    0.0                 !
 ! D21   D(3,4,5,6)             -0.0001         -DE/DX =    0.0                 !
 ! D22   D(3,4,5,7)            179.9996         -DE/DX =    0.0                 !
 ! D23   D(13,4,5,6)          -179.9996         -DE/DX =    0.0                 !
 ! D24   D(13,4,5,7)             0.0002         -DE/DX =    0.0                 !
 ! D25   D(4,5,6,1)              0.0001         -DE/DX =    0.0                 !
 ! D26   D(4,5,6,14)           179.9996         -DE/DX =    0.0                 !
 ! D27   D(7,5,6,1)           -179.9996         -DE/DX =    0.0                 !
 ! D28   D(7,5,6,14)            -0.0002         -DE/DX =    0.0                 !
 ! D29   D(4,5,7,15)           179.9994         -DE/DX =    0.0                 !
 ! D30   D(4,5,7,16)             0.0007         -DE/DX =    0.0                 !
 ! D31   D(6,5,7,15)            -0.0008         -DE/DX =    0.0                 !
 ! D32   D(6,5,7,16)          -179.9995         -DE/DX =    0.0                 !
 --------------------------------------------------------------------------------
 GradGradGradGradGradGradGradGradGradGradGradGradGradGradGradGradGradGrad

 1\1\ WCSS.PL-BEM-QINLAB\Freq\RB3LYP\6-31+G(d,p)\C6H6N2O2\PHZD\13-Jun-2
 024\0\\#N Geom=AllCheck Guess=TCheck SCRF=Check GenChk RB3LYP/6-31+G(d
 ,p) Freq\\[No Title]\\0,1\C,-1.1920754466,0.7163452847,0.000173343\C,-
 1.1810476253,-0.681863521,0.000339197\C,0.0243085524,-1.3905395051,0.0
 00244562\C,1.223654342,-0.6977662738,0.0001073339\C,1.2382137412,0.714
 8673174,0.0000021432\C,0.0075693217,1.4085985658,0.0000362138\N,2.4240
 932414,1.3995236713,-0.0001257567\N,-2.4390129777,-1.4081365924,0.0005
 584757\O,-2.3966357408,-2.6441353629,-0.0007561208\O,-3.4882287364,-0.
 7534285515,-0.0008222801\H,-2.1398859705,1.2397102223,0.0002162467\H,0
 .0036294603,-2.4730508999,0.0003418845\H,2.1623938441,-1.2437116004,0.
 0000896103\H,0.0041581878,2.4945439206,-0.0000368274\H,2.4438272562,2.
 4053695207,-0.0002101347\H,3.3050395504,0.9136738042,-0.0001578903\\Ve
 rsion=ES64L-G09RevE.01\State=1-A\HF=-492.1742375\RMSD=4.497e-09\RMSF=7
 .588e-05\ZeroPoint=0.1189162\Thermal=0.1268991\Dipole=2.7023041,1.5601
 415,0.0010028\DipoleDeriv=0.2752131,0.2158792,-0.0000297,0.4315561,0.3
 806738,-0.0000096,0.0001702,0.0000247,-0.0436463,-0.9543294,-0.4485887
 ,-0.0001035,-0.4485828,-0.4363206,-0.0000536,0.0003824,0.0002271,0.002
 0742,0.6346646,0.2240237,-0.0000149,0.0083432,0.0212263,-0.000024,0.00
 01263,0.0001382,-0.0436464,-0.2244087,-0.1733841,-0.0000208,-0.7299076
 ,-0.4114439,0.0000215,0.0001073,0.0000657,-0.2003569,1.6071612,0.85570
 43,-0.0000814,0.8557085,0.6190452,-0.000046,-0.0001734,-0.0000993,0.14
 47038,-0.7558217,-0.4230776,0.0000134,0.1334429,0.1199754,-0.0000412,0
 .000087,0.0000308,-0.2003564,-1.4615313,-0.7613207,0.0000408,-0.761323
 1,-0.582404,0.0000079,0.0001132,0.0000496,-0.5930048,2.3442625,0.46887
 28,0.000084,0.4688779,1.8028264,0.0000026,0.0006544,0.0003321,0.229526
 8,-0.5972551,-0.1788576,-0.0000857,-0.3649605,-1.3494363,0.0002795,-0.
 0002495,-0.0010885,-0.260181,-1.3968654,0.0967118,0.0001596,0.2828069,
 -0.5498211,-0.0001901,-0.001117,0.0003462,-0.260183,0.0640281,0.046384
 9,0.0000133,0.0277003,0.0908297,-0.0000002,0.0000054,-0.0000017,0.1378
 949,0.1162106,-0.0024276,0.000006,0.0162572,0.038649,0.0000171,-0.0000
 004,0.0000106,0.1378948,-0.0876006,0.0526038,0.0000027,0.0490715,0.035
 3828,-0.0000032,-0.0000479,-0.0000575,0.1448278,0.0486626,-0.0296038,-
 0.0000027,-0.0260713,-0.1008811,0.0000156,-0.0000751,-0.0000009,0.1448
 275,0.1358972,0.039689,0.0000078,0.0842605,0.2187579,0.0000118,0.00000
 95,0.0000055,0.3298128,0.2517122,0.0173906,0.000011,-0.0271797,0.10294
 05,0.0000118,0.0000077,0.0000173,0.3298122\Polar=143.277007,25.2445425
 ,114.1257578,0.0057087,0.0016274,50.6691\PG=C01 [X(C6H6N2O2)]\NImag=1\
 \0.75961639,-0.02179549,0.68687630,-0.00005771,-0.00005438,0.13526435,
 -0.11222987,-0.00187787,0.00001217,0.61119156,0.04873073,-0.31842821,0
 .00003158,-0.07833446,0.70164704,0.00001712,0.00004015,-0.05637384,0.0
 0001164,-0.00001459,0.11909682,0.02309423,0.06494036,-0.00001218,-0.24
 658923,0.07569824,0.00003391,0.68618830,0.02640538,-0.02964660,0.00000
 253,0.12630686,-0.18407158,0.00000491,0.02059850,0.76030292,-0.0000046
 9,-0.00000820,0.00475145,0.00002142,0.00000344,-0.05637360,-0.00006091
 ,-0.00005385,0.13526463,-0.01351908,-0.02610207,0.00000472,-0.06089992
 ,0.01639572,0.00000484,-0.31203637,-0.13559365,0.00003450,0.75699190,-
 0.01606926,-0.03991612,0.00000679,-0.03032163,0.04757642,-0.00000874,-
 0.07678244,-0.18726468,0.00002043,-0.00415529,0.66396193,0.00000226,0.
 00000873,-0.00129827,0.00001447,-0.00000486,0.00501992,0.00002183,0.00
 002291,-0.05407167,-0.00004797,-0.00003633,0.11832929,-0.06053684,-0.0
 2642711,0.00000416,-0.00373661,0.03519956,-0.00000178,0.02847638,-0.03
 575969,-0.00000345,-0.12584366,-0.01255207,0.00000753,0.72163916,0.015
 63439,0.06438147,-0.00000946,0.03519974,-0.04438326,0.00000103,-0.0778
 2128,-0.02463181,0.00000728,0.04641379,-0.29315055,0.00000905,0.023235
 88,0.69481053,0.00000169,-0.00000848,-0.00022909,-0.00000250,0.0000006
 0,-0.00417279,-0.00000173,0.00000589,-0.00022910,0.00000463,0.00001976
 ,-0.06702631,-0.00004243,-0.00004214,0.16169491,-0.31042544,-0.0777149
 2,0.00003136,0.01442548,-0.07381247,-0.00000114,-0.05157754,0.00590482
 ,0.00000646,0.02799247,0.05362433,-0.00000783,-0.23665667,0.05142846,0
 .00001184,0.68362330,-0.13652608,-0.18887824,0.00002245,-0.02709529,-0
 .02774888,0.00000941,-0.00412804,-0.00185770,0.00000059,0.02818513,-0.
 01924231,-0.00000174,0.11039438,-0.18233525,0.00000321,0.03820904,0.73
 733062,0.00003020,0.00001198,-0.05407158,0.00000471,0.00001447,0.00501
 998,0.00000740,-0.00000221,-0.00129829,-0.00000620,-0.00000311,0.00600
 543,0.00000104,0.00000935,-0.06702656,-0.00004088,-0.00005360,0.118329
 48,0.00783883,0.01220197,0.00000171,-0.01212835,-0.01104385,-0.0000005
 8,0.00403230,0.00652678,0.00000294,-0.00426200,-0.02190065,0.00000253,
 -0.29789206,-0.09658096,0.00002546,-0.06295561,-0.01876740,0.00000714,
 0.80375031,0.00432900,-0.00678117,0.00000278,-0.01104390,0.00062449,-0
 .00000061,0.01439979,-0.00297464,0.00000088,-0.05265541,-0.03947476,0.
 00000815,-0.09658092,-0.18636615,0.00001798,0.01198735,0.01921860,-0.0
 0000202,-0.04187972,0.85211439,0.00000011,0.00000162,0.00400986,0.0000
 0099,0.00000032,-0.00091288,0.00000076,-0.00000017,0.00400987,0.000003
 90,0.00000360,0.00964713,0.00002612,0.00001838,-0.03607855,0.00000233,
 0.00000054,0.00964717,-0.00005563,-0.00006255,0.00700833,-0.00862390,-
 0.03565366,-0.00000058,-0.12724952,-0.00873965,0.00007221,-0.05103363,
 -0.01455702,0.00001106,0.00331636,0.01540665,-0.00000534,-0.01481429,-
 0.00568755,0.00000234,0.01563501,0.00386600,-0.00000922,0.01300590,0.0
 0738434,-0.00000085,0.71726606,-0.03904282,-0.02204302,0.00001375,-0.0
 0873972,-0.11715676,0.00004310,-0.01116831,0.02036638,-0.00000907,0.01
 097854,0.00450759,-0.00000762,-0.00568753,-0.00824681,0.00000145,0.008
 29409,-0.00781114,0.00000023,0.00738434,0.00447894,-0.00000051,-0.1170
 3732,0.85242452,0.00000457,-0.00001473,-0.00652720,-0.00004135,-0.0000
 2250,-0.07002354,-0.00001120,0.00000954,-0.00652710,0.00000196,-0.0000
 0175,0.00762004,-0.00000413,-0.00000229,-0.00200705,-0.00000071,0.0000
 0347,0.00762003,0.00000260,0.00000148,-0.00042809,0.00044376,0.0002319
 9,0.22493362,-0.00495070,0.00279092,-0.00000376,0.00549713,-0.04055780
 ,-0.00003953,-0.00662504,-0.00192532,-0.00000453,0.00145626,-0.0014829
 1,-0.00000112,0.00230506,-0.00073708,-0.00000088,-0.00161213,-0.002544
 51,0.00000297,-0.00174614,-0.00098449,0.00000039,-0.12885498,-0.011755
 46,-0.00004893,0.13105964,-0.00314098,0.00655266,-0.00000838,-0.031202
 41,-0.05823523,-0.00008260,0.01276695,-0.00312957,0.00000454,-0.003570
 79,-0.00372752,0.00000342,0.00615812,0.00241027,-0.00000179,-0.0052896
 3,-0.00035314,0.00000443,-0.00560120,-0.00250748,0.00000046,-0.0043438
 2,-0.50598314,-0.00035247,-0.02024308,0.63718031,-0.00000981,0.0000034
 9,0.00458201,0.00001301,-0.00003036,0.01718420,0.00000973,-0.00000417,
 0.00169492,-0.00000371,-0.00000228,-0.00064487,0.00000334,0.00000311,0
 .00038719,0.00000102,-0.00000184,-0.00107884,-0.00000349,-0.00000155,0
 .00003719,-0.00005896,-0.00047837,-0.07491893,0.00005936,0.00045959,0.
 02781600,0.00069135,0.00854275,0.00000119,-0.07337294,0.01433561,-0.00
 009480,0.00352514,-0.00803451,-0.00000876,-0.00406020,-0.00387617,0.00
 000544,0.00473135,0.00475724,-0.00000210,-0.00461980,-0.00006263,0.000
 00229,-0.00516884,-0.00362501,0.00000062,-0.41865972,0.16297726,-0.000
 34876,0.00588181,0.05714039,-0.00000657,0.49310315,-0.00614909,-0.0104
 4523,-0.00000577,0.00498022,0.02063663,0.00000708,-0.00210273,-0.00192
 321,0.00000121,-0.00113104,0.00209501,0.00000017,-0.00213787,-0.000016
 07,0.00000010,0.00202523,0.00234853,-0.00000278,0.00099167,0.00091523,
 0.00000010,0.15556511,-0.21616474,0.00014591,0.08222829,-0.07458384,0.
 00005161,-0.22927402,0.27512032,0.00000161,0.00001141,0.00169488,-0.00
 002291,0.00002663,0.01718375,-0.00000177,-0.00001010,0.00458195,-0.000
 00109,0.00000147,-0.00107880,0.00000457,0.00000148,0.00038719,-0.00000
 408,-0.00000219,-0.00064486,-0.00000330,-0.00000240,0.00003718,-0.0004
 6236,0.00020042,-0.07491998,0.00003650,-0.00002453,0.02553251,0.000453
 90,-0.00019820,0.02781759,-0.27812546,0.12742196,0.00001399,0.00386581
 ,0.00055176,-0.00000145,0.00105761,-0.00102825,-0.00000008,0.00010344,
 -0.00078621,0.00000007,-0.00203485,-0.00309768,0.00000141,-0.01616161,
 0.01294412,0.00000121,-0.00069225,0.00078861,-0.00000025,-0.00098140,0
 .00060332,-0.00000065,0.00006003,0.00069002,0.00000032,-0.00249217,-0.
 00341918,-0.00000080,0.29429660,0.12545652,-0.12928546,-0.00000285,0.0
 2793823,-0.00969306,-0.00000390,-0.00162847,-0.00600327,0.00000221,-0.
 00084872,-0.00040768,-0.00000009,-0.00334892,-0.00154203,0.00000162,-0
 .01546294,0.01211553,0.00000143,-0.00062706,0.00067882,-0.00000017,0.0
 0465609,-0.00127515,0.00000342,-0.00078179,0.00143540,0.00000043,-0.00
 258514,0.00184719,-0.00000345,-0.13445995,0.13172665,0.00001339,0.0000
 0437,-0.03931707,-0.00000597,-0.00000666,0.00486052,-0.00000014,0.0000
 0200,0.00469040,0.00000109,0.00000076,-0.00095957,0.00000245,-0.000000
 28,0.00837763,0.00000162,-0.00000369,0.00451632,-0.00000015,-0.0000000
 4,-0.00005746,0.00000440,0.00000265,-0.00392208,-0.00000043,-0.0000014
 0,0.00033118,-0.00000205,0.00000011,-0.00011446,-0.00001357,0.00000222
 ,0.02665586,-0.00538834,0.00209327,0.00000147,0.00603366,0.02668650,-0
 .00000541,-0.05699608,-0.00221835,0.00000414,0.00395503,-0.02707771,0.
 00000321,-0.00445675,-0.00195057,0.00000183,-0.00098786,-0.00021862,-0
 .00000003,0.00040598,-0.00126115,-0.00000019,0.00107574,0.00346838,0.0
 0000260,-0.00183798,-0.00296309,-0.00000329,0.00105182,-0.00135441,0.0
 0000063,0.00033064,0.00155726,0.00000005,0.05592396,0.00269351,0.00044
 270,-0.00000088,-0.00069987,-0.01186105,0.00000152,-0.00025271,-0.3504
 1205,0.00002935,0.00132919,-0.00800109,0.00000100,-0.00169931,0.000879
 87,0.00000074,-0.00015612,0.00068361,0.00000001,0.00015452,-0.00041941
 ,-0.00000011,-0.00058438,-0.00333238,-0.00000232,-0.00379730,0.0011927
 5,0.00000086,0.00011738,0.00044365,0.00000006,-0.00016865,-0.00047111,
 0.00000032,0.00317092,0.37009692,0.00000123,-0.00000084,0.00469040,-0.
 00000874,-0.00000019,0.00486059,0.00001003,0.00002517,-0.03931753,-0.0
 0000247,0.00000307,0.00451630,0.00000070,0.00000259,0.00837759,0.00000
 121,0.00000048,-0.00095957,-0.00000010,-0.00000013,-0.00005746,0.00000
 467,0.00000256,-0.00392211,-0.00000073,-0.00000201,-0.00011443,-0.0000
 0142,0.00000028,0.00033117,0.00000030,-0.00000001,0.00061569,-0.000004
 21,-0.00003023,0.02665629,0.00011428,-0.00058301,0.00000016,-0.0017258
 0,-0.00426517,0.00000258,-0.02031146,0.01518605,0.00000136,-0.26528232
 ,0.12258699,0.00000478,0.00122027,-0.00305494,0.00000050,0.00133382,-0
 .00055845,-0.00000024,0.00206410,-0.00057496,-0.00000016,-0.00022717,0
 .00164213,0.00000033,-0.00011066,-0.00031579,-0.00000050,-0.00083790,-
 0.00025708,-0.00000087,-0.00004141,0.00006374,-0.00000002,0.00110846,0
 .00000316,-0.00000051,0.28215952,-0.00101528,-0.00103321,0.00000021,-0
 .00282672,-0.00091325,0.00000204,-0.01548756,0.01181559,0.00000099,0.1
 2240513,-0.13133690,-0.00000238,0.02894725,-0.01090049,-0.00000143,-0.
 00166701,-0.00545634,0.00000064,0.00110838,0.00207615,-0.00000029,-0.0
 0074915,0.00084499,0.00000048,0.00009545,-0.00003299,-0.00000017,-0.00
 044161,-0.00015088,-0.00000060,0.00003785,0.00007035,0.,0.00032331,0.0
 0086640,-0.00000079,-0.13074816,0.13560257,0.00000030,0.00000080,-0.00
 057352,0.00000234,0.00000003,0.00715670,0.00000278,-0.00000245,0.00209
 037,0.00000474,-0.00000248,-0.03218447,-0.00000080,0.00000246,0.003527
 43,0.00000009,0.00000129,0.00487812,-0.00000150,-0.00000067,-0.0026440
 8,-0.00000107,0.00000044,0.00158437,0.,-0.00000035,-0.00006489,0.00000
 121,-0.00000003,-0.00070075,-0.00000006,-0.00000011,-0.00062079,-0.000
 00063,-0.00000025,-0.00477317,-0.00000747,0.00000118,0.02253017,0.0036
 5273,-0.02932392,0.00000308,-0.00418735,-0.00140547,0.00000279,-0.0014
 3842,-0.00011879,0.00000025,-0.00472236,0.00182969,0.00000006,0.003341
 82,0.02772227,-0.00000241,-0.05873850,0.00315144,-0.00000059,0.0023041
 0,0.00096981,-0.00000025,0.00096362,-0.00143666,0.00000064,-0.00062519
 ,-0.00056444,-0.00000092,-0.00014782,0.00011690,-0.00000041,0.00106829
 ,0.00034650,-0.00000079,0.00008640,-0.00003594,0.,0.00017899,0.0014658
 5,-0.00000011,0.05901065,0.00134969,-0.01214862,0.00000145,-0.00284394
 ,0.00154830,0.00000141,0.00031347,0.00051949,-0.00000002,0.00293826,0.
 00059983,-0.00000022,-0.00427992,-0.01302209,0.00000187,0.00333333,-0.
 33787998,0.00002097,-0.00071355,0.00183614,-0.00000025,0.00095462,-0.0
 0034578,0.00000017,-0.00037989,-0.00036360,-0.00000049,-0.00029434,0.0
 0000417,-0.00000036,0.00002635,0.00090657,-0.00000032,-0.00001005,-0.0
 0005746,-0.00000004,-0.00006915,-0.00062743,0.00000011,-0.00190706,0.3
 5875079,-0.00000076,0.00000347,0.00209042,0.00000100,0.00000226,0.0071
 5673,0.00000080,-0.00000019,-0.00057352,0.00000074,-0.00000030,0.00487
 809,0.00000196,-0.00000026,0.00352743,-0.00000070,0.00002100,-0.032184
 62,-0.00000115,-0.00000117,-0.00264407,-0.00000022,-0.00000109,0.00158
 437,0.00000060,0.00000102,-0.00070076,-0.00000029,0.00000017,-0.000064
 89,-0.00000036,-0.00000070,-0.00477319,-0.00000010,-0.00000003,-0.0006
 2078,0.00000005,-0.00000008,-0.00008576,-0.00000158,-0.00002421,0.0225
 3030,-0.00014350,0.00032501,0.00000019,-0.00025985,0.00015970,-0.00000
 033,0.00126425,-0.00144486,0.00000032,-0.00574047,-0.00105305,0.000000
 75,0.00638782,-0.03159924,0.00000211,0.00147402,-0.00199719,-0.0000002
 4,-0.07451880,-0.00292573,0.00000556,0.00027133,0.00012865,-0.00000007
 ,-0.00002832,0.00007400,0.00000014,-0.00016529,0.00011338,-0.00000014,
 -0.00002518,-0.00000967,0.00000004,-0.00035692,-0.00009369,0.,0.000175
 53,-0.00025830,-0.00000004,-0.00087171,0.00143522,0.00000002,0.0656067
 8,-0.00076002,-0.00107493,-0.00000015,0.00133966,0.00104202,0.00000012
 ,-0.00018285,-0.00090125,0.,-0.00196985,0.00266047,-0.00000007,-0.0003
 2788,-0.01320268,0.00000063,0.00323149,0.00219721,-0.00000063,-0.00126
 224,-0.47146981,0.00003964,-0.00139457,-0.00081213,-0.00000072,0.00013
 278,0.00061017,0.00000050,0.00057695,-0.00016852,0.00000049,0.00006400
 ,0.00004667,0.00000001,-0.00019131,-0.00002060,0.00000005,0.00011765,0
 .00018904,0.,-0.00058121,0.00003984,0.00000019,0.00719302,0.48777217,-
 0.00000016,-0.00000050,-0.00082638,-0.00000050,0.00000046,0.00015872,0
 .00000125,0.00000012,0.00213361,-0.00000013,-0.00000098,0.00314912,-0.
 00000116,0.00000246,-0.00475505,0.00000023,0.00000009,-0.00190133,0.00
 000565,0.00004106,0.00421322,0.00000010,0.00000009,-0.00007316,0.00000
 014,0.00000007,-0.00002141,-0.00000006,-0.00000004,-0.00002108,0.00000
 009,0.00000004,0.00012947,-0.00000017,-0.00000011,-0.00041243,-0.00000
 012,0.00000006,-0.00070510,0.00000021,0.00000009,0.00058536,-0.0000049
 8,-0.00004075,0.00241167,-0.00106467,0.00116183,0.,0.00136579,0.000401
 05,-0.00000005,-0.00103043,-0.00024793,-0.00000002,0.00255090,0.002609
 72,-0.00000067,-0.02213014,0.01613753,0.00000023,-0.00074893,-0.004851
 89,0.00000044,-0.37403746,0.17167238,0.00001656,-0.00108941,-0.0006089
 1,-0.00000066,0.00013121,0.00040576,0.00000033,0.00054007,-0.00019539,
 0.00000053,-0.00022810,-0.00026569,0.00000006,0.00005223,0.00001930,0.
 00000003,0.00018174,-0.00118944,0.00000022,0.00012476,0.00014696,0.,0.
 00693031,-0.00598565,-0.00000040,0.38845212,-0.00010020,0.00142768,0.0
 0000031,-0.00077889,-0.00058362,-0.00000033,0.00083709,-0.00018801,0.0
 0000023,-0.00261893,0.00112035,-0.00000012,-0.01513397,0.01531504,-0.0
 0000001,-0.00393506,-0.00233112,0.00000085,0.17000899,-0.17194936,-0.0
 0000059,0.00091431,0.00054863,0.00000030,-0.00005781,-0.00046503,-0.00
 000036,-0.00025417,0.00004177,-0.00000013,-0.00016807,-0.00014942,-0.0
 0000005,-0.00005437,-0.00003075,0.00000004,0.00082699,-0.00101361,0.00
 000002,-0.00022899,0.00023981,-0.00000009,0.02995275,-0.00690766,-0.00
 000216,-0.17920964,0.16492530,0.00000065,0.00000110,0.00213360,0.00000
 021,-0.00000062,0.00015872,-0.00000056,0.00000007,-0.00082638,0.000000
 46,0.00000007,-0.00190133,0.00000189,-0.00000277,-0.00475487,-0.000000
 83,0.00000052,0.00314913,0.00001785,-0.00000119,0.00421267,0.00000006,
 0.,-0.00007316,-0.00000005,0.,-0.00002108,0.00000016,0.00000008,-0.000
 02140,-0.00000017,-0.00000011,-0.00041244,0.00000008,0.00000007,0.0001
 2947,0.00000012,0.00000017,0.00058535,0.00000002,-0.00000018,-0.000705
 10,-0.00000331,0.00000070,-0.00406524,-0.00001660,0.00000210,0.0024120
 5\\-0.00006232,-0.00002888,-0.00002420,0.00002033,0.00000987,-0.000086
 04,-0.00005751,-0.00003835,-0.00002420,0.00002993,0.00008556,0.0000063
 4,-0.00006272,-0.00003735,-0.00000259,0.00008839,-0.00001716,0.0000063
 5,0.00001566,0.00001032,-0.00000043,-0.00006207,-0.00003798,0.00040905
 ,0.00009310,-0.00003901,-0.00014529,0.00000861,0.00010090,-0.00014529,
 0.00000593,-0.00000155,-0.00000028,0.00000143,0.00000490,-0.00000028,-
 0.00000864,-0.00000370,0.00000326,-0.00000749,-0.00000540,0.00000325,-
 0.00000594,0.00000696,0.00000017,0.00000329,-0.00000913,0.00000017\\\@


 ... A MOLECULAR SYSTEM ... (PASSES) ... FROM ONE STATE OF EQUILIBRIUM 
 TO ANOTHER ... BY MEANS OF ALL POSSIBLE INTERMEDIATE PATHS, 
 BUT THE PATH MOST ECONOMICAL OF ENERGY WILL BE THE MORE OFTEN TRAVELED.

                      -- HENRY EYRING, 1945
 Job cpu time:       0 days  0 hours 18 minutes 19.6 seconds.
 File lengths (MBytes):  RWF=     85 Int=      0 D2E=      0 Chk=      5 Scr=      1
 Normal termination of Gaussian 09 at Thu Jun 13 21:46:17 2024.
