 Entering Gaussian System, Link 0=g09
 Input=B3PW91D3BJPNAyang.gjf
 Output=B3PW91D3BJPNAyang.log
 Initial command:
 /home/c612/g09E/g09/l1.exe "/mnt/ja_sm883/scratch/Gau-1958288.inp" -scrdir="/mnt/ja_sm883/scratch/"
 Default is to use a total of  18 processors:
                               18 via shared-memory
                                1 via Linda
 Entering Link 1 = /home/c612/g09E/g09/l1.exe PID=   1958290.
  
 Copyright (c) 1988,1990,1992,1993,1995,1998,2003,2009,2015,
            Gaussian, Inc.  All Rights Reserved.
  
 This is part of the Gaussian(R) 09 program.  It is based on
 the Gaussian(R) 03 system (copyright 2003, Gaussian, Inc.),
 the Gaussian(R) 98 system (copyright 1998, Gaussian, Inc.),
 the Gaussian(R) 94 system (copyright 1995, Gaussian, Inc.),
 the Gaussian 92(TM) system (copyright 1992, Gaussian, Inc.),
 the Gaussian 90(TM) system (copyright 1990, Gaussian, Inc.),
 the Gaussian 88(TM) system (copyright 1988, Gaussian, Inc.),
 the Gaussian 86(TM) system (copyright 1986, Carnegie Mellon
 University), and the Gaussian 82(TM) system (copyright 1983,
 Carnegie Mellon University). Gaussian is a federally registered
 trademark of Gaussian, Inc.
  
 This software contains proprietary and confidential information,
 including trade secrets, belonging to Gaussian, Inc.
  
 This software is provided under written license and may be
 used, copied, transmitted, or stored only in accord with that
 written license.
  
 The following legend is applicable only to US Government
 contracts under FAR:
  
                    RESTRICTED RIGHTS LEGEND
  
 Use, reproduction and disclosure by the US Government is
 subject to restrictions as set forth in subparagraphs (a)
 and (c) of the Commercial Computer Software - Restricted
 Rights clause in FAR 52.227-19.
  
 Gaussian, Inc.
 340 Quinnipiac St., Bldg. 40, Wallingford CT 06492
  
  
 ---------------------------------------------------------------
 Warning -- This program may not be used in any manner that
 competes with the business of Gaussian, Inc. or will provide
 assistance to any competitor of Gaussian, Inc.  The licensee
 of this program is prohibited from giving any competitor of
 Gaussian, Inc. access to this program.  By using this program,
 the user acknowledges that Gaussian, Inc. is engaged in the
 business of creating and licensing software in the field of
 computational chemistry and represents and warrants to the
 licensee that it is not a competitor of Gaussian, Inc. and that
 it will not use this program in any manner prohibited above.
 ---------------------------------------------------------------
  

 Cite this work as:
 Gaussian 09, Revision E.01,
 M. J. Frisch, G. W. Trucks, H. B. Schlegel, G. E. Scuseria, 
 M. A. Robb, J. R. Cheeseman, G. Scalmani, V. Barone, B. Mennucci, 
 G. A. Petersson, H. Nakatsuji, M. Caricato, X. Li, H. P. Hratchian, 
 A. F. Izmaylov, J. Bloino, G. Zheng, J. L. Sonnenberg, M. Hada, 
 M. Ehara, K. Toyota, R. Fukuda, J. Hasegawa, M. Ishida, T. Nakajima, 
 Y. Honda, O. Kitao, H. Nakai, T. Vreven, J. A. Montgomery, Jr., 
 J. E. Peralta, F. Ogliaro, M. Bearpark, J. J. Heyd, E. Brothers, 
 K. N. Kudin, V. N. Staroverov, T. Keith, R. Kobayashi, J. Normand, 
 K. Raghavachari, A. Rendell, J. C. Burant, S. S. Iyengar, J. Tomasi, 
 M. Cossi, N. Rega, J. M. Millam, M. Klene, J. E. Knox, J. B. Cross, 
 V. Bakken, C. Adamo, J. Jaramillo, R. Gomperts, R. E. Stratmann, 
 O. Yazyev, A. J. Austin, R. Cammi, C. Pomelli, J. W. Ochterski, 
 R. L. Martin, K. Morokuma, V. G. Zakrzewski, G. A. Voth, 
 P. Salvador, J. J. Dannenberg, S. Dapprich, A. D. Daniels, 
 O. Farkas, J. B. Foresman, J. V. Ortiz, J. Cioslowski, 
 and D. J. Fox, Gaussian, Inc., Wallingford CT, 2013.
 
 ******************************************
 Gaussian 09:  ES64L-G09RevE.01 30-Nov-2015
                19-Dec-2024 
 ******************************************
 %chk=B3PW91D3BJPNAyang.chk
 -------------------------------------------------------
 # opt freq b3pw91/6-31+g(d,p) EmpiricalDispersion=GD3BJ
 -------------------------------------------------------
 1/14=-1,18=20,19=15,26=3,38=1/1,3;
 2/9=110,12=2,17=6,18=5,40=1/2;
 3/5=1,6=6,7=111,11=2,16=1,25=1,30=1,71=1,74=-6,124=41/1,2,3;
 4//1;
 5/5=2,38=5/2;
 6/7=2,8=2,9=2,10=2,28=1/1;
 7//1,2,3,16;
 1/14=-1,18=20,19=15,26=3/3(2);
 2/9=110/2;
 99//99;
 2/9=110/2;
 3/5=1,6=6,7=111,11=2,16=1,25=1,30=1,71=1,74=-6,124=41/1,2,3;
 4/5=5,16=3,69=1/1;
 5/5=2,38=5/2;
 7//1,2,3,16;
 1/14=-1,18=20,19=15,26=3/3(-5);
 2/9=110/2;
 6/7=2,8=2,9=2,10=2,19=2,28=1/1;
 99/9=1/99;
 ----------
 [No Title]
 ----------
 Symbolic Z-matrix:
 Charge =  1 Multiplicity = 1
 C                    -0.05732   1.26042  -0.00002 
 C                     0.66742   0.03633  -0.00007 
 C                    -0.00651  -1.21605  -0.00004 
 C                    -1.37145  -1.23715  0. 
 C                    -2.11785  -0.01758   0.00003 
 C                    -1.42089   1.23142   0.00002 
 N                    -3.45088  -0.0439    0.00006 
 N                     2.03076   0.1071   -0.00011 
 O                     2.66654  -1.09534   0.00005 
 O                     2.70408   1.11458   0.00003 
 H                     0.48219   2.20135  -0.00003 
 H                     0.55649  -2.1417   -0.00007 
 H                    -1.89792  -2.18652   0. 
 H                    -1.98382   2.15968   0.00004 
 H                    -3.9962    0.80656   0.00008 
 H                    -3.96284  -0.91482   0.00007 
 H                     3.6175   -0.86525   0.00015 
 

 GradGradGradGradGradGradGradGradGradGradGradGradGradGradGradGradGradGrad
 Berny optimization.
 Initialization pass.
                           ----------------------------
                           !    Initial Parameters    !
                           ! (Angstroms and Degrees)  !
 --------------------------                            --------------------------
 ! Name  Definition              Value          Derivative Info.                !
 --------------------------------------------------------------------------------
 ! R1    R(1,2)                  1.4225         estimate D2E/DX2                !
 ! R2    R(1,6)                  1.3639         estimate D2E/DX2                !
 ! R3    R(1,11)                 1.0846         estimate D2E/DX2                !
 ! R4    R(2,3)                  1.4222         estimate D2E/DX2                !
 ! R5    R(2,8)                  1.3652         estimate D2E/DX2                !
 ! R6    R(3,4)                  1.3651         estimate D2E/DX2                !
 ! R7    R(3,12)                 1.0834         estimate D2E/DX2                !
 ! R8    R(4,5)                  1.4298         estimate D2E/DX2                !
 ! R9    R(4,13)                 1.0856         estimate D2E/DX2                !
 ! R10   R(5,6)                  1.4303         estimate D2E/DX2                !
 ! R11   R(5,7)                  1.3333         estimate D2E/DX2                !
 ! R12   R(6,14)                 1.0856         estimate D2E/DX2                !
 ! R13   R(7,15)                 1.0103         estimate D2E/DX2                !
 ! R14   R(7,16)                 1.0102         estimate D2E/DX2                !
 ! R15   R(8,9)                  1.3602         estimate D2E/DX2                !
 ! R16   R(8,10)                 1.2118         estimate D2E/DX2                !
 ! R17   R(9,17)                 0.9784         estimate D2E/DX2                !
 ! A1    A(2,1,6)              119.4098         estimate D2E/DX2                !
 ! A2    A(2,1,11)             119.543          estimate D2E/DX2                !
 ! A3    A(6,1,11)             121.0472         estimate D2E/DX2                !
 ! A4    A(1,2,3)              121.0867         estimate D2E/DX2                !
 ! A5    A(1,2,8)              117.6568         estimate D2E/DX2                !
 ! A6    A(3,2,8)              121.2565         estimate D2E/DX2                !
 ! A7    A(2,3,4)              119.171          estimate D2E/DX2                !
 ! A8    A(2,3,12)             120.4063         estimate D2E/DX2                !
 ! A9    A(4,3,12)             120.4227         estimate D2E/DX2                !
 ! A10   A(3,4,5)              120.582          estimate D2E/DX2                !
 ! A11   A(3,4,13)             119.8964         estimate D2E/DX2                !
 ! A12   A(5,4,13)             119.5216         estimate D2E/DX2                !
 ! A13   A(4,5,6)              119.3699         estimate D2E/DX2                !
 ! A14   A(4,5,7)              120.3369         estimate D2E/DX2                !
 ! A15   A(6,5,7)              120.2932         estimate D2E/DX2                !
 ! A16   A(1,6,5)              120.3806         estimate D2E/DX2                !
 ! A17   A(1,6,14)             120.0161         estimate D2E/DX2                !
 ! A18   A(5,6,14)             119.6033         estimate D2E/DX2                !
 ! A19   A(5,7,15)             121.5378         estimate D2E/DX2                !
 ! A20   A(5,7,16)             121.5796         estimate D2E/DX2                !
 ! A21   A(15,7,16)            116.8826         estimate D2E/DX2                !
 ! A22   A(2,8,9)              114.8957         estimate D2E/DX2                !
 ! A23   A(2,8,10)             126.7268         estimate D2E/DX2                !
 ! A24   A(9,8,10)             118.3775         estimate D2E/DX2                !
 ! A25   A(8,9,17)             104.265          estimate D2E/DX2                !
 ! D1    D(6,1,2,3)             -0.0016         estimate D2E/DX2                !
 ! D2    D(6,1,2,8)            179.9998         estimate D2E/DX2                !
 ! D3    D(11,1,2,3)           179.9994         estimate D2E/DX2                !
 ! D4    D(11,1,2,8)             0.0007         estimate D2E/DX2                !
 ! D5    D(2,1,6,5)              0.0007         estimate D2E/DX2                !
 ! D6    D(2,1,6,14)          -179.999          estimate D2E/DX2                !
 ! D7    D(11,1,6,5)           179.9998         estimate D2E/DX2                !
 ! D8    D(11,1,6,14)            0.0            estimate D2E/DX2                !
 ! D9    D(1,2,3,4)              0.0015         estimate D2E/DX2                !
 ! D10   D(1,2,3,12)          -179.9992         estimate D2E/DX2                !
 ! D11   D(8,2,3,4)           -179.9999         estimate D2E/DX2                !
 ! D12   D(8,2,3,12)            -0.0006         estimate D2E/DX2                !
 ! D13   D(1,2,8,9)            179.9904         estimate D2E/DX2                !
 ! D14   D(1,2,8,10)             0.0082         estimate D2E/DX2                !
 ! D15   D(3,2,8,9)             -0.0082         estimate D2E/DX2                !
 ! D16   D(3,2,8,10)          -179.9904         estimate D2E/DX2                !
 ! D17   D(2,3,4,5)             -0.0006         estimate D2E/DX2                !
 ! D18   D(2,3,4,13)           179.9992         estimate D2E/DX2                !
 ! D19   D(12,3,4,5)          -179.9999         estimate D2E/DX2                !
 ! D20   D(12,3,4,13)           -0.0001         estimate D2E/DX2                !
 ! D21   D(3,4,5,6)             -0.0002         estimate D2E/DX2                !
 ! D22   D(3,4,5,7)            179.9999         estimate D2E/DX2                !
 ! D23   D(13,4,5,6)           180.0            estimate D2E/DX2                !
 ! D24   D(13,4,5,7)             0.0001         estimate D2E/DX2                !
 ! D25   D(4,5,6,1)              0.0001         estimate D2E/DX2                !
 ! D26   D(4,5,6,14)           179.9999         estimate D2E/DX2                !
 ! D27   D(7,5,6,1)           -179.9999         estimate D2E/DX2                !
 ! D28   D(7,5,6,14)            -0.0002         estimate D2E/DX2                !
 ! D29   D(4,5,7,15)           180.0            estimate D2E/DX2                !
 ! D30   D(4,5,7,16)            -0.0001         estimate D2E/DX2                !
 ! D31   D(6,5,7,15)             0.0001         estimate D2E/DX2                !
 ! D32   D(6,5,7,16)           180.0            estimate D2E/DX2                !
 ! D33   D(2,8,9,17)          -179.9909         estimate D2E/DX2                !
 ! D34   D(10,8,9,17)           -0.0071         estimate D2E/DX2                !
 --------------------------------------------------------------------------------
 Trust Radius=3.00D-01 FncErr=1.00D-07 GrdErr=1.00D-06
 Number of steps in this run=     86 maximum allowed number of steps=    102.
 GradGradGradGradGradGradGradGradGradGradGradGradGradGradGradGradGradGrad

                          Input orientation:                          
 ---------------------------------------------------------------------
 Center     Atomic      Atomic             Coordinates (Angstroms)
 Number     Number       Type             X           Y           Z
 ---------------------------------------------------------------------
      1          6           0       -0.057318    1.260419   -0.000021
      2          6           0        0.667415    0.036333   -0.000068
      3          6           0       -0.006506   -1.216048   -0.000043
      4          6           0       -1.371446   -1.237151   -0.000004
      5          6           0       -2.117853   -0.017584    0.000025
      6          6           0       -1.420885    1.231421    0.000017
      7          7           0       -3.450875   -0.043897    0.000061
      8          7           0        2.030763    0.107099   -0.000109
      9          8           0        2.666538   -1.095343    0.000053
     10          8           0        2.704081    1.114584    0.000029
     11          1           0        0.482190    2.201352   -0.000031
     12          1           0        0.556485   -2.141698   -0.000066
     13          1           0       -1.897923   -2.186524    0.000002
     14          1           0       -1.983821    2.159680    0.000037
     15          1           0       -3.996204    0.806563    0.000082
     16          1           0       -3.962836   -0.914815    0.000067
     17          1           0        3.617496   -0.865246    0.000148
 ---------------------------------------------------------------------
                    Distance matrix (angstroms):
                    1          2          3          4          5
     1  C    0.000000
     2  C    1.422542   0.000000
     3  C    2.476988   1.422191   0.000000
     4  C    2.822196   2.403896   1.365103   0.000000
     5  C    2.424685   2.785790   2.427777   1.429849   0.000000
     6  C    1.363875   2.406082   2.826760   2.469067   1.430307
     7  N    3.635584   4.119071   3.638353   2.397474   1.333282
     8  N    2.385420   1.365183   2.429235   3.658146   4.150489
     9  O    3.601251   2.297212   2.675768   4.040473   4.904280
    10  O    2.765247   2.304481   3.574791   4.705378   4.953065
    11  H    1.084631   2.172928   3.452165   3.906311   3.418172
    12  H    3.457044   2.180854   1.083414   2.129583   3.415252
    13  H    3.907588   3.394415   2.125860   1.085581   2.180062
    14  H    2.126049   3.396712   3.912201   3.451589   2.181386
    15  H    3.964947   4.726796   4.473102   3.326578   2.051200
    16  H    4.470427   4.726934   3.967781   2.611360   2.051581
    17  H    4.245316   3.084773   3.640941   5.002785   5.797651
                    6          7          8          9         10
     6  C    0.000000
     7  N    2.397352   0.000000
     8  N    3.630148   5.483717   0.000000
     9  O    4.703282   6.207115   1.360175   0.000000
    10  O    4.126620   6.263031   1.211769   2.210246   0.000000
    11  H    2.135992   4.528813   2.604606   3.954690   2.473432
    12  H    3.909977   4.523240   2.688974   2.355246   3.900710
    13  H    3.451074   2.646226   4.549207   4.693078   5.663546
    14  H    1.085616   2.647263   4.508877   5.676356   4.802984
    15  H    2.610129   1.010280   6.067420   6.928880   6.707361
    16  H    3.326837   1.010249   6.080094   6.631832   6.968948
    17  H    5.457224   7.115932   1.860961   0.978400   2.180379
                   11         12         13         14         15
    11  H    0.000000
    12  H    4.343685   0.000000
    13  H    4.991833   2.454817   0.000000
    14  H    2.466363   4.995499   4.347053   0.000000
    15  H    4.690570   5.423949   3.655318   2.424997   0.000000
    16  H    5.428513   4.682895   2.425100   3.656367   1.721701
    17  H    4.385677   3.316492   5.671474   6.365919   7.795086
                   16         17
    16  H    0.000000
    17  H    7.580494   0.000000
 Stoichiometry    C6H7N2O2(1+)
 Framework group  C1[X(C6H7N2O2)]
 Deg. of freedom    45
 Full point group                 C1      NOp   1
 Largest Abelian subgroup         C1      NOp   1
 Largest concise Abelian subgroup C1      NOp   1
                         Standard orientation:                         
 ---------------------------------------------------------------------
 Center     Atomic      Atomic             Coordinates (Angstroms)
 Number     Number       Type             X           Y           Z
 ---------------------------------------------------------------------
      1          6           0       -0.057318    1.260419   -0.000021
      2          6           0        0.667415    0.036333   -0.000068
      3          6           0       -0.006506   -1.216048   -0.000043
      4          6           0       -1.371446   -1.237151   -0.000004
      5          6           0       -2.117853   -0.017584    0.000025
      6          6           0       -1.420885    1.231421    0.000017
      7          7           0       -3.450875   -0.043897    0.000061
      8          7           0        2.030763    0.107099   -0.000109
      9          8           0        2.666538   -1.095343    0.000053
     10          8           0        2.704081    1.114584    0.000029
     11          1           0        0.482190    2.201352   -0.000031
     12          1           0        0.556485   -2.141698   -0.000066
     13          1           0       -1.897923   -2.186524    0.000002
     14          1           0       -1.983821    2.159680    0.000037
     15          1           0       -3.996204    0.806563    0.000082
     16          1           0       -3.962836   -0.914815    0.000067
     17          1           0        3.617496   -0.865246    0.000148
 ---------------------------------------------------------------------
 Rotational constants (GHZ):      3.7744281      0.8229505      0.6756388
 Standard basis: 6-31+G(d,p) (6D, 7F)
 There are   225 symmetry adapted cartesian basis functions of A   symmetry.
 There are   225 symmetry adapted basis functions of A   symmetry.
   225 basis functions,   369 primitive gaussians,   225 cartesian basis functions
    36 alpha electrons       36 beta electrons
       nuclear repulsion energy       508.9631194315 Hartrees.
 NAtoms=   17 NActive=   17 NUniq=   17 SFac= 1.00D+00 NAtFMM=   60 NAOKFM=F Big=F
 Integral buffers will be    131072 words long.
 Raffenetti 2 integral format.
 Two-electron integral symmetry is turned on.
 Nuclear repulsion after empirical dispersion term =      508.9330766447 Hartrees.
 One-electron integrals computed using PRISM.
 NBasis=   225 RedAO= T EigKep=  3.35D-06  NBF=   225
 NBsUse=   225 1.00D-06 EigRej= -1.00D+00 NBFU=   225
 ExpMin= 4.38D-02 ExpMax= 5.48D+03 ExpMxC= 8.25D+02 IAcc=2 IRadAn=         4 AccDes= 0.00D+00
 Harris functional with IExCor=  408 and IRadAn=       4 diagonalized for initial guess.
 HarFok:  IExCor=  408 AccDes= 0.00D+00 IRadAn=         4 IDoV= 1 UseB2=F ITyADJ=14
 ICtDFT=  3500011 ScaDFX=  1.000000  1.000000  1.000000  1.000000
 FoFCou: FMM=F IPFlag=           0 FMFlag=      100000 FMFlg1=           0
         NFxFlg=           0 DoJE=T BraDBF=F KetDBF=T FulRan=T
         wScrn=  0.000000 ICntrl=     500 IOpCl=  0 I1Cent=   200000004 NGrid=           0
         NMat0=    1 NMatS0=      1 NMatT0=    0 NMatD0=    1 NMtDS0=    0 NMtDT0=    0
 Petite list used in FoFCou.
 Keep R1 ints in memory in canonical form, NReq=329175655.
 Requested convergence on RMS density matrix=1.00D-08 within 128 cycles.
 Requested convergence on MAX density matrix=1.00D-06.
 Requested convergence on             energy=1.00D-06.
 No special actions if energy rises.
 EnCoef did     3 forward-backward iterations
 SCF Done:  E(RB3PW91) =  -492.334338232     A.U. after   17 cycles
            NFock= 17  Conv=0.62D-08     -V/T= 2.0092

 **********************************************************************

            Population analysis using the SCF density.

 **********************************************************************

 Orbital symmetries:
       Occupied  (A) (A) (A) (A) (A) (A) (A) (A) (A) (A) (A) (A)
                 (A) (A) (A) (A) (A) (A) (A) (A) (A) (A) (A) (A)
                 (A) (A) (A) (A) (A) (A) (A) (A) (A) (A) (A) (A)
       Virtual   (A) (A) (A) (A) (A) (A) (A) (A) (A) (A) (A) (A)
                 (A) (A) (A) (A) (A) (A) (A) (A) (A) (A) (A) (A)
                 (A) (A) (A) (A) (A) (A) (A) (A) (A) (A) (A) (A)
                 (A) (A) (A) (A) (A) (A) (A) (A) (A) (A) (A) (A)
                 (A) (A) (A) (A) (A) (A) (A) (A) (A) (A) (A) (A)
                 (A) (A) (A) (A) (A) (A) (A) (A) (A) (A) (A) (A)
                 (A) (A) (A) (A) (A) (A) (A) (A) (A) (A) (A) (A)
                 (A) (A) (A) (A) (A) (A) (A) (A) (A) (A) (A) (A)
                 (A) (A) (A) (A) (A) (A) (A) (A) (A) (A) (A) (A)
                 (A) (A) (A) (A) (A) (A) (A) (A) (A) (A) (A) (A)
                 (A) (A) (A) (A) (A) (A) (A) (A) (A) (A) (A) (A)
                 (A) (A) (A) (A) (A) (A) (A) (A) (A) (A) (A) (A)
                 (A) (A) (A) (A) (A) (A) (A) (A) (A) (A) (A) (A)
                 (A) (A) (A) (A) (A) (A) (A) (A) (A) (A) (A) (A)
                 (A) (A) (A) (A) (A) (A) (A) (A) (A) (A) (A) (A)
                 (A) (A) (A) (A) (A) (A) (A) (A) (A)
 The electronic state is 1-A.
 Alpha  occ. eigenvalues --  -19.41159 -19.37546 -14.74826 -14.54754 -10.43560
 Alpha  occ. eigenvalues --  -10.41794 -10.38262 -10.38080 -10.36776 -10.36757
 Alpha  occ. eigenvalues --   -1.42628  -1.26448  -1.13962  -1.08309  -1.00587
 Alpha  occ. eigenvalues --   -0.95161  -0.89295  -0.83126  -0.80596  -0.75957
 Alpha  occ. eigenvalues --   -0.73993  -0.72285  -0.72239  -0.71075  -0.65011
 Alpha  occ. eigenvalues --   -0.62781  -0.61967  -0.61189  -0.59423  -0.58681
 Alpha  occ. eigenvalues --   -0.53760  -0.53363  -0.51615  -0.49996  -0.45178
 Alpha  occ. eigenvalues --   -0.40965
 Alpha virt. eigenvalues --   -0.29089  -0.19031  -0.16376  -0.12680  -0.11864
 Alpha virt. eigenvalues --   -0.09771  -0.09185  -0.08349  -0.06708  -0.06450
 Alpha virt. eigenvalues --   -0.05853  -0.04527  -0.04299  -0.03305  -0.02461
 Alpha virt. eigenvalues --   -0.02213  -0.00867  -0.00366   0.00746   0.01330
 Alpha virt. eigenvalues --    0.01922   0.02384   0.02463   0.03222   0.03583
 Alpha virt. eigenvalues --    0.05020   0.05393   0.06232   0.06694   0.06806
 Alpha virt. eigenvalues --    0.07616   0.08139   0.08573   0.09092   0.10059
 Alpha virt. eigenvalues --    0.10349   0.10417   0.12304   0.12746   0.12749
 Alpha virt. eigenvalues --    0.13389   0.14439   0.14581   0.15354   0.15743
 Alpha virt. eigenvalues --    0.16532   0.18785   0.19011   0.19645   0.20621
 Alpha virt. eigenvalues --    0.21738   0.22593   0.24640   0.25195   0.27545
 Alpha virt. eigenvalues --    0.28820   0.30207   0.33434   0.38195   0.40775
 Alpha virt. eigenvalues --    0.43851   0.48418   0.49281   0.49682   0.52880
 Alpha virt. eigenvalues --    0.54841   0.56087   0.57669   0.59265   0.62677
 Alpha virt. eigenvalues --    0.63709   0.65630   0.68025   0.69056   0.71958
 Alpha virt. eigenvalues --    0.73654   0.74805   0.77628   0.79477   0.80210
 Alpha virt. eigenvalues --    0.81905   0.82566   0.85385   0.86071   0.88818
 Alpha virt. eigenvalues --    0.89889   0.90116   0.92175   0.94495   0.96645
 Alpha virt. eigenvalues --    0.99798   1.00525   1.01528   1.02862   1.04374
 Alpha virt. eigenvalues --    1.06899   1.09464   1.09647   1.12155   1.12420
 Alpha virt. eigenvalues --    1.14989   1.15785   1.15940   1.19494   1.19626
 Alpha virt. eigenvalues --    1.20972   1.21680   1.26387   1.27347   1.29966
 Alpha virt. eigenvalues --    1.33688   1.35326   1.37547   1.49173   1.52692
 Alpha virt. eigenvalues --    1.56124   1.58194   1.62714   1.63775   1.65825
 Alpha virt. eigenvalues --    1.66468   1.71826   1.72815   1.73645   1.75593
 Alpha virt. eigenvalues --    1.77753   1.78677   1.79298   1.79498   1.85509
 Alpha virt. eigenvalues --    1.88227   1.91271   1.93066   1.94874   1.96579
 Alpha virt. eigenvalues --    1.99982   2.00924   2.02850   2.12893   2.13409
 Alpha virt. eigenvalues --    2.20028   2.20663   2.21971   2.22332   2.23568
 Alpha virt. eigenvalues --    2.27346   2.27391   2.30538   2.32590   2.36868
 Alpha virt. eigenvalues --    2.38110   2.39475   2.40693   2.41431   2.42330
 Alpha virt. eigenvalues --    2.44881   2.49568   2.50149   2.53160   2.58217
 Alpha virt. eigenvalues --    2.59019   2.63179   2.66252   2.67815   2.80072
 Alpha virt. eigenvalues --    2.82468   2.86174   2.90314   2.93548   2.98339
 Alpha virt. eigenvalues --    3.02749   3.12288   3.17344   3.17907   3.24229
 Alpha virt. eigenvalues --    3.33262   3.36102   3.51233   3.66802   3.97462
 Alpha virt. eigenvalues --    4.04770   4.12350   4.13760   4.17918   4.29690
 Alpha virt. eigenvalues --    4.31731   4.36108   4.62173   4.69365
          Condensed to atoms (all electrons):
               1          2          3          4          5          6
     1  C   10.037953   0.430889  -2.677596  -1.648446   0.324024  -1.021285
     2  C    0.430889  12.675914  -2.460612  -1.338772  -1.215521  -0.398991
     3  C   -2.677596  -2.460612  12.102226  -1.194872   0.606807  -1.377711
     4  C   -1.648446  -1.338772  -1.194872  10.248781   0.098253  -0.451618
     5  C    0.324024  -1.215521   0.606807   0.098253   6.107549  -0.134964
     6  C   -1.021285  -0.398991  -1.377711  -0.451618  -0.134964   9.002655
     7  N    0.080964  -0.032463   0.072006  -0.068473   0.150177  -0.082716
     8  N    0.409604  -1.140578   0.078332   0.028746   0.043440   0.093389
     9  O    0.036948  -0.313011   0.111642   0.068623  -0.006698   0.034541
    10  O   -0.277914  -0.202199   0.347384   0.011224   0.015706   0.033145
    11  H   -0.015006   0.292303   0.067731   0.004235  -0.048066   0.064205
    12  H    0.039565   0.338180  -0.085325   0.116536  -0.062887   0.018262
    13  H    0.009023   0.004561   0.149930   0.059530   0.110102   0.007570
    14  H    0.120690   0.002524  -0.000181   0.012152   0.107906   0.097490
    15  H    0.021842   0.000413  -0.003112   0.050305  -0.007941  -0.072482
    16  H   -0.003543   0.000156   0.021282  -0.072769  -0.006221   0.050199
    17  H    0.042015   0.031852  -0.061148  -0.004243  -0.001272   0.004085
               7          8          9         10         11         12
     1  C    0.080964   0.409604   0.036948  -0.277914  -0.015006   0.039565
     2  C   -0.032463  -1.140578  -0.313011  -0.202199   0.292303   0.338180
     3  C    0.072006   0.078332   0.111642   0.347384   0.067731  -0.085325
     4  C   -0.068473   0.028746   0.068623   0.011224   0.004235   0.116536
     5  C    0.150177   0.043440  -0.006698   0.015706  -0.048066  -0.062887
     6  C   -0.082716   0.093389   0.034541   0.033145   0.064205   0.018262
     7  N    6.790820   0.001000  -0.000125  -0.000477  -0.000188  -0.000048
     8  N    0.001000   7.221774   0.185530   0.431412  -0.059700  -0.060671
     9  O   -0.000125   0.185530   7.772655  -0.094460  -0.002372   0.019532
    10  O   -0.000477   0.431412  -0.094460   7.668660   0.022209  -0.002674
    11  H   -0.000188  -0.059700  -0.002372   0.022209   0.458102  -0.000082
    12  H   -0.000048  -0.060671   0.019532  -0.002674  -0.000082   0.463843
    13  H   -0.019788  -0.001071   0.000090   0.000024   0.000010  -0.004372
    14  H   -0.019278  -0.000992   0.000060  -0.000023  -0.004044   0.000010
    15  H    0.330491  -0.000006   0.000000   0.000001  -0.000008   0.000003
    16  H    0.330394   0.000000   0.000001   0.000000   0.000002  -0.000008
    17  H    0.000005   0.035559   0.215829   0.009983   0.000004   0.000170
              13         14         15         16         17
     1  C    0.009023   0.120690   0.021842  -0.003543   0.042015
     2  C    0.004561   0.002524   0.000413   0.000156   0.031852
     3  C    0.149930  -0.000181  -0.003112   0.021282  -0.061148
     4  C    0.059530   0.012152   0.050305  -0.072769  -0.004243
     5  C    0.110102   0.107906  -0.007941  -0.006221  -0.001272
     6  C    0.007570   0.097490  -0.072482   0.050199   0.004085
     7  N   -0.019788  -0.019278   0.330491   0.330394   0.000005
     8  N   -0.001071  -0.000992  -0.000006   0.000000   0.035559
     9  O    0.000090   0.000060   0.000000   0.000001   0.215829
    10  O    0.000024  -0.000023   0.000001   0.000000   0.009983
    11  H    0.000010  -0.004044  -0.000008   0.000002   0.000004
    12  H   -0.004372   0.000010   0.000003  -0.000008   0.000170
    13  H    0.489364  -0.000091  -0.000052   0.004272  -0.000000
    14  H   -0.000091   0.487029   0.004283  -0.000054  -0.000000
    15  H   -0.000052   0.004283   0.339302  -0.019699   0.000000
    16  H    0.004272  -0.000054  -0.019699   0.339604  -0.000000
    17  H   -0.000000  -0.000000   0.000000  -0.000000   0.328873
 Mulliken charges:
               1
     1  C    0.090273
     2  C   -0.674644
     3  C    0.303217
     4  C    0.080807
     5  C   -0.080396
     6  C    0.134226
     7  N   -0.532301
     8  N   -0.265770
     9  O   -0.028786
    10  O    0.037997
    11  H    0.220664
    12  H    0.219967
    13  H    0.190898
    14  H    0.192518
    15  H    0.356660
    16  H    0.356381
    17  H    0.398288
 Sum of Mulliken charges =   1.00000
 Mulliken charges with hydrogens summed into heavy atoms:
               1
     1  C    0.310937
     2  C   -0.674644
     3  C    0.523184
     4  C    0.271705
     5  C   -0.080396
     6  C    0.326744
     7  N    0.180741
     8  N   -0.265770
     9  O    0.369502
    10  O    0.037997
 Electronic spatial extent (au):  <R**2>=           1549.0658
 Charge=              1.0000 electrons
 Dipole moment (field-independent basis, Debye):
    X=             -3.6279    Y=             -1.1097    Z=              0.0001  Tot=              3.7938
 Quadrupole moment (field-independent basis, Debye-Ang):
   XX=             -7.5049   YY=            -44.1004   ZZ=            -58.3482
   XY=             -4.7293   XZ=             -0.0001   YZ=             -0.0001
 Traceless Quadrupole moment (field-independent basis, Debye-Ang):
   XX=             29.1463   YY=             -7.4492   ZZ=            -21.6970
   XY=             -4.7293   XZ=             -0.0001   YZ=             -0.0001
 Octapole moment (field-independent basis, Debye-Ang**2):
  XXX=            -42.7279  YYY=             -1.0082  ZZZ=              0.0004  XYY=            -13.0858
  XXY=            -21.6424  XXZ=              0.0057  XZZ=             11.1104  YZZ=              0.3133
  YYZ=              0.0005  XYZ=             -0.0011
 Hexadecapole moment (field-independent basis, Debye-Ang**3):
 XXXX=           -657.6682 YYYY=           -331.1045 ZZZZ=            -57.3752 XXXY=            -80.8919
 XXXZ=              0.0084 YYYX=             -3.4312 YYYZ=              0.0001 ZZZX=              0.0060
 ZZZY=             -0.0003 XXYY=           -242.2106 XXZZ=           -262.6467 YYZZ=            -80.7707
 XXYZ=             -0.0034 YYXZ=              0.0019 ZZXY=              0.4185
 N-N= 5.089330766447D+02 E-N=-2.152216818574D+03  KE= 4.878479241588D+02
 Calling FoFJK, ICntrl=      2127 FMM=F ISym2X=0 I1Cent= 0 IOpClX= 0 NMat=1 NMatS=1 NMatT=0.
 ***** Axes restored to original set *****
 -------------------------------------------------------------------
 Center     Atomic                   Forces (Hartrees/Bohr)
 Number     Number              X              Y              Z
 -------------------------------------------------------------------
      1        6          -0.000138129   -0.000295388   -0.000004520
      2        6           0.000077329   -0.000014080   -0.000006065
      3        6          -0.000103013    0.000278601   -0.000003837
      4        6           0.000196895    0.000190499    0.000000373
      5        6           0.000094370   -0.000012583   -0.000000302
      6        6           0.000202279   -0.000180351    0.000000272
      7        7           0.000535223    0.000008933   -0.000000090
      8        7          -0.000440120    0.000279998    0.000039251
      9        8          -0.000241873    0.000135407   -0.000010593
     10        8          -0.000520552   -0.000422297   -0.000014830
     11        1          -0.000041038   -0.000308608    0.000000140
     12        1          -0.000030197    0.000328881   -0.000000170
     13        1           0.000057229    0.000300090    0.000000709
     14        1           0.000065805   -0.000301003    0.000000857
     15        1           0.000265776   -0.000067395    0.000000005
     16        1           0.000265227    0.000071898    0.000000019
     17        1          -0.000245212    0.000007397   -0.000001220
 -------------------------------------------------------------------
 Cartesian Forces:  Max     0.000535223 RMS     0.000200499

 GradGradGradGradGradGradGradGradGradGradGradGradGradGradGradGradGradGrad
 Berny optimization.
 FormGI is forming the generalized inverse of G from B-inverse, IUseBI=4.
 GSVD:  received Info=                   1 from GESDD.
 Internal  Forces:  Max     0.001446913 RMS     0.000352237
 Search for a local minimum.
 Step number   1 out of a maximum of   86
 All quantities printed in internal units (Hartrees-Bohrs-Radians)
 Mixed Optimization -- En-DIIS/RFO-DIIS
 Second derivative matrix not updated -- first step.
 ITU=  0
     Eigenvalues ---    0.01727   0.01822   0.01848   0.01947   0.02012
     Eigenvalues ---    0.02055   0.02061   0.02152   0.02152   0.02156
     Eigenvalues ---    0.02278   0.02295   0.02574   0.02574   0.16000
     Eigenvalues ---    0.16000   0.16000   0.16000   0.16000   0.16000
     Eigenvalues ---    0.16000   0.22000   0.22950   0.24000   0.25000
     Eigenvalues ---    0.25000   0.25000   0.25000   0.35324   0.35328
     Eigenvalues ---    0.35441   0.35585   0.38330   0.39823   0.41618
     Eigenvalues ---    0.41716   0.45926   0.45931   0.49063   0.51697
     Eigenvalues ---    0.51913   0.52055   0.52912   0.58737   0.99125
 RFO step:  Lambda=-2.22640185D-05 EMin= 1.72716356D-02
 Linear search not attempted -- first point.
 Iteration  1 RMS(Cart)=  0.00262540 RMS(Int)=  0.00000080
 Iteration  2 RMS(Cart)=  0.00000110 RMS(Int)=  0.00000008
 Iteration  3 RMS(Cart)=  0.00000000 RMS(Int)=  0.00000008
 Variable       Old X    -DE/DX   Delta X   Delta X   Delta X     New X
                                 (Linear)    (Quad)   (Total)
    R1        2.68821  -0.00085   0.00000  -0.00204  -0.00204   2.68618
    R2        2.57735  -0.00084   0.00000  -0.00160  -0.00160   2.57575
    R3        2.04966  -0.00029   0.00000  -0.00081  -0.00081   2.04884
    R4        2.68755  -0.00088   0.00000  -0.00212  -0.00212   2.68543
    R5        2.57982  -0.00145   0.00000  -0.00279  -0.00279   2.57704
    R6        2.57967  -0.00085   0.00000  -0.00163  -0.00163   2.57804
    R7        2.04736  -0.00030   0.00000  -0.00083  -0.00083   2.04652
    R8        2.70202  -0.00072   0.00000  -0.00173  -0.00173   2.70029
    R9        2.05145  -0.00029   0.00000  -0.00082  -0.00082   2.05063
   R10        2.70289  -0.00070   0.00000  -0.00169  -0.00169   2.70119
   R11        2.51954  -0.00107   0.00000  -0.00182  -0.00182   2.51772
   R12        2.05152  -0.00029   0.00000  -0.00082  -0.00082   2.05069
   R13        1.90915  -0.00020   0.00000  -0.00043  -0.00043   1.90872
   R14        1.90909  -0.00020   0.00000  -0.00043  -0.00043   1.90866
   R15        2.57036  -0.00035   0.00000  -0.00066  -0.00066   2.56970
   R16        2.28991  -0.00064   0.00000  -0.00065  -0.00065   2.28926
   R17        1.84891  -0.00024   0.00000  -0.00046  -0.00046   1.84845
    A1        2.08409  -0.00020   0.00000  -0.00084  -0.00084   2.08325
    A2        2.08642  -0.00003   0.00000  -0.00035  -0.00035   2.08607
    A3        2.11267   0.00022   0.00000   0.00119   0.00119   2.11386
    A4        2.11336   0.00044   0.00000   0.00175   0.00175   2.11511
    A5        2.05350  -0.00011   0.00000  -0.00043  -0.00043   2.05307
    A6        2.11633  -0.00033   0.00000  -0.00132  -0.00132   2.11501
    A7        2.07993  -0.00018   0.00000  -0.00077  -0.00077   2.07915
    A8        2.10149  -0.00006   0.00000  -0.00053  -0.00053   2.10096
    A9        2.10177   0.00023   0.00000   0.00130   0.00130   2.10307
   A10        2.10455  -0.00020   0.00000  -0.00081  -0.00081   2.10374
   A11        2.09259   0.00020   0.00000   0.00103   0.00103   2.09362
   A12        2.08605  -0.00000   0.00000  -0.00022  -0.00022   2.08582
   A13        2.08340   0.00033   0.00000   0.00146   0.00146   2.08486
   A14        2.10027  -0.00016   0.00000  -0.00072  -0.00072   2.09955
   A15        2.09951  -0.00017   0.00000  -0.00074  -0.00074   2.09877
   A16        2.10104  -0.00020   0.00000  -0.00077  -0.00077   2.10026
   A17        2.09468   0.00020   0.00000   0.00101   0.00101   2.09569
   A18        2.08747  -0.00000   0.00000  -0.00024  -0.00024   2.08723
   A19        2.12124  -0.00012   0.00000  -0.00075  -0.00075   2.12048
   A20        2.12196  -0.00012   0.00000  -0.00076  -0.00076   2.12121
   A21        2.03999   0.00024   0.00000   0.00151   0.00151   2.04150
   A22        2.00531  -0.00041   0.00000  -0.00163  -0.00163   2.00368
   A23        2.21180  -0.00002   0.00000  -0.00008  -0.00008   2.21172
   A24        2.06608   0.00043   0.00000   0.00171   0.00171   2.06779
   A25        1.81977  -0.00011   0.00000  -0.00071  -0.00071   1.81906
    D1       -0.00003   0.00000   0.00000   0.00008   0.00008   0.00005
    D2        3.14159   0.00000   0.00000   0.00001   0.00001  -3.14158
    D3        3.14158   0.00000   0.00000   0.00003   0.00003  -3.14157
    D4        0.00001  -0.00000   0.00000  -0.00003  -0.00003  -0.00002
    D5        0.00001  -0.00000   0.00000  -0.00004  -0.00004  -0.00002
    D6       -3.14158  -0.00000   0.00000  -0.00005  -0.00005   3.14156
    D7        3.14159   0.00000   0.00000   0.00001   0.00001  -3.14159
    D8        0.00000  -0.00000   0.00000  -0.00000  -0.00000  -0.00000
    D9        0.00003  -0.00000   0.00000  -0.00008  -0.00008  -0.00005
   D10       -3.14158  -0.00000   0.00000  -0.00004  -0.00004   3.14157
   D11       -3.14159  -0.00000   0.00000  -0.00001  -0.00001   3.14159
   D12       -0.00001   0.00000   0.00000   0.00003   0.00003   0.00002
   D13        3.14143   0.00001   0.00000   0.00051   0.00051  -3.14125
   D14        0.00014  -0.00001   0.00000  -0.00045  -0.00045  -0.00030
   D15       -0.00014   0.00001   0.00000   0.00045   0.00045   0.00030
   D16       -3.14143  -0.00001   0.00000  -0.00051  -0.00051   3.14125
   D17       -0.00001   0.00000   0.00000   0.00003   0.00003   0.00002
   D18        3.14158   0.00000   0.00000   0.00004   0.00004  -3.14157
   D19       -3.14159  -0.00000   0.00000  -0.00000  -0.00000   3.14159
   D20       -0.00000   0.00000   0.00000   0.00001   0.00001   0.00000
   D21       -0.00000   0.00000   0.00000   0.00001   0.00001   0.00000
   D22        3.14159   0.00000   0.00000   0.00001   0.00001  -3.14159
   D23        3.14159  -0.00000   0.00000  -0.00000  -0.00000   3.14159
   D24        0.00000  -0.00000   0.00000  -0.00000  -0.00000  -0.00000
   D25        0.00000  -0.00000   0.00000  -0.00001  -0.00001  -0.00000
   D26        3.14159   0.00000   0.00000   0.00001   0.00001  -3.14159
   D27       -3.14159  -0.00000   0.00000  -0.00000  -0.00000   3.14159
   D28       -0.00000   0.00000   0.00000   0.00001   0.00001   0.00000
   D29        3.14159  -0.00000   0.00000   0.00000   0.00000  -3.14159
   D30       -0.00000   0.00000   0.00000   0.00000   0.00000  -0.00000
   D31        0.00000  -0.00000   0.00000  -0.00000  -0.00000   0.00000
   D32        3.14159   0.00000   0.00000  -0.00000  -0.00000   3.14159
   D33       -3.14143  -0.00001   0.00000  -0.00050  -0.00050   3.14125
   D34       -0.00012   0.00001   0.00000   0.00038   0.00038   0.00026
         Item               Value     Threshold  Converged?
 Maximum Force            0.001447     0.000450     NO 
 RMS     Force            0.000352     0.000300     NO 
 Maximum Displacement     0.010128     0.001800     NO 
 RMS     Displacement     0.002625     0.001200     NO 
 Predicted change in Energy=-1.113202D-05
 GradGradGradGradGradGradGradGradGradGradGradGradGradGradGradGradGradGrad

                          Input orientation:                          
 ---------------------------------------------------------------------
 Center     Atomic      Atomic             Coordinates (Angstroms)
 Number     Number       Type             X           Y           Z
 ---------------------------------------------------------------------
      1          6           0       -0.057553    1.260578    0.000076
      2          6           0        0.665866    0.036968    0.000157
      3          6           0       -0.006118   -1.215181    0.000114
      4          6           0       -1.370189   -1.236748    0.000053
      5          6           0       -2.115554   -0.017616    0.000005
      6          6           0       -1.420265    1.231298    0.000016
      7          7           0       -3.447609   -0.044253   -0.000050
      8          7           0        2.027755    0.107393    0.000225
      9          8           0        2.661178   -1.095895   -0.000128
     10          8           0        2.700994    1.114519   -0.000071
     11          1           0        0.482655    2.200613    0.000091
     12          1           0        0.558170   -2.139524    0.000151
     13          1           0       -1.897103   -2.185381    0.000045
     14          1           0       -1.984117    2.158490   -0.000016
     15          1           0       -3.992392    0.806286   -0.000084
     16          1           0       -3.958572   -0.915492   -0.000059
     17          1           0        3.612154   -0.866911   -0.000345
 ---------------------------------------------------------------------
                    Distance matrix (angstroms):
                    1          2          3          4          5
     1  C    0.000000
     2  C    1.421463   0.000000
     3  C    2.476293   1.421070   0.000000
     4  C    2.821285   2.401639   1.364241   0.000000
     5  C    2.422633   2.781956   2.425671   1.428934   0.000000
     6  C    1.363027   2.403824   2.825787   2.468554   1.429410
     7  N    3.632501   4.114277   3.635234   2.395354   1.332321
     8  N    2.382928   1.363709   2.426076   3.654140   4.145194
     9  O    3.597841   2.294482   2.669963   4.033827   4.896923
    10  O    2.762411   2.302794   3.571548   4.701381   4.947814
    11  H    1.084201   2.171389   3.450587   3.904931   3.416319
    12  H    3.455402   2.179154   1.082973   2.129218   3.413399
    13  H    3.906223   3.392292   2.125350   1.085146   2.178743
    14  H    2.125534   3.394594   3.910772   3.450297   2.180072
    15  H    3.960977   4.721358   4.469531   3.324145   2.049716
    16  H    4.466903   4.721504   3.963799   2.608243   2.050096
    17  H    4.241811   3.081819   3.634995   4.996050   5.790332
                    6          7          8          9         10
     6  C    0.000000
     7  N    2.395235   0.000000
     8  N    3.626569   5.477463   0.000000
     9  O    4.698298   6.198647   1.359826   0.000000
    10  O    4.122913   6.256842   1.211426   2.210772   0.000000
    11  H    2.135574   4.526190   2.601712   3.951320   2.469945
    12  H    3.908535   4.520666   2.684831   2.347723   3.896214
    13  H    3.449793   2.643576   4.545473   4.686674   5.659668
    14  H    1.085179   2.644596   4.505787   5.671842   4.800015
    15  H    2.607004   1.010052   6.060579   6.920136   6.700479
    16  H    3.324411   1.010020   6.073088   6.622208   6.962094
    17  H    5.452314   7.107532   1.859997   0.978156   2.180889
                   11         12         13         14         15
    11  H    0.000000
    12  H    4.340794   0.000000
    13  H    4.990009   2.455702   0.000000
    14  H    2.467131   4.993611   4.344742   0.000000
    15  H    4.687237   5.420831   3.652438   2.421079   0.000000
    16  H    5.425367   4.679659   2.421213   3.653469   1.722110
    17  H    4.382177   3.308529   5.664828   6.361706   7.786444
                   16         17
    16  H    0.000000
    17  H    7.570882   0.000000
 Stoichiometry    C6H7N2O2(1+)
 Framework group  C1[X(C6H7N2O2)]
 Deg. of freedom    45
 Full point group                 C1      NOp   1
 Largest Abelian subgroup         C1      NOp   1
 Largest concise Abelian subgroup C1      NOp   1
                         Standard orientation:                         
 ---------------------------------------------------------------------
 Center     Atomic      Atomic             Coordinates (Angstroms)
 Number     Number       Type             X           Y           Z
 ---------------------------------------------------------------------
      1          6           0       -0.056935    1.260512    0.000049
      2          6           0        0.666465    0.036891    0.000130
      3          6           0       -0.005539   -1.215247    0.000087
      4          6           0       -1.369610   -1.236793    0.000026
      5          6           0       -2.114956   -0.017649   -0.000022
      6          6           0       -1.419647    1.231254   -0.000010
      7          7           0       -3.447011   -0.044265   -0.000076
      8          7           0        2.028355    0.107295    0.000198
      9          8           0        2.661759   -1.096003   -0.000154
     10          8           0        2.701610    1.114410   -0.000098
     11          1           0        0.483288    2.200539    0.000065
     12          1           0        0.558735   -2.139599    0.000125
     13          1           0       -1.896540   -2.185417    0.000018
     14          1           0       -1.983484    2.158455   -0.000043
     15          1           0       -3.991781    0.806283   -0.000111
     16          1           0       -3.957988   -0.915495   -0.000085
     17          1           0        3.612739   -0.867035   -0.000372
 ---------------------------------------------------------------------
 Rotational constants (GHZ):      3.7754622      0.8249757      0.6770366
 Standard basis: 6-31+G(d,p) (6D, 7F)
 There are   225 symmetry adapted cartesian basis functions of A   symmetry.
 There are   225 symmetry adapted basis functions of A   symmetry.
   225 basis functions,   369 primitive gaussians,   225 cartesian basis functions
    36 alpha electrons       36 beta electrons
       nuclear repulsion energy       509.3604954025 Hartrees.
 NAtoms=   17 NActive=   17 NUniq=   17 SFac= 1.00D+00 NAtFMM=   60 NAOKFM=F Big=F
 Integral buffers will be    131072 words long.
 Raffenetti 2 integral format.
 Two-electron integral symmetry is turned on.
 Nuclear repulsion after empirical dispersion term =      509.3304299279 Hartrees.
 One-electron integrals computed using PRISM.
 NBasis=   225 RedAO= T EigKep=  3.33D-06  NBF=   225
 NBsUse=   225 1.00D-06 EigRej= -1.00D+00 NBFU=   225
 Initial guess from the checkpoint file:  "B3PW91D3BJPNAyang.chk"
 B after Tr=    -0.000000    0.000000    0.000000
         Rot=    1.000000   -0.000001    0.000002    0.000015 Ang=  -0.00 deg.
 Keep R1 ints in memory in canonical form, NReq=329175655.
 Requested convergence on RMS density matrix=1.00D-08 within 128 cycles.
 Requested convergence on MAX density matrix=1.00D-06.
 Requested convergence on             energy=1.00D-06.
 No special actions if energy rises.
 SCF Done:  E(RB3PW91) =  -492.334347055     A.U. after   10 cycles
            NFock= 10  Conv=0.45D-08     -V/T= 2.0091
 Calling FoFJK, ICntrl=      2127 FMM=F ISym2X=0 I1Cent= 0 IOpClX= 0 NMat=1 NMatS=1 NMatT=0.
 ***** Axes restored to original set *****
 -------------------------------------------------------------------
 Center     Atomic                   Forces (Hartrees/Bohr)
 Number     Number              X              Y              Z
 -------------------------------------------------------------------
      1        6          -0.000058029    0.000103603    0.000009105
      2        6           0.000082357    0.000063985    0.000013574
      3        6          -0.000070739   -0.000140451    0.000007814
      4        6          -0.000007233   -0.000123199   -0.000000966
      5        6           0.000028723   -0.000007652    0.000000972
      6        6          -0.000009495    0.000126242   -0.000000759
      7        7          -0.000214077   -0.000003992   -0.000000019
      8        7          -0.000241332    0.000092560   -0.000082387
      9        8           0.000373157    0.000155002    0.000022115
     10        8           0.000123845   -0.000173806    0.000030995
     11        1           0.000042715   -0.000019856   -0.000000237
     12        1           0.000007243    0.000037163    0.000000377
     13        1          -0.000050799    0.000010926   -0.000001408
     14        1          -0.000053806   -0.000015610   -0.000001697
     15        1           0.000006476   -0.000000026   -0.000000011
     16        1           0.000009115   -0.000006577   -0.000000023
     17        1           0.000031880   -0.000098311    0.000002555
 -------------------------------------------------------------------
 Cartesian Forces:  Max     0.000373157 RMS     0.000092061

 GradGradGradGradGradGradGradGradGradGradGradGradGradGradGradGradGradGrad
 Berny optimization.
 Using GEDIIS/GDIIS optimizer.
 FormGI is forming the generalized inverse of G from B-inverse, IUseBI=4.
 Internal  Forces:  Max     0.000414116 RMS     0.000096274
 Search for a local minimum.
 Step number   2 out of a maximum of   86
 All quantities printed in internal units (Hartrees-Bohrs-Radians)
 Mixed Optimization -- En-DIIS/RFO-DIIS
 Swapping is turned off.
 Update second derivatives using D2CorX and points    1    2
 DE= -8.82D-06 DEPred=-1.11D-05 R= 7.93D-01
 TightC=F SS=  1.41D+00  RLast= 7.89D-03 DXNew= 5.0454D-01 2.3664D-02
 Trust test= 7.93D-01 RLast= 7.89D-03 DXMaxT set to 3.00D-01
 ITU=  1  0
     Eigenvalues ---    0.01727   0.01822   0.01847   0.01947   0.02012
     Eigenvalues ---    0.02060   0.02063   0.02152   0.02152   0.02156
     Eigenvalues ---    0.02278   0.02295   0.02574   0.02574   0.15318
     Eigenvalues ---    0.16000   0.16000   0.16000   0.16000   0.16000
     Eigenvalues ---    0.16192   0.22000   0.22916   0.23580   0.24998
     Eigenvalues ---    0.25000   0.25000   0.27419   0.35270   0.35326
     Eigenvalues ---    0.35404   0.35530   0.38288   0.39825   0.41701
     Eigenvalues ---    0.43756   0.45879   0.45928   0.49062   0.51667
     Eigenvalues ---    0.51996   0.52679   0.55669   0.61328   0.98499
 En-DIIS/RFO-DIIS IScMMF=        0 using points:     2    1
 RFO step:  Lambda=-1.09606784D-06.
 DidBck=F Rises=F RFO-DIIS coefs:    0.82739    0.17261
 Iteration  1 RMS(Cart)=  0.00075705 RMS(Int)=  0.00000035
 Iteration  2 RMS(Cart)=  0.00000045 RMS(Int)=  0.00000010
 Variable       Old X    -DE/DX   Delta X   Delta X   Delta X     New X
                                 (Linear)    (Quad)   (Total)
    R1        2.68618   0.00017   0.00035  -0.00010   0.00025   2.68642
    R2        2.57575   0.00014   0.00028  -0.00013   0.00015   2.57589
    R3        2.04884   0.00000   0.00014  -0.00017  -0.00003   2.04882
    R4        2.68543   0.00022   0.00037  -0.00002   0.00034   2.68578
    R5        2.57704   0.00028   0.00048  -0.00016   0.00032   2.57736
    R6        2.57804   0.00015   0.00028  -0.00012   0.00016   2.57821
    R7        2.04652  -0.00003   0.00014  -0.00025  -0.00010   2.04642
    R8        2.70029   0.00011   0.00030  -0.00015   0.00014   2.70044
    R9        2.05063   0.00001   0.00014  -0.00015  -0.00000   2.05063
   R10        2.70119   0.00011   0.00029  -0.00015   0.00015   2.70134
   R11        2.51772   0.00020   0.00031  -0.00012   0.00020   2.51792
   R12        2.05069   0.00001   0.00014  -0.00015  -0.00000   2.05069
   R13        1.90872  -0.00000   0.00007  -0.00010  -0.00002   1.90870
   R14        1.90866  -0.00000   0.00007  -0.00010  -0.00002   1.90864
   R15        2.56970   0.00014   0.00011   0.00008   0.00019   2.56989
   R16        2.28926  -0.00008   0.00011  -0.00021  -0.00009   2.28917
   R17        1.84845   0.00001   0.00008  -0.00009  -0.00001   1.84844
    A1        2.08325   0.00006   0.00015   0.00003   0.00017   2.08342
    A2        2.08607  -0.00008   0.00006  -0.00044  -0.00038   2.08569
    A3        2.11386   0.00002  -0.00021   0.00042   0.00021   2.11407
    A4        2.11511  -0.00011  -0.00030   0.00004  -0.00026   2.11485
    A5        2.05307  -0.00004   0.00007  -0.00023  -0.00015   2.05291
    A6        2.11501   0.00015   0.00023   0.00019   0.00042   2.11543
    A7        2.07915   0.00004   0.00013  -0.00001   0.00012   2.07928
    A8        2.10096  -0.00004   0.00009  -0.00032  -0.00023   2.10073
    A9        2.10307   0.00000  -0.00022   0.00033   0.00010   2.10318
   A10        2.10374   0.00001   0.00014  -0.00015  -0.00001   2.10373
   A11        2.09362   0.00005  -0.00018   0.00049   0.00031   2.09393
   A12        2.08582  -0.00006   0.00004  -0.00034  -0.00030   2.08552
   A13        2.08486  -0.00001  -0.00025   0.00025   0.00000   2.08486
   A14        2.09955   0.00001   0.00012  -0.00012   0.00001   2.09956
   A15        2.09877   0.00000   0.00013  -0.00014  -0.00001   2.09876
   A16        2.10026   0.00001   0.00013  -0.00016  -0.00003   2.10023
   A17        2.09569   0.00005  -0.00017   0.00049   0.00032   2.09601
   A18        2.08723  -0.00006   0.00004  -0.00033  -0.00029   2.08695
   A19        2.12048  -0.00000   0.00013  -0.00019  -0.00006   2.12042
   A20        2.12121  -0.00001   0.00013  -0.00020  -0.00007   2.12114
   A21        2.04150   0.00001  -0.00026   0.00039   0.00013   2.04162
   A22        2.00368   0.00037   0.00028   0.00085   0.00113   2.00482
   A23        2.21172   0.00005   0.00001   0.00014   0.00016   2.21187
   A24        2.06779  -0.00041  -0.00029  -0.00100  -0.00129   2.06650
   A25        1.81906   0.00020   0.00012   0.00086   0.00099   1.82004
    D1        0.00005  -0.00000  -0.00001  -0.00012  -0.00013  -0.00008
    D2       -3.14158  -0.00000  -0.00000  -0.00002  -0.00002   3.14158
    D3       -3.14157  -0.00000  -0.00001  -0.00005  -0.00005   3.14156
    D4       -0.00002   0.00000   0.00001   0.00005   0.00006   0.00003
    D5       -0.00002   0.00000   0.00001   0.00005   0.00006   0.00004
    D6        3.14156   0.00000   0.00001   0.00007   0.00008  -3.14155
    D7       -3.14159  -0.00000  -0.00000  -0.00001  -0.00002   3.14158
    D8       -0.00000   0.00000   0.00000   0.00000   0.00000   0.00000
    D9       -0.00005   0.00000   0.00001   0.00011   0.00013   0.00008
   D10        3.14157   0.00000   0.00001   0.00006   0.00007  -3.14155
   D11        3.14159   0.00000   0.00000   0.00001   0.00001  -3.14159
   D12        0.00002  -0.00000  -0.00000  -0.00004  -0.00005  -0.00003
   D13       -3.14125  -0.00002  -0.00009  -0.00078  -0.00087   3.14107
   D14       -0.00030   0.00002   0.00008   0.00069   0.00076   0.00046
   D15        0.00030  -0.00002  -0.00008  -0.00068  -0.00076  -0.00046
   D16        3.14125   0.00002   0.00009   0.00078   0.00087  -3.14107
   D17        0.00002  -0.00000  -0.00001  -0.00005  -0.00006  -0.00003
   D18       -3.14157  -0.00000  -0.00001  -0.00006  -0.00007   3.14155
   D19        3.14159   0.00000   0.00000   0.00000   0.00000  -3.14159
   D20        0.00000  -0.00000  -0.00000  -0.00001  -0.00001  -0.00001
   D21        0.00000  -0.00000  -0.00000  -0.00001  -0.00001  -0.00001
   D22       -3.14159  -0.00000  -0.00000  -0.00001  -0.00001   3.14159
   D23        3.14159   0.00000   0.00000   0.00000   0.00000  -3.14159
   D24       -0.00000   0.00000   0.00000   0.00000   0.00000   0.00000
   D25       -0.00000   0.00000   0.00000   0.00001   0.00001   0.00001
   D26       -3.14159  -0.00000  -0.00000  -0.00001  -0.00001   3.14159
   D27        3.14159   0.00000   0.00000   0.00001   0.00001  -3.14159
   D28        0.00000  -0.00000  -0.00000  -0.00001  -0.00001  -0.00001
   D29       -3.14159   0.00000  -0.00000   0.00000   0.00000  -3.14159
   D30       -0.00000   0.00000  -0.00000  -0.00000  -0.00000  -0.00000
   D31        0.00000  -0.00000   0.00000   0.00000   0.00000   0.00000
   D32        3.14159  -0.00000   0.00000  -0.00000  -0.00000   3.14159
   D33        3.14125   0.00002   0.00009   0.00076   0.00085  -3.14108
   D34        0.00026  -0.00002  -0.00007  -0.00058  -0.00064  -0.00039
         Item               Value     Threshold  Converged?
 Maximum Force            0.000414     0.000450     YES
 RMS     Force            0.000096     0.000300     YES
 Maximum Displacement     0.003383     0.001800     NO 
 RMS     Displacement     0.000757     0.001200     YES
 Predicted change in Energy=-9.188699D-07
 GradGradGradGradGradGradGradGradGradGradGradGradGradGradGradGradGradGrad

                          Input orientation:                          
 ---------------------------------------------------------------------
 Center     Atomic      Atomic             Coordinates (Angstroms)
 Number     Number       Type             X           Y           Z
 ---------------------------------------------------------------------
      1          6           0       -0.057599    1.260330   -0.000091
      2          6           0        0.665894    0.036611   -0.000224
      3          6           0       -0.006499   -1.215525   -0.000154
      4          6           0       -1.370659   -1.236912   -0.000045
      5          6           0       -2.115893   -0.017610    0.000040
      6          6           0       -1.420394    1.231277    0.000017
      7          7           0       -3.448055   -0.044051    0.000139
      8          7           0        2.027943    0.107261   -0.000342
      9          8           0        2.662969   -1.095298    0.000180
     10          8           0        2.701153    1.114345    0.000100
     11          1           0        0.482956    2.200149   -0.000118
     12          1           0        0.557733   -2.139836   -0.000220
     13          1           0       -1.897993   -2.185309   -0.000028
     14          1           0       -1.984384    2.158383    0.000075
     15          1           0       -3.992655    0.806592    0.000199
     16          1           0       -3.959083   -0.915237    0.000156
     17          1           0        3.613868   -0.866025    0.000496
 ---------------------------------------------------------------------
                    Distance matrix (angstroms):
                    1          2          3          4          5
     1  C    0.000000
     2  C    1.421594   0.000000
     3  C    2.476382   1.421251   0.000000
     4  C    2.821407   2.401959   1.364328   0.000000
     5  C    2.422747   2.782315   2.425807   1.429010   0.000000
     6  C    1.363105   2.404127   2.825940   2.468689   1.429488
     7  N    3.632712   4.114739   3.635472   2.395515   1.332424
     8  N    2.383076   1.363880   2.426667   3.654763   4.145717
     9  O    3.598677   2.295545   2.672174   4.036113   4.898870
    10  O    2.762612   2.302996   3.572068   4.701921   4.948257
    11  H    1.084186   2.171258   3.450564   3.905032   3.416500
    12  H    3.455396   2.179133   1.082918   2.129312   3.413521
    13  H    3.906338   3.392704   2.125613   1.085145   2.178624
    14  H    2.125793   3.394980   3.910918   3.450316   2.179963
    15  H    3.961129   4.721753   4.469720   3.324270   2.049767
    16  H    4.467064   4.721909   3.963975   2.608336   2.050142
    17  H    4.242765   3.083068   3.637198   4.998307   5.792234
                    6          7          8          9         10
     6  C    0.000000
     7  N    2.395384   0.000000
     8  N    3.626905   5.478088   0.000000
     9  O    4.699660   6.200784   1.359929   0.000000
    10  O    4.123205   6.257366   1.211376   2.209974   0.000000
    11  H    2.135757   4.526508   2.601377   3.951256   2.469689
    12  H    3.908631   4.520913   2.685323   2.350122   3.896658
    13  H    3.449806   2.643422   4.546300   4.689402   5.660376
    14  H    1.085177   2.644437   4.506203   5.673123   4.800444
    15  H    2.607083   1.010041   6.061078   6.922031   6.700879
    16  H    3.324524   1.010008   6.073712   6.624499   6.962610
    17  H    5.453666   7.109599   1.860765   0.978150   2.180577
                   11         12         13         14         15
    11  H    0.000000
    12  H    4.340629   0.000000
    13  H    4.990106   2.456147   0.000000
    14  H    2.467693   4.993701   4.344551   0.000000
    15  H    4.687547   5.421022   3.652271   2.420846   0.000000
    16  H    5.425619   4.679880   2.420987   3.653296   1.722156
    17  H    4.382240   3.310975   5.667550   6.362976   7.788250
                   16         17
    16  H    0.000000
    17  H    7.573111   0.000000
 Stoichiometry    C6H7N2O2(1+)
 Framework group  C1[X(C6H7N2O2)]
 Deg. of freedom    45
 Full point group                 C1      NOp   1
 Largest Abelian subgroup         C1      NOp   1
 Largest concise Abelian subgroup C1      NOp   1
                         Standard orientation:                         
 ---------------------------------------------------------------------
 Center     Atomic      Atomic             Coordinates (Angstroms)
 Number     Number       Type             X           Y           Z
 ---------------------------------------------------------------------
      1          6           0       -0.057076    1.260294   -0.000072
      2          6           0        0.666418    0.036576   -0.000206
      3          6           0       -0.005973   -1.215560   -0.000135
      4          6           0       -1.370133   -1.236949   -0.000026
      5          6           0       -2.115369   -0.017648    0.000058
      6          6           0       -1.419871    1.231240    0.000036
      7          7           0       -3.447530   -0.044090    0.000158
      8          7           0        2.028467    0.107228   -0.000324
      9          8           0        2.663494   -1.095331    0.000199
     10          8           0        2.701676    1.114313    0.000118
     11          1           0        0.483478    2.200114   -0.000099
     12          1           0        0.558260   -2.139871   -0.000201
     13          1           0       -1.897466   -2.185347   -0.000009
     14          1           0       -1.983862    2.158345    0.000094
     15          1           0       -3.992132    0.806552    0.000218
     16          1           0       -3.958558   -0.915276    0.000175
     17          1           0        3.614394   -0.866056    0.000515
 ---------------------------------------------------------------------
 Rotational constants (GHZ):      3.7761424      0.8245998      0.6768052
 Standard basis: 6-31+G(d,p) (6D, 7F)
 There are   225 symmetry adapted cartesian basis functions of A   symmetry.
 There are   225 symmetry adapted basis functions of A   symmetry.
   225 basis functions,   369 primitive gaussians,   225 cartesian basis functions
    36 alpha electrons       36 beta electrons
       nuclear repulsion energy       509.3076182348 Hartrees.
 NAtoms=   17 NActive=   17 NUniq=   17 SFac= 1.00D+00 NAtFMM=   60 NAOKFM=F Big=F
 Integral buffers will be    131072 words long.
 Raffenetti 2 integral format.
 Two-electron integral symmetry is turned on.
 Nuclear repulsion after empirical dispersion term =      509.2775559431 Hartrees.
 One-electron integrals computed using PRISM.
 NBasis=   225 RedAO= T EigKep=  3.33D-06  NBF=   225
 NBsUse=   225 1.00D-06 EigRej= -1.00D+00 NBFU=   225
 Initial guess from the checkpoint file:  "B3PW91D3BJPNAyang.chk"
 B after Tr=    -0.000000   -0.000000   -0.000000
         Rot=    1.000000    0.000002   -0.000004   -0.000021 Ang=   0.00 deg.
 Keep R1 ints in memory in canonical form, NReq=329175655.
 Requested convergence on RMS density matrix=1.00D-08 within 128 cycles.
 Requested convergence on MAX density matrix=1.00D-06.
 Requested convergence on             energy=1.00D-06.
 No special actions if energy rises.
 SCF Done:  E(RB3PW91) =  -492.334347736     A.U. after    9 cycles
            NFock=  9  Conv=0.77D-08     -V/T= 2.0091
 Calling FoFJK, ICntrl=      2127 FMM=F ISym2X=0 I1Cent= 0 IOpClX= 0 NMat=1 NMatS=1 NMatT=0.
 ***** Axes restored to original set *****
 -------------------------------------------------------------------
 Center     Atomic                   Forces (Hartrees/Bohr)
 Number     Number              X              Y              Z
 -------------------------------------------------------------------
      1        6          -0.000032758    0.000047685   -0.000013656
      2        6           0.000053451   -0.000034106   -0.000020405
      3        6          -0.000012382   -0.000027129   -0.000011724
      4        6           0.000025134   -0.000035303    0.000001481
      5        6           0.000017220   -0.000003336   -0.000001557
      6        6           0.000022504    0.000035859    0.000001165
      7        7          -0.000073541   -0.000004054   -0.000000004
      8        7           0.000116885   -0.000004063    0.000124429
      9        8          -0.000088985   -0.000095367   -0.000033499
     10        8          -0.000007576    0.000081921   -0.000046825
     11        1           0.000019242    0.000010569    0.000000335
     12        1           0.000033346   -0.000015258   -0.000000588
     13        1          -0.000013325   -0.000009560    0.000002103
     14        1          -0.000017818    0.000005887    0.000002541
     15        1          -0.000005272    0.000002734    0.000000036
     16        1          -0.000003551   -0.000009941    0.000000061
     17        1          -0.000032574    0.000053461   -0.000003893
 -------------------------------------------------------------------
 Cartesian Forces:  Max     0.000124429 RMS     0.000039903

 GradGradGradGradGradGradGradGradGradGradGradGradGradGradGradGradGradGrad
 Berny optimization.
 Using GEDIIS/GDIIS optimizer.
 FormGI is forming the generalized inverse of G from B-inverse, IUseBI=4.
 GSVD:  received Info=                   1 from GESDD.
 Internal  Forces:  Max     0.000119023 RMS     0.000031227
 Search for a local minimum.
 Step number   3 out of a maximum of   86
 All quantities printed in internal units (Hartrees-Bohrs-Radians)
 Mixed Optimization -- En-DIIS/RFO-DIIS
 Swapping is turned off.
 Update second derivatives using D2CorX and points    1    2    3
 DE= -6.81D-07 DEPred=-9.19D-07 R= 7.42D-01
 Trust test= 7.42D-01 RLast= 3.04D-03 DXMaxT set to 3.00D-01
 ITU=  0  1  0
     Eigenvalues ---    0.01727   0.01822   0.01847   0.01948   0.02012
     Eigenvalues ---    0.02060   0.02152   0.02152   0.02156   0.02278
     Eigenvalues ---    0.02294   0.02347   0.02574   0.02574   0.14429
     Eigenvalues ---    0.16000   0.16000   0.16000   0.16000   0.16009
     Eigenvalues ---    0.16958   0.22001   0.22918   0.23861   0.24966
     Eigenvalues ---    0.25000   0.25000   0.34361   0.35313   0.35327
     Eigenvalues ---    0.35448   0.35957   0.38697   0.39883   0.41812
     Eigenvalues ---    0.42250   0.45898   0.45929   0.49061   0.51631
     Eigenvalues ---    0.52088   0.52692   0.56262   0.59219   0.99309
 En-DIIS/RFO-DIIS IScMMF=        0 using points:     3    2    1
 RFO step:  Lambda=-1.34061203D-07.
 DidBck=T Rises=F RFO-DIIS coefs:    0.65896    0.27440    0.06664
 Iteration  1 RMS(Cart)=  0.00034780 RMS(Int)=  0.00000016
 Iteration  2 RMS(Cart)=  0.00000021 RMS(Int)=  0.00000008
 Variable       Old X    -DE/DX   Delta X   Delta X   Delta X     New X
                                 (Linear)    (Quad)   (Total)
    R1        2.68642   0.00006   0.00005   0.00008   0.00013   2.68656
    R2        2.57589   0.00002   0.00006  -0.00000   0.00005   2.57595
    R3        2.04882   0.00002   0.00006  -0.00003   0.00004   2.04885
    R4        2.68578   0.00004   0.00002   0.00008   0.00010   2.68588
    R5        2.57736  -0.00001   0.00008  -0.00004   0.00003   2.57739
    R6        2.57821   0.00002   0.00005   0.00000   0.00006   2.57826
    R7        2.04642   0.00003   0.00009  -0.00004   0.00005   2.04647
    R8        2.70044   0.00006   0.00007   0.00005   0.00012   2.70055
    R9        2.05063   0.00001   0.00006  -0.00002   0.00003   2.05066
   R10        2.70134   0.00006   0.00006   0.00006   0.00012   2.70146
   R11        2.51792   0.00008   0.00005   0.00007   0.00012   2.51804
   R12        2.05069   0.00001   0.00006  -0.00003   0.00003   2.05072
   R13        1.90870   0.00001   0.00004  -0.00003   0.00001   1.90871
   R14        1.90864   0.00001   0.00004  -0.00003   0.00001   1.90865
   R15        2.56989  -0.00001  -0.00002   0.00003   0.00000   2.56990
   R16        2.28917   0.00006   0.00008  -0.00004   0.00004   2.28920
   R17        1.84844  -0.00002   0.00003  -0.00006  -0.00003   1.84841
    A1        2.08342  -0.00001  -0.00000   0.00000  -0.00000   2.08342
    A2        2.08569  -0.00001   0.00015  -0.00024  -0.00008   2.08560
    A3        2.11407   0.00002  -0.00015   0.00024   0.00009   2.11416
    A4        2.11485   0.00001  -0.00003   0.00002  -0.00000   2.11484
    A5        2.05291   0.00002   0.00008  -0.00003   0.00005   2.05296
    A6        2.11543  -0.00004  -0.00005   0.00001  -0.00005   2.11538
    A7        2.07928  -0.00000   0.00001  -0.00000   0.00000   2.07928
    A8        2.10073  -0.00002   0.00011  -0.00021  -0.00009   2.10064
    A9        2.10318   0.00002  -0.00012   0.00021   0.00009   2.10327
   A10        2.10373  -0.00000   0.00006  -0.00005   0.00000   2.10373
   A11        2.09393   0.00001  -0.00017   0.00024   0.00007   2.09400
   A12        2.08552  -0.00001   0.00012  -0.00019  -0.00007   2.08545
   A13        2.08486   0.00000  -0.00010   0.00009  -0.00000   2.08486
   A14        2.09956  -0.00000   0.00005  -0.00004   0.00000   2.09957
   A15        2.09876   0.00000   0.00005  -0.00005   0.00000   2.09876
   A16        2.10023  -0.00000   0.00006  -0.00006   0.00000   2.10024
   A17        2.09601   0.00001  -0.00018   0.00024   0.00007   2.09607
   A18        2.08695  -0.00001   0.00011  -0.00018  -0.00007   2.08688
   A19        2.12042   0.00000   0.00007  -0.00007  -0.00000   2.12042
   A20        2.12114   0.00000   0.00007  -0.00008  -0.00000   2.12114
   A21        2.04162  -0.00000  -0.00014   0.00015   0.00000   2.04162
   A22        2.00482  -0.00012  -0.00028   0.00009  -0.00019   2.00462
   A23        2.21187   0.00000  -0.00005   0.00007   0.00003   2.21190
   A24        2.06650   0.00012   0.00033  -0.00016   0.00017   2.06666
   A25        1.82004  -0.00010  -0.00029  -0.00004  -0.00033   1.81972
    D1       -0.00008   0.00000   0.00004   0.00011   0.00015   0.00007
    D2        3.14158   0.00000   0.00001   0.00002   0.00002  -3.14158
    D3        3.14156   0.00000   0.00002   0.00005   0.00006  -3.14156
    D4        0.00003  -0.00000  -0.00002  -0.00005  -0.00006  -0.00003
    D5        0.00004  -0.00000  -0.00002  -0.00005  -0.00007  -0.00003
    D6       -3.14155  -0.00000  -0.00002  -0.00007  -0.00009   3.14155
    D7        3.14158   0.00000   0.00000   0.00001   0.00002  -3.14158
    D8        0.00000  -0.00000  -0.00000  -0.00000  -0.00000  -0.00000
    D9        0.00008  -0.00000  -0.00004  -0.00011  -0.00014  -0.00007
   D10       -3.14155  -0.00000  -0.00002  -0.00006  -0.00008   3.14156
   D11       -3.14159  -0.00000  -0.00000  -0.00001  -0.00001   3.14159
   D12       -0.00003   0.00000   0.00001   0.00004   0.00005   0.00003
   D13        3.14107   0.00003   0.00026   0.00074   0.00100  -3.14112
   D14        0.00046  -0.00003  -0.00023  -0.00064  -0.00087  -0.00042
   D15       -0.00046   0.00003   0.00023   0.00064   0.00087   0.00042
   D16       -3.14107  -0.00003  -0.00026  -0.00074  -0.00100   3.14112
   D17       -0.00003   0.00000   0.00002   0.00005   0.00006   0.00003
   D18        3.14155   0.00000   0.00002   0.00006   0.00008  -3.14156
   D19       -3.14159  -0.00000  -0.00000  -0.00000  -0.00000   3.14159
   D20       -0.00001   0.00000   0.00000   0.00001   0.00001   0.00001
   D21       -0.00001   0.00000   0.00000   0.00001   0.00001   0.00001
   D22        3.14159   0.00000   0.00000   0.00001   0.00001  -3.14159
   D23       -3.14159  -0.00000  -0.00000  -0.00000  -0.00000   3.14159
   D24        0.00000  -0.00000  -0.00000  -0.00000  -0.00000  -0.00000
   D25        0.00001  -0.00000  -0.00000  -0.00001  -0.00001  -0.00000
   D26        3.14159   0.00000   0.00000   0.00001   0.00001  -3.14159
   D27       -3.14159  -0.00000  -0.00000  -0.00001  -0.00001   3.14159
   D28       -0.00001   0.00000   0.00000   0.00001   0.00001   0.00001
   D29       -3.14159  -0.00000  -0.00000  -0.00000  -0.00000   3.14159
   D30       -0.00000  -0.00000   0.00000   0.00000   0.00000   0.00000
   D31        0.00000   0.00000  -0.00000  -0.00000  -0.00000  -0.00000
   D32        3.14159   0.00000   0.00000   0.00000   0.00000  -3.14159
   D33       -3.14108  -0.00003  -0.00026  -0.00072  -0.00097   3.14113
   D34       -0.00039   0.00003   0.00019   0.00054   0.00074   0.00035
         Item               Value     Threshold  Converged?
 Maximum Force            0.000119     0.000450     YES
 RMS     Force            0.000031     0.000300     YES
 Maximum Displacement     0.001824     0.001800     NO 
 RMS     Displacement     0.000348     0.001200     YES
 Predicted change in Energy=-1.608445D-07
 GradGradGradGradGradGradGradGradGradGradGradGradGradGradGradGradGradGrad

                          Input orientation:                          
 ---------------------------------------------------------------------
 Center     Atomic      Atomic             Coordinates (Angstroms)
 Number     Number       Type             X           Y           Z
 ---------------------------------------------------------------------
      1          6           0       -0.057580    1.260427    0.000101
      2          6           0        0.665972    0.036662    0.000214
      3          6           0       -0.006426   -1.215533    0.000154
      4          6           0       -1.370615   -1.236950    0.000067
      5          6           0       -2.115909   -0.017612   -0.000000
      6          6           0       -1.420403    1.231344    0.000016
      7          7           0       -3.448135   -0.044082   -0.000078
      8          7           0        2.028040    0.107273    0.000308
      9          8           0        2.662799   -1.095430   -0.000174
     10          8           0        2.701315    1.114336   -0.000097
     11          1           0        0.483047    2.200228    0.000122
     12          1           0        0.557922   -2.139805    0.000206
     13          1           0       -1.898001   -2.185337    0.000055
     14          1           0       -1.984485    2.158414   -0.000030
     15          1           0       -3.992756    0.806554   -0.000126
     16          1           0       -3.959147   -0.915285   -0.000091
     17          1           0        3.613661   -0.866060   -0.000469
 ---------------------------------------------------------------------
                    Distance matrix (angstroms):
                    1          2          3          4          5
     1  C    0.000000
     2  C    1.421664   0.000000
     3  C    2.476489   1.421306   0.000000
     4  C    2.821516   2.402035   1.364357   0.000000
     5  C    2.422830   2.782411   2.425888   1.429072   0.000000
     6  C    1.363134   2.404210   2.826047   2.468796   1.429553
     7  N    3.632852   4.114900   3.635610   2.395626   1.332489
     8  N    2.383186   1.363897   2.426699   3.654831   4.145831
     9  O    3.598684   2.295420   2.671926   4.035896   4.898749
    10  O    2.762760   2.303042   3.572135   4.702038   4.948430
    11  H    1.084206   2.171285   3.450653   3.905157   3.416634
    12  H    3.455492   2.179147   1.082944   2.129414   3.413660
    13  H    3.906462   3.392822   2.125694   1.085161   2.178649
    14  H    2.125875   3.395107   3.911040   3.450410   2.179991
    15  H    3.961264   4.721915   4.469861   3.324384   2.049830
    16  H    4.467208   4.722068   3.964107   2.608441   2.050205
    17  H    4.242636   3.082820   3.636917   4.998057   5.792050
                    6          7          8          9         10
     6  C    0.000000
     7  N    2.395498   0.000000
     8  N    3.627023   5.478267   0.000000
     9  O    4.699619   6.200714   1.359932   0.000000
    10  O    4.123379   6.257609   1.211394   2.210102   0.000000
    11  H    2.135851   4.526712   2.601435   3.951288   2.469792
    12  H    3.908762   4.521123   2.685257   2.349729   3.896609
    13  H    3.449900   2.643462   4.546412   4.689221   5.660526
    14  H    1.085194   2.644477   4.506388   5.673160   4.800710
    15  H    2.607191   1.010046   6.061268   6.921991   6.701143
    16  H    3.324641   1.010014   6.073881   6.624396   6.962838
    17  H    5.453523   7.109474   1.860530   0.978136   2.180446
                   11         12         13         14         15
    11  H    0.000000
    12  H    4.340678   0.000000
    13  H    4.990248   2.456346   0.000000
    14  H    2.467886   4.993848   4.344611   0.000000
    15  H    4.687765   5.421227   3.652316   2.420883   0.000000
    16  H    5.425819   4.680103   2.421023   3.653343   1.722167
    17  H    4.382107   3.310584   5.667356   6.362914   7.788146
                   16         17
    16  H    0.000000
    17  H    7.572968   0.000000
 Stoichiometry    C6H7N2O2(1+)
 Framework group  C1[X(C6H7N2O2)]
 Deg. of freedom    45
 Full point group                 C1      NOp   1
 Largest Abelian subgroup         C1      NOp   1
 Largest concise Abelian subgroup C1      NOp   1
                         Standard orientation:                         
 ---------------------------------------------------------------------
 Center     Atomic      Atomic             Coordinates (Angstroms)
 Number     Number       Type             X           Y           Z
 ---------------------------------------------------------------------
      1          6           0       -0.057070    1.260395    0.000068
      2          6           0        0.666483    0.036631    0.000180
      3          6           0       -0.005915   -1.215565    0.000121
      4          6           0       -1.370104   -1.236982    0.000034
      5          6           0       -2.115399   -0.017645   -0.000034
      6          6           0       -1.419893    1.231312   -0.000017
      7          7           0       -3.447625   -0.044115   -0.000111
      8          7           0        2.028551    0.107242    0.000275
      9          8           0        2.663310   -1.095461   -0.000207
     10          8           0        2.701825    1.114305   -0.000130
     11          1           0        0.483557    2.200196    0.000089
     12          1           0        0.558434   -2.139836    0.000173
     13          1           0       -1.897490   -2.185370    0.000022
     14          1           0       -1.983975    2.158381   -0.000063
[...]
 ! D32   D(6,5,7,16)          -180.0            -DE/DX =    0.0                 !
 ! D33   D(2,8,9,17)           179.9735         -DE/DX =    0.0                 !
 ! D34   D(10,8,9,17)            0.0201         -DE/DX =    0.0                 !
 --------------------------------------------------------------------------------
 GradGradGradGradGradGradGradGradGradGradGradGradGradGradGradGradGradGrad

 1\1\ WCSS.PL-BEM-JP\Freq\RB3PW91\6-31+G(d,p)\C6H7N2O2(1+)\C612\19-Dec-
 2024\0\\#N Geom=AllCheck Guess=TCheck SCRF=Check GenChk RB3PW91/6-31+G
 (d,p) Freq\\[No Title]\\1,1\C,-0.0575796747,1.2604273837,0.0001012433\
 C,0.6659720876,0.0366620551,0.000213702\C,-0.0064260457,-1.2155329034,
 0.0001538406\C,-1.3706148501,-1.2369496321,0.0000670733\C,-2.115909325
 ,-0.0176123779,-0.0000003662\C,-1.4204030269,1.2313444419,0.0000162914
 \N,-3.4481354933,-0.0440819408,-0.0000779655\N,2.0280399378,0.10727289
 5,0.0003083292\O,2.6627991268,-1.0954300822,-0.0001739937\O,2.70131512
 8,1.1143359956,-0.0000968325\H,0.4830474482,2.2002277401,0.0001223666\
 H,0.5579224711,-2.1398048445,0.0002063038\H,-1.8980012565,-2.185336904
 8,0.0000551225\H,-1.9844847346,2.1584136299,-0.0000298795\H,-3.9927557
 16,0.8065543165,-0.0001262729\H,-3.9591465345,-0.9152851301,-0.0000907
 691\H,3.6136614579,-0.8660596419,-0.0004691932\\Version=ES64L-G09RevE.
 01\State=1-A\HF=-492.3343478\RMSD=5.519e-09\RMSF=2.054e-05\ZeroPoint=0
 .1331822\Thermal=0.1416258\Dipole=-1.4270355,-0.4369978,-0.0001348\Dip
 oleDeriv=0.8118373,0.0151523,0.0000107,-0.4498402,0.032393,0.0000586,0
 .0000225,-0.0000019,-0.023146,-1.7301881,-0.122462,0.0000588,0.0291313
 ,-0.0936816,0.0000083,0.0001868,-0.0000578,0.0579787,0.8269931,0.07148
 27,0.0000063,0.463412,0.0786103,-0.000091,0.0000117,0.0000498,-0.01082
 96,-0.8205616,0.1032252,-0.0000609,0.7022235,-0.0338341,0.0000473,-0.0
 000995,-0.0000219,-0.1508755,2.2570384,0.0602921,0.0000804,0.0297604,0
 .3880442,-0.0000048,0.0001319,0.0000009,0.2465257,-0.7744817,-0.171515
 7,-0.0000231,-0.7087446,-0.0967155,-0.0000382,-0.0000721,-0.0000183,-0
 .1470652,-2.0387976,-0.0597125,-0.0000422,-0.0343766,-0.1977798,-0.000
 0114,-0.0001181,0.0000096,-0.4617477,3.4628236,0.0583152,-0.0000471,0.
 3167004,1.3740922,0.0002149,-0.0018279,0.0001068,0.2324162,-1.1124056,
 0.4751304,0.0001202,1.0012495,-0.6997415,-0.0000278,0.0007939,-0.00028
 24,-0.2396165,-1.4669465,-0.3192142,-0.0000355,-1.2265319,-0.7380865,-
 0.0001653,0.0009896,0.0002195,-0.150392,0.077723,-0.0167652,-0.0000048
 ,0.0265957,0.1136497,-0.0000005,0.0000096,-0.0000011,0.1469998,0.09036
 37,0.0098673,-0.0000025,-0.0112935,0.1038715,0.0000017,0.0000127,0.000
 005,0.1473236,0.0402229,-0.0331596,-0.0000003,-0.014434,0.0512087,0.00
 00043,0.0000226,-0.0000045,0.1549489,0.0373447,0.033971,-0.0000027,0.0
 121772,0.0552649,0.0000014,0.0000317,0.0000031,0.155715,0.3485082,-0.0
 608275,0.0000034,-0.2191181,0.2004587,-0.0000093,0.0000112,-0.0000058,
 0.3311654,0.3377571,0.0688205,-0.0000011,0.2234871,0.2175702,0.0000182
 ,0.0000071,0.0000055,0.3307168,0.6527689,-0.1126,-0.0000597,-0.1403983
 ,0.2446756,-0.0000062,-0.0001139,-0.0000064,0.3798825\Polar=193.062920
 8,5.2218136,87.1935959,0.0004232,-0.000866,44.0786975\PG=C01 [X(C6H7N2
 O2)]\NImag=0\\0.78525148,0.05637690,0.69856818,0.00004575,-0.00001174,
 0.13430100,-0.12061268,0.07937250,-0.00000382,0.67245007,0.05367127,-0
 .26612532,0.00001407,0.00879549,0.71724647,-0.00001320,0.00001213,-0.0
 5513279,0.00000006,-0.00000773,0.12045594,0.03166332,-0.00492044,0.000
 00352,-0.11699823,-0.04968901,-0.00001088,0.77872660,0.00798220,-0.046
 12770,0.00000392,-0.07399910,-0.27510164,-0.00000429,-0.05518260,0.701
 72153,0.00000273,-0.00000113,0.00437798,-0.00000283,-0.00000594,-0.054
 11573,0.00004647,-0.00000840,0.13484504,-0.02196061,0.01740725,-0.0000
 0245,-0.04426070,-0.04276346,-0.00000107,-0.44187090,0.01420599,-0.000
 02824,0.78656795,0.00716077,-0.00715705,0.00000059,-0.01955623,0.01283
 538,-0.00000455,-0.02951171,-0.12359144,-0.00000155,0.05765763,0.68376
 146,-0.00000142,0.00000098,-0.00028798,-0.00000490,-0.00000367,0.00540
 642,-0.00002442,0.00000415,-0.05389982,0.00004290,-0.00000480,0.120516
 97,-0.03779671,-0.03066722,-0.00000064,0.02354148,0.00043859,-0.000000
 04,-0.04111876,0.02796277,-0.00000091,-0.13771979,0.07845527,-0.000006
 19,0.80093516,-0.05238257,0.02466154,-0.00000545,0.00105088,-0.0290875
 7,-0.00000026,0.05051496,0.02776075,0.00000407,0.03742935,-0.25727385,
 0.00000376,0.00220260,0.66714778,0.00000098,-0.00000392,-0.00122330,0.
 00000356,0.00000043,-0.00745922,-0.00000158,0.00000303,-0.00110236,-0.
 00000688,0.00000805,-0.06728260,0.00003806,-0.00000906,0.16810190,-0.4
 4610131,-0.02558886,-0.00002673,-0.04682336,0.04077419,-0.00000277,-0.
 02102630,-0.01788336,-0.00000288,0.03945556,-0.00015163,0.00000355,-0.
 13269752,-0.03224006,-0.00000540,0.79380903,0.01700037,-0.12344395,0.0
 0000488,0.01733000,0.01610561,0.00000441,-0.00801692,-0.00822725,-0.00
 000115,0.00309489,-0.03420060,0.00000110,-0.07326672,-0.26148539,-0.00
 000077,-0.05471466,0.67888638,-0.00002543,-0.00000046,-0.05293707,-0.0
 0000623,0.00000272,0.00450886,-0.00000126,-0.00000189,-0.00031744,0.00
 000312,0.00000078,0.00456134,-0.00000273,0.00000392,-0.06711772,0.0000
 4368,-0.00001630,0.12032336,0.01677018,-0.00434975,0.00000033,-0.02430
 521,0.00029949,0.00000097,0.01682268,0.00513803,0.00000011,-0.05324840
 ,0.02109797,-0.00000462,-0.44147541,-0.00591312,-0.00002363,-0.0506104
 9,-0.02304569,-0.00000342,0.86878470,0.00359899,-0.00969436,0.00000089
 ,-0.00049004,0.00219183,0.00000025,-0.00276882,-0.00959955,-0.00000028
 ,0.04735968,0.00419989,0.00000354,-0.00588746,-0.14133764,0.00000129,-
 0.04942214,0.00143187,-0.00000324,-0.00006184,0.87532105,-0.00000017,0
 .00000032,0.00372567,-0.00000379,-0.00000044,-0.00069340,0.00000059,0.
 00000039,0.00378547,-0.00000521,0.00000206,0.00965320,-0.00002206,0.00
 000110,-0.04561337,-0.00000300,-0.00000137,0.00965073,0.00004832,-0.00
 001605,0.04486538,-0.06589562,0.03320527,-0.00001139,-0.27320932,-0.01
 126037,-0.00002125,-0.05414237,-0.03194158,-0.00000940,0.02168350,-0.0
 1376657,0.00000188,-0.02644515,-0.00047411,-0.00000414,0.02117871,0.01
 454298,0.00000288,0.02501921,0.00041294,0.00000520,0.86661124,0.030745
 49,0.01290046,0.00000131,0.00697290,-0.12904617,-0.00000017,-0.0371760
 0,0.00880623,-0.00000387,-0.00282143,-0.00961843,-0.00000164,-0.002456
 01,-0.00533715,-0.00000121,0.00601710,-0.00585725,0.00000187,0.0023646
 5,0.00062105,0.00000265,0.15838845,0.75152830,0.00000369,-0.00000306,-
 0.00564515,0.00001774,0.00000140,-0.06272483,0.00000355,0.00000250,-0.
 00996729,-0.00000114,0.00000486,0.00546812,0.00000828,0.00000252,-0.00
 169550,-0.00000233,-0.00000593,0.00517830,-0.00000929,-0.00000080,-0.0
 0024662,-0.00015924,-0.00007845,0.19242167,-0.00063558,-0.00951805,0.0
 0000355,-0.03705321,0.05245668,0.00002276,-0.00219484,0.00351949,0.000
 00149,-0.00220198,0.00200636,-0.00000148,0.00546446,0.00370321,0.00000
 054,-0.00526178,-0.00028583,-0.00000203,-0.00530752,-0.00085443,0.0000
 0030,-0.18677926,0.05777410,0.00003959,0.64157250,-0.00860616,0.005553
 88,-0.00000331,0.03139460,-0.00138233,-0.00001346,-0.00796776,-0.00589
 374,-0.00000074,0.00421331,-0.00239845,0.00000157,-0.00646822,-0.00184
 592,0.00000002,0.00435650,0.00473022,0.00000087,0.00646503,0.00073071,
 -0.00000107,0.00317400,-0.17572977,0.00000242,0.05630313,0.35728415,-0
 .00000272,0.00000450,0.00457802,0.00000032,-0.00000781,0.00861843,-0.0
 0000057,-0.00000376,0.00037839,0.00000020,-0.00000088,-0.00062627,-0.0
 0000342,-0.00000239,0.00004050,0.00000156,0.00000203,0.00018185,0.0000
 0429,0.00000060,0.00008317,0.00004938,-0.00005261,-0.05027236,-0.00018
 531,0.00001705,0.02282929,0.00578210,-0.00760317,-0.00000101,-0.052810
 15,-0.05462011,0.00002410,0.00291905,0.01169377,0.00000591,-0.00752380
 ,0.00235420,-0.00000180,0.00858144,-0.00375665,0.00000148,-0.00378323,
 -0.00399052,-0.00000032,-0.00841199,0.00063651,-0.00000104,-0.29465035
 ,-0.22657705,0.00008736,0.04090517,0.00781172,-0.00000383,0.30859198,0
 .01449223,-0.00927285,0.,-0.05120560,-0.00791662,0.00001517,0.00856798
 ,0.00706576,0.00000518,-0.00584586,0.00611113,-0.00000089,0.00923428,-
 0.00156783,0.00000105,-0.00551641,-0.00341282,-0.00000140,-0.00888288,
 0.00059001,-0.00000117,-0.22204313,-0.45473347,0.00009779,-0.01679857,
 -0.09881258,0.00001211,0.28320693,0.55929219,-0.00000398,0.00000279,-0
 .00096923,0.00000009,0.00000622,0.01484743,-0.00000191,-0.00000267,0.0
 0936452,0.00000176,-0.00000250,-0.00083926,-0.00000502,0.00000004,0.00
 024626,0.00000226,0.00000280,-0.00060741,0.00000527,-0.00000002,0.0000
 7491,0.00011742,0.00013538,-0.07044251,-0.00000715,-0.00001635,0.02060
 750,-0.00010670,-0.00013066,0.03183382,-0.12847193,-0.12766220,-0.0000
 0459,0.01116804,0.01496653,0.00000082,-0.00224696,0.00334742,0.0000001
 4,-0.00060048,0.00037997,-0.00000005,-0.00486439,0.00117980,-0.0000016
 4,-0.00967142,-0.02624321,-0.00000103,-0.00032529,-0.00148572,0.000000
 53,0.00310239,0.00249215,-0.00000140,0.00013114,-0.00087534,0.00000027
 ,-0.00347642,-0.00120726,0.00000115,0.13390410,-0.12690168,-0.28363694
 ,-0.00000429,-0.01234107,-0.01721438,-0.00000103,0.00378151,-0.0021337
 1,0.00000132,0.00012772,0.00056659,-0.00000015,0.00142653,0.00012334,0
 .00000015,0.00275432,0.00669271,0.00000027,0.00036054,0.00052625,0.000
 00055,-0.00332623,-0.00319910,0.00000125,0.00006325,0.00034324,-0.0000
 0003,-0.00000132,0.00312682,-0.00000091,0.13453460,0.29463174,-0.00000
 561,-0.00000333,-0.04011233,0.00000328,0.00000090,0.00367875,-0.000001
 08,0.00000019,0.00323873,-0.00000022,-0.00000019,-0.00122737,-0.000001
 19,0.00000002,0.01053125,-0.00000059,-0.00000207,0.00641932,0.00000020
 ,-0.00000010,-0.00060048,-0.00000127,0.00000008,-0.00230305,0.00000012
 ,-0.00000001,-0.00031697,0.00000033,0.00000044,0.00025480,0.00000571,0
 .00000405,0.02600412,-0.00201182,-0.00344535,-0.00000025,0.01103900,-0
 .01436610,0.00000160,-0.13631529,0.13331848,-0.00000944,-0.01060123,0.
 02591961,-0.00000202,-0.00498088,-0.00134131,-0.00000130,-0.00050575,-
 0.00032963,-0.00000006,-0.00024803,0.00148433,0.00000026,0.00381816,-0
 .00090978,-0.00000204,-0.00558726,-0.00040728,0.00000201,-0.00046394,0
 .00043254,0.00000064,0.00066961,-0.00072070,-0.00000001,0.14453481,-0.
 00385635,-0.00228512,-0.00000055,0.01354380,-0.01659928,0.00000181,0.1
 3210500,-0.27847080,0.00001212,-0.00321315,0.00724827,-0.00000033,-0.0
 0163986,0.00005533,0.00000024,-0.00010707,0.00059059,0.00000009,-0.000
 29395,0.00054210,-0.00000076,0.00302854,-0.00200151,-0.00000152,0.0003
 2532,0.00136343,0.00000028,-0.00051741,0.00018232,0.00000033,0.0007789
 6,-0.00062637,0.00000011,-0.13989275,0.28836571,-0.00000085,0.00000016
 ,0.00339849,0.00000321,0.00000023,0.00292588,-0.00001059,0.00001045,-0
 .03953111,-0.00000061,0.00000204,0.00648148,-0.00000140,0.00000069,0.0
 1039294,-0.00000019,0.00000016,-0.00119528,0.00000033,-0.00000004,-0.0
 0057308,-0.00000178,-0.00000042,-0.00244222,0.00000127,0.,0.00091407,0
 .00000029,0.00000016,0.00004079,-0.00000018,-0.00000014,0.00106727,0.0
 0001024,-0.00001306,0.02545622,-0.00064160,0.00048587,-0.00000017,-0.0
 0442270,0.00190867,-0.00000137,-0.01201751,-0.02840956,-0.00000132,-0.
 12533870,-0.12256909,-0.00000238,0.01020338,0.01682238,0.00000029,-0.0
 0209781,0.00305973,-0.00000024,0.00220616,0.00047532,0.00000021,-0.000
 08510,-0.00198130,0.00000034,-0.00007461,-0.00000559,0.00000005,-0.000
 71314,0.00010049,0.00000008,0.00005197,-0.00008320,0.00000003,0.000968
 97,-0.00018201,0.00000047,0.13171788,0.00092596,-0.00001684,0.00000006
 ,0.00138150,0.00143471,0.00000032,0.00191160,0.00474456,0.00000023,-0.
 12319508,-0.28209624,-0.00000343,-0.01470722,-0.01804904,-0.00000074,0
 .00361500,-0.00224374,0.00000028,-0.00115006,0.00188706,-0.00000012,-0
 .00010554,0.00042676,0.00000033,-0.00003017,-0.00005641,0.00000010,0.0
 0036577,0.00020036,-0.00000030,-0.00006270,0.00001107,0.00000002,0.000
 13231,0.00083421,-0.00000020,0.12991046,0.29406794,-0.00000022,0.00000
 071,-0.00074362,-0.00000214,-0.00000044,0.00832040,-0.00000074,-0.0000
 0284,0.00356347,-0.00000235,-0.00000266,-0.03475843,-0.00000009,0.0000
 0168,0.00307954,-0.00000049,0.00000047,0.00402217,0.00000065,-0.000000
 06,-0.00206530,0.00000126,0.00000021,0.00218009,0.00000032,0.00000021,
 0.00007061,-0.00000065,-0.00000066,-0.00134809,-0.00000007,-0.00000015
 ,-0.00043316,0.00000052,0.00000018,-0.00568537,0.00000412,0.00000329,0
 .02364116,-0.01292293,0.02772714,-0.00000252,-0.00428597,-0.00209433,-
 0.00000136,-0.00059936,-0.00050421,-0.00000007,-0.00182148,-0.00305210
 ,-0.00000015,0.01021861,-0.01559583,0.00000089,-0.13527456,0.12834814,
 -0.00000721,0.00221498,-0.00045888,0.00000021,-0.00012631,0.00166946,0
 .00000037,-0.00084046,-0.00009688,0.00000017,0.00001326,0.00009777,-0.
 00000012,0.00101652,0.00016293,0.00000043,0.00004468,0.00008251,0.0000
 0003,0.00064729,-0.00073269,0.00000005,0.14221751,-0.00253004,0.005799
 87,-0.00000039,-0.00163960,0.00131113,-0.00000023,-0.00092883,-0.00006
 809,-0.00000009,-0.00360083,-0.00246889,0.00000004,0.01581151,-0.01802
 261,0.00000164,0.12892512,-0.27224185,0.00001223,0.00117546,0.00188540
 ,-0.00000006,0.00021586,0.00049831,-0.00000029,-0.00039893,0.00019336,
 0.00000011,-0.00000450,-0.00012341,0.00000012,-0.00012404,0.00080939,0
 .,0.00005908,0.00001361,-0.00000007,0.00078606,-0.00076888,0.00000003,
 -0.13601088,0.28360456,-0.00000050,0.00000170,0.00358635,-0.00000193,0
 .00000096,0.00856084,-0.00000031,-0.00000024,-0.00071876,-0.00000001,-
 0.00000052,0.00402352,-0.00000100,-0.00000068,0.00307543,-0.00000658,0
 .00001159,-0.03498023,0.00000061,-0.00000016,-0.00204281,-0.00000002,-
 0.00000037,0.00185073,-0.00000039,0.00000048,-0.00089090,0.00000025,0.
 00000024,0.00013250,0.00000058,-0.00000037,-0.00574572,-0.00000001,0.0
 0000020,-0.00047662,-0.00000001,-0.00000003,-0.00006010,0.00000933,-0.
 00001291,0.02373525,-0.00049615,0.00003811,-0.00000008,0.00127855,-0.0
 0001325,-0.00000025,-0.00048880,0.00167244,0.00000005,-0.00376409,-0.0
 0349956,-0.00000066,-0.01554695,0.03151880,-0.00000144,0.00212939,0.00
 206833,0.00000036,-0.18161070,0.17337068,-0.00001326,-0.00151562,-0.00
 031780,0.00000117,0.00050636,-0.00056680,-0.00000033,0.00056946,0.0006
 3573,-0.00000052,0.00005797,-0.00006625,-0.00000002,-0.00036896,-0.000
 11720,0.00000002,0.00001114,0.00017129,0.00000002,-0.00051987,-0.00157
 067,-0.00000014,0.18503077,0.00161076,-0.00098907,0.00000018,-0.002379
 48,0.00017301,0.00000033,0.00133204,0.00073608,0.,-0.00347758,0.001945
 35,-0.00000016,0.00169357,0.00802108,-0.00000011,-0.00399445,0.0013408
 7,-0.00000038,0.17207635,-0.35808180,0.00001698,0.00296988,0.00045625,
 -0.00000180,-0.00056661,0.00080347,0.00000053,-0.00116453,-0.00141449,
 0.00000099,-0.00010040,0.00005069,0.,-0.00006737,-0.00003198,0.0000000
 1,-0.00015619,0.00019529,-0.00000002,0.00013032,-0.00066789,0.00000006
 ,-0.18629231,0.36064779,0.00000024,-0.00000013,-0.00064160,0.00000072,
 0.00000056,0.00021228,-0.00000071,-0.00000045,0.00162157,0.00000035,-0
 .00000056,0.00650471,-0.00000098,0.00000179,-0.00220598,0.00000018,0.0
 0000007,-0.00395216,-0.00001342,0.00001728,-0.00993943,-0.00000102,-0.
 00000067,-0.00009277,-0.00000008,0.00000030,0.00011295,0.00000021,0.00
 000019,0.00000544,-0.00000016,-0.00000012,0.00042732,0.00000009,0.0000
 0015,-0.00092638,0.00000002,0.00000008,-0.00046058,-0.00000011,-0.0000
 0002,0.00067376,0.00001386,-0.00001778,0.01030956,-0.00037623,-0.00172
 355,-0.00000012,0.00119224,-0.00000628,-0.00000015,-0.00047491,-0.0000
 2092,0.00000021,0.00203952,-0.00203027,0.00000035,-0.01426116,-0.03246
 046,-0.00000020,-0.00401230,0.00326592,-0.00000070,-0.16831013,-0.1659
 8368,-0.00000575,-0.00142778,-0.00018885,0.00000094,0.00031370,-0.0003
 7746,-0.00000018,0.00070710,0.00080520,-0.00000052,-0.00036290,0.00010
 571,0.00000003,0.00005028,0.00006084,-0.00000006,-0.00045852,0.0015986
 8,-0.00000016,0.00001255,-0.00017859,-0.00000005,0.01490169,0.01812906
 ,0.00000055,0.17062945,-0.00135218,0.00063767,-0.00000014,0.00241634,0
 .00007727,-0.00000040,-0.00159305,-0.00101814,-0.00000011,0.00399022,0
 .00137328,0.00000003,-0.00253519,0.00667075,-0.00000025,0.00323326,0.0
 0219320,0.00000040,-0.16470222,-0.37134020,-0.00000279,-0.00302427,-0.
 00046844,0.00000194,0.00072597,-0.00095574,-0.00000057,0.00107268,0.00
 128308,-0.00000101,0.00006778,-0.00003852,-0.00000003,0.00007953,0.000
 04175,0.00000005,-0.00014948,-0.00059450,0.00000009,0.00015321,0.00019
 727,-0.00000004,-0.01704985,-0.01310740,-0.00000073,0.17894077,0.37497
 837,-0.00000061,0.00000105,0.00156894,0.00000103,-0.00000013,0.0003421
 6,0.00000004,-0.00000090,-0.00068032,-0.00000025,-0.00000025,-0.003934
 65,-0.00000103,-0.00000212,-0.00218234,0.00000022,0.00000064,0.0065384
 9,-0.00000586,-0.00000308,-0.00993908,-0.00000088,-0.00000053,-0.00000
 345,0.00000014,0.00000054,-0.00013931,0.00000006,0.00000007,-0.0000019
 2,0.,-0.00000025,-0.00095307,-0.00000011,0.00000029,0.00041945,-0.0000
 0008,0.00000014,0.00067799,0.00000004,-0.00000016,-0.00045471,0.000001
 27,0.00000121,-0.00159188,0.00000585,0.00000352,0.01026074,-0.00154392
 ,0.00086554,0.00000062,0.00411214,0.00150199,0.00000205,-0.00063742,-0
 .00089927,-0.00000202,0.00116564,-0.00089462,0.00000142,-0.00203781,-0
 .00025786,0.00000042,0.00129314,0.00118283,0.00000061,0.00203526,0.000
 07458,-0.00000133,-0.03713631,0.00600391,0.00001243,-0.44295682,-0.088
 34679,0.00013813,0.00376345,-0.00607344,-0.00000276,-0.00008192,0.0001
 2335,-0.00000013,-0.00004235,-0.00010521,-0.00000021,0.00004289,-0.000
 02910,-0.00000003,0.00000556,0.00001380,0.00000020,-0.00017417,0.00025
 695,0.00000025,-0.00016260,-0.00027351,0.00000017,0.47235525,0.0020640
 3,0.00062760,-0.00000005,-0.00064688,-0.00890209,-0.00000230,-0.000457
 97,-0.00060283,0.00000035,-0.00056868,0.00076360,-0.00000008,0.0004027
 7,-0.00043357,0.00000015,-0.00005684,-0.00085858,0.00000023,-0.0005780
 1,0.00012632,-0.00000022,0.07000388,0.01075395,-0.00002315,-0.14842493
 ,-0.08392752,0.00003075,-0.00890628,-0.00059760,0.00000574,0.00001366,
 -0.00003282,-0.00000010,0.00005439,0.00077775,-0.00000003,-0.00001255,
 0.00002369,-0.00000002,0.00017433,0.00004872,0.00000008,0.00001831,-0.
 00007724,0.00000003,0.00006390,0.00007029,-0.00000004,0.08685686,0.082
 24034,0.00000132,-0.00000058,0.00215663,-0.00000435,-0.00000133,0.0022
 4857,-0.00000011,0.00000082,-0.00084234,0.00000010,0.00000008,0.000240
 63,0.00000037,0.00000038,0.00041457,-0.00000049,-0.00000056,-0.0002771
 0,-0.00000083,-0.00000003,-0.00012498,0.00003237,-0.00000157,-0.001263
 16,0.00012634,0.00001148,-0.00616899,-0.00000463,0.00000238,-0.0031995
 5,-0.00000006,-0.00000015,0.00007060,-0.00000013,0.00000043,-0.0002665
 3,-0.00000005,-0.00000003,-0.00000078,0.00000003,0.00000005,-0.0002685
 4,-0.00000004,-0.00000005,-0.00005681,-0.00000004,0.00000004,0.0000729
 7,-0.00014982,-0.00001136,0.00726482\\0.00002304,-0.00000697,-0.000012
 39,-0.00001200,0.00000829,-0.00001853,0.00001464,0.00000054,-0.0000106
 3,-0.00001802,0.00000273,0.00000135,-0.00000822,0.00000193,-0.00000144
 ,-0.00001642,-0.00000255,0.00000106,0.00000374,0.00000289,0.00000002,-
 0.00001305,-0.00000377,0.00011289,0.00002830,0.00003377,-0.00003038,0.
 00000679,-0.00003209,-0.00004249,-0.00000475,-0.00000390,0.00000030,-0
 .00001166,0.00000420,-0.00000054,0.00000088,0.00000306,0.00000191,0.00
 000530,0.00000009,0.00000231,0.00000084,0.00000065,0.00000003,-0.00000
 081,0.00000614,0.00000005,0.00000140,-0.00001500,-0.00000352\\\@


 THE RARE EARTHS PERPLEX US IN OUR RESEARCHES,
 BAFFLE US IN OUR SPECULATIONS, AND HAUNT US IN OUR
 VERY DREAMS.  THEY STRETCH LIKE AN UNKNOWN BEFORE US,
 MOCKING, MYSTIFYING, AND MURMURING STRANGE REVELATIONS
 AND POSSIBILITIES.  -- SIR WILLIAM CROOKE, 1832-1919
 Job cpu time:       0 days  0 hours 10 minutes 45.5 seconds.
 File lengths (MBytes):  RWF=     93 Int=      0 D2E=      0 Chk=      5 Scr=      1
 Normal termination of Gaussian 09 at Thu Dec 19 11:06:25 2024.
