 Entering Gaussian System, Link 0=g09
 Input=B3PW91D3BJPNA.gjf
 Output=B3PW91D3BJPNA.log
 Initial command:
 /home/c612/g09E/g09/l1.exe "/mnt/ja_sm883/scratch/Gau-1930479.inp" -scrdir="/mnt/ja_sm883/scratch/"
 Default is to use a total of  18 processors:
                               18 via shared-memory
                                1 via Linda
 Entering Link 1 = /home/c612/g09E/g09/l1.exe PID=   1930481.
  
 Copyright (c) 1988,1990,1992,1993,1995,1998,2003,2009,2015,
            Gaussian, Inc.  All Rights Reserved.
  
 This is part of the Gaussian(R) 09 program.  It is based on
 the Gaussian(R) 03 system (copyright 2003, Gaussian, Inc.),
 the Gaussian(R) 98 system (copyright 1998, Gaussian, Inc.),
 the Gaussian(R) 94 system (copyright 1995, Gaussian, Inc.),
 the Gaussian 92(TM) system (copyright 1992, Gaussian, Inc.),
 the Gaussian 90(TM) system (copyright 1990, Gaussian, Inc.),
 the Gaussian 88(TM) system (copyright 1988, Gaussian, Inc.),
 the Gaussian 86(TM) system (copyright 1986, Carnegie Mellon
 University), and the Gaussian 82(TM) system (copyright 1983,
 Carnegie Mellon University). Gaussian is a federally registered
 trademark of Gaussian, Inc.
  
 This software contains proprietary and confidential information,
 including trade secrets, belonging to Gaussian, Inc.
  
 This software is provided under written license and may be
 used, copied, transmitted, or stored only in accord with that
 written license.
  
 The following legend is applicable only to US Government
 contracts under FAR:
  
                    RESTRICTED RIGHTS LEGEND
  
 Use, reproduction and disclosure by the US Government is
 subject to restrictions as set forth in subparagraphs (a)
 and (c) of the Commercial Computer Software - Restricted
 Rights clause in FAR 52.227-19.
  
 Gaussian, Inc.
 340 Quinnipiac St., Bldg. 40, Wallingford CT 06492
  
  
 ---------------------------------------------------------------
 Warning -- This program may not be used in any manner that
 competes with the business of Gaussian, Inc. or will provide
 assistance to any competitor of Gaussian, Inc.  The licensee
 of this program is prohibited from giving any competitor of
 Gaussian, Inc. access to this program.  By using this program,
 the user acknowledges that Gaussian, Inc. is engaged in the
 business of creating and licensing software in the field of
 computational chemistry and represents and warrants to the
 licensee that it is not a competitor of Gaussian, Inc. and that
 it will not use this program in any manner prohibited above.
 ---------------------------------------------------------------
  

 Cite this work as:
 Gaussian 09, Revision E.01,
 M. J. Frisch, G. W. Trucks, H. B. Schlegel, G. E. Scuseria, 
 M. A. Robb, J. R. Cheeseman, G. Scalmani, V. Barone, B. Mennucci, 
 G. A. Petersson, H. Nakatsuji, M. Caricato, X. Li, H. P. Hratchian, 
 A. F. Izmaylov, J. Bloino, G. Zheng, J. L. Sonnenberg, M. Hada, 
 M. Ehara, K. Toyota, R. Fukuda, J. Hasegawa, M. Ishida, T. Nakajima, 
 Y. Honda, O. Kitao, H. Nakai, T. Vreven, J. A. Montgomery, Jr., 
 J. E. Peralta, F. Ogliaro, M. Bearpark, J. J. Heyd, E. Brothers, 
 K. N. Kudin, V. N. Staroverov, T. Keith, R. Kobayashi, J. Normand, 
 K. Raghavachari, A. Rendell, J. C. Burant, S. S. Iyengar, J. Tomasi, 
 M. Cossi, N. Rega, J. M. Millam, M. Klene, J. E. Knox, J. B. Cross, 
 V. Bakken, C. Adamo, J. Jaramillo, R. Gomperts, R. E. Stratmann, 
 O. Yazyev, A. J. Austin, R. Cammi, C. Pomelli, J. W. Ochterski, 
 R. L. Martin, K. Morokuma, V. G. Zakrzewski, G. A. Voth, 
 P. Salvador, J. J. Dannenberg, S. Dapprich, A. D. Daniels, 
 O. Farkas, J. B. Foresman, J. V. Ortiz, J. Cioslowski, 
 and D. J. Fox, Gaussian, Inc., Wallingford CT, 2013.
 
 ******************************************
 Gaussian 09:  ES64L-G09RevE.01 30-Nov-2015
                19-Dec-2024 
 ******************************************
 %chk=B3PW91D3BJPNA.chk
 -------------------------------------------------------
 # opt freq b3pw91/6-31+g(d,p) EmpiricalDispersion=GD3BJ
 -------------------------------------------------------
 1/14=-1,18=20,19=15,26=3,38=1/1,3;
 2/9=110,12=2,17=6,18=5,40=1/2;
 3/5=1,6=6,7=111,11=2,16=1,25=1,30=1,71=1,74=-6,124=41/1,2,3;
 4//1;
 5/5=2,38=5/2;
 6/7=2,8=2,9=2,10=2,28=1/1;
 7//1,2,3,16;
 1/14=-1,18=20,19=15,26=3/3(2);
 2/9=110/2;
 99//99;
 2/9=110/2;
 3/5=1,6=6,7=111,11=2,16=1,25=1,30=1,71=1,74=-6,124=41/1,2,3;
 4/5=5,16=3,69=1/1;
 5/5=2,38=5/2;
 7//1,2,3,16;
 1/14=-1,18=20,19=15,26=3/3(-5);
 2/9=110/2;
 6/7=2,8=2,9=2,10=2,19=2,28=1/1;
 99/9=1/99;
 ----------
 [No Title]
 ----------
 Symbolic Z-matrix:
 Charge =  0 Multiplicity = 1
 C                    -0.02265   1.21427  -0.00009 
 C                    -0.71135   0.       -0.00008 
 C                    -0.02265  -1.21427  -0.00002 
 C                     1.36059  -1.21428   0.00003 
 C                     2.07997   0.        0.00002 
 C                     1.36059   1.21428  -0.00004 
 N                     3.44517   0.        0.00007 
 N                    -2.16111   0.       -0.00014 
 O                    -2.73864  -1.08697   0.00014 
 O                    -2.73864   1.08698   0.00007 
 H                    -0.58253   2.14253  -0.00014 
 H                    -0.58253  -2.14253  -0.00002 
 H                     1.89882  -2.15832   0.00008 
 H                     1.89882   2.15832  -0.00005 
 H                     3.96512   0.86023   0.00005 
 H                     3.96512  -0.86023   0.0001 
 

 GradGradGradGradGradGradGradGradGradGradGradGradGradGradGradGradGradGrad
 Berny optimization.
 Initialization pass.
                           ----------------------------
                           !    Initial Parameters    !
                           ! (Angstroms and Degrees)  !
 --------------------------                            --------------------------
 ! Name  Definition              Value          Derivative Info.                !
 --------------------------------------------------------------------------------
 ! R1    R(1,2)                  1.396          estimate D2E/DX2                !
 ! R2    R(1,6)                  1.3832         estimate D2E/DX2                !
 ! R3    R(1,11)                 1.084          estimate D2E/DX2                !
 ! R4    R(2,3)                  1.396          estimate D2E/DX2                !
 ! R5    R(2,8)                  1.4498         estimate D2E/DX2                !
 ! R6    R(3,4)                  1.3832         estimate D2E/DX2                !
 ! R7    R(3,12)                 1.084          estimate D2E/DX2                !
 ! R8    R(4,5)                  1.4114         estimate D2E/DX2                !
 ! R9    R(4,13)                 1.0867         estimate D2E/DX2                !
 ! R10   R(5,6)                  1.4114         estimate D2E/DX2                !
 ! R11   R(5,7)                  1.3652         estimate D2E/DX2                !
 ! R12   R(6,14)                 1.0867         estimate D2E/DX2                !
 ! R13   R(7,15)                 1.0052         estimate D2E/DX2                !
 ! R14   R(7,16)                 1.0052         estimate D2E/DX2                !
 ! R15   R(8,9)                  1.2309         estimate D2E/DX2                !
 ! R16   R(8,10)                 1.2309         estimate D2E/DX2                !
 ! A1    A(2,1,6)              119.5611         estimate D2E/DX2                !
 ! A2    A(2,1,11)             119.3425         estimate D2E/DX2                !
 ! A3    A(6,1,11)             121.0964         estimate D2E/DX2                !
 ! A4    A(1,2,3)              120.8784         estimate D2E/DX2                !
 ! A5    A(1,2,8)              119.5608         estimate D2E/DX2                !
 ! A6    A(3,2,8)              119.5608         estimate D2E/DX2                !
 ! A7    A(2,3,4)              119.5611         estimate D2E/DX2                !
 ! A8    A(2,3,12)             119.3426         estimate D2E/DX2                !
 ! A9    A(4,3,12)             121.0964         estimate D2E/DX2                !
 ! A10   A(3,4,5)              120.6437         estimate D2E/DX2                !
 ! A11   A(3,4,13)             119.6893         estimate D2E/DX2                !
 ! A12   A(5,4,13)             119.667          estimate D2E/DX2                !
 ! A13   A(4,5,6)              118.7121         estimate D2E/DX2                !
 ! A14   A(4,5,7)              120.6439         estimate D2E/DX2                !
 ! A15   A(6,5,7)              120.644          estimate D2E/DX2                !
 ! A16   A(1,6,5)              120.6437         estimate D2E/DX2                !
 ! A17   A(1,6,14)             119.6892         estimate D2E/DX2                !
 ! A18   A(5,6,14)             119.667          estimate D2E/DX2                !
 ! A19   A(5,7,15)             121.1503         estimate D2E/DX2                !
 ! A20   A(5,7,16)             121.1503         estimate D2E/DX2                !
 ! A21   A(15,7,16)            117.6995         estimate D2E/DX2                !
 ! A22   A(2,8,9)              117.9828         estimate D2E/DX2                !
 ! A23   A(2,8,10)             117.9827         estimate D2E/DX2                !
 ! A24   A(9,8,10)             124.0346         estimate D2E/DX2                !
 ! D1    D(6,1,2,3)              0.0            estimate D2E/DX2                !
 ! D2    D(6,1,2,8)           -179.9999         estimate D2E/DX2                !
 ! D3    D(11,1,2,3)           179.9999         estimate D2E/DX2                !
 ! D4    D(11,1,2,8)             0.0001         estimate D2E/DX2                !
 ! D5    D(2,1,6,5)              0.0            estimate D2E/DX2                !
 ! D6    D(2,1,6,14)           180.0            estimate D2E/DX2                !
 ! D7    D(11,1,6,5)          -179.9999         estimate D2E/DX2                !
 ! D8    D(11,1,6,14)            0.0            estimate D2E/DX2                !
 ! D9    D(1,2,3,4)              0.0            estimate D2E/DX2                !
 ! D10   D(1,2,3,12)           180.0            estimate D2E/DX2                !
 ! D11   D(8,2,3,4)            179.9999         estimate D2E/DX2                !
 ! D12   D(8,2,3,12)            -0.0001         estimate D2E/DX2                !
 ! D13   D(1,2,8,9)           -179.9862         estimate D2E/DX2                !
 ! D14   D(1,2,8,10)            -0.0138         estimate D2E/DX2                !
 ! D15   D(3,2,8,9)              0.0139         estimate D2E/DX2                !
 ! D16   D(3,2,8,10)           179.9863         estimate D2E/DX2                !
 ! D17   D(2,3,4,5)             -0.0001         estimate D2E/DX2                !
 ! D18   D(2,3,4,13)           179.9999         estimate D2E/DX2                !
 ! D19   D(12,3,4,5)           180.0            estimate D2E/DX2                !
 ! D20   D(12,3,4,13)            0.0            estimate D2E/DX2                !
 ! D21   D(3,4,5,6)              0.0001         estimate D2E/DX2                !
 ! D22   D(3,4,5,7)            179.9998         estimate D2E/DX2                !
 ! D23   D(13,4,5,6)          -179.9999         estimate D2E/DX2                !
 ! D24   D(13,4,5,7)            -0.0002         estimate D2E/DX2                !
 ! D25   D(4,5,6,1)              0.0            estimate D2E/DX2                !
 ! D26   D(4,5,6,14)           180.0            estimate D2E/DX2                !
 ! D27   D(7,5,6,1)           -179.9998         estimate D2E/DX2                !
 ! D28   D(7,5,6,14)             0.0002         estimate D2E/DX2                !
 ! D29   D(4,5,7,15)           179.9988         estimate D2E/DX2                !
 ! D30   D(4,5,7,16)             0.0013         estimate D2E/DX2                !
 ! D31   D(6,5,7,15)            -0.0014         estimate D2E/DX2                !
 ! D32   D(6,5,7,16)          -179.999          estimate D2E/DX2                !
 --------------------------------------------------------------------------------
 Trust Radius=3.00D-01 FncErr=1.00D-07 GrdErr=1.00D-06
 Number of steps in this run=     82 maximum allowed number of steps=    100.
 GradGradGradGradGradGradGradGradGradGradGradGradGradGradGradGradGradGrad

                          Input orientation:                          
 ---------------------------------------------------------------------
 Center     Atomic      Atomic             Coordinates (Angstroms)
 Number     Number       Type             X           Y           Z
 ---------------------------------------------------------------------
      1          6           0       -0.022648    1.214272   -0.000093
      2          6           0       -0.711353    0.000000   -0.000083
      3          6           0       -0.022648   -1.214273   -0.000023
      4          6           0        1.360591   -1.214279    0.000028
      5          6           0        2.079971    0.000000    0.000018
      6          6           0        1.360590    1.214278   -0.000043
      7          7           0        3.445165    0.000000    0.000072
      8          7           0       -2.161106    0.000000   -0.000138
      9          8           0       -2.738641   -1.086974    0.000135
     10          8           0       -2.738639    1.086975    0.000069
     11          1           0       -0.582534    2.142528   -0.000141
     12          1           0       -0.582533   -2.142529   -0.000016
     13          1           0        1.898821   -2.158317    0.000076
     14          1           0        1.898820    2.158317   -0.000051
     15          1           0        3.965121    0.860234    0.000048
     16          1           0        3.965121   -0.860233    0.000100
 ---------------------------------------------------------------------
                    Distance matrix (angstroms):
                    1          2          3          4          5
     1  C    0.000000
     2  C    1.395984   0.000000
     3  C    2.428545   1.395985   0.000000
     4  C    2.794854   2.401546   1.383239   0.000000
     5  C    2.428057   2.791324   2.428058   1.411376   0.000000
     6  C    1.383238   2.401545   2.794854   2.428557   1.411375
     7  N    3.674260   4.156518   3.674260   2.412452   1.365194
     8  N    2.459158   1.449753   2.459159   3.725161   4.241077
     9  O    3.559825   2.300306   2.718975   4.101208   4.939690
    10  O    2.718973   2.300305   3.559824   4.701006   4.939688
    11  H    1.084035   2.146397   3.403173   3.878645   3.417508
    12  H    3.403173   2.146398   1.084034   2.153457   3.417508
    13  H    3.881546   3.386937   2.140855   1.086692   2.165906
    14  H    2.140855   3.386936   3.881546   3.415274   2.165906
    15  H    4.003454   4.754936   4.495095   3.329742   2.072147
    16  H    4.495094   4.754935   4.003454   2.628483   2.072147
                    6          7          8          9         10
     6  C    0.000000
     7  N    2.412452   0.000000
     8  N    3.725160   5.606271   0.000000
     9  O    4.701006   6.278612   1.230877   0.000000
    10  O    4.101205   6.278610   1.230877   2.173949   0.000000
    11  H    2.153457   4.562103   2.661262   3.883102   2.400621
    12  H    3.878644   4.562103   2.661263   2.400625   3.883103
    13  H    3.415273   2.655092   4.597971   4.759604   5.660208
    14  H    1.086693   2.655092   4.597970   5.660208   4.759601
    15  H    2.628484   1.005165   6.186328   6.980834   6.707593
    16  H    3.329741   1.005164   6.186328   6.707595   6.980832
                   11         12         13         14         15
    11  H    0.000000
    12  H    4.285057   0.000000
    13  H    4.965319   2.481404   0.000000
    14  H    2.481404   4.965319   4.316634   0.000000
    15  H    4.724981   5.449564   3.658039   2.440209   0.000000
    16  H    5.449563   4.724980   2.440209   3.658038   1.720467
                   16
    16  H    0.000000
 Stoichiometry    C6H6N2O2
 Framework group  C1[X(C6H6N2O2)]
 Deg. of freedom    42
 Full point group                 C1      NOp   1
 Largest Abelian subgroup         C1      NOp   1
 Largest concise Abelian subgroup C1      NOp   1
                         Standard orientation:                         
 ---------------------------------------------------------------------
 Center     Atomic      Atomic             Coordinates (Angstroms)
 Number     Number       Type             X           Y           Z
 ---------------------------------------------------------------------
      1          6           0       -0.022648   -1.214272    0.000093
      2          6           0       -0.711353    0.000000    0.000083
      3          6           0       -0.022648    1.214273    0.000023
      4          6           0        1.360591    1.214279   -0.000028
      5          6           0        2.079971   -0.000000   -0.000018
      6          6           0        1.360590   -1.214278    0.000043
      7          7           0        3.445165   -0.000000   -0.000072
      8          7           0       -2.161106    0.000000    0.000138
      9          8           0       -2.738641    1.086974   -0.000135
     10          8           0       -2.738639   -1.086975   -0.000069
     11          1           0       -0.582534   -2.142528    0.000141
     12          1           0       -0.582533    2.142529    0.000016
     13          1           0        1.898821    2.158317   -0.000076
     14          1           0        1.898820   -2.158317    0.000051
     15          1           0        3.965121   -0.860234   -0.000048
     16          1           0        3.965121    0.860233   -0.000100
 ---------------------------------------------------------------------
 Rotational constants (GHZ):      3.9266588      0.8246873      0.6815470
 Standard basis: 6-31+G(d,p) (6D, 7F)
 There are   220 symmetry adapted cartesian basis functions of A   symmetry.
 There are   220 symmetry adapted basis functions of A   symmetry.
   220 basis functions,   362 primitive gaussians,   220 cartesian basis functions
    36 alpha electrons       36 beta electrons
       nuclear repulsion energy       495.7061428626 Hartrees.
 NAtoms=   16 NActive=   16 NUniq=   16 SFac= 1.00D+00 NAtFMM=   60 NAOKFM=F Big=F
 Integral buffers will be    131072 words long.
 Raffenetti 2 integral format.
 Two-electron integral symmetry is turned on.
 Nuclear repulsion after empirical dispersion term =      495.6770536579 Hartrees.
 One-electron integrals computed using PRISM.
 NBasis=   220 RedAO= T EigKep=  3.22D-06  NBF=   220
 NBsUse=   220 1.00D-06 EigRej= -1.00D+00 NBFU=   220
 ExpMin= 4.38D-02 ExpMax= 5.48D+03 ExpMxC= 8.25D+02 IAcc=2 IRadAn=         4 AccDes= 0.00D+00
 Harris functional with IExCor=  408 and IRadAn=       4 diagonalized for initial guess.
 HarFok:  IExCor=  408 AccDes= 0.00D+00 IRadAn=         4 IDoV= 1 UseB2=F ITyADJ=14
 ICtDFT=  3500011 ScaDFX=  1.000000  1.000000  1.000000  1.000000
 FoFCou: FMM=F IPFlag=           0 FMFlag=      100000 FMFlg1=           0
         NFxFlg=           0 DoJE=T BraDBF=F KetDBF=T FulRan=T
         wScrn=  0.000000 ICntrl=     500 IOpCl=  0 I1Cent=   200000004 NGrid=           0
         NMat0=    1 NMatS0=      1 NMatT0=    0 NMatD0=    1 NMtDS0=    0 NMtDT0=    0
 Petite list used in FoFCou.
 Keep R1 ints in memory in canonical form, NReq=301066375.
 Requested convergence on RMS density matrix=1.00D-08 within 128 cycles.
 Requested convergence on MAX density matrix=1.00D-06.
 Requested convergence on             energy=1.00D-06.
 No special actions if energy rises.
 SCF Done:  E(RB3PW91) =  -491.984537254     A.U. after   14 cycles
            NFock= 14  Conv=0.90D-08     -V/T= 2.0092

 **********************************************************************

            Population analysis using the SCF density.

 **********************************************************************

 Orbital symmetries:
       Occupied  (A) (A) (A) (A) (A) (A) (A) (A) (A) (A) (A) (A)
                 (A) (A) (A) (A) (A) (A) (A) (A) (A) (A) (A) (A)
                 (A) (A) (A) (A) (A) (A) (A) (A) (A) (A) (A) (A)
       Virtual   (A) (A) (A) (A) (A) (A) (A) (A) (A) (A) (A) (A)
                 (A) (A) (A) (A) (A) (A) (A) (A) (A) (A) (A) (A)
                 (A) (A) (A) (A) (A) (A) (A) (A) (A) (A) (A) (A)
                 (A) (A) (A) (A) (A) (A) (A) (A) (A) (A) (A) (A)
                 (A) (A) (A) (A) (A) (A) (A) (A) (A) (A) (A) (A)
                 (A) (A) (A) (A) (A) (A) (A) (A) (A) (A) (A) (A)
                 (A) (A) (A) (A) (A) (A) (A) (A) (A) (A) (A) (A)
                 (A) (A) (A) (A) (A) (A) (A) (A) (A) (A) (A) (A)
                 (A) (A) (A) (A) (A) (A) (A) (A) (A) (A) (A) (A)
                 (A) (A) (A) (A) (A) (A) (A) (A) (A) (A) (A) (A)
                 (A) (A) (A) (A) (A) (A) (A) (A) (A) (A) (A) (A)
                 (A) (A) (A) (A) (A) (A) (A) (A) (A) (A) (A) (A)
                 (A) (A) (A) (A) (A) (A) (A) (A) (A) (A) (A) (A)
                 (A) (A) (A) (A) (A) (A) (A) (A) (A) (A) (A) (A)
                 (A) (A) (A) (A) (A) (A) (A) (A) (A) (A) (A) (A)
                 (A) (A) (A) (A)
 The electronic state is 1-A.
 Alpha  occ. eigenvalues --  -19.16738 -19.16737 -14.55736 -14.37611 -10.26079
 Alpha  occ. eigenvalues --  -10.23283 -10.21184 -10.21183 -10.20478 -10.20478
 Alpha  occ. eigenvalues --   -1.22801  -1.05245  -0.96693  -0.88827  -0.80259
 Alpha  occ. eigenvalues --   -0.78309  -0.70237  -0.65203  -0.60889  -0.56851
 Alpha  occ. eigenvalues --   -0.55966  -0.54502  -0.53147  -0.50837  -0.47091
 Alpha  occ. eigenvalues --   -0.46327  -0.45136  -0.42756  -0.42143  -0.37286
 Alpha  occ. eigenvalues --   -0.34899  -0.30963  -0.30787  -0.28815  -0.28564
 Alpha  occ. eigenvalues --   -0.23944
 Alpha virt. eigenvalues --   -0.08670  -0.03561  -0.00773   0.00408   0.01778
 Alpha virt. eigenvalues --    0.02161   0.04700   0.05265   0.06891   0.07143
 Alpha virt. eigenvalues --    0.08453   0.09300   0.09533   0.10011   0.11474
 Alpha virt. eigenvalues --    0.12922   0.13809   0.13931   0.14304   0.14504
 Alpha virt. eigenvalues --    0.14581   0.15993   0.16726   0.17303   0.17328
 Alpha virt. eigenvalues --    0.18414   0.18590   0.19796   0.20037   0.20608
 Alpha virt. eigenvalues --    0.20912   0.22196   0.22230   0.23473   0.23907
 Alpha virt. eigenvalues --    0.23935   0.24815   0.25791   0.26390   0.27502
 Alpha virt. eigenvalues --    0.27714   0.27785   0.28531   0.30496   0.30644
 Alpha virt. eigenvalues --    0.31966   0.33717   0.34283   0.35013   0.36680
 Alpha virt. eigenvalues --    0.37341   0.39351   0.40312   0.41901   0.42893
 Alpha virt. eigenvalues --    0.43745   0.46864   0.54174   0.58155   0.60411
 Alpha virt. eigenvalues --    0.64066   0.64759   0.65251   0.69629   0.70121
 Alpha virt. eigenvalues --    0.71163   0.72918   0.74874   0.77456   0.78044
 Alpha virt. eigenvalues --    0.81111   0.83545   0.84361   0.87341   0.89779
 Alpha virt. eigenvalues --    0.90416   0.93238   0.93459   0.95874   0.99132
 Alpha virt. eigenvalues --    0.99367   1.01997   1.03790   1.06331   1.06685
 Alpha virt. eigenvalues --    1.08471   1.09723   1.15425   1.16736   1.19071
 Alpha virt. eigenvalues --    1.19097   1.20131   1.20302   1.23202   1.24761
 Alpha virt. eigenvalues --    1.26396   1.31067   1.31089   1.32053   1.34281
 Alpha virt. eigenvalues --    1.34572   1.35822   1.36460   1.37856   1.40958
 Alpha virt. eigenvalues --    1.43209   1.44045   1.44345   1.46221   1.52781
 Alpha virt. eigenvalues --    1.61788   1.68247   1.70914   1.74416   1.79812
 Alpha virt. eigenvalues --    1.80574   1.80847   1.83286   1.84600   1.86843
 Alpha virt. eigenvalues --    1.90732   1.91623   1.92066   1.94990   1.95247
 Alpha virt. eigenvalues --    1.95720   1.96404   2.02170   2.06480   2.07296
 Alpha virt. eigenvalues --    2.11851   2.12116   2.12347   2.16784   2.17782
 Alpha virt. eigenvalues --    2.21201   2.21610   2.28519   2.36173   2.37313
 Alpha virt. eigenvalues --    2.37512   2.40303   2.41646   2.42271   2.47162
 Alpha virt. eigenvalues --    2.50962   2.51633   2.53489   2.55052   2.56013
 Alpha virt. eigenvalues --    2.57589   2.59569   2.65541   2.68968   2.71840
 Alpha virt. eigenvalues --    2.72137   2.78387   2.81178   2.82473   2.83825
 Alpha virt. eigenvalues --    2.98205   3.01927   3.03501   3.06027   3.10793
 Alpha virt. eigenvalues --    3.11408   3.19032   3.27343   3.33507   3.33736
 Alpha virt. eigenvalues --    3.40951   3.51806   3.64925   3.82868   4.12839
 Alpha virt. eigenvalues --    4.21345   4.28774   4.28796   4.33448   4.47618
 Alpha virt. eigenvalues --    4.49288   4.52734   4.81210   4.85473
          Condensed to atoms (all electrons):
               1          2          3          4          5          6
     1  C   10.791004  -0.342976  -3.216822  -0.794903   0.096485  -1.147278
     2  C   -0.342976  10.540341  -0.342949  -0.879440  -0.653765  -0.879449
     3  C   -3.216822  -0.342949  10.790967  -1.147261   0.096482  -0.794906
     4  C   -0.794903  -0.879440  -1.147261  10.338716   0.040205  -1.810715
     5  C    0.096485  -0.653765   0.096482   0.040205   6.220704   0.040194
     6  C   -1.147278  -0.879449  -0.794906  -1.810715   0.040194  10.338755
     7  N    0.050210  -0.033869   0.050210  -0.059595   0.077075  -0.059595
     8  N    0.250040  -0.962245   0.250039   0.012861  -0.016908   0.012860
     9  O    0.163662  -0.311595  -0.097414   0.188355   0.013546  -0.024152
    10  O   -0.097414  -0.311596   0.163660  -0.024152   0.013546   0.188356
    11  H   -0.092168   0.370234   0.110069  -0.000901  -0.052958   0.023503
    12  H    0.110069   0.370233  -0.092167   0.023502  -0.052958  -0.000901
    13  H   -0.004094  -0.006793   0.137262   0.034054   0.137262   0.033791
    14  H    0.137263  -0.006793  -0.004094   0.033791   0.137262   0.034053
    15  H    0.022995  -0.001019  -0.002272   0.086134   0.014568  -0.128174
    16  H   -0.002272  -0.001019   0.022995  -0.128174   0.014567   0.086134
               7          8          9         10         11         12
     1  C    0.050210   0.250040   0.163662  -0.097414  -0.092168   0.110069
     2  C   -0.033869  -0.962245  -0.311595  -0.311596   0.370234   0.370233
     3  C    0.050210   0.250039  -0.097414   0.163660   0.110069  -0.092167
     4  C   -0.059595   0.012861   0.188355  -0.024152  -0.000901   0.023502
     5  C    0.077075  -0.016908   0.013546   0.013546  -0.052958  -0.052958
     6  C   -0.059595   0.012860  -0.024152   0.188356   0.023503  -0.000901
     7  N    6.985281   0.001212  -0.000274  -0.000274  -0.000388  -0.000388
     8  N    0.001212   7.014761   0.366512   0.366511  -0.058430  -0.058430
     9  O   -0.000274   0.366512   7.843919  -0.083608  -0.003413   0.023890
    10  O   -0.000274   0.366511  -0.083608   7.843919   0.023890  -0.003413
    11  H   -0.000388  -0.058430  -0.003413   0.023890   0.494985  -0.000137
    12  H   -0.000388  -0.058430   0.023890  -0.003413  -0.000137   0.494985
    13  H   -0.023270  -0.000571   0.000053   0.000048   0.000012  -0.004707
    14  H   -0.023270  -0.000571   0.000048   0.000053  -0.004707   0.000012
    15  H    0.332021   0.000005   0.000000   0.000000  -0.000009   0.000003
    16  H    0.332021   0.000005   0.000000   0.000000   0.000003  -0.000009
              13         14         15         16
     1  C   -0.004094   0.137263   0.022995  -0.002272
     2  C   -0.006793  -0.006793  -0.001019  -0.001019
     3  C    0.137262  -0.004094  -0.002272   0.022995
     4  C    0.034054   0.033791   0.086134  -0.128174
     5  C    0.137262   0.137262   0.014568   0.014567
     6  C    0.033791   0.034053  -0.128174   0.086134
     7  N   -0.023270  -0.023270   0.332021   0.332021
     8  N   -0.000571  -0.000571   0.000005   0.000005
     9  O    0.000053   0.000048   0.000000   0.000000
    10  O    0.000048   0.000053   0.000000   0.000000
    11  H    0.000012  -0.004707  -0.000009   0.000003
    12  H   -0.004707   0.000012   0.000003  -0.000009
    13  H    0.547809  -0.000139  -0.000078   0.005042
    14  H   -0.000139   0.547809   0.005042  -0.000078
    15  H   -0.000078   0.005042   0.377167  -0.026140
    16  H    0.005042  -0.000078  -0.026140   0.377167
 Mulliken charges:
               1
     1  C    0.076200
     2  C   -0.547301
     3  C    0.076201
     4  C    0.087523
     5  C   -0.125307
     6  C    0.087524
     7  N   -0.627109
     8  N   -0.177652
     9  O   -0.079528
    10  O   -0.079528
    11  H    0.190415
    12  H    0.190414
    13  H    0.144318
    14  H    0.144318
    15  H    0.319756
    16  H    0.319756
 Sum of Mulliken charges =  -0.00000
 Mulliken charges with hydrogens summed into heavy atoms:
               1
     1  C    0.266615
     2  C   -0.547301
     3  C    0.266615
     4  C    0.231841
     5  C   -0.125307
     6  C    0.231842
     7  N    0.012402
     8  N   -0.177652
     9  O   -0.079528
    10  O   -0.079528
 Electronic spatial extent (au):  <R**2>=           1555.8903
 Charge=             -0.0000 electrons
 Dipole moment (field-independent basis, Debye):
    X=              7.8708    Y=              0.0000    Z=              0.0004  Tot=              7.8708
 Quadrupole moment (field-independent basis, Debye-Ang):
   XX=            -55.7467   YY=            -52.4307   ZZ=            -60.4009
   XY=             -0.0000   XZ=             -0.0017   YZ=             -0.0002
 Traceless Quadrupole moment (field-independent basis, Debye-Ang):
   XX=              0.4461   YY=              3.7621   ZZ=             -4.2081
   XY=             -0.0000   XZ=             -0.0017   YZ=             -0.0002
 Octapole moment (field-independent basis, Debye-Ang**2):
  XXX=            111.0480  YYY=              0.0000  ZZZ=             -0.0008  XYY=             17.0914
  XXY=             -0.0000  XXZ=              0.0023  XZZ=            -13.2064  YZZ=             -0.0000
  YYZ=             -0.0003  XYZ=             -0.0009
 Hexadecapole moment (field-independent basis, Debye-Ang**3):
 XXXX=          -1343.8049 YYYY=           -361.9533 ZZZZ=            -64.0723 XXXY=             -0.0000
 XXXZ=             -0.0144 YYYX=             -0.0000 YYYZ=              0.0033 ZZZX=              0.0030
 ZZZY=              0.0055 XXYY=           -295.4860 XXZZ=           -277.0186 YYZZ=            -83.5418
 XXYZ=              0.0005 YYXZ=             -0.0002 ZZXY=              0.0000
 N-N= 4.956770536579D+02 E-N=-2.138200997055D+03  KE= 4.874864436974D+02
 Calling FoFJK, ICntrl=      2127 FMM=F ISym2X=0 I1Cent= 0 IOpClX= 0 NMat=1 NMatS=1 NMatT=0.
 ***** Axes restored to original set *****
 -------------------------------------------------------------------
 Center     Atomic                   Forces (Hartrees/Bohr)
 Number     Number              X              Y              Z
 -------------------------------------------------------------------
      1        6           0.000014407   -0.000115604   -0.000003228
      2        6          -0.000344215   -0.000000856   -0.000017486
      3        6           0.000015257    0.000116400   -0.000003027
      4        6           0.000000787    0.000085929    0.000000772
      5        6          -0.000184272   -0.000000358   -0.000000237
      6        6           0.000002021   -0.000085043    0.000000840
      7        7          -0.000245588    0.000000789    0.000000060
      8        7          -0.000212278    0.000000095    0.000076404
      9        8           0.000703348    0.000307833   -0.000027292
     10        8           0.000703017   -0.000307749   -0.000027266
     11        1           0.000053167   -0.000363681   -0.000000079
     12        1           0.000052892    0.000363431   -0.000000161
     13        1          -0.000013885    0.000296948    0.000000375
     14        1          -0.000014145   -0.000297447    0.000000419
     15        1          -0.000265445   -0.000091403   -0.000000043
     16        1          -0.000265066    0.000090717   -0.000000053
 -------------------------------------------------------------------
 Cartesian Forces:  Max     0.000703348 RMS     0.000208675

 GradGradGradGradGradGradGradGradGradGradGradGradGradGradGradGradGradGrad
 Berny optimization.
 FormGI is forming the generalized inverse of G from B-inverse, IUseBI=4.
 Internal  Forces:  Max     0.001194087 RMS     0.000301341
 Search for a local minimum.
 Step number   1 out of a maximum of   82
 All quantities printed in internal units (Hartrees-Bohrs-Radians)
 Mixed Optimization -- En-DIIS/RFO-DIIS
 Second derivative matrix not updated -- first step.
 ITU=  0
     Eigenvalues ---    0.01034   0.01034   0.01805   0.01968   0.02043
     Eigenvalues ---    0.02099   0.02130   0.02152   0.02152   0.02182
     Eigenvalues ---    0.02192   0.02236   0.02242   0.16000   0.16000
     Eigenvalues ---    0.16000   0.16000   0.16000   0.16000   0.22000
     Eigenvalues ---    0.22969   0.24000   0.25000   0.25000   0.25000
     Eigenvalues ---    0.25000   0.35198   0.35198   0.35511   0.35511
     Eigenvalues ---    0.38277   0.41007   0.41966   0.45111   0.45347
     Eigenvalues ---    0.46792   0.46792   0.47048   0.48515   0.51911
     Eigenvalues ---    0.90722   0.90722
 RFO step:  Lambda=-1.75977001D-05 EMin= 1.03364348D-02
 Linear search not attempted -- first point.
 Iteration  1 RMS(Cart)=  0.00215425 RMS(Int)=  0.00000188
 Iteration  2 RMS(Cart)=  0.00000168 RMS(Int)=  0.00000093
 Iteration  3 RMS(Cart)=  0.00000000 RMS(Int)=  0.00000093
 Variable       Old X    -DE/DX   Delta X   Delta X   Delta X     New X
                                 (Linear)    (Quad)   (Total)
    R1        2.63803  -0.00060   0.00000  -0.00131  -0.00131   2.63672
    R2        2.61394  -0.00049   0.00000  -0.00101  -0.00101   2.61293
    R3        2.04853  -0.00034   0.00000  -0.00095  -0.00095   2.04757
    R4        2.63803  -0.00060   0.00000  -0.00131  -0.00131   2.63672
    R5        2.73964  -0.00119   0.00000  -0.00312  -0.00312   2.73652
    R6        2.61394  -0.00049   0.00000  -0.00102  -0.00102   2.61293
    R7        2.04853  -0.00034   0.00000  -0.00095  -0.00095   2.04757
    R8        2.66711  -0.00060   0.00000  -0.00136  -0.00136   2.66575
    R9        2.05355  -0.00026   0.00000  -0.00075  -0.00075   2.05280
   R10        2.66711  -0.00060   0.00000  -0.00136  -0.00136   2.66575
   R11        2.57984  -0.00078   0.00000  -0.00149  -0.00149   2.57835
   R12        2.05355  -0.00027   0.00000  -0.00075  -0.00075   2.05280
   R13        1.89949  -0.00022   0.00000  -0.00046  -0.00046   1.89903
   R14        1.89949  -0.00021   0.00000  -0.00046  -0.00046   1.89903
   R15        2.32602  -0.00060   0.00000  -0.00066  -0.00066   2.32536
   R16        2.32602  -0.00060   0.00000  -0.00066  -0.00066   2.32536
    A1        2.08673  -0.00011   0.00000  -0.00045  -0.00045   2.08628
    A2        2.08292  -0.00009   0.00000  -0.00068  -0.00068   2.08223
    A3        2.11353   0.00020   0.00000   0.00114   0.00114   2.11467
    A4        2.10973   0.00025   0.00000   0.00101   0.00101   2.11074
    A5        2.08673  -0.00012   0.00000  -0.00051  -0.00051   2.08622
    A6        2.08673  -0.00012   0.00000  -0.00051  -0.00051   2.08622
    A7        2.08673  -0.00011   0.00000  -0.00045  -0.00045   2.08628
    A8        2.08292  -0.00009   0.00000  -0.00069  -0.00069   2.08224
    A9        2.11353   0.00020   0.00000   0.00114   0.00114   2.11467
   A10        2.10563  -0.00016   0.00000  -0.00067  -0.00067   2.10496
   A11        2.08897   0.00022   0.00000   0.00120   0.00120   2.09017
   A12        2.08858  -0.00006   0.00000  -0.00053  -0.00053   2.08805
   A13        2.07192   0.00029   0.00000   0.00124   0.00124   2.07315
   A14        2.10563  -0.00015   0.00000  -0.00062  -0.00062   2.10502
   A15        2.10563  -0.00015   0.00000  -0.00062  -0.00062   2.10502
   A16        2.10563  -0.00016   0.00000  -0.00067  -0.00067   2.10496
   A17        2.08897   0.00022   0.00000   0.00120   0.00120   2.09017
   A18        2.08858  -0.00006   0.00000  -0.00053  -0.00053   2.08805
   A19        2.11447  -0.00011   0.00000  -0.00071  -0.00071   2.11376
   A20        2.11447  -0.00011   0.00000  -0.00071  -0.00071   2.11376
   A21        2.05424   0.00023   0.00000   0.00142   0.00142   2.05567
   A22        2.05919  -0.00037   0.00000  -0.00148  -0.00148   2.05770
   A23        2.05919  -0.00037   0.00000  -0.00148  -0.00148   2.05771
   A24        2.16481   0.00074   0.00000   0.00296   0.00295   2.16776
    D1        0.00000  -0.00000   0.00000  -0.00006  -0.00006  -0.00006
    D2       -3.14159  -0.00000   0.00000  -0.00003  -0.00003   3.14157
    D3        3.14159  -0.00000   0.00000  -0.00003  -0.00003   3.14157
    D4        0.00000   0.00000   0.00000   0.00001   0.00001   0.00001
    D5       -0.00000   0.00000   0.00000   0.00003   0.00003   0.00003
    D6        3.14159   0.00000   0.00000   0.00003   0.00003  -3.14156
    D7       -3.14159  -0.00000   0.00000  -0.00001  -0.00001   3.14159
    D8        0.00000  -0.00000   0.00000  -0.00000  -0.00000  -0.00000
    D9        0.00000   0.00000   0.00000   0.00006   0.00006   0.00006
   D10        3.14159   0.00000   0.00000   0.00003   0.00003  -3.14157
   D11        3.14159   0.00000   0.00000   0.00003   0.00003  -3.14157
   D12       -0.00000  -0.00000   0.00000  -0.00000  -0.00000  -0.00001
   D13       -3.14135  -0.00003   0.00000  -0.00270  -0.00270   3.13913
   D14       -0.00024   0.00003   0.00000   0.00267   0.00267   0.00243
   D15        0.00024  -0.00003   0.00000  -0.00267  -0.00267  -0.00243
   D16        3.14135   0.00003   0.00000   0.00270   0.00270  -3.13913
   D17       -0.00000  -0.00000   0.00000  -0.00003  -0.00003  -0.00003
   D18        3.14159  -0.00000   0.00000  -0.00003  -0.00003   3.14156
   D19        3.14159   0.00000   0.00000   0.00001   0.00001  -3.14159
   D20       -0.00000   0.00000   0.00000   0.00000   0.00000   0.00000
   D21        0.00000  -0.00000   0.00000  -0.00000  -0.00000  -0.00000
   D22        3.14159  -0.00000   0.00000  -0.00000  -0.00000   3.14159
   D23       -3.14159   0.00000   0.00000   0.00000   0.00000  -3.14159
   D24       -0.00000   0.00000   0.00000   0.00000   0.00000  -0.00000
   D25       -0.00000   0.00000   0.00000   0.00000   0.00000   0.00000
   D26        3.14159  -0.00000   0.00000  -0.00000  -0.00000   3.14159
   D27       -3.14159   0.00000   0.00000   0.00000   0.00000  -3.14159
   D28        0.00000  -0.00000   0.00000  -0.00000  -0.00000   0.00000
   D29        3.14157  -0.00000   0.00000  -0.00000  -0.00000   3.14157
   D30        0.00002   0.00000   0.00000   0.00000   0.00000   0.00002
   D31       -0.00003  -0.00000   0.00000  -0.00000  -0.00000  -0.00003
   D32       -3.14157   0.00000   0.00000   0.00000   0.00000  -3.14157
         Item               Value     Threshold  Converged?
 Maximum Force            0.001194     0.000450     NO 
 RMS     Force            0.000301     0.000300     NO 
 Maximum Displacement     0.008310     0.001800     NO 
 RMS     Displacement     0.002155     0.001200     NO 
 Predicted change in Energy=-8.798843D-06
 GradGradGradGradGradGradGradGradGradGradGradGradGradGradGradGradGradGrad

                          Input orientation:                          
 ---------------------------------------------------------------------
 Center     Atomic      Atomic             Coordinates (Angstroms)
 Number     Number       Type             X           Y           Z
 ---------------------------------------------------------------------
      1          6           0       -0.022635    1.214020    0.000429
      2          6           0       -0.710383    0.000000    0.000655
      3          6           0       -0.022635   -1.214020    0.000500
      4          6           0        1.360066   -1.214103    0.000188
      5          6           0        2.078329    0.000000   -0.000008
      6          6           0        1.360066    1.214103    0.000117
      7          7           0        3.442732   -0.000000   -0.000309
      8          7           0       -2.158485   -0.000000    0.001015
      9          8           0       -2.734244   -1.087516   -0.001467
     10          8           0       -2.734245    1.087515   -0.001534
     11          1           0       -0.583366    2.141176    0.000532
     12          1           0       -0.583366   -2.141176    0.000658
     13          1           0        1.899181   -2.157177    0.000097
     14          1           0        1.899181    2.157177   -0.000029
     15          1           0        3.961950    0.860395   -0.000469
     16          1           0        3.961950   -0.860395   -0.000417
 ---------------------------------------------------------------------
                    Distance matrix (angstroms):
                    1          2          3          4          5
     1  C    0.000000
     2  C    1.395293   0.000000
     3  C    2.428041   1.395293   0.000000
     4  C    2.794216   2.400168   1.382701   0.000000
     5  C    2.426499   2.788712   2.426499   1.410656   0.000000
     6  C    1.382701   2.400168   2.794217   2.428206   1.410655
     7  N    3.671868   4.153115   3.671868   2.410715   1.364403
     8  N    2.456767   1.448102   2.456766   3.722130   4.236815
     9  O    3.556669   2.297544   2.714559   4.096267   4.933919
    10  O    2.714560   2.297545   3.556669   4.696896   4.933920
    11  H    1.083530   2.144940   3.401729   3.877477   3.416029
    12  H    3.401729   2.144940   1.083530   2.153228   3.416029
    13  H    3.880509   3.385741   2.140776   1.086294   2.164604
    14  H    2.140776   3.385741   3.880509   3.414115   2.164603
    15  H    4.000246   4.750892   4.492228   3.327663   2.070823
    16  H    4.492228   4.750892   4.000246   2.625816   2.070823
                    6          7          8          9         10
     6  C    0.000000
     7  N    2.410715   0.000000
     8  N    3.722130   5.601217   0.000000
     9  O    4.696896   6.271979   1.230526   0.000000
    10  O    4.096268   6.271980   1.230526   2.175031   0.000000
    11  H    2.153228   4.560055   2.658126   3.879527   2.395096
    12  H    3.877477   4.560055   2.658126   2.395095   3.879527
    13  H    3.414115   2.652539   4.595440   4.755292   5.656560
    14  H    1.086294   2.652539   4.595441   5.656560   4.755294
    15  H    2.625816   1.004921   6.180616   6.973763   6.700046
    16  H    3.327663   1.004921   6.180615   6.700045   6.973764
                   11         12         13         14         15
    11  H    0.000000
    12  H    4.282352   0.000000
    13  H    4.963757   2.482599   0.000000
    14  H    2.482599   4.963757   4.314355   0.000000
    15  H    4.722319   5.446956   3.655237   2.436526   0.000000
    16  H    5.446956   4.722319   2.436526   3.655237   1.720790
                   16
    16  H    0.000000
 Stoichiometry    C6H6N2O2
 Framework group  C1[X(C6H6N2O2)]
 Deg. of freedom    42
 Full point group                 C1      NOp   1
 Largest Abelian subgroup         C1      NOp   1
 Largest concise Abelian subgroup C1      NOp   1
                         Standard orientation:                         
 ---------------------------------------------------------------------
 Center     Atomic      Atomic             Coordinates (Angstroms)
 Number     Number       Type             X           Y           Z
 ---------------------------------------------------------------------
      1          6           0       -0.023388   -1.214021   -0.000532
      2          6           0       -0.711136   -0.000000   -0.000758
      3          6           0       -0.023388    1.214020   -0.000603
      4          6           0        1.359313    1.214103   -0.000291
      5          6           0        2.077577   -0.000000   -0.000095
      6          6           0        1.359313   -1.214103   -0.000220
      7          7           0        3.441979    0.000000    0.000206
      8          7           0       -2.159238   -0.000000   -0.001118
      9          8           0       -2.734997    1.087516    0.001364
     10          8           0       -2.734998   -1.087515    0.001431
     11          1           0       -0.584119   -2.141176   -0.000635
     12          1           0       -0.584119    2.141176   -0.000761
     13          1           0        1.898428    2.157177   -0.000199
     14          1           0        1.898429   -2.157177   -0.000074
     15          1           0        3.961197   -0.860395    0.000366
     16          1           0        3.961197    0.860395    0.000315
 ---------------------------------------------------------------------
 Rotational constants (GHZ):      3.9269097      0.8264728      0.6827738
 Standard basis: 6-31+G(d,p) (6D, 7F)
 There are   220 symmetry adapted cartesian basis functions of A   symmetry.
 There are   220 symmetry adapted basis functions of A   symmetry.
   220 basis functions,   362 primitive gaussians,   220 cartesian basis functions
    36 alpha electrons       36 beta electrons
       nuclear repulsion energy       496.0354832835 Hartrees.
 NAtoms=   16 NActive=   16 NUniq=   16 SFac= 1.00D+00 NAtFMM=   60 NAOKFM=F Big=F
 Integral buffers will be    131072 words long.
 Raffenetti 2 integral format.
 Two-electron integral symmetry is turned on.
 Nuclear repulsion after empirical dispersion term =      496.0063764109 Hartrees.
 One-electron integrals computed using PRISM.
 NBasis=   220 RedAO= T EigKep=  3.21D-06  NBF=   220
 NBsUse=   220 1.00D-06 EigRej= -1.00D+00 NBFU=   220
 Initial guess from the checkpoint file:  "B3PW91D3BJPNA.chk"
 B after Tr=     0.000000   -0.000000    0.000000
         Rot=    1.000000    0.000000   -0.000058    0.000000 Ang=   0.01 deg.
 Keep R1 ints in memory in canonical form, NReq=301066375.
 Requested convergence on RMS density matrix=1.00D-08 within 128 cycles.
 Requested convergence on MAX density matrix=1.00D-06.
 Requested convergence on             energy=1.00D-06.
 No special actions if energy rises.
 SCF Done:  E(RB3PW91) =  -491.984542494     A.U. after   11 cycles
            NFock= 11  Conv=0.47D-08     -V/T= 2.0092
 Calling FoFJK, ICntrl=      2127 FMM=F ISym2X=0 I1Cent= 0 IOpClX= 0 NMat=1 NMatS=1 NMatT=0.
 ***** Axes restored to original set *****
 -------------------------------------------------------------------
 Center     Atomic                   Forces (Hartrees/Bohr)
 Number     Number              X              Y              Z
 -------------------------------------------------------------------
      1        6           0.000157397    0.000105170    0.000035975
      2        6          -0.000177152   -0.000000020    0.000173647
      3        6           0.000157523   -0.000105187    0.000035933
      4        6          -0.000041696   -0.000112544   -0.000009935
      5        6          -0.000023005   -0.000000101    0.000004534
      6        6          -0.000041686    0.000112627   -0.000009966
      7        7           0.000194302   -0.000000002    0.000000586
      8        7           0.000359245    0.000000034   -0.000774857
      9        8          -0.000289276    0.000202993    0.000275823
     10        8          -0.000289142   -0.000203028    0.000275836
     11        1          -0.000036850   -0.000027366    0.000001150
     12        1          -0.000036862    0.000027402    0.000001151
     13        1           0.000049351    0.000013905   -0.000004598
     14        1           0.000049324   -0.000013904   -0.000004595
     15        1          -0.000015722    0.000011381   -0.000000344
     16        1          -0.000015750   -0.000011359   -0.000000339
 -------------------------------------------------------------------
 Cartesian Forces:  Max     0.000774857 RMS     0.000167380

 GradGradGradGradGradGradGradGradGradGradGradGradGradGradGradGradGradGrad
 Berny optimization.
 Using GEDIIS/GDIIS optimizer.
 FormGI is forming the generalized inverse of G from B-inverse, IUseBI=4.
 Internal  Forces:  Max     0.000543203 RMS     0.000117976
 Search for a local minimum.
 Step number   2 out of a maximum of   82
 All quantities printed in internal units (Hartrees-Bohrs-Radians)
 Mixed Optimization -- En-DIIS/RFO-DIIS
 Swapping is turned off.
 Update second derivatives using D2CorX and points    1    2
 DE= -5.24D-06 DEPred=-8.80D-06 R= 5.96D-01
 TightC=F SS=  1.41D+00  RLast= 9.09D-03 DXNew= 5.0454D-01 2.7255D-02
 Trust test= 5.96D-01 RLast= 9.09D-03 DXMaxT set to 3.00D-01
 ITU=  1  0
     Eigenvalues ---    0.01034   0.01289   0.01806   0.01968   0.02043
     Eigenvalues ---    0.02099   0.02130   0.02152   0.02152   0.02182
     Eigenvalues ---    0.02192   0.02236   0.02242   0.14982   0.16000
     Eigenvalues ---    0.16000   0.16000   0.16000   0.16011   0.22000
     Eigenvalues ---    0.22822   0.23839   0.25000   0.25000   0.25000
     Eigenvalues ---    0.28929   0.35037   0.35198   0.35342   0.35511
     Eigenvalues ---    0.39177   0.40823   0.41968   0.45111   0.46675
     Eigenvalues ---    0.46792   0.47048   0.47158   0.48887   0.52647
     Eigenvalues ---    0.89279   0.90722
 En-DIIS/RFO-DIIS IScMMF=        0 using points:     2    1
 RFO step:  Lambda=-3.05183859D-06.
 DidBck=T Rises=F RFO-DIIS coefs:    0.71118    0.28882
 Iteration  1 RMS(Cart)=  0.00454870 RMS(Int)=  0.00006199
 Iteration  2 RMS(Cart)=  0.00005394 RMS(Int)=  0.00003764
 Iteration  3 RMS(Cart)=  0.00000000 RMS(Int)=  0.00003764
 Variable       Old X    -DE/DX   Delta X   Delta X   Delta X     New X
                                 (Linear)    (Quad)   (Total)
    R1        2.63672   0.00019   0.00038  -0.00123  -0.00086   2.63587
    R2        2.61293   0.00008   0.00029  -0.00108  -0.00079   2.61214
    R3        2.04757  -0.00000   0.00028  -0.00113  -0.00085   2.04672
    R4        2.63672   0.00019   0.00038  -0.00124  -0.00086   2.63586
    R5        2.73652   0.00022   0.00090  -0.00326  -0.00236   2.73416
    R6        2.61293   0.00008   0.00029  -0.00108  -0.00079   2.61214
    R7        2.04757  -0.00000   0.00028  -0.00113  -0.00085   2.04672
    R8        2.66575   0.00009   0.00039  -0.00145  -0.00106   2.66469
    R9        2.05280   0.00001   0.00022  -0.00086  -0.00064   2.05216
   R10        2.66575   0.00009   0.00039  -0.00145  -0.00106   2.66469
   R11        2.57835   0.00016   0.00043  -0.00153  -0.00110   2.57725
   R12        2.05280   0.00001   0.00022  -0.00086  -0.00064   2.05215
   R13        1.89903   0.00000   0.00013  -0.00054  -0.00041   1.89862
   R14        1.89903   0.00000   0.00013  -0.00054  -0.00040   1.89862
   R15        2.32536  -0.00004   0.00019  -0.00081  -0.00062   2.32474
   R16        2.32536  -0.00004   0.00019  -0.00081  -0.00062   2.32474
    A1        2.08628   0.00006   0.00013  -0.00034  -0.00021   2.08607
    A2        2.08223  -0.00008   0.00020  -0.00111  -0.00091   2.08133
    A3        2.11467   0.00002  -0.00033   0.00145   0.00112   2.11579
    A4        2.11074  -0.00012  -0.00029   0.00086   0.00057   2.11131
    A5        2.08622   0.00006   0.00015  -0.00043  -0.00028   2.08594
    A6        2.08622   0.00006   0.00015  -0.00043  -0.00028   2.08594
    A7        2.08628   0.00006   0.00013  -0.00034  -0.00021   2.08607
    A8        2.08224  -0.00008   0.00020  -0.00111  -0.00091   2.08133
    A9        2.11467   0.00002  -0.00033   0.00145   0.00112   2.11579
   A10        2.10496   0.00001   0.00019  -0.00079  -0.00060   2.10436
   A11        2.09017   0.00005  -0.00035   0.00164   0.00129   2.09147
   A12        2.08805  -0.00005   0.00015  -0.00085  -0.00070   2.08736
   A13        2.07315  -0.00000  -0.00036   0.00141   0.00105   2.07421
   A14        2.10502   0.00000   0.00018  -0.00070  -0.00053   2.10449
   A15        2.10502   0.00000   0.00018  -0.00071  -0.00053   2.10449
   A16        2.10496   0.00001   0.00019  -0.00079  -0.00060   2.10436
   A17        2.09017   0.00005  -0.00035   0.00164   0.00129   2.09147
   A18        2.08805  -0.00005   0.00015  -0.00085  -0.00070   2.08736
   A19        2.11376  -0.00001   0.00021  -0.00089  -0.00068   2.11307
   A20        2.11376  -0.00001   0.00021  -0.00089  -0.00069   2.11307
   A21        2.05567   0.00002  -0.00041   0.00178   0.00137   2.05704
   A22        2.05770   0.00027   0.00043  -0.00091  -0.00067   2.05704
   A23        2.05771   0.00027   0.00043  -0.00091  -0.00067   2.05704
   A24        2.16776  -0.00054  -0.00085   0.00197   0.00094   2.16870
    D1       -0.00006   0.00001   0.00002   0.00041   0.00043   0.00037
    D2        3.14157   0.00001   0.00001   0.00019   0.00020  -3.14142
    D3        3.14157   0.00001   0.00001   0.00017   0.00018  -3.14144
    D4        0.00001  -0.00000  -0.00000  -0.00005  -0.00005  -0.00004
    D5        0.00003  -0.00001  -0.00001  -0.00019  -0.00020  -0.00017
    D6       -3.14156  -0.00001  -0.00001  -0.00022  -0.00023   3.14140
    D7        3.14159   0.00000   0.00000   0.00004   0.00005  -3.14155
    D8       -0.00000   0.00000   0.00000   0.00002   0.00002   0.00002
    D9        0.00006  -0.00001  -0.00002  -0.00041  -0.00043  -0.00037
   D10       -3.14157  -0.00001  -0.00001  -0.00017  -0.00018   3.14144
   D11       -3.14157  -0.00001  -0.00001  -0.00019  -0.00020   3.14142
   D12       -0.00001   0.00000   0.00000   0.00005   0.00005   0.00004
   D13        3.13913   0.00029   0.00078   0.01650   0.01728  -3.12677
   D14        0.00243  -0.00028  -0.00077  -0.01628  -0.01705  -0.01462
   D15       -0.00243   0.00028   0.00077   0.01628   0.01705   0.01462
   D16       -3.13913  -0.00029  -0.00078  -0.01650  -0.01728   3.12678
   D17       -0.00003   0.00001   0.00001   0.00020   0.00020   0.00018
   D18        3.14156   0.00001   0.00001   0.00022   0.00023  -3.14139
   D19       -3.14159  -0.00000  -0.00000  -0.00005  -0.00005   3.14155
   D20        0.00000  -0.00000  -0.00000  -0.00002  -0.00002  -0.00002
   D21       -0.00000   0.00000   0.00000   0.00001   0.00001   0.00001
   D22        3.14159   0.00000   0.00000   0.00002   0.00002  -3.14158
   D23       -3.14159  -0.00000  -0.00000  -0.00001  -0.00001   3.14158
   D24       -0.00000  -0.00000  -0.00000  -0.00001  -0.00001  -0.00001
   D25        0.00000  -0.00000  -0.00000  -0.00001  -0.00002  -0.00001
   D26        3.14159   0.00000   0.00000   0.00001   0.00001  -3.14158
   D27       -3.14159  -0.00000  -0.00000  -0.00002  -0.00002   3.14158
   D28        0.00000   0.00000   0.00000   0.00000   0.00001   0.00001
   D29        3.14157  -0.00000   0.00000  -0.00002  -0.00002   3.14155
   D30        0.00002   0.00000  -0.00000   0.00001   0.00001   0.00003
   D31       -0.00003  -0.00000   0.00000  -0.00001  -0.00001  -0.00003
   D32       -3.14157   0.00000  -0.00000   0.00002   0.00002  -3.14156
         Item               Value     Threshold  Converged?
 Maximum Force            0.000543     0.000450     NO 
 RMS     Force            0.000118     0.000300     YES
 Maximum Displacement     0.019319     0.001800     NO 
 RMS     Displacement     0.004560     0.001200     NO 
 Predicted change in Energy=-8.818279D-06
 GradGradGradGradGradGradGradGradGradGradGradGradGradGradGradGradGradGrad

                          Input orientation:                          
 ---------------------------------------------------------------------
 Center     Atomic      Atomic             Coordinates (Angstroms)
 Number     Number       Type             X           Y           Z
 ---------------------------------------------------------------------
      1          6           0       -0.022495    1.213821   -0.002890
      2          6           0       -0.709675   -0.000000   -0.004066
      3          6           0       -0.022495   -1.213820   -0.002818
      4          6           0        1.359788   -1.213999   -0.000822
      5          6           0        2.077127    0.000000    0.000170
      6          6           0        1.359789    1.214000   -0.000893
      7          7           0        3.440945    0.000000    0.002120
      8          7           0       -2.156529   -0.000001   -0.006370
      9          8           0       -2.731430   -1.087495    0.008756
     10          8           0       -2.731433    1.087493    0.008689
     11          1           0       -0.584096    2.139921   -0.003760
     12          1           0       -0.584096   -2.139921   -0.003635
     13          1           0        1.899886   -2.156119   -0.000032
     14          1           0        1.899887    2.156119   -0.000157
     15          1           0        3.959463    0.860567    0.002806
     16          1           0        3.959463   -0.860567    0.002858
 ---------------------------------------------------------------------
                    Distance matrix (angstroms):
                    1          2          3          4          5
     1  C    0.000000
     2  C    1.394840   0.000000
     3  C    2.427641   1.394839   0.000000
     4  C    2.793747   2.399267   1.382285   0.000000
     5  C    2.425239   2.786805   2.425238   1.410096   0.000000
     6  C    1.382285   2.399268   2.793747   2.427999   1.410096
     7  N    3.669987   4.150625   3.669987   2.409361   1.363820
     8  N    2.455091   1.446855   2.455090   3.719987   4.233660
     9  O    3.554507   2.295714   2.711903   4.093184   4.930004
    10  O    2.711906   2.295716   3.554507   4.694150   4.930006
    11  H    1.083078   2.143603   3.400438   3.876528   3.414877
    12  H    3.400438   2.143602   1.083078   2.153143   3.414877
    13  H    3.879697   3.385066   2.140908   1.085954   2.163392
    14  H    2.140908   3.385067   3.879697   3.413122   2.163391
    15  H    3.997601   4.747786   4.489889   3.325980   2.069727
    16  H    4.489890   4.747786   3.997600   2.623592   2.069728
                    6          7          8          9         10
     6  C    0.000000
     7  N    2.409360   0.000000
     8  N    3.719989   5.597480   0.000000
     9  O    4.694150   6.267448   1.230197   0.000000
    10  O    4.093188   6.267451   1.230197   2.174988   0.000000
    11  H    2.153143   4.558536   2.655526   3.876521   2.391405
    12  H    3.876529   4.558537   2.655524   2.391400   3.876520
    13  H    3.413123   2.650230   4.593842   4.753012   5.654221
    14  H    1.085954   2.650229   4.593844   5.654221   4.753017
    15  H    2.623592   1.004707   6.176246   6.968718   6.694745
    16  H    3.325981   1.004707   6.176246   6.694742   6.968720
                   11         12         13         14         15
    11  H    0.000000
    12  H    4.279842   0.000000
    13  H    4.962473   2.484038   0.000000
    14  H    2.484039   4.962473   4.312238   0.000000
    15  H    4.720245   5.444896   3.652705   2.433170   0.000000
    16  H    5.444897   4.720245   2.433170   3.652705   1.721134
                   16
    16  H    0.000000
 Stoichiometry    C6H6N2O2
 Framework group  C1[X(C6H6N2O2)]
 Deg. of freedom    42
 Full point group                 C1      NOp   1
 Largest Abelian subgroup         C1      NOp   1
 Largest concise Abelian subgroup C1      NOp   1
                         Standard orientation:                         
 ---------------------------------------------------------------------
 Center     Atomic      Atomic             Coordinates (Angstroms)
 Number     Number       Type             X           Y           Z
 ---------------------------------------------------------------------
      1          6           0       -0.023753   -1.213821    0.003424
      2          6           0       -0.710932   -0.000000    0.005062
      3          6           0       -0.023754    1.213820    0.003424
      4          6           0        1.358528    1.213999    0.000572
      5          6           0        2.075866    0.000000   -0.000901
      6          6           0        1.358529   -1.214000    0.000571
      7          7           0        3.439683    0.000000   -0.003696
      8          7           0       -2.157784   -0.000000    0.008262
      9          8           0       -2.732695    1.087495   -0.006476
     10          8           0       -2.732698   -1.087494   -0.006473
     11          1           0       -0.585353   -2.139922    0.004615
     12          1           0       -0.585354    2.139920    0.004616
     13          1           0        1.898626    2.156119   -0.000525
     14          1           0        1.898627   -2.156119   -0.000528
     15          1           0        3.958200   -0.860566   -0.004728
     16          1           0        3.958200    0.860568   -0.004729
 ---------------------------------------------------------------------
 Rotational constants (GHZ):      3.9279941      0.8276777      0.6836345
 Standard basis: 6-31+G(d,p) (6D, 7F)
 There are   220 symmetry adapted cartesian basis functions of A   symmetry.
 There are   220 symmetry adapted basis functions of A   symmetry.
   220 basis functions,   362 primitive gaussians,   220 cartesian basis functions
    36 alpha electrons       36 beta electrons
       nuclear repulsion energy       496.2791509452 Hartrees.
 NAtoms=   16 NActive=   16 NUniq=   16 SFac= 1.00D+00 NAtFMM=   60 NAOKFM=F Big=F
 Integral buffers will be    131072 words long.
 Raffenetti 2 integral format.
 Two-electron integral symmetry is turned on.
 Nuclear repulsion after empirical dispersion term =      496.2500310983 Hartrees.
 One-electron integrals computed using PRISM.
 NBasis=   220 RedAO= T EigKep=  3.20D-06  NBF=   220
 NBsUse=   220 1.00D-06 EigRej= -1.00D+00 NBFU=   220
 Initial guess from the checkpoint file:  "B3PW91D3BJPNA.chk"
 B after Tr=    -0.000000   -0.000000    0.000000
         Rot=    1.000000   -0.000015    0.000059   -0.000000 Ang=  -0.01 deg.
 Keep R1 ints in memory in canonical form, NReq=301066375.
 Requested convergence on RMS density matrix=1.00D-08 within 128 cycles.
 Requested convergence on MAX density matrix=1.00D-06.
 Requested convergence on             energy=1.00D-06.
 No special actions if energy rises.
 SCF Done:  E(RB3PW91) =  -491.984486129     A.U. after   11 cycles
            NFock= 11  Conv=0.99D-08     -V/T= 2.0091
 Calling FoFJK, ICntrl=      2127 FMM=F ISym2X=0 I1Cent= 0 IOpClX= 0 NMat=1 NMatS=1 NMatT=0.
 ***** Axes restored to original set *****
 -------------------------------------------------------------------
 Center     Atomic                   Forces (Hartrees/Bohr)
 Number     Number              X              Y              Z
 -------------------------------------------------------------------
      1        6           0.000189072    0.000223406   -0.000217596
      2        6           0.000076961    0.000000668   -0.001050209
      3        6           0.000188458   -0.000224124   -0.000217781
      4        6          -0.000081136   -0.000215958    0.000060221
      5        6           0.000123810    0.000000188   -0.000029222
      6        6          -0.000082224    0.000215282    0.000060093
      7        7           0.000454060   -0.000000699   -0.000001412
      8        7           0.000559661    0.000000159    0.004661442
      9        8          -0.000889160   -0.000182114   -0.001655875
     10        8          -0.000888744    0.000181859   -0.001655882
     11        1          -0.000107949    0.000296175   -0.000007079
     12        1          -0.000107732   -0.000295920   -0.000007011
     13        1           0.000072575   -0.000243428    0.000028084
     14        1           0.000072775    0.000243874    0.000028064
     15        1           0.000209970    0.000097831    0.000002086
     16        1           0.000209604   -0.000097200    0.000002078
 -------------------------------------------------------------------
 Cartesian Forces:  Max     0.004661442 RMS     0.000807780

 GradGradGradGradGradGradGradGradGradGradGradGradGradGradGradGradGradGrad
 Berny optimization.
 Using GEDIIS/GDIIS optimizer.
 FormGI is forming the generalized inverse of G from B-inverse, IUseBI=4.
 Internal  Forces:  Max     0.001737905 RMS     0.000523925
 Search for a local minimum.
 Step number   3 out of a maximum of   82
 All quantities printed in internal units (Hartrees-Bohrs-Radians)
 Mixed Optimization -- En-DIIS/RFO-DIIS
 Swapping is turned off.
 Update second derivatives using D2CorX and points    1    2    3
 DE=  5.64D-05 DEPred=-8.82D-06 R=-6.39D+00
 Trust test=-6.39D+00 RLast= 3.48D-02 DXMaxT set to 1.50D-01
 ITU= -1  1  0
     Eigenvalues ---    0.01034   0.01806   0.01968   0.02043   0.02099
     Eigenvalues ---    0.02130   0.02152   0.02152   0.02179   0.02192
     Eigenvalues ---    0.02236   0.02242   0.10700   0.13417   0.16000
     Eigenvalues ---    0.16000   0.16000   0.16000   0.16012   0.22000
     Eigenvalues ---    0.22500   0.23590   0.25000   0.25000   0.25000
     Eigenvalues ---    0.29017   0.33297   0.35198   0.35302   0.35511
     Eigenvalues ---    0.37408   0.40758   0.41969   0.45110   0.45381
     Eigenvalues ---    0.46790   0.46792   0.47047   0.48045   0.51645
     Eigenvalues ---    0.88330   0.90722
 En-DIIS/RFO-DIIS IScMMF=        0 using points:     3    2    1
 RFO step:  Lambda=-4.64387731D-05.
 DidBck=T Rises=F RFO-DIIS coefs:    0.10749    0.65415    0.23836
 Iteration  1 RMS(Cart)=  0.00410196 RMS(Int)=  0.00003660
 Iteration  2 RMS(Cart)=  0.00003851 RMS(Int)=  0.00000310
 Iteration  3 RMS(Cart)=  0.00000000 RMS(Int)=  0.00000310
 Variable       Old X    -DE/DX   Delta X   Delta X   Delta X     New X
                                 (Linear)    (Quad)   (Total)
    R1        2.63587   0.00074   0.00108   0.00003   0.00111   2.63697
    R2        2.61214   0.00049   0.00094  -0.00011   0.00083   2.61297
    R3        2.04672   0.00031   0.00099  -0.00022   0.00077   2.04749
    R4        2.63586   0.00074   0.00108   0.00003   0.00111   2.63697
    R5        2.73416   0.00122   0.00285  -0.00027   0.00257   2.73673
    R6        2.61214   0.00049   0.00094  -0.00011   0.00084   2.61297
    R7        2.04672   0.00031   0.00099  -0.00022   0.00077   2.04749
    R8        2.66469   0.00065   0.00127  -0.00014   0.00113   2.66582
    R9        2.05216   0.00025   0.00075  -0.00014   0.00061   2.05277
   R10        2.66469   0.00065   0.00127  -0.00014   0.00113   2.66582
   R11        2.57725   0.00087   0.00134  -0.00009   0.00125   2.57850
   R12        2.05215   0.00025   0.00075  -0.00014   0.00061   2.05277
   R13        1.89862   0.00019   0.00047  -0.00010   0.00037   1.89899
   R14        1.89862   0.00019   0.00047  -0.00010   0.00037   1.89899
   R15        2.32474   0.00056   0.00071  -0.00018   0.00054   2.32527
   R16        2.32474   0.00056   0.00071  -0.00018   0.00054   2.32527
    A1        2.08607   0.00014   0.00030   0.00010   0.00039   2.08646
    A2        2.08133  -0.00001   0.00097  -0.00049   0.00049   2.08181
    A3        2.11579  -0.00013  -0.00127   0.00039  -0.00088   2.11491
    A4        2.11131  -0.00032  -0.00075  -0.00012  -0.00087   2.11044
    A5        2.08594   0.00016   0.00037   0.00006   0.00043   2.08637
    A6        2.08594   0.00016   0.00037   0.00006   0.00043   2.08637
    A7        2.08607   0.00014   0.00030   0.00010   0.00039   2.08646
    A8        2.08133  -0.00001   0.00097  -0.00049   0.00049   2.08181
    A9        2.11579  -0.00013  -0.00127   0.00039  -0.00088   2.11491
   A10        2.10436   0.00014   0.00069  -0.00015   0.00054   2.10490
   A11        2.09147  -0.00013  -0.00144   0.00052  -0.00092   2.09055
   A12        2.08736  -0.00001   0.00075  -0.00037   0.00038   2.08774
   A13        2.07421  -0.00025  -0.00123   0.00024  -0.00100   2.07321
   A14        2.10449   0.00012   0.00062  -0.00012   0.00050   2.10499
   A15        2.10449   0.00012   0.00062  -0.00012   0.00050   2.10499
   A16        2.10436   0.00014   0.00069  -0.00015   0.00054   2.10490
   A17        2.09147  -0.00013  -0.00144   0.00052  -0.00092   2.09055
   A18        2.08736  -0.00001   0.00075  -0.00037   0.00038   2.08774
   A19        2.11307   0.00008   0.00078  -0.00022   0.00056   2.11363
   A20        2.11307   0.00008   0.00078  -0.00022   0.00056   2.11363
   A21        2.05704  -0.00016  -0.00156   0.00044  -0.00112   2.05592
   A22        2.05704   0.00059   0.00095   0.00048   0.00145   2.05849
   A23        2.05704   0.00059   0.00095   0.00048   0.00145   2.05849
   A24        2.16870  -0.00108  -0.00154  -0.00096  -0.00249   2.16621
    D1        0.00037  -0.00009  -0.00037  -0.00000  -0.00037  -0.00000
    D2       -3.14142  -0.00005  -0.00017   0.00000  -0.00017  -3.14159
    D3       -3.14144  -0.00003  -0.00016  -0.00000  -0.00016   3.14159
    D4       -0.00004   0.00001   0.00004   0.00000   0.00004   0.00000
    D5       -0.00017   0.00004   0.00017   0.00000   0.00017   0.00000
    D6        3.14140   0.00005   0.00020   0.00000   0.00020  -3.14159
    D7       -3.14155  -0.00001  -0.00004  -0.00000  -0.00004  -3.14159
    D8        0.00002  -0.00000  -0.00002   0.00000  -0.00002   0.00000
    D9       -0.00037   0.00009   0.00037   0.00000   0.00037   0.00000
   D10        3.14144   0.00003   0.00016   0.00000   0.00016  -3.14159
   D11        3.14142   0.00005   0.00017  -0.00000   0.00017   3.14159
   D12        0.00004  -0.00001  -0.00004  -0.00000  -0.00004  -0.00000
   D13       -3.12677  -0.00174  -0.01478  -0.00010  -0.01487   3.14154
   D14       -0.01462   0.00170   0.01458   0.00010   0.01468   0.00006
   D15        0.01462  -0.00170  -0.01458  -0.00010  -0.01468  -0.00005
   D16        3.12678   0.00174   0.01478   0.00010   0.01487  -3.14153
   D17        0.00018  -0.00004  -0.00018  -0.00000  -0.00018  -0.00000
   D18       -3.14139  -0.00005  -0.00020  -0.00000  -0.00020   3.14159
   D19        3.14155   0.00001   0.00004  -0.00000   0.00004   3.14159
   D20       -0.00002   0.00000   0.00002  -0.00000   0.00002  -0.00000
   D21        0.00001  -0.00000  -0.00001  -0.00000  -0.00001  -0.00000
   D22       -3.14158  -0.00000  -0.00002  -0.00000  -0.00002   3.14159
   D23        3.14158   0.00000   0.00001   0.00000   0.00001  -3.14159
   D24       -0.00001   0.00000   0.00000  -0.00000   0.00000  -0.00000
   D25       -0.00001   0.00000   0.00001   0.00000   0.00001   0.00000
   D26       -3.14158  -0.00000  -0.00001  -0.00000  -0.00001   3.14159
   D27        3.14158   0.00000   0.00002   0.00000   0.00002  -3.14159
   D28        0.00001  -0.00000  -0.00000   0.00000  -0.00000   0.00000
   D29        3.14155   0.00000   0.00001  -0.00000   0.00001   3.14157
   D30        0.00003  -0.00000  -0.00001   0.00000  -0.00000   0.00003
   D31       -0.00003   0.00000   0.00001  -0.00000   0.00000  -0.00003
   D32       -3.14156  -0.00000  -0.00001   0.00000  -0.00001  -3.14157
         Item               Value     Threshold  Converged?
 Maximum Force            0.001738     0.000450     NO 
 RMS     Force            0.000524     0.000300     NO 
 Maximum Displacement     0.016631     0.001800     NO 
 RMS     Displacement     0.004094     0.001200     NO 
 Predicted change in Energy=-5.889626D-05
 GradGradGradGradGradGradGradGradGradGradGradGradGradGradGradGradGradGrad

                          Input orientation:                          
 ---------------------------------------------------------------------
 Center     Atomic      Atomic             Coordinates (Angstroms)
 Number     Number       Type             X           Y           Z
 ---------------------------------------------------------------------
      1          6           0       -0.022468    1.214033   -0.000033
      2          6           0       -0.710466   -0.000000   -0.000001
      3          6           0       -0.022468   -1.214033    0.000038
      4          6           0        1.360258   -1.214156    0.000047
      5          6           0        2.078507    0.000000    0.000016
      6          6           0        1.360258    1.214156   -0.000024
      7          7           0        3.442989    0.000000    0.000029
      8          7           0       -2.158682   -0.000000   -0.000011
      9          8           0       -2.735268   -1.087029   -0.000045
     10          8           0       -2.735268    1.087029   -0.000111
     11          1           0       -0.583427    2.141000   -0.000064
     12          1           0       -0.583426   -2.141001    0.000062
     13          1           0        1.899689   -2.157031    0.000078
     14          1           0        1.899689    2.157031   -0.000048
     15          1           0        3.962090    0.860445   -0.000014
     16          1           0        3.962090   -0.860445    0.000038
 ---------------------------------------------------------------------
                    Distance matrix (angstroms):
                    1          2          3          4          5
     1  C    0.000000
     2  C    1.395427   0.000000
     3  C    2.428066   1.395427   0.000000
     4  C    2.794286   2.400431   1.382727   0.000000
     5  C    2.426515   2.788973   2.426515   1.410693   0.000000
     6  C    1.382727   2.400432   2.794286   2.428311   1.410693
     7  N    3.671957   4.153455   3.671957   2.410797   1.364482
     8  N    2.457089   1.448217   2.457089   3.722515   4.237190
     9  O    3.557270   2.298142   2.715771   4.097499   4.934984
    10  O    2.715771   2.298142   3.557270   4.697743   4.934984
    11  H    1.083487   2.144766   3.401606   3.877497   3.416105
    12  H    3.401606   2.144766   1.083487   2.153358   3.416105
    13  H    3.880562   3.386103   2.141013   1.086278   2.164430
    14  H    2.141013   3.386103   3.880562   3.414071   2.164430
    15  H    4.000216   4.751120   4.492234   3.327686   2.070809
    16  H    4.492234   4.751120   4.000216   2.625765   2.070809
                    6          7          8          9         10
     6  C    0.000000
     7  N    2.410797   0.000000
     8  N    3.722515   5.601671   0.000000
     9  O    4.697743   6.273156   1.230481   0.000000
    10  O    4.097499   6.273156   1.230481   2.174058   0.000000
    11  H    2.153358   4.560253   2.658066   3.879510   2.396096
    12  H    3.877497   4.560253   2.658066   2.396096   3.879510
    13  H    3.414071   2.652274   4.595994   4.756862   5.657451
    14  H    1.086278   2.652274   4.595994   5.657451   4.756862
    15  H    2.625765   1.004903   6.180956   6.974759   6.701190
    16  H    3.327686   1.004904   6.180956   6.701190   6.974759
                   11         12         13         14         15
    11  H    0.000000
    12  H    4.282001   0.000000
    13  H    4.963762   2.483168   0.000000
    14  H    2.483168   4.963762   4.314062   0.000000
    15  H    4.722451   5.447054   3.654949   2.436110   0.000000
    16  H    5.447054   4.722451   2.436110   3.654949   1.720890
                   16
    16  H    0.000000
 Stoichiometry    C6H6N2O2
 Framework group  C1[X(C6H6N2O2)]
 Deg. of freedom    42
 Full point group                 C1      NOp   1
 Largest Abelian subgroup         C1      NOp   1
 Largest concise Abelian subgroup C1      NOp   1
                         Standard orientation:                         
 ---------------------------------------------------------------------
 Center     Atomic      Atomic             Coordinates (Angstroms)
 Number     Number       Type             X           Y           Z
 ---------------------------------------------------------------------
      1          6           0       -0.023084   -1.214033    0.000021
      2          6           0       -0.711081    0.000000   -0.000010
      3          6           0       -0.023084    1.214033   -0.000050
      4          6           0        1.359643    1.214156   -0.000058
      5          6           0        2.077892   -0.000000   -0.000027
      6          6           0        1.359643   -1.214156    0.000013
      7          7           0        3.442374    0.000000   -0.000040
      8          7           0       -2.159298    0.000000    0.000000
      9          8           0       -2.735883    1.087029    0.000033
     10          8           0       -2.735883   -1.087029    0.000100
     11          1           0       -0.584042   -2.141000    0.000052
     12          1           0       -0.584042    2.141000   -0.000073
     13          1           0        1.899074    2.157031   -0.000089
     14          1           0        1.899074   -2.157031    0.000037
     15          1           0        3.961475   -0.860445    0.000003
     16          1           0        3.961475    0.860445   -0.000049
 ---------------------------------------------------------------------
 Rotational constants (GHZ):      3.9279096      0.8261466      0.6825812
 Standard basis: 6-31+G(d,p) (6D, 7F)
 There are   220 symmetry adapted cartesian basis functions of A   symmetry.
 There are   220 symmetry adapted basis functions of A   symmetry.
   220 basis functions,   362 primitive gaussians,   220 cartesian basis functions
    36 alpha electrons       36 beta electrons
       nuclear repulsion energy       496.0005654408 Hartrees.
 NAtoms=   16 NActive=   16 NUniq=   16 SFac= 1.00D+00 NAtFMM=   60 NAOKFM=F Big=F
 Integral buffers will be    131072 words long.
 Raffenetti 2 integral format.
 Two-electron integral symmetry is turned on.
 Nuclear repulsion after empirical dispersion term =      495.9714604034 Hartrees.
 One-electron integrals computed using PRISM.
 NBasis=   220 RedAO= T EigKep=  3.21D-06  NBF=   220
 NBsUse=   220 1.00D-06 EigRej= -1.00D+00 NBFU=   220
 Initial guess from the checkpoint file:  "B3PW91D3BJPNA.chk"
 B after Tr=    -0.000000   -0.000000   -0.000000
         Rot=    1.000000    0.000015   -0.000008   -0.000000 Ang=   0.00 deg.
 Keep R1 ints in memory in canonical form, NReq=301066375.
 Requested convergence on RMS density matrix=1.00D-08 within 128 cycles.
 Requested convergence on MAX density matrix=1.00D-06.
 Requested convergence on             energy=1.00D-06.
 No special actions if energy rises.
 SCF Done:  E(RB3PW91) =  -491.984544680     A.U. after   12 cycles
            NFock= 12  Conv=0.22D-08     -V/T= 2.0092
 Calling FoFJK, ICntrl=      2127 FMM=F ISym2X=0 I1Cent= 0 IOpClX= 0 NMat=1 NMatS=1 NMatT=0.
 ***** Axes restored to original set *****
 -------------------------------------------------------------------
 Center     Atomic                   Forces (Hartrees/Bohr)
 Number     Number              X              Y              Z
 -------------------------------------------------------------------
      1        6           0.000053016    0.000030206    0.000000769
      2        6          -0.000073337    0.000000028    0.000004024
      3        6           0.000052963   -0.000030243    0.000000749
      4        6          -0.000045176   -0.000040185   -0.000000207
      5        6          -0.000002126   -0.000000007    0.000000140
      6        6          -0.000045268    0.000040146   -0.000000208
      7        7           0.000067467   -0.000000057    0.000000187
      8        7           0.000009595    0.000000008   -0.000018027
      9        8          -0.000001026   -0.000088795    0.000006443
     10        8          -0.000001020    0.000088784    0.000006438
     11        1          -0.000031677    0.000028547    0.000000037
     12        1          -0.000031674   -0.000028526    0.000000040
     13        1           0.000014336   -0.000016086   -0.000000102
     14        1           0.000014350    0.000016126   -0.000000103
     15        1           0.000009805    0.000013219   -0.000000091
     16        1           0.000009771   -0.000013164   -0.000000087
 -------------------------------------------------------------------
 Cartesian Forces:  Max     0.000088795 RMS     0.000030986

 GradGradGradGradGradGradGradGradGradGradGradGradGradGradGradGradGradGrad
 Berny optimization.
 Using GEDIIS/GDIIS optimizer.
 FormGI is forming the generalized inverse of G from B-inverse, IUseBI=4.
 Internal  Forces:  Max     0.000087042 RMS     0.000026625
 Search for a local minimum.
 Step number   4 out of a maximum of   82
[...]
 ! A23   A(2,8,10)             117.9425         -DE/DX =    0.0                 !
 ! A24   A(9,8,10)             124.115          -DE/DX =    0.0001              !
 ! D1    D(6,1,2,3)              0.0            -DE/DX =    0.0                 !
 ! D2    D(6,1,2,8)           -179.9999         -DE/DX =    0.0                 !
 ! D3    D(11,1,2,3)           179.9999         -DE/DX =    0.0                 !
 ! D4    D(11,1,2,8)             0.0001         -DE/DX =    0.0                 !
 ! D5    D(2,1,6,5)              0.0            -DE/DX =    0.0                 !
 ! D6    D(2,1,6,14)          -179.9999         -DE/DX =    0.0                 !
 ! D7    D(11,1,6,5)          -180.0            -DE/DX =    0.0                 !
 ! D8    D(11,1,6,14)            0.0001         -DE/DX =    0.0                 !
 ! D9    D(1,2,3,4)              0.0            -DE/DX =    0.0                 !
 ! D10   D(1,2,3,12)          -179.9999         -DE/DX =    0.0                 !
 ! D11   D(8,2,3,4)            179.9999         -DE/DX =    0.0                 !
 ! D12   D(8,2,3,12)            -0.0001         -DE/DX =    0.0                 !
 ! D13   D(1,2,8,9)           -180.0033         -DE/DX =    0.0                 !
 ! D14   D(1,2,8,10)             0.0033         -DE/DX =    0.0                 !
 ! D15   D(3,2,8,9)             -0.0031         -DE/DX =    0.0                 !
 ! D16   D(3,2,8,10)          -179.9966         -DE/DX =    0.0                 !
 ! D17   D(2,3,4,5)              0.0            -DE/DX =    0.0                 !
 ! D18   D(2,3,4,13)           179.9999         -DE/DX =    0.0                 !
 ! D19   D(12,3,4,5)           180.0            -DE/DX =    0.0                 !
 ! D20   D(12,3,4,13)           -0.0001         -DE/DX =    0.0                 !
 ! D21   D(3,4,5,6)              0.0            -DE/DX =    0.0                 !
 ! D22   D(3,4,5,7)            179.9997         -DE/DX =    0.0                 !
 ! D23   D(13,4,5,6)          -180.0            -DE/DX =    0.0                 !
 ! D24   D(13,4,5,7)            -0.0002         -DE/DX =    0.0                 !
 ! D25   D(4,5,6,1)              0.0            -DE/DX =    0.0                 !
 ! D26   D(4,5,6,14)           180.0            -DE/DX =    0.0                 !
 ! D27   D(7,5,6,1)           -179.9998         -DE/DX =    0.0                 !
 ! D28   D(7,5,6,14)             0.0002         -DE/DX =    0.0                 !
 ! D29   D(4,5,7,15)           179.9986         -DE/DX =    0.0                 !
 ! D30   D(4,5,7,16)             0.0016         -DE/DX =    0.0                 !
 ! D31   D(6,5,7,15)            -0.0017         -DE/DX =    0.0                 !
 ! D32   D(6,5,7,16)          -179.9987         -DE/DX =    0.0                 !
 --------------------------------------------------------------------------------
 GradGradGradGradGradGradGradGradGradGradGradGradGradGradGradGradGradGrad

 1\1\ WCSS.PL-BEM-JP\Freq\RB3PW91\6-31+G(d,p)\C6H6N2O2\C612\19-Dec-2024
 \0\\#N Geom=AllCheck Guess=TCheck SCRF=Check GenChk RB3PW91/6-31+G(d,p
 ) Freq\\[No Title]\\0,1\C,-0.0224684256,1.2140327262,-0.0000325398\C,-
 0.7104656841,-0.0000001324,-0.0000007667\C,-0.022468299,-1.2140328875,
 0.0000384521\C,1.3602582476,-1.2141556081,0.0000467533\C,2.0785071827,
 0.0000000201,0.0000158349\C,1.3602581967,1.2141556105,-0.000024084\N,3
 .4429890323,0.0000000864,0.0000292172\N,-2.1586823908,-0.0000001858,-0
 .0000114022\O,-2.7352678589,-1.0870293125,-0.0000445225\O,-2.735267953
 1,1.0870288972,-0.000110879\H,-0.5834266802,2.1410002942,-0.0000636236
 \H,-0.5834263967,-2.141000583,0.0000616137\H,1.8996894937,-2.157030782
 5,0.0000781699\H,1.8996893755,2.1570307517,-0.0000478199\H,3.962090034
 7,0.8604448201,-0.0000141353\H,3.9620901252,-0.8604447009,0.0000377319
 \\Version=ES64L-G09RevE.01\State=1-A\HF=-491.9845447\RMSD=2.020e-09\RM
 SF=3.099e-05\ZeroPoint=0.119491\Thermal=0.1274684\Dipole=3.0938341,0.,
 0.0000557\DipoleDeriv=0.5668347,0.1017384,0.0000033,0.3075961,0.071533
 ,0.0000008,0.0000047,-0.0000057,-0.0523668,-1.2056252,0.,-0.0000205,0.
 ,-0.1824482,0.0000055,0.0000051,0.0000055,0.001842,0.5668347,-0.101738
 3,0.0000091,-0.307596,0.071533,-0.000008,0.0000232,-0.0000018,-0.05236
 68,-0.6562748,-0.02347,-0.0000055,-0.5790228,0.0230231,-0.000013,0.000
 0186,-0.000007,-0.2048406,2.0789156,0.,0.0000223,0.,0.1172431,0.000001
 ,0.0000216,0.0000009,0.1452482,-0.6562749,0.02347,-0.0000069,0.5790227
 ,0.0230231,-0.0000003,-0.000016,-0.0000065,-0.2048406,-1.8919887,0.,-0
 .0000215,-0.0000002,-0.1515488,-0.0000133,-0.000054,-0.0000133,-0.5954
 083,2.6184586,0.,0.0000352,0.,1.5418389,-0.0000402,0.0000618,-0.000040
 1,0.2338889,-1.0218003,-0.3680584,0.0000034,-0.5443556,-0.9284829,0.00
 0025,-0.0000271,-0.0000212,-0.2583274,-1.0218004,0.3680584,-0.0000192,
 0.5443556,-0.9284828,0.000016,-0.0000601,0.0000622,-0.2583274,0.106745
 3,0.0424566,-0.0000009,0.0209536,0.0555519,0.0000022,-0.0000009,0.0000
 033,0.1418738,0.1067453,-0.0424566,0.0000016,-0.0209536,0.0555518,0.00
 00028,0.0000002,0.0000019,0.1418738,-0.0101908,0.0801001,-0.0000038,0.
 074627,-0.0345335,0.0000057,-0.0000066,0.0000049,0.1482456,-0.0101908,
 -0.0801001,0.0000009,-0.074627,-0.0345335,0.000005,-0.000002,0.000006,
 0.1482456,0.2148058,0.0462035,-0.0000001,0.0901639,0.1503659,0.0000088
 ,0.0000134,0.0000092,0.33263,0.2148059,-0.0462035,0.0000028,-0.0901638
 ,0.1503659,0.0000021,0.000018,0.0000017,0.33263\Polar=154.8814256,0.00
 0002,97.9555369,0.0015133,-0.0014395,49.2894616\PG=C01 [X(C6H6N2O2)]\N
 Imag=1\\0.73458958,-0.03787035,0.73089061,0.00000448,-0.00001779,0.134
 06278,-0.14548129,-0.10851598,0.00000306,0.58083067,-0.05770006,-0.295
 27002,0.00000678,-0.00000005,0.76320103,0.00000192,0.00000640,-0.05507
 394,0.00000612,-0.00001898,0.11715068,0.04951987,0.01932698,-0.0000003
 8,-0.14548132,0.05770011,-0.00000146,0.73458976,-0.01932697,-0.0555883
 2,0.00000185,0.10851603,-0.29527005,0.00000764,0.03787028,0.73089062,0
 .00000073,0.00000162,0.00420595,-0.00000333,0.00000728,-0.05507393,0.0
 0000223,-0.00001703,0.13406276,-0.03864286,-0.02727151,0.00000065,-0.0
 3931892,0.06642771,-0.00000233,-0.38373077,-0.02825096,-0.00000083,0.7
 4208025,-0.01712532,-0.01497249,0.00000032,0.02009329,0.02646971,-0.00
 000084,0.03050375,-0.12467366,0.00000232,-0.03924784,0.69768123,0.0000
 0039,0.00000039,-0.00110009,-0.00000062,-0.00000041,0.00456715,-0.0000
 0295,0.00000206,-0.05349316,0.00000511,-0.00001695,0.11759309,-0.03356
 722,0.03013275,-0.00000120,0.01659815,0.,0.00000019,-0.03356721,-0.030
 13275,0.00000057,-0.15465131,-0.09854390,0.00000243,0.75372794,0.07204
 164,0.03798564,-0.00000073,0.,-0.06503898,0.00000180,-0.07204165,0.037
 98563,-0.00000154,-0.03896212,-0.27256891,0.00000556,0.,0.69321014,-0.
 00000253,-0.00000109,-0.00061877,0.00000029,0.00000178,-0.00406878,0.0
 0000166,-0.00000116,-0.00061877,0.00000081,0.00000550,-0.06629139,0.00
 000342,-0.00001557,0.16110014,-0.38373057,0.02825093,-0.00000255,-0.03
 931890,-0.06642771,0.00000152,-0.03864287,0.02727150,-0.00000096,0.051
 72805,0.01268578,-0.00000019,-0.15465131,0.03896213,-0.00000147,0.7420
 8007,-0.03050378,-0.12467368,0.00000181,-0.02009330,0.02646970,-0.0000
 0046,0.01712532,-0.01497248,0.00000048,-0.01268577,-0.04223812,0.00000
 127,0.09854391,-0.27256892,0.00000653,0.03924792,0.69768136,-0.0000011
 6,0.00000207,-0.05349317,0.00000057,-0.00000088,0.00456715,-0.00000064
 ,0.00000043,-0.00110009,0.00000052,0.00000148,0.00557722,-0.00000334,0
 .00000647,-0.06629139,0.00000284,-0.00001684,0.11759309,0.01133196,0.0
 0178314,0.00000015,-0.01849418,0.,-0.00000022,0.01133196,-0.00178314,0
 .00000026,-0.04520004,-0.01802948,0.00000007,-0.36932181,-0.00000001,-
 0.00000341,-0.04520005,0.01802948,-0.00000099,0.79737862,-0.00608176,-
 0.01035402,0.00000047,0.,0.00700324,-0.00000023,0.00608176,-0.01035402
 ,0.00000038,-0.04930662,0.00146446,-0.00000016,-0.00000002,-0.13046706
 ,0.00000281,0.04930662,0.00146447,0.00000064,0.00000015,0.88665987,0.0
 0000057,0.00000045,0.00416605,-0.00000062,-0.00000022,-0.00096955,0.00
 000023,0.00000040,0.00416605,0.00000078,-0.00000028,0.00954321,-0.0000
 0023,0.00000284,-0.03624788,-0.00000210,0.00000075,0.00954321,-0.00000
 711,-0.00002650,0.00742492,-0.04369017,-0.02272134,0.00000044,-0.14157
 338,0.,0.00000285,-0.04369017,0.02272133,-0.00000089,0.01494685,0.0091
 0384,-0.00000062,-0.01806989,0.,-0.00000014,0.01494685,-0.00910383,-0.
 00000008,0.01738329,0.,0.00000058,0.67463866,-0.02590235,0.01358466,-0
 .00000038,0.,-0.11094961,0.00000115,0.02590235,0.01358467,-0.00000083,
 0.00499052,-0.00731232,0.00000030,0.,-0.00504428,0.00000008,-0.0049905
 2,-0.00731232,0.00000059,0.,0.00020016,-0.00000002,0.,0.97167233,0.000
 00010,-0.00000153,-0.00692055,-0.00000307,0.00000111,-0.07092204,-0.00
 000140,0.00000033,-0.00692056,0.00000001,0.00000040,0.00787019,-0.0000
 0041,0.00000009,-0.00215096,0.00000032,0.00000049,0.00787019,0.0000003
 3,-0.00000002,-0.00043605,0.00002911,-0.00002253,0.23054641,-0.0025296
 0,0.00789741,-0.00000064,-0.04249560,-0.05125238,-0.00000270,-0.001004
 80,-0.00342096,-0.00000003,-0.00206413,-0.00246497,0.00000010,0.004689
 32,-0.00202403,0.00000005,-0.00469407,-0.00017006,0.00000019,-0.004822
 27,0.00033547,-0.00000015,-0.23876585,-0.18426889,-0.00000693,0.249415
 41,0.00158718,0.00391882,-0.00000018,-0.04127685,-0.01223088,-0.000002
 00,0.01167668,-0.00861361,0.00000071,-0.00449883,-0.00012314,0.0000001
 1,0.00476831,0.00005778,0.00000004,-0.00272745,0.00259235,-0.00000003,
 -0.00422097,0.00055844,-0.00000017,-0.17520189,-0.43081550,-0.00000545
 ,0.22239710,0.55760492,-0.00000047,0.00000047,0.00464053,0.00000022,-0
 .00000135,0.01768622,-0.00000010,-0.00000012,0.00173374,-0.00000009,-0
 .00000005,-0.00066374,0.00000011,0.00000003,0.00041170,0.00000003,-0.0
 0000022,-0.00113368,-0.00000010,0.,0.00003257,-0.00001033,-0.00001019,
 -0.07700958,0.00000946,0.00000491,0.02857241,-0.00100480,0.00342096,-0
 .00000026,-0.04249561,0.05125238,-0.00000581,-0.00252960,-0.00789741,-
 0.00000018,-0.00469407,0.00017006,0.00000019,0.00468932,0.00202403,-0.
 00000007,-0.00206414,0.00246497,-0.00000004,-0.00482227,-0.00033547,-0
 .00000013,-0.23876587,0.18426888,-0.00001830,0.04662971,-0.01366536,0.
 00000150,0.24941544,-0.01167668,-0.00861361,-0.00000010,0.04127684,-0.
 01223087,0.00000387,-0.00158718,0.00391882,0.00000022,0.00272745,0.002
 59235,-0.00000020,-0.00476831,0.00005778,-0.00000002,0.00449883,-0.000
 12314,-0.00000014,0.00422097,0.00055844,0.00000014,0.17520188,-0.43081
 543,0.00002705,0.01366537,-0.11735526,0.00000654,-0.22239711,0.5576048
 5,0.00000061,0.00000074,0.00173374,-0.00000232,0.00000318,0.01768622,-
 0.00000039,-0.00000044,0.00464053,-0.00000013,0.,-0.00113368,0.0000003
 9,-0.00000002,0.00041170,-0.00000036,0.00000002,-0.00066374,-0.0000003
 5,-0.00000004,0.00003257,-0.00002115,0.00003176,-0.07700959,0.00000067
 ,0.00000222,0.02632223,0.00002319,-0.00003718,0.02857241,-0.13144870,0
 .12976251,-0.00000430,0.01258007,-0.01228106,0.00000030,-0.00183310,-0
 .00346297,0.00000006,-0.00075101,-0.00060211,0.00000002,-0.00472665,-0
 .00123514,-0.00000004,-0.00985430,0.02553716,-0.00000082,-0.00029850,0
 .00135037,-0.00000003,0.00140303,-0.00099823,0.00000015,0.00036847,0.0
 0145890,-0.00000002,-0.00388993,0.00018033,-0.00000018,0.13692707,0.12
 826830,-0.27706040,0.00000781,0.01505605,-0.01815337,0.00000071,-0.003
 99395,-0.00321571,0.00000025,-0.00070253,0.00041784,-0.00000005,-0.001
 53928,0.00116429,0.00000022,-0.00291687,0.00602455,-0.00000004,-0.0000
 8348,0.00026554,0.,0.00326136,-0.00359855,0.00000017,-0.00014654,0.001
 15061,-0.00000002,0.00065013,0.00335376,-0.00000019,-0.13885359,0.2897
 5400,-0.00000420,0.00000816,-0.03908115,-0.00000067,0.00000041,0.00478
 901,0.00000006,0.00000025,0.00478370,0.00000007,-0.00000004,-0.0010401
 8,-0.00000002,0.00000014,0.00845135,-0.00000005,0.00000004,0.00446524,
 0.,0.,-0.00007299,0.00000020,0.,-0.00398273,-0.00000004,-0.00000004,0.
 00036021,-0.00000015,-0.00000008,-0.00012508,0.00000478,-0.00000869,0.
 02655385,-0.00183310,0.00346297,-0.00000014,0.01258007,0.01228106,-0.0
 0000041,-0.13144864,-0.12976245,0.00000331,-0.00985430,-0.02553716,0.0
 0000068,-0.00472665,0.00123514,-0.00000011,-0.00075101,0.00060211,-0.0
 0000001,-0.00029850,-0.00135037,0.00000005,0.00140303,0.00099823,0.000
 00008,-0.00388993,-0.00018033,-0.00000015,0.00036847,-0.00145890,0.000
 00007,0.00073965,0.00087838,0.,0.13692701,0.00399395,-0.00321570,0.000
 00021,-0.01505604,-0.01815336,0.00000061,-0.12826825,-0.27706040,0.000
 00610,0.00291687,0.00602454,-0.00000005,0.00153928,0.00116429,0.000000
 21,0.00070253,0.00041784,-0.00000003,0.00008348,0.00026554,-0.00000001
 ,-0.00326136,-0.00359855,-0.00000019,-0.00065013,0.00335376,0.,0.00014
 654,0.00115061,-0.00000003,-0.00087838,-0.00088787,0.00000004,0.138853
 53,0.28975400,-0.00000017,0.00000022,0.00478370,0.00000018,0.00000098,
 0.00478901,0.00000335,0.00000574,-0.03908116,-0.00000022,-0.00000014,0
 .00446525,-0.00000010,0.00000028,0.00845135,0.00000003,-0.00000004,-0.
 00104018,-0.00000001,-0.00000002,-0.00007299,0.00000039,-0.00000001,-0
 .00398273,-0.00000009,-0.00000018,-0.00012508,-0.00000005,0.,0.0003602
 1,0.00000004,0.00000005,0.00059228,-0.00000339,-0.00000668,0.02655386,
 -0.00085899,-0.00068774,0.00000002,-0.00470373,-0.00210937,0.00000008,
 -0.01207708,0.02896274,-0.00000092,-0.12579417,0.12074779,-0.00000423,
 0.00929317,-0.01483615,0.00000046,-0.00131790,-0.00296585,0.00000002,0
 .00234693,-0.00072139,0.00000004,0.00049723,0.00191392,-0.00000003,-0.
 00019298,-0.00024116,-0.00000002,-0.00101432,0.00024428,-0.00000007,0.
 00002462,0.00008609,0.,0.00113784,-0.00015141,0.00000003,0.13232996,-0
 .00114713,-0.00006011,-0.00000003,-0.00072719,0.00199708,0.00000016,-0
 .00177711,0.00378800,-0.00000006,0.12066472,-0.27335310,0.00000786,0.0
 1735426,-0.01851197,0.00000075,-0.00402218,-0.00289694,0.00000020,0.00
 094150,0.00188816,-0.00000015,-0.00048223,0.00019538,0.00000004,0.0001
 7872,0.00003249,0.,0.00002656,-0.00001531,-0.00000002,0.00005988,-0.00
 000619,-0.00000002,0.00009697,0.00076687,-0.00000017,-0.13009420,0.287
 61497,0.00000006,0.00000001,-0.00065425,-0.00000003,0.00000008,0.00726
 487,-0.00000004,0.00000008,0.00207184,-0.00000428,0.00000789,-0.032110
 62,-0.00000042,0.00000055,0.00352054,0.00000008,0.00000024,0.00494044,
 -0.00000005,-0.00000008,-0.00267224,-0.00000003,0.00000010,0.00160072,
 -0.00000001,-0.00000002,-0.00006744,0.00000005,-0.00000005,-0.00071751
 ,0.,-0.00000002,-0.00062414,0.00000004,-0.00000015,-0.00479355,0.00000
 456,-0.00000864,0.02243933,-0.01207708,-0.02896274,0.00000078,-0.00470
 373,0.00210937,-0.00000005,-0.00085899,0.00068773,-0.00000002,-0.00131
 790,0.00296585,-0.00000015,0.00929318,0.01483615,-0.00000040,-0.125794
 18,-0.12074785,0.00000285,0.00234693,0.00072139,-0.00000001,0.00049723
 ,-0.00191392,0.00000008,-0.00101432,-0.00024428,-0.00000005,-0.0001929
 8,0.00024116,-0.00000004,0.00113784,0.00015141,0.00000003,0.00002462,-
 0.00008609,0.,0.00057723,0.00077785,-0.00000002,0.13232996,0.00177711,
 0.00378800,-0.00000005,0.00072719,0.00199708,0.00000015,0.00114713,-0.
 00006011,-0.00000001,0.00402218,-0.00289694,0.00000026,-0.01735425,-0.
 01851197,0.00000055,-0.12066478,-0.27335321,0.00000623,-0.00094150,0.0
 0188816,-0.00000012,0.00048223,0.00019538,0.00000004,-0.00002656,-0.00
 001531,-0.00000002,-0.00017872,0.00003249,0.,-0.00009697,0.00076687,-0
 .00000015,-0.00005988,-0.00000619,-0.00000002,-0.00077785,-0.00104011,
 0.00000003,0.13009425,0.28761508,-0.00000016,-0.00000019,0.00207184,-0
 .00000007,0.00000023,0.00726487,0.,-0.00000004,-0.00065425,-0.00000016
 ,0.00000022,0.00494044,0.00000061,0.00000073,0.00352055,0.00000281,0.0
 0000622,-0.03211060,0.,-0.00000019,-0.00267224,-0.00000006,-0.00000001
 ,0.00160072,0.00000005,0.,-0.00071751,0.,0.00000001,-0.00006744,0.0000
 0004,-0.00000017,-0.00479355,0.,-0.00000002,-0.00062414,0.00000003,0.0
 0000003,-0.00011888,-0.00000308,-0.00000685,0.02243931,-0.00057609,0.0
 0001558,-0.00000003,0.00073885,0.00035064,0.,-0.00000094,-0.00197642,0
 .00000002,-0.00497005,0.00326805,-0.00000011,-0.01250453,-0.03212932,0
 .00000171,0.00223438,-0.00201236,0.,-0.17683107,-0.17674712,0.00000942
 ,-0.00058042,-0.00002643,-0.00000002,0.00023110,0.00030854,0.00000001,
 0.00013955,-0.00006039,0.,0.00002031,0.00000816,0.,-0.00039888,0.00012
 364,0.,0.00008616,-0.00019878,0.00000002,-0.00033397,0.00165165,-0.000
 00002,0.17899470,-0.00108031,-0.00070025,-0.00000008,0.00155509,0.0000
 7965,0.00000003,-0.00074654,0.00034088,0.00000003,0.00242357,0.0018866
 9,0.00000011,-0.00080434,0.00554327,-0.00000043,0.00324685,0.00160186,
 -0.00000012,-0.17489925,-0.37552080,0.00001760,-0.00158111,0.00000699,
 -0.00000003,0.00036212,0.00035704,0.,0.00041167,-0.00047251,0.00000004
 ,0.00008587,0.00000691,0.,0.00002657,0.00001771,-0.00000001,0.00015976
 ,0.00024582,-0.00000002,-0.00047054,-0.00064506,0.00000008,0.18936756,
 0.38074388,-0.00000003,-0.00000002,-0.00084559,0.00000010,-0.00000001,
 0.00017152,-0.00000011,0.,0.00212295,-0.00000015,0.00000015,0.00323029
 ,-0.00000101,-0.00000100,-0.00478969,0.00000006,-0.00000020,-0.0019539
 6,0.00001104,0.00001974,0.00411771,-0.00000009,0.,-0.00007672,0.000000
 03,0.00000003,-0.00002001,0.00000002,-0.00000002,-0.00002257,0.,0.,0.0
 0013897,-0.00000002,-0.00000001,-0.00041480,0.,-0.00000001,-0.00069252
 ,0.00000005,0.00000002,0.00061339,-0.00000996,-0.00001823,0.00251289,-
 0.00000094,0.00197642,-0.00000009,0.00073885,-0.00035064,0.00000001,-0
 .00057609,-0.00001558,-0.00000003,0.00223438,0.00201236,-0.00000012,-0
 .01250453,0.03212932,-0.00000023,-0.00497005,-0.00326805,0.00000008,-0
 .17683103,0.17674698,-0.00000127,-0.00058042,0.00002643,-0.00000002,0.
 00013955,0.00006039,0.,0.00023110,-0.00030854,0.00000003,-0.00039888,-
 0.00012364,0.,0.00002031,-0.00000816,0.,-0.00033397,-0.00165165,0.0000
 0008,0.00008616,0.00019878,0.,0.01375089,-0.01805699,0.00000005,0.1789
 9467,0.00074654,0.00034088,0.00000008,-0.00155509,0.00007965,-0.000000
 03,0.00108031,-0.00070025,0.00000007,-0.00324685,0.00160186,-0.0000000
 9,0.00080434,0.00554326,-0.00000021,-0.00242357,0.00188669,-0.00000003
 ,0.17489911,-0.37552058,0.00000532,0.00158111,0.00000699,0.00000002,-0
 .00041167,-0.00047251,0.,-0.00036212,0.00035704,-0.00000003,-0.0000265
 7,0.00001771,-0.00000001,-0.00008587,0.00000691,0.,0.00047054,-0.00064
 506,0.,-0.00015976,0.00024582,-0.00000004,0.01805699,-0.01349207,-0.00
 000044,-0.18936742,0.38074366,-0.00000014,0.00000009,0.00212295,0.0000
 0018,0.00000002,0.00017152,-0.00000008,0.,-0.00084559,0.00000024,-0.00
 000001,-0.00195396,-0.00000099,0.00000036,-0.00478969,0.,-0.00000007,0
 .00323029,0.00000040,0.00000320,0.00411767,-0.00000018,0.,-0.00007672,
 0.00000005,0.00000005,-0.00002257,0.00000005,-0.00000005,-0.00002001,-
 0.00000002,-0.00000001,-0.00041480,0.,0.,0.00013897,0.,0.00000004,0.00
 061339,0.00000001,-0.00000004,-0.00069252,-0.00000104,0.00000101,-0.00
 409188,0.00000150,-0.00000460,0.00251293\\-0.00005301,-0.00003020,-0.0
 0000077,0.00007333,-0.00000003,-0.00000402,-0.00005295,0.00003023,-0.0
 0000075,0.00004518,0.00004019,0.00000021,0.00000211,-0.00000001,-0.000
 00014,0.00004527,-0.00004014,0.00000021,-0.00006746,0.00000008,-0.0000
 0019,-0.00000961,0.,0.00001802,0.00000103,0.00008880,-0.00000644,0.000
 00103,-0.00008879,-0.00000644,0.00003168,-0.00002855,-0.00000004,0.000
 03167,0.00002853,-0.00000004,-0.00001434,0.00001609,0.00000010,-0.0000
 1435,-0.00001613,0.00000010,-0.00000981,-0.00001323,0.00000009,-0.0000
 0977,0.00001315,0.00000009\\\@


 THIS CURIOUS WORLD WHICH WE INHABIT IS MORE WONDERFUL THAN IT IS CONVENIENT;
 MORE BEAUTIFUL THAN IT IS USEFUL;
 IT IS MORE TO BE ADMIRED THAN IT IS TO BE USED.

                                                                 -- THOREAU
 Job cpu time:       0 days  0 hours  9 minutes  8.4 seconds.
 File lengths (MBytes):  RWF=     85 Int=      0 D2E=      0 Chk=      5 Scr=      1
 Normal termination of Gaussian 09 at Thu Dec 19 00:16:41 2024.
