 Entering Gaussian System, Link 0=g09
 Input=camb3lypPNAyang.gjf
 Output=camb3lypPNAyang.log
 Initial command:
 /home/phzd/g09E/g09/l1.exe "/home/phzd/g09E/scratch/Gau-69693.inp" -scrdir="/home/phzd/g09E/scratch/"
 Default is to use a total of  18 processors:
                               18 via shared-memory
                                1 via Linda
 Entering Link 1 = /home/phzd/g09E/g09/l1.exe PID=     69695.
  
 Copyright (c) 1988,1990,1992,1993,1995,1998,2003,2009,2015,
            Gaussian, Inc.  All Rights Reserved.
  
 This is part of the Gaussian(R) 09 program.  It is based on
 the Gaussian(R) 03 system (copyright 2003, Gaussian, Inc.),
 the Gaussian(R) 98 system (copyright 1998, Gaussian, Inc.),
 the Gaussian(R) 94 system (copyright 1995, Gaussian, Inc.),
 the Gaussian 92(TM) system (copyright 1992, Gaussian, Inc.),
 the Gaussian 90(TM) system (copyright 1990, Gaussian, Inc.),
 the Gaussian 88(TM) system (copyright 1988, Gaussian, Inc.),
 the Gaussian 86(TM) system (copyright 1986, Carnegie Mellon
 University), and the Gaussian 82(TM) system (copyright 1983,
 Carnegie Mellon University). Gaussian is a federally registered
 trademark of Gaussian, Inc.
  
 This software contains proprietary and confidential information,
 including trade secrets, belonging to Gaussian, Inc.
  
 This software is provided under written license and may be
 used, copied, transmitted, or stored only in accord with that
 written license.
  
 The following legend is applicable only to US Government
 contracts under FAR:
  
                    RESTRICTED RIGHTS LEGEND
  
 Use, reproduction and disclosure by the US Government is
 subject to restrictions as set forth in subparagraphs (a)
 and (c) of the Commercial Computer Software - Restricted
 Rights clause in FAR 52.227-19.
  
 Gaussian, Inc.
 340 Quinnipiac St., Bldg. 40, Wallingford CT 06492
  
  
 ---------------------------------------------------------------
 Warning -- This program may not be used in any manner that
 competes with the business of Gaussian, Inc. or will provide
 assistance to any competitor of Gaussian, Inc.  The licensee
 of this program is prohibited from giving any competitor of
 Gaussian, Inc. access to this program.  By using this program,
 the user acknowledges that Gaussian, Inc. is engaged in the
 business of creating and licensing software in the field of
 computational chemistry and represents and warrants to the
 licensee that it is not a competitor of Gaussian, Inc. and that
 it will not use this program in any manner prohibited above.
 ---------------------------------------------------------------
  

 Cite this work as:
 Gaussian 09, Revision E.01,
 M. J. Frisch, G. W. Trucks, H. B. Schlegel, G. E. Scuseria, 
 M. A. Robb, J. R. Cheeseman, G. Scalmani, V. Barone, B. Mennucci, 
 G. A. Petersson, H. Nakatsuji, M. Caricato, X. Li, H. P. Hratchian, 
 A. F. Izmaylov, J. Bloino, G. Zheng, J. L. Sonnenberg, M. Hada, 
 M. Ehara, K. Toyota, R. Fukuda, J. Hasegawa, M. Ishida, T. Nakajima, 
 Y. Honda, O. Kitao, H. Nakai, T. Vreven, J. A. Montgomery, Jr., 
 J. E. Peralta, F. Ogliaro, M. Bearpark, J. J. Heyd, E. Brothers, 
 K. N. Kudin, V. N. Staroverov, T. Keith, R. Kobayashi, J. Normand, 
 K. Raghavachari, A. Rendell, J. C. Burant, S. S. Iyengar, J. Tomasi, 
 M. Cossi, N. Rega, J. M. Millam, M. Klene, J. E. Knox, J. B. Cross, 
 V. Bakken, C. Adamo, J. Jaramillo, R. Gomperts, R. E. Stratmann, 
 O. Yazyev, A. J. Austin, R. Cammi, C. Pomelli, J. W. Ochterski, 
 R. L. Martin, K. Morokuma, V. G. Zakrzewski, G. A. Voth, 
 P. Salvador, J. J. Dannenberg, S. Dapprich, A. D. Daniels, 
 O. Farkas, J. B. Foresman, J. V. Ortiz, J. Cioslowski, 
 and D. J. Fox, Gaussian, Inc., Wallingford CT, 2013.
 
 ******************************************
 Gaussian 09:  ES64L-G09RevE.01 30-Nov-2015
                13-Jun-2024 
 ******************************************
 %chk=camb3lypPNAyang.chk
 -----------------------------------------
 # opt freq cam-b3lyp/6-31+g(d,p) em=gd3bj
 -----------------------------------------
 1/14=-1,18=20,19=15,26=3,38=1/1,3;
 2/9=110,12=2,17=6,18=5,40=1/2;
 3/5=1,6=6,7=111,11=2,16=1,25=1,30=1,71=1,74=-40,124=41/1,2,3;
 4//1;
 5/5=2,38=5/2;
 6/7=2,8=2,9=2,10=2,28=1/1;
 7//1,2,3,16;
 1/14=-1,18=20,19=15,26=3/3(2);
 2/9=110/2;
 99//99;
 2/9=110/2;
 3/5=1,6=6,7=111,11=2,16=1,25=1,30=1,71=1,74=-40,124=41/1,2,3;
 4/5=5,16=3,69=1/1;
 5/5=2,38=5/2;
 7//1,2,3,16;
 1/14=-1,18=20,19=15,26=3/3(-5);
 2/9=110/2;
 6/7=2,8=2,9=2,10=2,19=2,28=1/1;
 99/9=1/99;
 ----------
 [No Title]
 ----------
 Symbolic Z-matrix:
 Charge =  1 Multiplicity = 1
 C                    -0.06017   1.26451  0. 
 C                     0.66722   0.0387    0. 
 C                    -0.00646  -1.2169    0. 
 C                    -1.37234  -1.23943   0. 
 C                    -2.12014  -0.01853  0. 
 C                    -1.42463   1.23363  -0.00001 
 N                    -3.4557   -0.04642  0. 
 N                     2.03132   0.1101    0.00001 
 O                     2.67315  -1.10362   0. 
 O                     2.71015   1.12009   0. 
 H                     0.47887   2.20441  0. 
 H                     0.5588   -2.1397   0. 
 H                    -1.89983  -2.18732   0.00001 
 H                    -1.99069   2.15903  -0.00001 
 H                    -4.00226   0.80435  -0.00001 
 H                    -3.96667  -0.919     0.00001 
 H                     3.62522  -0.87117  -0.00013 
 

 GradGradGradGradGradGradGradGradGradGradGradGradGradGradGradGradGradGrad
 Berny optimization.
 Initialization pass.
                           ----------------------------
                           !    Initial Parameters    !
                           ! (Angstroms and Degrees)  !
 --------------------------                            --------------------------
 ! Name  Definition              Value          Derivative Info.                !
 --------------------------------------------------------------------------------
 ! R1    R(1,2)                  1.4254         estimate D2E/DX2                !
 ! R2    R(1,6)                  1.3648         estimate D2E/DX2                !
 ! R3    R(1,11)                 1.0835         estimate D2E/DX2                !
 ! R4    R(2,3)                  1.4249         estimate D2E/DX2                !
 ! R5    R(2,8)                  1.366          estimate D2E/DX2                !
 ! R6    R(3,4)                  1.3661         estimate D2E/DX2                !
 ! R7    R(3,12)                 1.0822         estimate D2E/DX2                !
 ! R8    R(4,5)                  1.4317         estimate D2E/DX2                !
 ! R9    R(4,13)                 1.0848         estimate D2E/DX2                !
 ! R10   R(5,6)                  1.4323         estimate D2E/DX2                !
 ! R11   R(5,7)                  1.3359         estimate D2E/DX2                !
 ! R12   R(6,14)                 1.0848         estimate D2E/DX2                !
 ! R13   R(7,15)                 1.0112         estimate D2E/DX2                !
 ! R14   R(7,16)                 1.0112         estimate D2E/DX2                !
 ! R15   R(8,9)                  1.373          estimate D2E/DX2                !
 ! R16   R(8,10)                 1.2169         estimate D2E/DX2                !
 ! R17   R(9,17)                 0.98           estimate D2E/DX2                !
 ! A1    A(2,1,6)              119.3876         estimate D2E/DX2                !
 ! A2    A(2,1,11)             119.481          estimate D2E/DX2                !
 ! A3    A(6,1,11)             121.1313         estimate D2E/DX2                !
 ! A4    A(1,2,3)              121.1003         estimate D2E/DX2                !
 ! A5    A(1,2,8)              117.6881         estimate D2E/DX2                !
 ! A6    A(3,2,8)              121.2115         estimate D2E/DX2                !
 ! A7    A(2,3,4)              119.1603         estimate D2E/DX2                !
 ! A8    A(2,3,12)             120.2948         estimate D2E/DX2                !
 ! A9    A(4,3,12)             120.5448         estimate D2E/DX2                !
 ! A10   A(3,4,5)              120.5419         estimate D2E/DX2                !
 ! A11   A(3,4,13)             120.0404         estimate D2E/DX2                !
 ! A12   A(5,4,13)             119.4177         estimate D2E/DX2                !
 ! A13   A(4,5,6)              119.4629         estimate D2E/DX2                !
 ! A14   A(4,5,7)              120.2907         estimate D2E/DX2                !
 ! A15   A(6,5,7)              120.2464         estimate D2E/DX2                !
 ! A16   A(1,6,5)              120.3468         estimate D2E/DX2                !
 ! A17   A(1,6,14)             120.1572         estimate D2E/DX2                !
 ! A18   A(5,6,14)             119.496          estimate D2E/DX2                !
 ! A19   A(5,7,15)             121.5216         estimate D2E/DX2                !
 ! A20   A(5,7,16)             121.5488         estimate D2E/DX2                !
 ! A21   A(15,7,16)            116.9296         estimate D2E/DX2                !
 ! A22   A(2,8,9)              114.874          estimate D2E/DX2                !
 ! A23   A(2,8,10)             126.9018         estimate D2E/DX2                !
 ! A24   A(9,8,10)             118.2242         estimate D2E/DX2                !
 ! A25   A(8,9,17)             104.1501         estimate D2E/DX2                !
 ! D1    D(6,1,2,3)              0.0001         estimate D2E/DX2                !
 ! D2    D(6,1,2,8)           -179.9997         estimate D2E/DX2                !
 ! D3    D(11,1,2,3)          -179.9998         estimate D2E/DX2                !
 ! D4    D(11,1,2,8)             0.0004         estimate D2E/DX2                !
 ! D5    D(2,1,6,5)              0.0003         estimate D2E/DX2                !
 ! D6    D(2,1,6,14)          -179.9997         estimate D2E/DX2                !
 ! D7    D(11,1,6,5)          -179.9998         estimate D2E/DX2                !
 ! D8    D(11,1,6,14)            0.0002         estimate D2E/DX2                !
 ! D9    D(1,2,3,4)             -0.0004         estimate D2E/DX2                !
 ! D10   D(1,2,3,12)           179.9997         estimate D2E/DX2                !
 ! D11   D(8,2,3,4)            179.9994         estimate D2E/DX2                !
 ! D12   D(8,2,3,12)            -0.0005         estimate D2E/DX2                !
 ! D13   D(1,2,8,9)           -179.9994         estimate D2E/DX2                !
 ! D14   D(1,2,8,10)            -0.001          estimate D2E/DX2                !
 ! D15   D(3,2,8,9)              0.0008         estimate D2E/DX2                !
 ! D16   D(3,2,8,10)           179.9992         estimate D2E/DX2                !
 ! D17   D(2,3,4,5)              0.0004         estimate D2E/DX2                !
 ! D18   D(2,3,4,13)          -179.9996         estimate D2E/DX2                !
 ! D19   D(12,3,4,5)          -179.9998         estimate D2E/DX2                !
 ! D20   D(12,3,4,13)            0.0002         estimate D2E/DX2                !
 ! D21   D(3,4,5,6)              0.0            estimate D2E/DX2                !
 ! D22   D(3,4,5,7)            179.9999         estimate D2E/DX2                !
 ! D23   D(13,4,5,6)           180.0            estimate D2E/DX2                !
 ! D24   D(13,4,5,7)            -0.0001         estimate D2E/DX2                !
 ! D25   D(4,5,6,1)             -0.0003         estimate D2E/DX2                !
 ! D26   D(4,5,6,14)           179.9997         estimate D2E/DX2                !
 ! D27   D(7,5,6,1)            179.9998         estimate D2E/DX2                !
 ! D28   D(7,5,6,14)            -0.0003         estimate D2E/DX2                !
 ! D29   D(4,5,7,15)          -179.9998         estimate D2E/DX2                !
 ! D30   D(4,5,7,16)             0.0004         estimate D2E/DX2                !
 ! D31   D(6,5,7,15)             0.0001         estimate D2E/DX2                !
 ! D32   D(6,5,7,16)          -179.9997         estimate D2E/DX2                !
 ! D33   D(2,8,9,17)           179.9913         estimate D2E/DX2                !
 ! D34   D(10,8,9,17)           -0.0072         estimate D2E/DX2                !
 --------------------------------------------------------------------------------
 Trust Radius=3.00D-01 FncErr=1.00D-07 GrdErr=1.00D-06
 Number of steps in this run=     86 maximum allowed number of steps=    102.
 GradGradGradGradGradGradGradGradGradGradGradGradGradGradGradGradGradGrad

                          Input orientation:                          
 ---------------------------------------------------------------------
 Center     Atomic      Atomic             Coordinates (Angstroms)
 Number     Number       Type             X           Y           Z
 ---------------------------------------------------------------------
      1          6           0       -0.060168    1.264512   -0.000001
      2          6           0        0.667215    0.038700    0.000003
      3          6           0       -0.006463   -1.216902    0.000000
      4          6           0       -1.372344   -1.239434    0.000002
      5          6           0       -2.120136   -0.018528   -0.000001
      6          6           0       -1.424625    1.233625   -0.000006
      7          7           0       -3.455699   -0.046419   -0.000001
      8          7           0        2.031320    0.110101    0.000014
      9          8           0        2.673146   -1.103617    0.000004
     10          8           0        2.710147    1.120092    0.000004
     11          1           0        0.478867    2.204406   -0.000002
     12          1           0        0.558802   -2.139695   -0.000001
     13          1           0       -1.899830   -2.187322    0.000006
     14          1           0       -1.990692    2.159031   -0.000014
     15          1           0       -4.002258    0.804349   -0.000006
     16          1           0       -3.966668   -0.919003    0.000007
     17          1           0        3.625215   -0.871171   -0.000130
 ---------------------------------------------------------------------
                    Distance matrix (angstroms):
                    1          2          3          4          5
     1  C    0.000000
     2  C    1.425378   0.000000
     3  C    2.481995   1.424913   0.000000
     4  C    2.826933   2.406954   1.366067   0.000000
     5  C    2.426862   2.787938   2.429756   1.431714   0.000000
     6  C    1.364807   2.409075   2.831301   2.473612   1.432349
     7  N    3.639804   4.123793   3.642425   2.400761   1.335854
     8  N    2.388930   1.365972   2.431768   3.661444   4.153448
     9  O    3.616496   2.308386   2.682003   4.047769   4.914567
    10  O    2.774077   2.311489   3.583505   4.715304   4.962670
    11  H    1.083494   2.173881   3.455560   3.909861   3.419978
    12  H    3.460022   2.181091   1.082161   2.130679   3.417025
    13  H    3.911459   3.397778   2.127570   1.084773   2.179955
    14  H    2.127695   3.400040   3.915876   3.454261   2.181403
    15  H    3.968857   4.731828   4.477927   3.330690   2.054145
    16  H    4.475319   4.731814   3.971394   2.614038   2.054394
    17  H    4.259482   3.094775   3.648097   5.011109   5.808275
                    6          7          8          9         10
     6  C    0.000000
     7  N    2.400786   0.000000
     8  N    3.633987   5.489251   0.000000
     9  O    4.717460   6.219358   1.372972   0.000000
    10  O    4.136330   6.275221   1.216917   2.224017   0.000000
    11  H    2.136749   4.532882   2.606957   3.969619   2.480796
    12  H    3.913217   4.527474   2.688846   2.354551   3.905701
    13  H    3.453795   2.646544   4.553251   4.699630   5.673700
    14  H    1.084808   2.647689   4.513834   5.691771   4.814279
    15  H    2.613134   1.011204   6.073388   6.942719   6.719827
    16  H    3.331034   1.011184   6.085632   6.642380   6.981244
    17  H    5.470928   7.128784   1.871736   0.980034   2.191456
                   11         12         13         14         15
    11  H    0.000000
    12  H    4.344836   0.000000
    13  H    4.994544   2.459093   0.000000
    14  H    2.469976   4.997896   4.347303   0.000000
    15  H    4.694746   5.428689   3.656542   2.425193   0.000000
    16  H    5.433090   4.687213   2.424964   3.657701   1.723719
    17  H    4.399850   3.318440   5.679646   6.381264   7.809335
                   16         17
    16  H    0.000000
    17  H    7.592034   0.000000
 Stoichiometry    C6H7N2O2(1+)
 Framework group  C1[X(C6H7N2O2)]
 Deg. of freedom    45
 Full point group                 C1      NOp   1
 Largest Abelian subgroup         C1      NOp   1
 Largest concise Abelian subgroup C1      NOp   1
                         Standard orientation:                         
 ---------------------------------------------------------------------
 Center     Atomic      Atomic             Coordinates (Angstroms)
 Number     Number       Type             X           Y           Z
 ---------------------------------------------------------------------
      1          6           0        0.060168    1.264512    0.000001
      2          6           0       -0.667215    0.038700   -0.000003
      3          6           0        0.006463   -1.216902   -0.000000
      4          6           0        1.372344   -1.239434   -0.000002
      5          6           0        2.120136   -0.018528    0.000001
      6          6           0        1.424625    1.233625    0.000006
      7          7           0        3.455699   -0.046419    0.000001
      8          7           0       -2.031320    0.110101   -0.000014
      9          8           0       -2.673146   -1.103617   -0.000004
     10          8           0       -2.710147    1.120092   -0.000004
     11          1           0       -0.478867    2.204406    0.000002
     12          1           0       -0.558802   -2.139695    0.000001
     13          1           0        1.899830   -2.187322   -0.000006
     14          1           0        1.990692    2.159031    0.000014
     15          1           0        4.002258    0.804349    0.000006
     16          1           0        3.966668   -0.919003   -0.000007
     17          1           0       -3.625215   -0.871171    0.000130
 ---------------------------------------------------------------------
 Rotational constants (GHZ):      3.7518842      0.8202376      0.6730872
 Standard basis: 6-31+G(d,p) (6D, 7F)
 There are   225 symmetry adapted cartesian basis functions of A   symmetry.
 There are   225 symmetry adapted basis functions of A   symmetry.
   225 basis functions,   369 primitive gaussians,   225 cartesian basis functions
    36 alpha electrons       36 beta electrons
       nuclear repulsion energy       507.8608013708 Hartrees.
 NAtoms=   17 NActive=   17 NUniq=   17 SFac= 1.00D+00 NAtFMM=   60 NAOKFM=F Big=F
 Integral buffers will be    131072 words long.
 Raffenetti 2 integral format.
 Two-electron integral symmetry is turned on.
 Nuclear repulsion after empirical dispersion term =      507.8472907186 Hartrees.
 One-electron integrals computed using PRISM.
 NBasis=   225 RedAO= T EigKep=  3.39D-06  NBF=   225
 NBsUse=   225 1.00D-06 EigRej= -1.00D+00 NBFU=   225
 ExpMin= 4.38D-02 ExpMax= 5.48D+03 ExpMxC= 8.25D+02 IAcc=2 IRadAn=         4 AccDes= 0.00D+00
 Harris functional with IExCor=20419 and IRadAn=       4 diagonalized for initial guess.
 HarFok:  IExCor=20419 AccDes= 0.00D+00 IRadAn=         4 IDoV= 1 UseB2=F ITyADJ=14
 ICtDFT=  3500011 ScaDFX=  1.000000  1.000000  1.000000  1.000000
 FoFCou: FMM=F IPFlag=           0 FMFlag=      100000 FMFlg1=           0
         NFxFlg=           0 DoJE=T BraDBF=F KetDBF=T FulRan=T
         wScrn=  0.000000 ICntrl=     500 IOpCl=  0 I1Cent=   200000004 NGrid=           0
         NMat0=    1 NMatS0=      1 NMatT0=    0 NMatD0=    1 NMtDS0=    0 NMtDT0=    0
 Petite list used in FoFCou.
 Keep R1 ints in memory in canonical form, NReq=652403680.
 Requested convergence on RMS density matrix=1.00D-08 within 128 cycles.
 Requested convergence on MAX density matrix=1.00D-06.
 Requested convergence on             energy=1.00D-06.
 No special actions if energy rises.
 SCF Done:  E(RCAM-B3LYP) =  -492.268773801     A.U. after   16 cycles
            NFock= 16  Conv=0.78D-08     -V/T= 2.0093

 **********************************************************************

            Population analysis using the SCF density.

 **********************************************************************

 Orbital symmetries:
       Occupied  (A) (A) (A) (A) (A) (A) (A) (A) (A) (A) (A) (A)
                 (A) (A) (A) (A) (A) (A) (A) (A) (A) (A) (A) (A)
                 (A) (A) (A) (A) (A) (A) (A) (A) (A) (A) (A) (A)
       Virtual   (A) (A) (A) (A) (A) (A) (A) (A) (A) (A) (A) (A)
                 (A) (A) (A) (A) (A) (A) (A) (A) (A) (A) (A) (A)
                 (A) (A) (A) (A) (A) (A) (A) (A) (A) (A) (A) (A)
                 (A) (A) (A) (A) (A) (A) (A) (A) (A) (A) (A) (A)
                 (A) (A) (A) (A) (A) (A) (A) (A) (A) (A) (A) (A)
                 (A) (A) (A) (A) (A) (A) (A) (A) (A) (A) (A) (A)
                 (A) (A) (A) (A) (A) (A) (A) (A) (A) (A) (A) (A)
                 (A) (A) (A) (A) (A) (A) (A) (A) (A) (A) (A) (A)
                 (A) (A) (A) (A) (A) (A) (A) (A) (A) (A) (A) (A)
                 (A) (A) (A) (A) (A) (A) (A) (A) (A) (A) (A) (A)
                 (A) (A) (A) (A) (A) (A) (A) (A) (A) (A) (A) (A)
                 (A) (A) (A) (A) (A) (A) (A) (A) (A) (A) (A) (A)
                 (A) (A) (A) (A) (A) (A) (A) (A) (A) (A) (A) (A)
                 (A) (A) (A) (A) (A) (A) (A) (A) (A) (A) (A) (A)
                 (A) (A) (A) (A) (A) (A) (A) (A) (A) (A) (A) (A)
                 (A) (A) (A) (A) (A) (A) (A) (A) (A)
 The electronic state is 1-A.
 Alpha  occ. eigenvalues --  -19.49660 -19.46363 -14.84182 -14.62821 -10.52643
 Alpha  occ. eigenvalues --  -10.50408 -10.47167 -10.46978 -10.45238 -10.45200
 Alpha  occ. eigenvalues --   -1.50040  -1.33768  -1.21538  -1.16142  -1.08226
 Alpha  occ. eigenvalues --   -1.02900  -0.96516  -0.90229  -0.87631  -0.82831
 Alpha  occ. eigenvalues --   -0.80993  -0.79324  -0.79030  -0.77654  -0.71901
 Alpha  occ. eigenvalues --   -0.69282  -0.68657  -0.67830  -0.65926  -0.65318
 Alpha  occ. eigenvalues --   -0.60316  -0.59631  -0.57548  -0.56667  -0.50577
 Alpha  occ. eigenvalues --   -0.45423
 Alpha virt. eigenvalues --   -0.25245  -0.14066  -0.11381  -0.10439  -0.09418
 Alpha virt. eigenvalues --   -0.07721  -0.06710  -0.05999  -0.04678  -0.04161
 Alpha virt. eigenvalues --   -0.03216  -0.01866  -0.01825  -0.01040  -0.00878
 Alpha virt. eigenvalues --    0.00095   0.01846   0.02911   0.03188   0.03637
 Alpha virt. eigenvalues --    0.03956   0.04051   0.05135   0.06413   0.06829
 Alpha virt. eigenvalues --    0.07005   0.07758   0.08591   0.08886   0.08890
 Alpha virt. eigenvalues --    0.10070   0.10960   0.11666   0.12047   0.12243
 Alpha virt. eigenvalues --    0.12787   0.13323   0.14546   0.14866   0.15318
 Alpha virt. eigenvalues --    0.15954   0.16721   0.18211   0.18533   0.19168
 Alpha virt. eigenvalues --    0.19851   0.20588   0.22221   0.22766   0.24075
 Alpha virt. eigenvalues --    0.24936   0.27527   0.28328   0.29193   0.30212
 Alpha virt. eigenvalues --    0.33438   0.34120   0.36693   0.41106   0.46558
 Alpha virt. eigenvalues --    0.49310   0.53293   0.54369   0.54917   0.58004
 Alpha virt. eigenvalues --    0.59852   0.60961   0.62832   0.64414   0.68072
 Alpha virt. eigenvalues --    0.68914   0.70805   0.73023   0.74237   0.77150
 Alpha virt. eigenvalues --    0.78786   0.79973   0.83080   0.84754   0.85489
 Alpha virt. eigenvalues --    0.87230   0.87739   0.90724   0.91581   0.94245
 Alpha virt. eigenvalues --    0.95615   0.95999   0.97789   1.00025   1.02613
 Alpha virt. eigenvalues --    1.05388   1.06622   1.07721   1.10091   1.10530
 Alpha virt. eigenvalues --    1.12598   1.15401   1.16824   1.17706   1.19911
 Alpha virt. eigenvalues --    1.20545   1.21592   1.23558   1.27303   1.27455
 Alpha virt. eigenvalues --    1.27680   1.28737   1.32394   1.35435   1.35898
 Alpha virt. eigenvalues --    1.40148   1.41431   1.45304   1.55431   1.59078
 Alpha virt. eigenvalues --    1.63837   1.65185   1.69449   1.70371   1.73397
 Alpha virt. eigenvalues --    1.73442   1.78417   1.80212   1.80366   1.82876
 Alpha virt. eigenvalues --    1.84768   1.85883   1.86786   1.86989   1.92393
 Alpha virt. eigenvalues --    1.94881   1.98580   2.00518   2.01718   2.04286
 Alpha virt. eigenvalues --    2.07079   2.08693   2.10790   2.20077   2.20793
 Alpha virt. eigenvalues --    2.27639   2.28267   2.29776   2.30195   2.30939
 Alpha virt. eigenvalues --    2.34399   2.35254   2.38573   2.39772   2.43884
 Alpha virt. eigenvalues --    2.46241   2.46599   2.48465   2.48550   2.50641
 Alpha virt. eigenvalues --    2.51966   2.57000   2.57356   2.60993   2.66014
 Alpha virt. eigenvalues --    2.66125   2.70690   2.73254   2.74899   2.87135
 Alpha virt. eigenvalues --    2.89977   2.93038   2.98050   3.00465   3.05357
 Alpha virt. eigenvalues --    3.09708   3.19780   3.24629   3.25056   3.31487
 Alpha virt. eigenvalues --    3.39947   3.43613   3.58412   3.73941   4.03019
 Alpha virt. eigenvalues --    4.11299   4.18060   4.19809   4.23398   4.35551
 Alpha virt. eigenvalues --    4.37966   4.42049   4.67187   4.75490
          Condensed to atoms (all electrons):
               1          2          3          4          5          6
     1  C    7.862270   0.847582  -2.115380  -0.963646  -0.074005  -0.054280
     2  C    0.847582  10.530631  -1.493782  -1.274531  -0.797315  -0.520399
     3  C   -2.115380  -1.493782   9.774274  -0.297787   0.154503  -0.913261
     4  C   -0.963646  -1.274531  -0.297787   8.649957   0.494327  -0.822603
     5  C   -0.074005  -0.797315   0.154503   0.494327   5.595941   0.261919
     6  C   -0.054280  -0.520399  -0.913261  -0.822603   0.261919   7.749557
     7  N    0.065010  -0.013555   0.061590  -0.056233   0.134515  -0.066450
     8  N    0.359420  -0.879379   0.046284  -0.013061   0.035712   0.065621
     9  O    0.010383  -0.300534   0.127013   0.053139  -0.004475   0.029870
    10  O   -0.171538  -0.231577   0.263486   0.007063   0.017269   0.013738
    11  H    0.118299   0.198691   0.065596  -0.004469  -0.032666   0.012743
    12  H    0.044113   0.243937   0.048414   0.059587  -0.044880   0.007992
    13  H    0.001955   0.025032   0.116508   0.186582   0.001640   0.003993
    14  H    0.084499   0.018933  -0.010719   0.010798   0.001046   0.230936
    15  H    0.025260  -0.000225  -0.001093   0.028150  -0.021449  -0.046006
    16  H   -0.001844  -0.000023   0.024222  -0.044936  -0.021401   0.028635
    17  H    0.031041   0.018873  -0.039282  -0.000819  -0.000962   0.003489
               7          8          9         10         11         12
     1  C    0.065010   0.359420   0.010383  -0.171538   0.118299   0.044113
     2  C   -0.013555  -0.879379  -0.300534  -0.231577   0.198691   0.243937
     3  C    0.061590   0.046284   0.127013   0.263486   0.065596   0.048414
     4  C   -0.056233  -0.013061   0.053139   0.007063  -0.004469   0.059587
     5  C    0.134515   0.035712  -0.004475   0.017269  -0.032666  -0.044880
     6  C   -0.066450   0.065621   0.029870   0.013738   0.012743   0.007992
     7  N    6.810325   0.000584  -0.000115  -0.000455  -0.000203  -0.000090
     8  N    0.000584   7.152821   0.198664   0.437225  -0.049370  -0.053243
     9  O   -0.000115   0.198664   7.791527  -0.101320  -0.001646   0.015501
    10  O   -0.000455   0.437225  -0.101320   7.704740   0.017237  -0.002110
    11  H   -0.000203  -0.049370  -0.001646   0.017237   0.473335  -0.000079
    12  H   -0.000090  -0.053243   0.015501  -0.002110  -0.000079   0.479475
    13  H   -0.014717  -0.000864   0.000100   0.000029   0.000009  -0.004465
    14  H   -0.014316  -0.000473   0.000071  -0.000067  -0.004129   0.000010
    15  H    0.337029   0.000001  -0.000000   0.000001  -0.000007   0.000002
    16  H    0.336972   0.000008   0.000001  -0.000000   0.000002  -0.000007
    17  H    0.000004   0.023275   0.226247   0.012777   0.000005   0.000226
              13         14         15         16         17
     1  C    0.001955   0.084499   0.025260  -0.001844   0.031041
     2  C    0.025032   0.018933  -0.000225  -0.000023   0.018873
     3  C    0.116508  -0.010719  -0.001093   0.024222  -0.039282
     4  C    0.186582   0.010798   0.028150  -0.044936  -0.000819
     5  C    0.001640   0.001046  -0.021449  -0.021401  -0.000962
     6  C    0.003993   0.230936  -0.046006   0.028635   0.003489
     7  N   -0.014717  -0.014316   0.337029   0.336972   0.000004
     8  N   -0.000864  -0.000473   0.000001   0.000008   0.023275
     9  O    0.000100   0.000071  -0.000000   0.000001   0.226247
    10  O    0.000029  -0.000067   0.000001  -0.000000   0.012777
    11  H    0.000009  -0.004129  -0.000007   0.000002   0.000005
    12  H   -0.004465   0.000010   0.000002  -0.000007   0.000226
    13  H    0.506557  -0.000087  -0.000019   0.003913   0.000000
    14  H   -0.000087   0.504077   0.003926  -0.000021  -0.000000
    15  H   -0.000019   0.003926   0.344988  -0.020561   0.000000
    16  H    0.003913  -0.000021  -0.020561   0.345345  -0.000000
    17  H    0.000000  -0.000000   0.000000  -0.000000   0.323592
 Mulliken charges:
               1
     1  C   -0.069138
     2  C   -0.372357
     3  C    0.189413
     4  C   -0.011519
     5  C    0.300284
     6  C    0.014507
     7  N   -0.579895
     8  N   -0.323225
     9  O   -0.044425
    10  O    0.033500
    11  H    0.206652
    12  H    0.205619
    13  H    0.173833
    14  H    0.175516
    15  H    0.350004
    16  H    0.349696
    17  H    0.401536
 Sum of Mulliken charges =   1.00000
 Mulliken charges with hydrogens summed into heavy atoms:
               1
     1  C    0.137514
     2  C   -0.372357
     3  C    0.395032
     4  C    0.162314
     5  C    0.300284
     6  C    0.190023
     7  N    0.119804
     8  N   -0.323225
     9  O    0.357110
    10  O    0.033500
 Electronic spatial extent (au):  <R**2>=           1556.5233
 Charge=              1.0000 electrons
 Dipole moment (field-independent basis, Debye):
    X=              3.5421    Y=             -1.1014    Z=              0.0002  Tot=              3.7094
 Quadrupole moment (field-independent basis, Debye-Ang):
   XX=             -8.9022   YY=            -44.9345   ZZ=            -58.8838
   XY=              4.7334   XZ=             -0.0010   YZ=             -0.0002
 Traceless Quadrupole moment (field-independent basis, Debye-Ang):
   XX=             28.6713   YY=             -7.3609   ZZ=            -21.3103
   XY=              4.7334   XZ=             -0.0010   YZ=             -0.0002
 Octapole moment (field-independent basis, Debye-Ang**2):
  XXX=             40.5851  YYY=             -1.0000  ZZZ=              0.0001  XYY=             12.9098
  XXY=            -21.9517  XXZ=              0.0039  XZZ=            -11.3165  YZZ=              0.3442
  YYZ=              0.0003  XYZ=              0.0012
 Hexadecapole moment (field-independent basis, Debye-Ang**3):
 XXXX=           -689.4622 YYYY=           -340.6522 ZZZZ=            -59.8436 XXXY=             82.2801
 XXXZ=             -0.0159 YYYX=              3.3903 YYYZ=             -0.0001 ZZZX=             -0.0005
 ZZZY=             -0.0002 XXYY=           -248.9936 XXZZ=           -267.5739 YYZZ=            -82.7505
 XXYZ=             -0.0033 YYXZ=             -0.0010 ZZXY=             -0.5028
 N-N= 5.078472907186D+02 E-N=-2.149669420788D+03  KE= 4.877544394122D+02
 Calling FoFJK, ICntrl=      2127 FMM=F ISym2X=0 I1Cent= 0 IOpClX= 0 NMat=1 NMatS=1 NMatT=0.
 ***** Axes restored to original set *****
 -------------------------------------------------------------------
 Center     Atomic                   Forces (Hartrees/Bohr)
 Number     Number              X              Y              Z
 -------------------------------------------------------------------
      1        6          -0.005449782   -0.002412126    0.000000517
      2        6           0.005731430    0.000967857    0.000001490
      3        6          -0.005699723    0.001847618    0.000000440
      4        6           0.005167686    0.001795223    0.000000012
      5        6          -0.002977345    0.000217148    0.000000001
      6        6           0.004874268   -0.001632730   -0.000000147
      7        7           0.006030369    0.000080556    0.000000050
      8        7           0.002792428    0.000388284   -0.000004407
      9        8          -0.004051672    0.011701959   -0.000000564
     10        8          -0.007344787   -0.012665973    0.000000759
     11        1          -0.000032467    0.000030871    0.000000044
     12        1           0.000042637   -0.000049897    0.000000047
     13        1           0.000199101    0.000356614   -0.000000220
     14        1           0.000177839   -0.000366012    0.000000080
     15        1           0.000608912   -0.000353120    0.000000061
     16        1           0.000584553    0.000384543   -0.000000102
     17        1          -0.000653446   -0.000290814    0.000001939
 -------------------------------------------------------------------
 Cartesian Forces:  Max     0.012665973 RMS     0.003384941

 GradGradGradGradGradGradGradGradGradGradGradGradGradGradGradGradGradGrad
 Berny optimization.
 FormGI is forming the generalized inverse of G from B-inverse, IUseBI=4.
 GSVD:  received Info=                   1 from GESDD.
 Internal  Forces:  Max     0.014609471 RMS     0.002926158
 Search for a local minimum.
 Step number   1 out of a maximum of   86
 All quantities printed in internal units (Hartrees-Bohrs-Radians)
 Mixed Optimization -- RFO/linear search
 Second derivative matrix not updated -- first step.
 ITU=  0
     Eigenvalues ---    0.01652   0.01699   0.01815   0.01919   0.01989
     Eigenvalues ---    0.01999   0.02036   0.02130   0.02134   0.02142
     Eigenvalues ---    0.02259   0.02276   0.02540   0.02540   0.16000
     Eigenvalues ---    0.16000   0.16000   0.16000   0.16000   0.16000
     Eigenvalues ---    0.16000   0.22000   0.22949   0.24000   0.25000
     Eigenvalues ---    0.25000   0.25000   0.25000   0.35420   0.35424
     Eigenvalues ---    0.35575   0.35735   0.38065   0.39554   0.41257
     Eigenvalues ---    0.41341   0.45772   0.45775   0.48887   0.50410
     Eigenvalues ---    0.51378   0.51758   0.51868   0.58144   0.96762
 RFO step:  Lambda=-1.09248304D-03 EMin= 1.65233406D-02
 Linear search not attempted -- first point.
 Iteration  1 RMS(Cart)=  0.01114082 RMS(Int)=  0.00000933
 Iteration  2 RMS(Cart)=  0.00001387 RMS(Int)=  0.00000030
 Iteration  3 RMS(Cart)=  0.00000000 RMS(Int)=  0.00000030
 Variable       Old X    -DE/DX   Delta X   Delta X   Delta X     New X
                                 (Linear)    (Quad)   (Total)
    R1        2.69357  -0.00265   0.00000  -0.00633  -0.00633   2.68724
    R2        2.57911  -0.00723   0.00000  -0.01387  -0.01387   2.56524
    R3        2.04751   0.00001   0.00000   0.00003   0.00003   2.04754
    R4        2.69270  -0.00257   0.00000  -0.00612  -0.00612   2.68658
    R5        2.58131  -0.00929   0.00000  -0.01791  -0.01791   2.56340
    R6        2.58149  -0.00745   0.00000  -0.01436  -0.01436   2.56713
    R7        2.04499   0.00006   0.00000   0.00018   0.00018   2.04517
    R8        2.70555  -0.00279   0.00000  -0.00685  -0.00684   2.69870
    R9        2.04992  -0.00041   0.00000  -0.00115  -0.00115   2.04877
   R10        2.70675  -0.00309   0.00000  -0.00759  -0.00759   2.69916
   R11        2.52440  -0.00722   0.00000  -0.01240  -0.01240   2.51200
   R12        2.04999  -0.00041   0.00000  -0.00114  -0.00114   2.04885
   R13        1.91090  -0.00063   0.00000  -0.00136  -0.00136   1.90953
   R14        1.91086  -0.00063   0.00000  -0.00137  -0.00137   1.90949
   R15        2.59454  -0.01229   0.00000  -0.02432  -0.02432   2.57022
   R16        2.29964  -0.01461   0.00000  -0.01508  -0.01508   2.28456
   R17        1.85200  -0.00070   0.00000  -0.00137  -0.00137   1.85063
    A1        2.08371  -0.00028   0.00000  -0.00107  -0.00107   2.08264
    A2        2.08534   0.00018   0.00000   0.00081   0.00081   2.08615
    A3        2.11414   0.00009   0.00000   0.00026   0.00026   2.11440
    A4        2.11360   0.00063   0.00000   0.00270   0.00270   2.11630
    A5        2.05405  -0.00011   0.00000  -0.00054  -0.00054   2.05350
    A6        2.11554  -0.00052   0.00000  -0.00216  -0.00216   2.11338
    A7        2.07974  -0.00041   0.00000  -0.00169  -0.00169   2.07805
    A8        2.09954   0.00019   0.00000   0.00078   0.00078   2.10032
    A9        2.10390   0.00022   0.00000   0.00091   0.00091   2.10481
   A10        2.10385  -0.00036   0.00000  -0.00154  -0.00154   2.10232
   A11        2.09510   0.00018   0.00000   0.00077   0.00077   2.09587
   A12        2.08423   0.00018   0.00000   0.00077   0.00077   2.08500
   A13        2.08502   0.00093   0.00000   0.00376   0.00376   2.08878
   A14        2.09947  -0.00050   0.00000  -0.00203  -0.00203   2.09744
   A15        2.09870  -0.00043   0.00000  -0.00173  -0.00173   2.09696
   A16        2.10045  -0.00051   0.00000  -0.00216  -0.00216   2.09829
   A17        2.09714   0.00029   0.00000   0.00133   0.00133   2.09847
   A18        2.08560   0.00021   0.00000   0.00083   0.00083   2.08643
   A19        2.12095  -0.00021   0.00000  -0.00132  -0.00132   2.11963
   A20        2.12143  -0.00019   0.00000  -0.00118  -0.00118   2.12025
   A21        2.04081   0.00040   0.00000   0.00250   0.00250   2.04330
   A22        2.00493   0.00113   0.00000   0.00450   0.00450   2.00943
   A23        2.21485   0.00055   0.00000   0.00219   0.00219   2.21704
   A24        2.06340  -0.00168   0.00000  -0.00669  -0.00669   2.05671
   A25        1.81776   0.00024   0.00000   0.00147   0.00147   1.81923
    D1        0.00000  -0.00000   0.00000  -0.00001  -0.00001  -0.00001
    D2       -3.14159  -0.00000   0.00000  -0.00000  -0.00000  -3.14159
    D3       -3.14159  -0.00000   0.00000  -0.00001  -0.00001   3.14159
    D4        0.00001   0.00000   0.00000  -0.00000  -0.00000   0.00001
    D5        0.00001  -0.00000   0.00000   0.00000   0.00000   0.00001
    D6       -3.14159   0.00000   0.00000   0.00000   0.00000  -3.14159
    D7       -3.14159  -0.00000   0.00000  -0.00000  -0.00000  -3.14159
    D8        0.00000  -0.00000   0.00000  -0.00000  -0.00000   0.00000
    D9       -0.00001   0.00000   0.00000   0.00001   0.00001   0.00000
   D10        3.14159   0.00000   0.00000   0.00000   0.00000   3.14159
   D11        3.14158   0.00000   0.00000   0.00001   0.00001   3.14159
   D12       -0.00001  -0.00000   0.00000  -0.00000  -0.00000  -0.00001
   D13       -3.14158  -0.00000   0.00000  -0.00007  -0.00007   3.14153
   D14       -0.00002   0.00000   0.00000   0.00004   0.00004   0.00002
   D15        0.00001  -0.00000   0.00000  -0.00007  -0.00007  -0.00005
   D16        3.14158   0.00000   0.00000   0.00004   0.00005  -3.14156
   D17        0.00001  -0.00000   0.00000  -0.00001  -0.00001  -0.00000
   D18       -3.14159  -0.00000   0.00000  -0.00001  -0.00001   3.14159
   D19       -3.14159  -0.00000   0.00000  -0.00000  -0.00000  -3.14159
   D20        0.00000  -0.00000   0.00000  -0.00000  -0.00000   0.00000
   D21       -0.00000   0.00000   0.00000   0.00000   0.00000   0.00000
   D22        3.14159   0.00000   0.00000   0.00000   0.00000   3.14159
   D23        3.14159   0.00000   0.00000   0.00000   0.00000  -3.14159
   D24       -0.00000   0.00000   0.00000   0.00000   0.00000   0.00000
   D25       -0.00001   0.00000   0.00000   0.00000   0.00000  -0.00000
   D26        3.14159   0.00000   0.00000   0.00000   0.00000   3.14159
   D27        3.14159   0.00000   0.00000   0.00000   0.00000   3.14159
   D28       -0.00000   0.00000   0.00000   0.00000   0.00000  -0.00000
   D29       -3.14159  -0.00000   0.00000  -0.00000  -0.00000  -3.14159
   D30        0.00001  -0.00000   0.00000  -0.00000  -0.00000   0.00000
   D31        0.00000  -0.00000   0.00000  -0.00000  -0.00000   0.00000
   D32       -3.14159  -0.00000   0.00000  -0.00000  -0.00000  -3.14159
   D33        3.14144   0.00000   0.00000   0.00014   0.00014   3.14159
   D34       -0.00013   0.00000   0.00000   0.00004   0.00004  -0.00008
         Item               Value     Threshold  Converged?
 Maximum Force            0.014609     0.000450     NO 
 RMS     Force            0.002926     0.000300     NO 
 Maximum Displacement     0.034112     0.001800     NO 
 RMS     Displacement     0.011146     0.001200     NO 
 Predicted change in Energy=-5.473441D-04
 GradGradGradGradGradGradGradGradGradGradGradGradGradGradGradGradGradGrad

                          Input orientation:                          
 ---------------------------------------------------------------------
 Center     Atomic      Atomic             Coordinates (Angstroms)
 Number     Number       Type             X           Y           Z
 ---------------------------------------------------------------------
      1          6           0       -0.061981    1.261313   -0.000016
      2          6           0        0.661655    0.037176   -0.000032
      3          6           0       -0.009197   -1.216268   -0.000026
      4          6           0       -1.367492   -1.237783   -0.000010
      5          6           0       -2.110719   -0.018332    0.000003
      6          6           0       -1.419119    1.231398   -0.000002
      7          7           0       -3.439725   -0.045867    0.000018
      8          7           0        2.016374    0.106559   -0.000042
      9          8           0        2.656243   -1.093626    0.000019
     10          8           0        2.694069    1.107687   -0.000018
     11          1           0        0.477864    2.200760   -0.000018
     12          1           0        0.556351   -2.139000   -0.000039
     13          1           0       -1.896030   -2.184388   -0.000008
     14          1           0       -1.985552    2.155872    0.000005
     15          1           0       -3.984633    0.805102    0.000026
     16          1           0       -3.949443   -0.918345    0.000024
     17          1           0        3.607164   -0.859534   -0.000005
 ---------------------------------------------------------------------
                    Distance matrix (angstroms):
                    1          2          3          4          5
     1  C    0.000000
     2  C    1.422027   0.000000
     3  C    2.478143   1.421677   0.000000
     4  C    2.819546   2.396447   1.358466   0.000000
     5  C    2.415537   2.772930   2.418976   1.428092   0.000000
     6  C    1.357468   2.399122   2.824703   2.469720   1.428333
     7  N    3.621861   4.102221   3.624688   2.390567   1.329291
     8  N    2.377606   1.356494   2.419258   3.641127   4.128982
     9  O    3.596453   2.292835   2.668260   4.026317   4.886736
    10  O    2.760328   2.297107   3.564886   4.690150   4.934968
    11  H    1.083510   2.171376   3.451566   3.902424   3.409565
    12  H    3.456075   2.178722   1.082256   2.124468   3.407418
    13  H    3.903408   3.387787   2.120706   1.084165   2.176670
    14  H    2.121406   3.390661   3.908620   3.449477   2.177804
    15  H    3.949092   4.709321   4.459824   3.320061   2.046850
    16  H    4.456823   4.709060   3.951493   2.601637   2.047176
    17  H    4.237996   3.078979   3.633913   4.989016   5.779430
                    6          7          8          9         10
     6  C    0.000000
     7  N    2.390451   0.000000
     8  N    3.614951   5.458228   0.000000
     9  O    4.691941   6.185356   1.360102   0.000000
    10  O    4.115048   6.241323   1.208937   2.201638   0.000000
    11  H    2.130307   4.516065   2.598593   3.949470   2.471107
    12  H    3.906669   4.511079   2.678470   2.345709   3.887263
    13  H    3.448918   2.637474   4.533800   4.681127   5.648607
    14  H    1.084205   2.638612   4.496120   5.666172   4.795576
    15  H    2.600690   1.010482   6.041527   6.906982   6.685553
    16  H    3.320231   1.010460   6.053214   6.608012   6.945578
    17  H    5.443851   7.093708   1.861169   0.979311   2.168802
                   11         12         13         14         15
    11  H    0.000000
    12  H    4.340469   0.000000
    13  H    4.986471   2.452801   0.000000
    14  H    2.463826   4.990711   4.341183   0.000000
    15  H    4.675654   5.411864   3.646823   2.412655   0.000000
    16  H    5.415706   4.668210   2.412338   3.647969   1.723806
    17  H    4.376975   3.308246   5.660422   6.353829   7.772155
                   16         17
    16  H    0.000000
    17  H    7.556836   0.000000
 Stoichiometry    C6H7N2O2(1+)
 Framework group  C1[X(C6H7N2O2)]
 Deg. of freedom    45
 Full point group                 C1      NOp   1
 Largest Abelian subgroup         C1      NOp   1
 Largest concise Abelian subgroup C1      NOp   1
                         Standard orientation:                         
 ---------------------------------------------------------------------
 Center     Atomic      Atomic             Coordinates (Angstroms)
 Number     Number       Type             X           Y           Z
 ---------------------------------------------------------------------
      1          6           0        0.059902    1.262080    0.000007
      2          6           0       -0.664061    0.038137    0.000023
      3          6           0        0.006456   -1.215487    0.000017
      4          6           0        1.364746   -1.237364    0.000001
      5          6           0        2.108298   -0.018112   -0.000012
      6          6           0        1.417032    1.231802   -0.000007
      7          7           0        3.437297   -0.046003   -0.000027
      8          7           0       -2.018761    0.107882    0.000033
      9          8           0       -2.658951   -1.092132   -0.000028
     10          8           0       -2.696188    1.109191    0.000009
     11          1           0       -0.479692    2.201671    0.000009
     12          1           0       -0.559339   -2.138067    0.000029
     13          1           0        1.893030   -2.184111   -0.000002
     14          1           0        1.983713    2.156125   -0.000014
     15          1           0        3.982432    0.804821   -0.000035
     16          1           0        3.946782   -0.918616   -0.000033
     17          1           0       -3.609809   -0.857786   -0.000005
 ---------------------------------------------------------------------
 Rotational constants (GHZ):      3.7827514      0.8290451      0.6800108
 Standard basis: 6-31+G(d,p) (6D, 7F)
 There are   225 symmetry adapted cartesian basis functions of A   symmetry.
 There are   225 symmetry adapted basis functions of A   symmetry.
   225 basis functions,   369 primitive gaussians,   225 cartesian basis functions
    36 alpha electrons       36 beta electrons
       nuclear repulsion energy       510.2889634573 Hartrees.
 NAtoms=   17 NActive=   17 NUniq=   17 SFac= 1.00D+00 NAtFMM=   60 NAOKFM=F Big=F
 Integral buffers will be    131072 words long.
 Raffenetti 2 integral format.
 Two-electron integral symmetry is turned on.
 Nuclear repulsion after empirical dispersion term =      510.2754123265 Hartrees.
 One-electron integrals computed using PRISM.
 NBasis=   225 RedAO= T EigKep=  3.29D-06  NBF=   225
 NBsUse=   225 1.00D-06 EigRej= -1.00D+00 NBFU=   225
 Initial guess from the checkpoint file:  "camb3lypPNAyang.chk"
 B after Tr=    -0.000000   -0.000000    0.000000
         Rot=    1.000000   -0.000001   -0.000002    0.000009 Ang=  -0.00 deg.
 ExpMin= 4.38D-02 ExpMax= 5.48D+03 ExpMxC= 8.25D+02 IAcc=2 IRadAn=         4 AccDes= 0.00D+00
 Harris functional with IExCor=20419 and IRadAn=       4 diagonalized for initial guess.
 HarFok:  IExCor=20419 AccDes= 0.00D+00 IRadAn=         4 IDoV= 1 UseB2=F ITyADJ=14
 ICtDFT=  3500011 ScaDFX=  1.000000  1.000000  1.000000  1.000000
 FoFCou: FMM=F IPFlag=           0 FMFlag=      100000 FMFlg1=           0
         NFxFlg=           0 DoJE=T BraDBF=F KetDBF=T FulRan=T
         wScrn=  0.000000 ICntrl=     500 IOpCl=  0 I1Cent=   200000004 NGrid=           0
         NMat0=    1 NMatS0=      1 NMatT0=    0 NMatD0=    1 NMtDS0=    0 NMtDT0=    0
 Petite list used in FoFCou.
 Keep R1 ints in memory in canonical form, NReq=652403680.
 Requested convergence on RMS density matrix=1.00D-08 within 128 cycles.
 Requested convergence on MAX density matrix=1.00D-06.
 Requested convergence on             energy=1.00D-06.
 No special actions if energy rises.
 SCF Done:  E(RCAM-B3LYP) =  -492.269312261     A.U. after   12 cycles
            NFock= 12  Conv=0.43D-08     -V/T= 2.0089
 Calling FoFJK, ICntrl=      2127 FMM=F ISym2X=0 I1Cent= 0 IOpClX= 0 NMat=1 NMatS=1 NMatT=0.
 ***** Axes restored to original set *****
 -------------------------------------------------------------------
 Center     Atomic                   Forces (Hartrees/Bohr)
 Number     Number              X              Y              Z
 -------------------------------------------------------------------
      1        6          -0.000274325    0.000165789   -0.000001281
      2        6           0.001372458    0.000518232   -0.000001459
      3        6          -0.000357594   -0.000323480   -0.000000943
      4        6           0.000154450   -0.000591044    0.000000141
      5        6          -0.001258272    0.000038041   -0.000000171
      6        6           0.000071768    0.000545333    0.000000087
      7        7          -0.000097376   -0.000036792    0.000000041
      8        7           0.001998194   -0.002918743    0.000010770
      9        8          -0.000819028    0.002748132   -0.000003735
     10        8          -0.000325601    0.000396356   -0.000004163
     11        1           0.000154868   -0.000070266    0.000000025
     12        1           0.000103767    0.000077066    0.000000049
     13        1          -0.000242026    0.000036151    0.000000116
     14        1          -0.000215116   -0.000043845    0.000000281
     15        1          -0.000148343   -0.000036529    0.000000019
     16        1          -0.000149875    0.000034198   -0.000000033
     17        1           0.000032053   -0.000538601    0.000000256
 -------------------------------------------------------------------
 Cartesian Forces:  Max     0.002918743 RMS     0.000717412

 GradGradGradGradGradGradGradGradGradGradGradGradGradGradGradGradGradGrad
 Berny optimization.
 Using GEDIIS/GDIIS optimizer.
 FormGI is forming the generalized inverse of G from B-inverse, IUseBI=4.
 GSVD:  received Info=                   1 from GESDD.
 Internal  Forces:  Max     0.002319663 RMS     0.000448157
 Search for a local minimum.
 Step number   2 out of a maximum of   86
 All quantities printed in internal units (Hartrees-Bohrs-Radians)
 Mixed Optimization -- En-DIIS/RFO-DIIS
 Update second derivatives using D2CorX and points    1    2
 DE= -5.38D-04 DEPred=-5.47D-04 R= 9.84D-01
 TightC=F SS=  1.41D+00  RLast= 4.49D-02 DXNew= 5.0454D-01 1.3464D-01
 Trust test= 9.84D-01 RLast= 4.49D-02 DXMaxT set to 3.00D-01
 ITU=  1  0
 Use linear search instead of GDIIS.
     Eigenvalues ---    0.01652   0.01699   0.01815   0.01918   0.01989
     Eigenvalues ---    0.02000   0.02035   0.02130   0.02134   0.02142
     Eigenvalues ---    0.02258   0.02276   0.02540   0.02540   0.15898
     Eigenvalues ---    0.16000   0.16000   0.16000   0.16000   0.16000
     Eigenvalues ---    0.16029   0.21999   0.22921   0.24197   0.24892
     Eigenvalues ---    0.25000   0.25000   0.25268   0.35421   0.35431
     Eigenvalues ---    0.35575   0.35735   0.38036   0.39553   0.41335
     Eigenvalues ---    0.42128   0.45363   0.45773   0.45792   0.48880
     Eigenvalues ---    0.51376   0.51795   0.55543   0.59771   0.97202
 RFO step:  Lambda=-4.13050865D-05 EMin= 1.65233397D-02
 Quartic linear search produced a step of -0.02293.
 Iteration  1 RMS(Cart)=  0.00215579 RMS(Int)=  0.00000276
 Iteration  2 RMS(Cart)=  0.00000342 RMS(Int)=  0.00000016
 Iteration  3 RMS(Cart)=  0.00000000 RMS(Int)=  0.00000016
 Variable       Old X    -DE/DX   Delta X   Delta X   Delta X     New X
                                 (Linear)    (Quad)   (Total)
    R1        2.68724   0.00075   0.00015   0.00137   0.00152   2.68876
    R2        2.56524   0.00096   0.00032   0.00095   0.00127   2.56651
    R3        2.04754   0.00002  -0.00000   0.00005   0.00005   2.04758
    R4        2.68658   0.00094   0.00014   0.00183   0.00197   2.68855
    R5        2.56340   0.00087   0.00041   0.00054   0.00095   2.56435
    R6        2.56713   0.00092   0.00033   0.00086   0.00119   2.56832
    R7        2.04517  -0.00001  -0.00000  -0.00002  -0.00002   2.04514
    R8        2.69870   0.00074   0.00016   0.00136   0.00152   2.70022
    R9        2.04877   0.00009   0.00003   0.00017   0.00019   2.04897
   R10        2.69916   0.00072   0.00017   0.00125   0.00142   2.70058
   R11        2.51200   0.00040   0.00028  -0.00010   0.00019   2.51219
   R12        2.04885   0.00008   0.00003   0.00014   0.00016   2.04901
   R13        1.90953   0.00005   0.00003   0.00002   0.00005   1.90959
   R14        1.90949   0.00005   0.00003   0.00001   0.00005   1.90954
   R15        2.57022  -0.00232   0.00056  -0.00599  -0.00543   2.56479
   R16        2.28456   0.00015   0.00035  -0.00078  -0.00043   2.28413
   R17        1.85063  -0.00010   0.00003  -0.00027  -0.00024   1.85039
    A1        2.08264   0.00049   0.00002   0.00198   0.00201   2.08464
    A2        2.08615  -0.00042  -0.00002  -0.00203  -0.00205   2.08410
    A3        2.11440  -0.00007  -0.00001   0.00005   0.00005   2.11445
    A4        2.11630  -0.00089  -0.00006  -0.00341  -0.00347   2.11282
    A5        2.05350   0.00039   0.00001   0.00155   0.00156   2.05506
    A6        2.11338   0.00050   0.00005   0.00187   0.00192   2.11530
    A7        2.07805   0.00047   0.00004   0.00187   0.00191   2.07996
    A8        2.10032  -0.00037  -0.00002  -0.00174  -0.00176   2.09856
    A9        2.10481  -0.00010  -0.00002  -0.00013  -0.00015   2.10466
   A10        2.10232   0.00024   0.00004   0.00084   0.00088   2.10319
   A11        2.09587   0.00011  -0.00002   0.00101   0.00099   2.09686
   A12        2.08500  -0.00035  -0.00002  -0.00185  -0.00187   2.08313
   A13        2.08878  -0.00056  -0.00009  -0.00210  -0.00218   2.08660
   A14        2.09744   0.00025   0.00005   0.00090   0.00095   2.09838
   A15        2.09696   0.00032   0.00004   0.00120   0.00124   2.09820
   A16        2.09829   0.00025   0.00005   0.00081   0.00086   2.09915
   A17        2.09847   0.00009  -0.00003   0.00090   0.00087   2.09934
   A18        2.08643  -0.00033  -0.00002  -0.00171  -0.00173   2.08470
   A19        2.11963   0.00009   0.00003   0.00047   0.00050   2.12013
   A20        2.12025   0.00009   0.00003   0.00051   0.00053   2.12078
   A21        2.04330  -0.00019  -0.00006  -0.00097  -0.00103   2.04227
   A22        2.00943   0.00031  -0.00010   0.00149   0.00139   2.01082
   A23        2.21704  -0.00072  -0.00005  -0.00266  -0.00271   2.21433
   A24        2.05671   0.00041   0.00015   0.00117   0.00133   2.05803
   A25        1.81923   0.00098  -0.00003   0.00609   0.00606   1.82529
    D1       -0.00001   0.00000   0.00000   0.00002   0.00002   0.00001
    D2       -3.14159   0.00000   0.00000   0.00000   0.00000  -3.14159
    D3        3.14159   0.00000   0.00000   0.00001   0.00001  -3.14159
    D4        0.00001  -0.00000   0.00000  -0.00001  -0.00001  -0.00000
    D5        0.00001  -0.00000  -0.00000  -0.00001  -0.00001  -0.00001
    D6       -3.14159  -0.00000  -0.00000  -0.00001  -0.00001   3.14158
    D7       -3.14159   0.00000   0.00000   0.00000   0.00000  -3.14159
    D8        0.00000  -0.00000   0.00000  -0.00000  -0.00000   0.00000
    D9        0.00000  -0.00000  -0.00000  -0.00002  -0.00002  -0.00001
   D10        3.14159  -0.00000  -0.00000  -0.00001  -0.00001   3.14158
   D11        3.14159   0.00000  -0.00000   0.00000   0.00000   3.14159
   D12       -0.00001   0.00000   0.00000   0.00001   0.00001  -0.00000
   D13        3.14153   0.00000   0.00000   0.00014   0.00014  -3.14152
   D14        0.00002  -0.00000  -0.00000  -0.00011  -0.00012  -0.00009
   D15       -0.00005   0.00000   0.00000   0.00012   0.00012   0.00007
   D16       -3.14156  -0.00000  -0.00000  -0.00013  -0.00013   3.14149
   D17       -0.00000   0.00000   0.00000   0.00001   0.00001   0.00000
   D18        3.14159   0.00000   0.00000   0.00001   0.00001  -3.14159
   D19       -3.14159  -0.00000   0.00000  -0.00000  -0.00000  -3.14159
   D20        0.00000   0.00000   0.00000  -0.00000  -0.00000   0.00000
   D21        0.00000   0.00000  -0.00000   0.00000   0.00000   0.00000
   D22        3.14159   0.00000  -0.00000   0.00000   0.00000  -3.14159
   D23       -3.14159  -0.00000  -0.00000   0.00000   0.00000  -3.14159
   D24        0.00000   0.00000  -0.00000   0.00000   0.00000   0.00000
   D25       -0.00000   0.00000  -0.00000   0.00000   0.00000  -0.00000
   D26        3.14159   0.00000  -0.00000   0.00000   0.00000  -3.14159
   D27        3.14159  -0.00000  -0.00000   0.00000   0.00000   3.14159
   D28       -0.00000   0.00000  -0.00000   0.00000   0.00000   0.00000
   D29       -3.14159  -0.00000   0.00000  -0.00000  -0.00000  -3.14159
   D30        0.00000  -0.00000   0.00000  -0.00000  -0.00000   0.00000
   D31        0.00000  -0.00000   0.00000  -0.00000  -0.00000  -0.00000
   D32       -3.14159  -0.00000   0.00000  -0.00000  -0.00000  -3.14159
   D33        3.14159  -0.00000  -0.00000  -0.00009  -0.00010   3.14149
   D34       -0.00008   0.00000  -0.00000   0.00013   0.00013   0.00005
         Item               Value     Threshold  Converged?
 Maximum Force            0.002320     0.000450     NO 
 RMS     Force            0.000448     0.000300     NO 
 Maximum Displacement     0.008309     0.001800     NO 
 RMS     Displacement     0.002154     0.001200     NO 
 Predicted change in Energy=-2.094713D-05
 GradGradGradGradGradGradGradGradGradGradGradGradGradGradGradGradGradGrad

                          Input orientation:                          
 ---------------------------------------------------------------------
 Center     Atomic      Atomic             Coordinates (Angstroms)
 Number     Number       Type             X           Y           Z
 ---------------------------------------------------------------------
      1          6           0       -0.061604    1.260452    0.000009
      2          6           0        0.664309    0.036730    0.000025
      3          6           0       -0.009476   -1.216321    0.000016
      4          6           0       -1.368402   -1.237796    0.000005
      5          6           0       -2.113072   -0.018285   -0.000002
      6          6           0       -1.419428    1.231173   -0.000001
      7          7           0       -3.442181   -0.045683   -0.000011
      8          7           0        2.019531    0.106096    0.000040
      9          8           0        2.659673   -1.090683   -0.000039
     10          8           0        2.694411    1.108850   -0.000050
     11          1           0        0.478746    2.199637    0.000013
     12          1           0        0.555894   -2.139147    0.000020
     13          1           0       -1.897965   -2.183946    0.000002
     14          1           0       -1.986265    2.155501   -0.000005
     15          1           0       -3.987439    0.805095   -0.000016
     16          1           0       -3.952467   -0.917856   -0.000011
     17          1           0        3.611561   -0.861093   -0.000116
 ---------------------------------------------------------------------
                    Distance matrix (angstroms):
                    1          2          3          4          5
     1  C    0.000000
     2  C    1.422830   0.000000
     3  C    2.477322   1.422717   0.000000
     4  C    2.819391   2.399236   1.359096   0.000000
     5  C    2.417373   2.777926   2.420828   1.428895   0.000000
     6  C    1.358140   2.401803   2.824570   2.469497   1.429087
     7  N    3.624126   4.107317   3.626825   2.392006   1.329391
     8  N    2.379845   1.356996   2.421912   3.644741   4.134475
     9  O    3.596274   2.291842   2.672104   4.030761   4.891742
    10  O    2.760182   2.295813   3.566150   4.691823   4.937847
    11  H    1.083534   2.170853   3.450671   3.902295   3.411261
    12  H    3.455225   2.178576   1.082243   2.124935   3.409022
    13  H    3.903345   3.390671   2.121954   1.084267   2.176318
    14  H    2.122601   3.393337   3.908565   3.449090   2.177482
    15  H    3.952155   4.714780   4.462098   3.321560   2.047244
    16  H    4.459130   4.714431   3.954271   2.603796   2.047584
    17  H    4.241826   3.080970   3.638419   4.994190   5.786341
                    6          7          8          9         10
     6  C    0.000000
     7  N    2.392047   0.000000
     8  N    3.618320   5.463821   0.000000
     9  O    4.693622   6.190691   1.357226   0.000000
    10  O    4.115658   6.244254   1.208709   2.199808   0.000000
    11  H    2.130959   4.518310   2.599410   3.947487   2.469613
    12  H    3.906527   4.513003   2.680178   2.350567   3.888797
    13  H    3.448483   2.637570   4.537738   4.686927   5.650878
    14  H    1.084291   2.639110   4.499607   5.667668   4.796271
    15  H    2.603118   1.010510   6.047503   6.912169   6.688751
    16  H    3.321839   1.010484   6.059145   6.614399   6.948995
    17  H    5.448709   7.100716   1.862797   0.979184   2.172979
                   11         12         13         14         15
    11  H    0.000000
    12  H    4.339470   0.000000
    13  H    4.986437   2.454267   0.000000
    14  H    2.465407   4.990649   4.340345   0.000000
    15  H    4.678841   5.413911   3.646954   2.414186   0.000000
    16  H    5.417971   4.670853   2.413289   3.648489   1.723306
    17  H    4.379794   3.312178   5.666111   6.358891   7.779523
                   16         17
    16  H    0.000000
    17  H    7.564241   0.000000
 Stoichiometry    C6H7N2O2(1+)
 Framework group  C1[X(C6H7N2O2)]
 Deg. of freedom    45
 Full point group                 C1      NOp   1
 Largest Abelian subgroup         C1      NOp   1
 Largest concise Abelian subgroup C1      NOp   1
                         Standard orientation:                         
 ---------------------------------------------------------------------
 Center     Atomic      Atomic             Coordinates (Angstroms)
 Number     Number       Type             X           Y           Z
 ---------------------------------------------------------------------
      1          6           0        0.059604    1.260968   -0.000013
      2          6           0       -0.666360    0.037277   -0.000030
      3          6           0        0.007372   -1.215803   -0.000020
      4          6           0        1.366298   -1.237335   -0.000009
      5          6           0        2.111019   -0.017855   -0.000002
      6          6           0        1.417427    1.231633   -0.000003
      7          7           0        3.440126   -0.045308    0.000006
      8          7           0       -2.021579    0.106699   -0.000045
      9          8           0       -2.661771   -1.090053    0.000035
     10          8           0       -2.696417    1.109482    0.000046
     11          1           0       -0.480707    2.200176   -0.000017
     12          1           0       -0.558036   -2.138605   -0.000024
     13          1           0        1.895821   -2.183507   -0.000006
     14          1           0        1.984303    2.155937    0.000001
     15          1           0        3.985420    0.805447    0.000012
     16          1           0        3.950376   -0.917502    0.000006
     17          1           0       -3.613649   -0.860423    0.000111
 ---------------------------------------------------------------------
 Rotational constants (GHZ):      3.7856492      0.8276565      0.6791697
 Standard basis: 6-31+G(d,p) (6D, 7F)
 There are   225 symmetry adapted cartesian basis functions of A   symmetry.
 There are   225 symmetry adapted basis functions of A   symmetry.
   225 basis functions,   369 primitive gaussians,   225 cartesian basis functions
    36 alpha electrons       36 beta electrons
       nuclear repulsion energy       510.1289914342 Hartrees.
 NAtoms=   17 NActive=   17 NUniq=   17 SFac= 1.00D+00 NAtFMM=   60 NAOKFM=F Big=F
 Integral buffers will be    131072 words long.
 Raffenetti 2 integral format.
 Two-electron integral symmetry is turned on.
 Nuclear repulsion after empirical dispersion term =      510.1154454916 Hartrees.
 One-electron integrals computed using PRISM.
 NBasis=   225 RedAO= T EigKep=  3.30D-06  NBF=   225
 NBsUse=   225 1.00D-06 EigRej= -1.00D+00 NBFU=   225
 Initial guess from the checkpoint file:  "camb3lypPNAyang.chk"
 B after Tr=     0.000000    0.000000   -0.000000
         Rot=    1.000000    0.000001    0.000000   -0.000015 Ang=   0.00 deg.
 Keep R1 ints in memory in canonical form, NReq=652403680.
 Requested convergence on RMS density matrix=1.00D-08 within 128 cycles.
 Requested convergence on MAX density matrix=1.00D-06.
 Requested convergence on             energy=1.00D-06.
 No special actions if energy rises.
 SCF Done:  E(RCAM-B3LYP) =  -492.269336724     A.U. after   10 cycles
            NFock= 10  Conv=0.86D-08     -V/T= 2.0089
 Calling FoFJK, ICntrl=      2127 FMM=F ISym2X=0 I1Cent= 0 IOpClX= 0 NMat=1 NMatS=1 NMatT=0.
 ***** Axes restored to original set *****
 -------------------------------------------------------------------
 Center     Atomic                   Forces (Hartrees/Bohr)
 Number     Number              X              Y              Z
 -------------------------------------------------------------------
      1        6          -0.000067430   -0.000057793    0.000002295
      2        6          -0.000239799    0.000068549    0.000004375
      3        6          -0.000098412    0.000060879    0.000002033
      4        6           0.000133138   -0.000106105   -0.000000292
      5        6          -0.000146517    0.000027207    0.000000236
      6        6           0.000096771    0.000054789   -0.000000274
      7        7           0.000051673   -0.000005813    0.000000023
      8        7           0.000801940   -0.001625589   -0.000023179
      9        8          -0.000665340    0.000730868    0.000005999
     10        8           0.000253425    0.000860347    0.000008666
     11        1           0.000005339    0.000026950   -0.000000102
     12        1           0.000031334   -0.000051274    0.000000139
     13        1          -0.000014913   -0.000015541   -0.000000328
     14        1          -0.000005183    0.000019273   -0.000000389
     15        1          -0.000048201    0.000012030   -0.000000009
     16        1          -0.000045547   -0.000012245   -0.000000030
     17        1          -0.000042280    0.000013468    0.000000839
 -------------------------------------------------------------------
 Cartesian Forces:  Max     0.001625589 RMS     0.000320209

 GradGradGradGradGradGradGradGradGradGradGradGradGradGradGradGradGradGrad
 Berny optimization.
 Using GEDIIS/GDIIS optimizer.
 FormGI is forming the generalized inverse of G from B-inverse, IUseBI=4.
 GSVD:  received Info=                   1 from GESDD.
 Internal  Forces:  Max     0.000989894 RMS     0.000169109
 Search for a local minimum.
 Step number   3 out of a maximum of   86
 All quantities printed in internal units (Hartrees-Bohrs-Radians)
 Mixed Optimization -- En-DIIS/RFO-DIIS
 Swapping is turned off.
 Update second derivatives using D2CorX and points    1    2    3
 DE= -2.45D-05 DEPred=-2.09D-05 R= 1.17D+00
 TightC=F SS=  1.41D+00  RLast= 1.20D-02 DXNew= 5.0454D-01 3.5983D-02
 Trust test= 1.17D+00 RLast= 1.20D-02 DXMaxT set to 3.00D-01
 ITU=  1  1  0
     Eigenvalues ---    0.01652   0.01699   0.01815   0.01919   0.01989
     Eigenvalues ---    0.02000   0.02036   0.02131   0.02135   0.02142
     Eigenvalues ---    0.02258   0.02277   0.02540   0.02540   0.15866
     Eigenvalues ---    0.16000   0.16000   0.16000   0.16000   0.16001
     Eigenvalues ---    0.16210   0.21385   0.22007   0.23052   0.24762
     Eigenvalues ---    0.25000   0.25005   0.26674   0.35397   0.35421
     Eigenvalues ---    0.35565   0.35714   0.37008   0.38181   0.39566
     Eigenvalues ---    0.41338   0.43868   0.45773   0.45781   0.48882
     Eigenvalues ---    0.51376   0.52081   0.55620   0.59424   1.00594
 En-DIIS/RFO-DIIS IScMMF=        0 using points:     3    2
 RFO step:  Lambda=-3.40291386D-06.
 DidBck=F Rises=F RFO-DIIS coefs:    1.20173   -0.20173
 Iteration  1 RMS(Cart)=  0.00057825 RMS(Int)=  0.00000049
 Iteration  2 RMS(Cart)=  0.00000055 RMS(Int)=  0.00000008
 Variable       Old X    -DE/DX   Delta X   Delta X   Delta X     New X
                                 (Linear)    (Quad)   (Total)
    R1        2.68876   0.00001   0.00031  -0.00019   0.00011   2.68887
    R2        2.56651   0.00000   0.00026  -0.00028  -0.00002   2.56649
    R3        2.04758   0.00003   0.00001   0.00008   0.00009   2.04768
    R4        2.68855   0.00004   0.00040  -0.00015   0.00025   2.68879
    R5        2.56435   0.00035   0.00019   0.00051   0.00070   2.56505
    R6        2.56832  -0.00002   0.00024  -0.00033  -0.00009   2.56823
    R7        2.04514   0.00006  -0.00000   0.00021   0.00020   2.04535
    R8        2.70022   0.00012   0.00031   0.00015   0.00046   2.70068
    R9        2.04897   0.00002   0.00004   0.00004   0.00008   2.04905
   R10        2.70058   0.00010   0.00029   0.00009   0.00038   2.70096
   R11        2.51219   0.00004   0.00004  -0.00007  -0.00003   2.51215
   R12        2.04901   0.00002   0.00003   0.00004   0.00007   2.04908
   R13        1.90959   0.00004   0.00001   0.00007   0.00009   1.90967
   R14        1.90954   0.00003   0.00001   0.00007   0.00008   1.90962
   R15        2.56479  -0.00099  -0.00110  -0.00211  -0.00321   2.56158
   R16        2.28413   0.00086  -0.00009   0.00094   0.00085   2.28498
   R17        1.85039  -0.00004  -0.00005  -0.00008  -0.00013   1.85026
    A1        2.08464   0.00003   0.00040  -0.00005   0.00035   2.08499
    A2        2.08410  -0.00001  -0.00041   0.00020  -0.00021   2.08388
    A3        2.11445  -0.00003   0.00001  -0.00014  -0.00014   2.11431
    A4        2.11282  -0.00004  -0.00070   0.00011  -0.00059   2.11224
    A5        2.05506   0.00009   0.00031   0.00031   0.00062   2.05569
    A6        2.11530  -0.00005   0.00039  -0.00042  -0.00004   2.11526
    A7        2.07996   0.00005   0.00039   0.00006   0.00045   2.08041
    A8        2.09856  -0.00003  -0.00036   0.00005  -0.00031   2.09825
    A9        2.10466  -0.00003  -0.00003  -0.00011  -0.00014   2.10452
   A10        2.10319  -0.00000   0.00018  -0.00010   0.00008   2.10327
   A11        2.09686   0.00001   0.00020  -0.00005   0.00015   2.09701
   A12        2.08313  -0.00001  -0.00038   0.00015  -0.00023   2.08290
   A13        2.08660  -0.00007  -0.00044  -0.00004  -0.00048   2.08612
   A14        2.09838   0.00003   0.00019  -0.00000   0.00019   2.09857
   A15        2.09820   0.00004   0.00025   0.00004   0.00029   2.09849
   A16        2.09915   0.00002   0.00017   0.00002   0.00019   2.09934
   A17        2.09934  -0.00002   0.00018  -0.00018  -0.00000   2.09933
   A18        2.08470  -0.00000  -0.00035   0.00016  -0.00019   2.08451
   A19        2.12013   0.00002   0.00010   0.00010   0.00020   2.12034
   A20        2.12078   0.00002   0.00011   0.00009   0.00020   2.12098
   A21        2.04227  -0.00004  -0.00021  -0.00019  -0.00040   2.04187
   A22        2.01082  -0.00023   0.00028  -0.00121  -0.00093   2.00990
   A23        2.21433  -0.00019  -0.00055  -0.00064  -0.00118   2.21315
   A24        2.05803   0.00042   0.00027   0.00184   0.00211   2.06014
   A25        1.82529  -0.00004   0.00122  -0.00089   0.00033   1.82562
    D1        0.00001  -0.00000   0.00000  -0.00005  -0.00005  -0.00004
    D2       -3.14159  -0.00000   0.00000  -0.00001  -0.00001   3.14159
    D3       -3.14159  -0.00000   0.00000  -0.00002  -0.00002   3.14158
    D4       -0.00000   0.00000  -0.00000   0.00002   0.00002   0.00001
    D5       -0.00001   0.00000  -0.00000   0.00002   0.00002   0.00002
    D6        3.14158   0.00000  -0.00000   0.00003   0.00003  -3.14157
    D7       -3.14159  -0.00000   0.00000  -0.00001  -0.00001   3.14159
    D8        0.00000  -0.00000  -0.00000  -0.00000  -0.00000  -0.00000
    D9       -0.00001   0.00000  -0.00000   0.00005   0.00005   0.00004
   D10        3.14158   0.00000  -0.00000   0.00003   0.00003  -3.14158
   D11        3.14159   0.00000   0.00000   0.00001   0.00001  -3.14159
   D12       -0.00000  -0.00000   0.00000  -0.00002  -0.00001  -0.00001
   D13       -3.14152  -0.00001   0.00003  -0.00038  -0.00035   3.14132
   D14       -0.00009   0.00001  -0.00002   0.00035   0.00032   0.00023
   D15        0.00007  -0.00001   0.00002  -0.00033  -0.00031  -0.00024
   D16        3.14149   0.00001  -0.00003   0.00039   0.00036  -3.14133
   D17        0.00000  -0.00000   0.00000  -0.00002  -0.00002  -0.00002
   D18       -3.14159  -0.00000   0.00000  -0.00003  -0.00002   3.14157
   D19       -3.14159   0.00000  -0.00000   0.00000   0.00000  -3.14159
   D20        0.00000  -0.00000  -0.00000  -0.00000  -0.00000  -0.00000
   D21        0.00000  -0.00000   0.00000  -0.00000  -0.00000  -0.00000
   D22       -3.14159  -0.00000   0.00000  -0.00000  -0.00000   3.14159
   D23       -3.14159   0.00000   0.00000  -0.00000  -0.00000  -3.14159
   D24        0.00000   0.00000   0.00000  -0.00000  -0.00000   0.00000
   D25       -0.00000   0.00000   0.00000   0.00000   0.00000   0.00000
   D26       -3.14159  -0.00000   0.00000  -0.00000  -0.00000   3.14159
   D27        3.14159   0.00000   0.00000   0.00000   0.00000  -3.14159
   D28        0.00000  -0.00000   0.00000  -0.00000  -0.00000  -0.00000
   D29       -3.14159   0.00000  -0.00000   0.00000  -0.00000  -3.14159
   D30        0.00000  -0.00000  -0.00000  -0.00000  -0.00000   0.00000
   D31       -0.00000  -0.00000  -0.00000   0.00000   0.00000   0.00000
   D32       -3.14159  -0.00000  -0.00000  -0.00000  -0.00000  -3.14159
   D33        3.14149   0.00001  -0.00002   0.00038   0.00036  -3.14133
   D34        0.00005  -0.00000   0.00003  -0.00027  -0.00025  -0.00020
         Item               Value     Threshold  Converged?
 Maximum Force            0.000990     0.000450     NO 
 RMS     Force            0.000169     0.000300     YES
 Maximum Displacement     0.002426     0.001800     NO 
 RMS     Displacement     0.000578     0.001200     YES
 Predicted change in Energy=-2.918461D-06
 GradGradGradGradGradGradGradGradGradGradGradGradGradGradGradGradGradGrad

                          Input orientation:                          
 ---------------------------------------------------------------------
 Center     Atomic      Atomic             Coordinates (Angstroms)
 Number     Number       Type             X           Y           Z
 ---------------------------------------------------------------------
      1          6           0       -0.061458    1.260424   -0.000060
      2          6           0        0.664892    0.036892   -0.000129
      3          6           0       -0.009275   -1.216104   -0.000093
      4          6           0       -1.368151   -1.237837   -0.000035
      5          6           0       -2.113276   -0.018318    0.000012
      6          6           0       -1.419272    1.231170   -0.000001
      7          7           0       -3.442365   -0.045820    0.000066
      8          7           0        2.020505    0.105880   -0.000193
      9          8           0        2.658390   -1.090182    0.000076
     10          8           0        2.694744    1.109607    0.000024
     11          1           0        0.478806    2.199716   -0.000074
     12          1           0        0.556197   -2.138992   -0.000130
     13          1           0       -1.897699   -2.184042   -0.000026
     14          1           0       -1.986110    2.155540    0.000033
     15          1           0       -3.987888    0.804842    0.000100
     16          1           0       -3.952776   -0.917967    0.000077
     17          1           0        3.610566   -0.862084    0.000232
 ---------------------------------------------------------------------
                    Distance matrix (angstroms):
                    1          2          3          4          5
     1  C    0.000000
     2  C    1.422890   0.000000
     3  C    2.477078   1.422849   0.000000
     4  C    2.819354   2.399624   1.359049   0.000000
     5  C    2.417672   2.778716   2.421056   1.429139   0.000000
     6  C    1.358129   2.402091   2.824401   2.469536   1.429287
     7  N    3.624473   4.108090   3.627075   2.392336   1.329374
     8  N    2.380661   1.357368   2.422323   3.645348   4.135647
     9  O    3.594847   2.290050   2.670635   4.029247   4.890571
    10  O    2.760325   2.295870   3.566602   4.692292   4.938549
    11  H    1.083583   2.170815   3.450514   3.902309   3.411533
    12  H    3.455073   2.178597   1.082350   2.124899   3.409303
    13  H    3.903349   3.391079   2.122039   1.084309   2.176427
    14  H    2.122621   3.393594   3.908434   3.449186   2.177574
    15  H    3.952772   4.715730   4.462464   3.321982   2.047380
    16  H    4.459568   4.715359   3.954754   2.604343   2.047713
    17  H    4.241321   3.079798   3.637111   4.992876   5.785698
                    6          7          8          9         10
     6  C    0.000000
     7  N    2.392407   0.000000
     8  N    3.619164   5.464977   0.000000
     9  O    4.692121   6.189500   1.355530   0.000000
    10  O    4.115811   6.244928   1.209159   2.200090   0.000000
    11  H    2.130911   4.518629   2.600190   3.946393   2.469558
    12  H    3.906465   4.513300   2.680232   2.349301   3.889316
    13  H    3.448560   2.637800   4.538289   4.685560   5.651430
    14  H    1.084327   2.639444   4.500453   5.666224   4.796287
    15  H    2.603756   1.010555   6.048912   6.911160   6.689578
    16  H    3.322263   1.010525   6.060392   6.613408   6.949862
    17  H    5.448025   7.100009   1.861517   0.979116   2.174005
                   11         12         13         14         15
    11  H    0.000000
    12  H    4.339398   0.000000
    13  H    4.986492   2.454310   0.000000
    14  H    2.465312   4.990625   4.340483   0.000000
    15  H    4.679426   5.414321   3.647235   2.414849   0.000000
    16  H    5.418382   4.671375   2.413770   3.648866   1.723167
    17  H    4.379787   3.310538   5.664676   6.358368   7.779148
                   16         17
    16  H    0.000000
    17  H    7.563548   0.000000
 Stoichiometry    C6H7N2O2(1+)
 Framework group  C1[X(C6H7N2O2)]
 Deg. of freedom    45
 Full point group                 C1      NOp   1
 Largest Abelian subgroup         C1      NOp   1
 Largest concise Abelian subgroup C1      NOp   1
                         Standard orientation:                         
 ---------------------------------------------------------------------
 Center     Atomic      Atomic             Coordinates (Angstroms)
 Number     Number       Type             X           Y           Z
 ---------------------------------------------------------------------
      1          6           0        0.059307    1.260840    0.000037
      2          6           0       -0.666897    0.037221    0.000105
      3          6           0        0.007418   -1.215695    0.000070
      4          6           0        1.366296   -1.237267    0.000011
      5          6           0        2.111277   -0.017659   -0.000035
[...]
 ! D30   D(4,5,7,16)            -0.0001         -DE/DX =    0.0                 !
 ! D31   D(6,5,7,15)             0.0001         -DE/DX =    0.0                 !
 ! D32   D(6,5,7,16)          -180.0            -DE/DX =    0.0                 !
 ! D33   D(2,8,9,17)           180.0382         -DE/DX =    0.0                 !
 ! D34   D(10,8,9,17)           -0.0285         -DE/DX =    0.0                 !
 --------------------------------------------------------------------------------
 GradGradGradGradGradGradGradGradGradGradGradGradGradGradGradGradGradGrad

 1\1\ WCSS.PL-BEM-QINLAB\Freq\RCAM-B3LYP\6-31+G(d,p)\C6H7N2O2(1+)\PHZD\
 13-Jun-2024\0\\#N Geom=AllCheck Guess=TCheck SCRF=Check GenChk RCAM-B3
 LYP/6-31+G(d,p) Freq\\[No Title]\\1,1\C,-0.0614292803,1.2601732001,-0.
 0001406652\C,0.6645271678,0.0365877469,-0.0003084319\C,-0.0095353197,-
 1.2163367108,-0.0002212501\C,-1.3684326845,-1.2379175568,-0.0000809295
 \C,-2.1132928236,-0.0183092327,0.0000274941\C,-1.4192750483,1.23106011
 ,-0.0000028314\N,-3.4424082804,-0.0456489039,0.0001565593\N,2.02035670
 54,0.1055365941,-0.000461635\O,2.659352238,-1.0896419172,0.000216737\O
 ,2.6945273609,1.1096528781,0.0001128019\H,0.4788491016,2.1994456463,-0
 .0001760678\H,0.5556750829,-2.1393682488,-0.0003065619\H,-1.8979978919
 ,-2.1841002893,-0.0000574133\H,-1.985904897,2.1555494165,0.0000749731\
 H,-3.9878148398,0.8050875249,0.0002345683\H,-3.9529154933,-0.917739605
 8,0.0001801719\H,3.6115479023,-0.8613056516,0.0006304805\\Version=ES64
 L-G09RevE.01\State=1-A\HF=-492.2693397\RMSD=1.949e-09\RMSF=3.181e-05\Z
 eroPoint=0.1341904\Thermal=0.1425165\Dipole=-1.3721024,-0.4457222,0.00
 01892\DipoleDeriv=1.07595,0.0261486,-0.0000469,-0.6050086,0.0275203,0.
 0000215,-0.0000685,-0.0000054,-0.0026652,-2.2910864,-0.1841595,-0.0000
 551,0.0236453,-0.1306112,0.0000096,-0.0001348,0.0000939,0.0385165,1.08
 99947,0.0970029,-0.0000379,0.6310046,0.1049821,-0.0000182,-0.0000938,-
 0.0000507,0.0117085,-1.0668029,0.1139142,0.0000363,0.8388251,-0.054059
 6,-0.0000405,0.0001931,0.0000079,-0.1678879,2.6769744,0.0845008,-0.000
 1388,0.0382988,0.4567701,0.0000029,-0.0002401,-0.0000152,0.2782197,-1.
 0167045,-0.2106872,0.0000252,-0.8530942,-0.1391036,0.0000463,0.000134,
 0.0000309,-0.1646776,-2.3266304,-0.0789523,0.0000971,-0.0404555,-0.218
 2132,0.0000097,0.0001797,0.0000169,-0.4859046,3.9983797,0.1314259,0.00
 00953,0.434908,1.416724,-0.0002656,0.0025508,-0.0001447,0.2585314,-1.1
 698893,0.4733128,-0.0001143,1.0579782,-0.6919041,0.0000425,-0.0011392,
 0.0004106,-0.2542247,-1.6092716,-0.3433978,0.0000641,-1.3987245,-0.788
 9076,0.000211,-0.0014658,-0.0003282,-0.1631305,0.0771682,-0.0111242,0.
 0000025,0.0325983,0.1196779,-0.0000051,-0.000016,0.0000016,0.1425595,0
 .0936289,0.0039727,0.0000074,-0.0160007,0.1083537,0.0000013,-0.0000117
 ,-0.0000047,0.1429892,0.0415717,-0.0298282,0.0000066,-0.0130572,0.0548
 301,0.0000037,-0.0000258,0.000007,0.154863,0.0386405,0.0304589,0.00000
 92,0.0110121,0.0585443,-0.0000097,-0.0000344,-0.0000135,0.1557965,0.35
 78689,-0.0618669,0.000001,-0.2300676,0.2025589,0.0000083,-0.0000104,0.
 0000034,0.3341881,0.3463768,0.0710612,0.0000053,0.2344972,0.222576,-0.
 0000154,0.000002,-0.0000117,0.3337314,0.6838314,-0.111782,0.0000429,-0
 .1463593,0.2502619,-0.0000023,0.0001807,0.0000018,0.3873865\Polar=196.
 6785028,6.3686184,86.1674373,-0.0022666,0.0007196,44.6569901\PG=C01 [X
 (C6H7N2O2)]\NImag=0\\0.80255870,0.05976037,0.70645561,-0.00007379,0.00
 001541,0.14196434,-0.11817825,0.07448761,0.00000538,0.68295642,0.05298
 700,-0.26897775,-0.00002138,0.00994871,0.72751432,0.00002115,-0.000019
 75,-0.05744592,-0.00000772,0.00001286,0.12318907,0.03084358,-0.0039154
 1,-0.00000534,-0.11388167,-0.04893491,0.00001682,0.79699527,0.00711417
 ,-0.04581703,-0.00000477,-0.06850033,-0.27764819,0.00000723,-0.0585124
 4,0.70855773,-0.00000487,0.00000119,0.00454661,-0.00000056,0.00000745,
 -0.05582445,-0.00007512,0.00001636,0.14171434,-0.02220431,0.01819630,0
 .00000456,-0.04923950,-0.04403292,0.00000274,-0.45457309,0.01626320,0.
 00004468,0.80486889,0.00587744,-0.00700606,-0.00000117,-0.01526886,0.0
 1504897,0.00000587,-0.03362846,-0.13201236,0.00000433,0.06271009,0.690
 64968,0.00000290,-0.00000345,-0.00010272,0.00001016,0.00000635,0.00601
 378,0.00004037,-0.00000462,-0.05681612,-0.00006924,0.00000522,0.124639
 07,-0.04211961,-0.02959872,0.00000164,0.03235669,0.00057582,-0.0000006
 6,-0.04558500,0.02653341,0.00000430,-0.13743445,0.07381253,0.00000853,
 0.81008382,-0.05733146,0.02870010,0.00000931,0.00104373,-0.03381756,0.
 00000053,0.05505744,0.03224258,-0.00000748,0.03206974,-0.26021709,-0.0
 0000539,0.00257358,0.67475893,-0.00000043,0.00000609,-0.00154367,-0.00
 000507,-0.00000057,-0.00746757,0.00000337,-0.00000441,-0.00162103,0.00
 001084,-0.00001287,-0.07006975,-0.00006381,0.00001402,0.17687254,-0.45
 813324,-0.02774806,0.00004431,-0.05131246,0.04207973,0.00000439,-0.021
 31610,-0.01889197,0.00000310,0.04130665,0.00088453,-0.00000490,-0.1328
 0710,-0.02676248,0.00000882,0.81171174,0.02082326,-0.13163517,-0.00000
 774,0.01303798,0.01827224,-0.00000592,-0.00674364,-0.00813409,0.000000
 82,0.00214693,-0.03173421,-0.00000089,-0.06861895,-0.26448214,0.000001
 26,-0.05922764,0.68574524,0.00004182,0.00000106,-0.05627194,0.00001144
 ,-0.00000485,0.00535673,0.00000224,0.00000312,-0.00011864,-0.00000487,
 -0.00000154,0.00470920,0.00000412,-0.00000612,-0.07004338,-0.00007262,
 0.00002667,0.12459673,0.02071524,-0.00636449,-0.00000129,-0.03157727,0
 .00019377,-0.00000070,0.02079790,0.00735911,-0.00000122,-0.05718828,0.
 02406966,0.00000816,-0.44562709,-0.00605311,0.00003929,-0.05438421,-0.
 02627734,0.00000626,0.87742948,0.00443981,-0.01023361,-0.00000139,-0.0
 0060976,0.00310649,-0.00000034,-0.00339620,-0.01012458,0.00000068,0.04
 877504,0.00474906,-0.00000575,-0.00610310,-0.14582327,-0.00000198,-0.0
 5111477,0.00174742,0.00000534,-0.00000179,0.87918314,-0.00000070,-0.00
 000032,0.00389087,0.00000280,0.,-0.00067980,-0.00000100,-0.00000053,0.
 00394814,0.00000733,-0.00000210,0.01082197,0.00003869,-0.00000207,-0.0
 4997787,0.00000410,0.00000177,0.01085732,-0.00008097,0.00002451,0.0495
 1556,-0.07303426,0.03751834,0.00001715,-0.27289691,-0.01207446,0.00003
 317,-0.06193025,-0.03707363,0.00002147,0.02768545,-0.01833164,-0.00000
 735,-0.03556792,-0.00027550,0.00000501,0.02655379,0.01905879,-0.000005
 95,0.03218954,0.00050249,-0.00000311,0.87762008,0.02918096,0.01561219,
 -0.00000315,0.01198361,-0.13504753,-0.00000019,-0.03934921,0.00849980,
 0.00001005,-0.00146892,-0.01064825,0.00000006,-0.00457373,-0.00507654,
 0.00000041,0.00751417,-0.00531057,-0.00000350,0.00398509,0.00055274,-0
 .00000025,0.15139621,0.77206546,-0.00001190,0.00001011,-0.00560804,-0.
 00000752,-0.00000243,-0.06715376,-0.00001102,-0.00000906,-0.01025364,0
 .00000598,-0.00000852,0.00558250,-0.00001788,-0.00000388,-0.00164723,0
 .00000847,0.00001026,0.00529891,0.00001710,0.00000122,-0.00025843,0.00
 020961,0.00010780,0.20437719,0.00084944,-0.01009135,-0.00000591,-0.039
 46766,0.05332666,-0.00003295,-0.00138470,0.00387181,-0.00000097,-0.002
 89460,0.00259516,0.00000082,0.00685984,0.00383249,-0.00000109,-0.00639
 548,-0.00117722,0.00000253,-0.00633070,-0.00083450,0.00000067,-0.19256
 100,0.06359262,-0.00005585,0.64869283,-0.01079276,0.00676164,0.0000058
 1,0.03702254,-0.00115461,0.00001799,-0.00991245,-0.00769178,-0.0000007
 9,0.00544371,-0.00311753,-0.00000194,-0.00871317,-0.00221720,0.0000012
 2,0.00614772,0.00590666,-0.00000119,0.00804502,0.00078552,-0.00000078,
 0.00269046,-0.18879506,-0.00000050,0.05018795,0.37294499,0.00000617,-0
 .00000634,0.00475804,-0.00000543,0.00001123,0.00972635,0.00000249,0.00
 000462,0.00040757,-0.00000320,0.00000290,-0.00075276,0.00000769,0.0000
 0347,0.00009743,-0.00000484,-0.00000442,0.00007398,-0.00000744,-0.0000
 0101,0.00008782,-0.00006453,0.00008058,-0.05345747,0.00026152,-0.00002
 962,0.02406928,0.00820216,-0.00918386,0.00000189,-0.06150721,-0.055930
 81,-0.00003427,0.00613630,0.01382503,-0.00000991,-0.01004075,0.0039166
 5,0.00000323,0.01176451,-0.00397919,-0.00000213,-0.00558291,-0.0052231
 7,0.00000058,-0.01074668,0.00058335,0.00000125,-0.29323717,-0.22939608
 ,-0.00012088,0.04106154,0.00992061,0.00000371,0.31343831,0.01793063,-0
 .01227304,0.00000034,-0.06293090,-0.00746541,-0.00002018,0.01290117,0.
 01001965,-0.00000940,-0.00934805,0.00812929,0.00000269,0.01353995,-0.0
 0221462,-0.00000171,-0.00789562,-0.00480373,0.00000238,-0.01201172,0.0
 0060775,0.00000113,-0.21444578,-0.45852769,-0.00013775,-0.01723696,-0.
 10053974,-0.00001840,0.28487291,0.56442997,0.00000905,-0.00000753,-0.0
 0124204,-0.00000880,-0.00000868,0.01653171,0.00000676,0.00000773,0.009
 53912,-0.00000520,0.00000489,-0.00093034,0.00001091,-0.00000032,0.0002
 0303,-0.00000573,-0.00000502,-0.00064542,-0.00001008,0.00000009,0.0000
 9325,-0.00015820,-0.00019252,-0.07467201,0.00000853,0.00002399,0.02165
 276,0.00014972,0.00018439,0.03356607,-0.13060029,-0.12798379,0.0000073
 5,0.01139899,0.01511674,-0.00000121,-0.00218205,0.00344919,0.00000041,
 -0.00066206,0.00040616,-0.00000003,-0.00494404,0.00089152,0.00000229,-
 0.00928913,-0.02649880,0.00000164,-0.00032578,-0.00141445,-0.00000026,
 0.00347071,0.00243212,0.00000200,0.00009784,-0.00066322,-0.00000042,-0
 .00373131,-0.00127874,-0.00000152,0.13535495,-0.12703549,-0.28596626,0
 .00000732,-0.01222735,-0.01725615,0.00000154,0.00377805,-0.00206509,-0
 .00000105,-0.00001586,0.00061797,0.00000006,0.00130999,-0.00018745,-0.
 00000057,0.00280471,0.00741532,-0.00000053,0.00042282,0.00054435,0.000
 00001,-0.00341573,-0.00320392,-0.00000190,0.00006782,0.00031850,0.0000
 0013,-0.00013935,0.00328406,0.00000154,0.13495559,0.29629447,0.0000090
 4,0.00000593,-0.04268302,-0.00000511,-0.00000117,0.00428242,0.00000161
 ,-0.00000065,0.00314561,0.00000002,0.00000043,-0.00121017,0.00000213,-
 0.00000011,0.01084888,0.00000084,0.00000321,0.00741312,-0.00000036,0.0
 0000015,-0.00077830,0.00000213,0.00000011,-0.00226862,0.00000006,0.000
 00004,-0.00037035,-0.00000043,-0.00000087,0.00028864,-0.00000927,-0.00
 000702,0.02712240,-0.00201305,-0.00347877,0.00000033,0.01154570,-0.014
 42791,-0.00000252,-0.13877652,0.13374348,0.00001544,-0.01021373,0.0261
 1244,0.00000310,-0.00509935,-0.00107054,0.00000194,-0.00052196,-0.0003
 3337,0.00000004,-0.00021398,0.00140780,-0.00000013,0.00398142,-0.00082
 496,0.00000295,-0.00588266,-0.00033328,-0.00000274,-0.00052851,0.00029
 578,-0.00000095,0.00065770,-0.00067722,0.00000005,0.14636892,-0.003886
 44,-0.00219487,0.00000085,0.01359103,-0.01666906,-0.00000277,0.1323176
 0,-0.28041128,-0.00002107,-0.00326848,0.00798475,0.00000083,-0.0015627
 7,-0.00025203,0.00000004,0.00006461,0.00067112,0.00000006,-0.00032549,
 0.00056000,0.00000005,0.00295183,-0.00197193,0.00000235,0.00072642,0.0
 0144621,-0.00000060,-0.00053862,0.00013864,-0.00000069,0.00073009,-0.0
 0061700,-0.00000018,-0.14053871,0.28967446,0.00000124,0.00000042,0.003
 31090,-0.00000437,-0.00000031,0.00346995,0.00001687,-0.00001814,-0.042
 07145,0.00000065,-0.00000315,0.00743450,0.00000225,-0.00000096,0.01072
 123,0.00000023,-0.00000028,-0.00118106,-0.00000047,-0.00000004,-0.0007
 4242,0.00000230,0.00000044,-0.00237049,-0.00000151,0.00000038,0.000881
 42,-0.00000029,-0.00000027,0.00000420,0.00000018,0.00000006,0.00106704
 ,-0.00001656,0.00002152,0.02663292,-0.00066955,0.00050273,0.00000020,-
 0.00428985,0.00186886,0.00000201,-0.01212848,-0.02880626,0.00000202,-0
 .12787188,-0.12343810,0.00000451,0.01067239,0.01713998,-0.00000045,-0.
 00211207,0.00298748,0.00000044,0.00213347,0.00032092,-0.00000033,-0.00
 017456,-0.00190744,-0.00000039,-0.00006189,-0.00001085,0.00000002,-0.0
 0065214,0.00010130,-0.00000015,0.00005022,-0.00007923,-0.00000004,0.00
 100634,-0.00013823,-0.00000076,0.13381028,0.00100804,-0.00009514,-0.00
 000020,0.00141489,0.00146114,-0.00000054,0.00171280,0.00533715,-0.0000
 0043,-0.12378822,-0.28385591,0.00000615,-0.01478792,-0.01834142,0.0000
 0117,0.00345279,-0.00222935,-0.00000044,-0.00111343,0.00195940,0.00000
 016,-0.00018390,0.00041392,-0.00000036,-0.00001948,-0.00005631,0.00000
 003,0.00036295,0.00020563,0.00000029,-0.00005427,0.00001733,0.,0.00006
 960,0.00086018,0.00000037,0.13092009,0.29536569,0.00000032,-0.00000029
 ,-0.00067820,0.00000367,0.00000074,0.00841418,0.00000120,0.00000329,0.
 00402457,0.00000429,0.00000535,-0.03611270,-0.00000016,-0.00000267,0.0
 0338354,0.00000078,-0.00000071,0.00405418,-0.00000090,0.00000002,-0.00
 215607,-0.00000197,-0.00000055,0.00208871,-0.00000027,0.00000016,0.000
 07360,0.00000099,0.00000086,-0.00125650,-0.00000003,0.00000003,-0.0004
 1064,-0.00000088,-0.00000001,-0.00595299,-0.00000720,-0.00000607,0.024
 45344,-0.01305275,0.02808752,0.00000381,-0.00415231,-0.00205873,0.0000
 0200,-0.00061346,-0.00051546,0.00000013,-0.00184994,-0.00297864,0.0000
 0025,0.01071559,-0.01591723,-0.00000142,-0.13797380,0.12925462,0.00001
 236,0.00212652,-0.00029946,-0.00000033,-0.00021886,0.00163261,-0.00000
 044,-0.00076724,-0.00010050,-0.00000015,0.00001793,0.00007574,0.000000
 14,0.00104876,0.00011998,-0.00000073,0.00004156,0.00007791,-0.00000003
 ,0.00064642,-0.00069350,-0.00000007,0.14443306,-0.00235831,0.00643469,
 0.00000068,-0.00166365,0.00133849,0.00000034,-0.00100828,-0.00015391,0
 .00000020,-0.00343845,-0.00245134,0.00000008,0.01592891,-0.01831521,-0
 .00000255,0.12953584,-0.27380407,-0.00002025,0.00112330,0.00197260,0.0
 0000008,0.00025326,0.00051674,0.00000031,-0.00037370,0.00017378,-0.000
 00024,-0.00001500,-0.00012118,-0.00000010,-0.00005713,0.00083534,0.,0.
 00005068,0.00001965,0.00000003,0.00074680,-0.00075868,-0.00000012,-0.1
 3702531,0.28465525,0.00000120,-0.00000286,0.00401551,0.00000358,-0.000
 00102,0.00866042,0.00000035,0.00000038,-0.00064320,0.00000052,0.000000
 36,0.00406513,0.00000091,0.00000129,0.00338402,0.00001181,-0.00001929,
 -0.03626552,-0.00000089,0.00000020,-0.00214434,-0.00000119,-0.00000036
 ,0.00173674,0.00000040,-0.00000025,-0.00084715,-0.00000032,-0.00000017
 ,0.00015704,-0.00000105,0.00000033,-0.00600038,-0.00000006,-0.00000002
 ,-0.00045384,-0.00000002,0.00000006,-0.00016685,-0.00001557,0.00002139
 ,0.02450129,-0.00071668,0.00017832,0.00000008,0.00155756,-0.00009676,0
 .00000018,-0.00060569,0.00152725,0.00000027,-0.00349447,-0.00351534,0.
 00000085,-0.01604828,0.03171181,0.00000230,0.00238863,0.00217434,-0.00
 000070,-0.18256260,0.17240439,0.00002177,-0.00177665,-0.00035146,-0.00
 000156,0.00052937,-0.00058913,0.00000063,0.00063249,0.00068755,0.00000
 073,0.00004570,-0.00007437,0.00000006,-0.00033615,-0.00009977,-0.00000
 003,0.00001998,0.00019408,-0.00000002,-0.00043930,-0.00151933,0.000000
 14,0.18557163,0.00197574,-0.00117520,-0.00000021,-0.00309707,0.0000879
 1,-0.00000021,0.00183490,0.00106744,-0.00000023,-0.00403731,0.00215340
 ,0.00000049,0.00302824,0.00857824,0.00000009,-0.00448255,0.00081765,0.
 00000066,0.17130004,-0.35804823,-0.00002722,0.00358750,0.00056366,0.00
 000244,-0.00063374,0.00087942,-0.00000094,-0.00131917,-0.00159086,-0.0
 0000142,-0.00009657,0.00005241,-0.00000003,-0.00006630,-0.00004366,-0.
 00000004,-0.00014419,0.00017686,0.,0.00004324,-0.00056057,-0.00000005,
 -0.18598524,0.36038715,-0.00000020,0.00000020,-0.00066540,-0.00000029,
 -0.00000053,0.00021403,0.00000087,0.00000033,0.00161410,0.00000002,0.0
 0000055,0.00661776,0.00000140,-0.00000295,-0.00177052,-0.00000022,0.00
 000003,-0.00417972,0.00002177,-0.00002746,-0.01118343,0.00000042,0.000
 00018,-0.00004535,-0.00000008,0.00000004,0.00007755,-0.00000017,-0.000
 00011,-0.00001238,0.00000011,0.,0.00041732,-0.00000017,0.00000002,-0.0
 0089199,-0.00000004,-0.00000008,-0.00047697,0.00000015,0.00000005,0.00
 071469,-0.00002251,0.00002851,0.01103139,-0.00047298,-0.00159193,0.000
 00017,0.00144616,0.00008753,0.00000003,-0.00067395,-0.00016516,0.00000
 012,0.00227988,-0.00211160,-0.00000084,-0.01462536,-0.03270354,0.00000
 035,-0.00376974,0.00328083,0.00000106,-0.16884798,-0.16472832,0.000010
 39,-0.00167468,-0.00022544,-0.00000123,0.00034518,-0.00039869,0.000000
 39,0.00076283,0.00085589,0.00000076,-0.00033100,0.00008832,-0.00000004
 ,0.00003716,0.00006844,0.00000007,-0.00042451,0.00153698,0.00000021,0.
 00002246,-0.00019996,-0.00000003,0.01541661,0.01781867,-0.00000109,0.1
 7068260,-0.00186272,0.00094501,0.00000014,0.00313492,0.00002405,0.0000
 0028,-0.00196267,-0.00122204,0.00000020,0.00450289,0.00087771,-0.00000
 039,-0.00394177,0.00708745,0.00000053,0.00380049,0.00243611,-0.0000006
 7,-0.16363610,-0.37164973,0.00000549,-0.00363878,-0.00055942,-0.000002
 60,0.00078914,-0.00103451,0.00000107,0.00122429,0.00144524,0.00000137,
 0.00007075,-0.00005317,0.00000008,0.00007341,0.00004073,0.00000002,-0.
 00005591,-0.00048598,0.,0.00014182,0.00017659,0.00000005,-0.01667233,-
 0.01326079,0.00000122,0.17832001,0.37515349,0.00000078,-0.00000032,0.0
 0156407,-0.00000013,0.00000054,0.00033220,-0.00000030,-0.00000026,-0.0
 0070040,0.,0.00000030,-0.00416212,0.00000124,0.00000365,-0.00177354,0.
 00000020,-0.00000088,0.00665605,0.00001039,0.00000571,-0.01116616,0.00
 000011,-0.00000010,0.00002358,0.00000003,0.00000004,-0.00013226,0.0000
 0005,-0.00000005,-0.00000806,-0.00000020,0.00000002,-0.00091939,0.0000
 0009,-0.00000002,0.00040840,0.00000015,-0.00000011,0.00071886,-0.00000
 004,0.00000012,-0.00047390,-0.00000212,-0.00000202,-0.00142145,-0.0000
 1026,-0.00000662,0.01098837,-0.00197416,0.00122518,-0.00000056,0.00524
 156,0.00137167,-0.00000246,-0.00112208,-0.00122140,0.00000073,0.001526
 17,-0.00111200,-0.00000054,-0.00259463,-0.00022723,0.00000020,0.001637
 38,0.00133590,-0.00000039,0.00241241,0.00006855,-0.00000017,-0.0384287
 3,0.00637984,-0.00001743,-0.44269011,-0.08794396,-0.00019389,0.0040106
 1,-0.00611315,0.00000402,-0.00005922,0.00011731,0.00000004,-0.00005290
 ,-0.00016942,0.00000023,0.00004583,-0.00003149,0.00000005,0.00001536,0
 .00002033,0.00000024,-0.00018214,0.00027381,0.00000004,-0.00017269,-0.
 00028744,0.,0.47238734,0.00216976,0.00046488,0.00000016,-0.00136710,-0
 .00881735,0.00000330,-0.00023829,-0.00044400,-0.00000082,-0.00070969,0
 .00083193,0.00000050,0.00059769,-0.00042277,-0.00000017,-0.00016149,-0
 .00087843,-0.00000019,-0.00071535,0.00011095,0.00000008,0.07148055,0.0
 1091639,0.00003251,-0.14862314,-0.08460999,-0.00004247,-0.00898053,-0.
 00072397,-0.00000802,-0.00000519,-0.00003069,0.00000007,-0.00000212,0.
 00076409,-0.00000005,-0.00000794,0.00002552,-0.00000003,0.00015540,0.0
 0004185,-0.00000005,0.00002599,-0.00008483,0.,0.00006796,0.00007927,0.
 ,0.08631348,0.08277715,-0.00000176,0.00000046,0.00219061,0.00000797,0.
 00000178,0.00238066,-0.00000016,-0.00000063,-0.00089112,0.00000086,-0.
 00000084,0.00027276,-0.00000129,-0.00000032,0.00040389,0.00000125,0.00
 000114,-0.00031056,0.00000133,0.00000005,-0.00012809,-0.00004908,0.000
 00098,-0.00137257,-0.00017594,-0.00001458,-0.00634583,0.00000699,-0.00
 000288,-0.00326909,0.,0.00000001,0.00005541,0.00000008,-0.00000034,-0.
 00026633,0.00000003,0.,-0.00000015,-0.00000006,-0.00000002,-0.00023965
 ,-0.00000006,0.00000017,-0.00003962,-0.00000007,-0.00000015,0.00006576
 ,0.00020991,0.00001520,0.00749392\\-0.00001581,-0.00001379,0.00001758,
 -0.00001596,0.00001158,0.00003129,-0.00002625,0.00000306,0.00001521,0.
 00001681,-0.00000851,-0.00000219,-0.00002618,0.00000274,0.00000184,0.0
 0001179,0.00000957,-0.00000198,0.00002104,0.00000068,0.00000004,-0.000
 03028,-0.00005211,-0.00017173,0.00003503,0.00006629,0.00004607,0.00002
 663,0.00000423,0.00006421,0.00000150,0.00000293,-0.00000061,-0.0000038
 2,-0.00000020,0.00000055,-0.00000154,-0.00000018,-0.00000249,-0.000001
 72,0.00000024,-0.00000294,-0.00000428,0.00000110,-0.00000006,-0.000004
 16,-0.00000103,-0.00000007,0.00001719,-0.00002659,0.00000528\\\@


 IF YOU PERCEIVE THAT THERE ARE FOUR POSSIBLE WAYS IN
 WHICH A PROCEDURE CAN GO WRONG AND CIRCUMVENT THESE, 
 THEN A FIFTH WAY WILL DEVELOP.

                              -- MURPHY'S TWELFTH LAW
 Job cpu time:       0 days  0 hours 27 minutes 33.0 seconds.
 File lengths (MBytes):  RWF=     93 Int=      0 D2E=      0 Chk=      5 Scr=      1
 Normal termination of Gaussian 09 at Thu Jun 13 22:27:10 2024.
