 Entering Gaussian System, Link 0=g09
 Input=camb3lypPNA.gjf
 Output=camb3lypPNA.log
 Initial command:
 /home/phzd/g09E/g09/l1.exe "/home/phzd/g09E/scratch/Gau-56471.inp" -scrdir="/home/phzd/g09E/scratch/"
 Default is to use a total of  18 processors:
                               18 via shared-memory
                                1 via Linda
 Entering Link 1 = /home/phzd/g09E/g09/l1.exe PID=     56473.
  
 Copyright (c) 1988,1990,1992,1993,1995,1998,2003,2009,2015,
            Gaussian, Inc.  All Rights Reserved.
  
 This is part of the Gaussian(R) 09 program.  It is based on
 the Gaussian(R) 03 system (copyright 2003, Gaussian, Inc.),
 the Gaussian(R) 98 system (copyright 1998, Gaussian, Inc.),
 the Gaussian(R) 94 system (copyright 1995, Gaussian, Inc.),
 the Gaussian 92(TM) system (copyright 1992, Gaussian, Inc.),
 the Gaussian 90(TM) system (copyright 1990, Gaussian, Inc.),
 the Gaussian 88(TM) system (copyright 1988, Gaussian, Inc.),
 the Gaussian 86(TM) system (copyright 1986, Carnegie Mellon
 University), and the Gaussian 82(TM) system (copyright 1983,
 Carnegie Mellon University). Gaussian is a federally registered
 trademark of Gaussian, Inc.
  
 This software contains proprietary and confidential information,
 including trade secrets, belonging to Gaussian, Inc.
  
 This software is provided under written license and may be
 used, copied, transmitted, or stored only in accord with that
 written license.
  
 The following legend is applicable only to US Government
 contracts under FAR:
  
                    RESTRICTED RIGHTS LEGEND
  
 Use, reproduction and disclosure by the US Government is
 subject to restrictions as set forth in subparagraphs (a)
 and (c) of the Commercial Computer Software - Restricted
 Rights clause in FAR 52.227-19.
  
 Gaussian, Inc.
 340 Quinnipiac St., Bldg. 40, Wallingford CT 06492
  
  
 ---------------------------------------------------------------
 Warning -- This program may not be used in any manner that
 competes with the business of Gaussian, Inc. or will provide
 assistance to any competitor of Gaussian, Inc.  The licensee
 of this program is prohibited from giving any competitor of
 Gaussian, Inc. access to this program.  By using this program,
 the user acknowledges that Gaussian, Inc. is engaged in the
 business of creating and licensing software in the field of
 computational chemistry and represents and warrants to the
 licensee that it is not a competitor of Gaussian, Inc. and that
 it will not use this program in any manner prohibited above.
 ---------------------------------------------------------------
  

 Cite this work as:
 Gaussian 09, Revision E.01,
 M. J. Frisch, G. W. Trucks, H. B. Schlegel, G. E. Scuseria, 
 M. A. Robb, J. R. Cheeseman, G. Scalmani, V. Barone, B. Mennucci, 
 G. A. Petersson, H. Nakatsuji, M. Caricato, X. Li, H. P. Hratchian, 
 A. F. Izmaylov, J. Bloino, G. Zheng, J. L. Sonnenberg, M. Hada, 
 M. Ehara, K. Toyota, R. Fukuda, J. Hasegawa, M. Ishida, T. Nakajima, 
 Y. Honda, O. Kitao, H. Nakai, T. Vreven, J. A. Montgomery, Jr., 
 J. E. Peralta, F. Ogliaro, M. Bearpark, J. J. Heyd, E. Brothers, 
 K. N. Kudin, V. N. Staroverov, T. Keith, R. Kobayashi, J. Normand, 
 K. Raghavachari, A. Rendell, J. C. Burant, S. S. Iyengar, J. Tomasi, 
 M. Cossi, N. Rega, J. M. Millam, M. Klene, J. E. Knox, J. B. Cross, 
 V. Bakken, C. Adamo, J. Jaramillo, R. Gomperts, R. E. Stratmann, 
 O. Yazyev, A. J. Austin, R. Cammi, C. Pomelli, J. W. Ochterski, 
 R. L. Martin, K. Morokuma, V. G. Zakrzewski, G. A. Voth, 
 P. Salvador, J. J. Dannenberg, S. Dapprich, A. D. Daniels, 
 O. Farkas, J. B. Foresman, J. V. Ortiz, J. Cioslowski, 
 and D. J. Fox, Gaussian, Inc., Wallingford CT, 2013.
 
 ******************************************
 Gaussian 09:  ES64L-G09RevE.01 30-Nov-2015
                13-Jun-2024 
 ******************************************
 %chk=camb3lypPNA.chk
 -----------------------------------------
 # opt freq cam-b3lyp/6-31+g(d,p) em=gd3bj
 -----------------------------------------
 1/14=-1,18=20,19=15,26=3,38=1/1,3;
 2/9=110,12=2,17=6,18=5,40=1/2;
 3/5=1,6=6,7=111,11=2,16=1,25=1,30=1,71=1,74=-40,124=41/1,2,3;
 4//1;
 5/5=2,38=5/2;
 6/7=2,8=2,9=2,10=2,28=1/1;
 7//1,2,3,16;
 1/14=-1,18=20,19=15,26=3/3(2);
 2/9=110/2;
 99//99;
 2/9=110/2;
 3/5=1,6=6,7=111,11=2,16=1,25=1,30=1,71=1,74=-40,124=41/1,2,3;
 4/5=5,16=3,69=1/1;
 5/5=2,38=5/2;
 7//1,2,3,16;
 1/14=-1,18=20,19=15,26=3/3(-5);
 2/9=110/2;
 6/7=2,8=2,9=2,10=2,19=2,28=1/1;
 99/9=1/99;
 ----------
 [No Title]
 ----------
 Symbolic Z-matrix:
 Charge =  0 Multiplicity = 1
 C                    -0.0218    1.21641   0.00023 
 C                    -0.71134   0.        0.00039 
 C                    -0.0218   -1.2164    0.0003 
 C                     1.36325  -1.2161    0.00016 
 C                     2.08217  0.         0.00006 
 C                     1.36325   1.2161    0.00009 
 N                     3.4515    0.       -0.00007 
 N                    -2.16391   0.        0.00061 
 O                    -2.7452   -1.0916   -0.0007 
 O                    -2.74521   1.0916   -0.00077 
 H                    -0.58095   2.14355   0.00027 
 H                    -0.58095  -2.14355   0.0004 
 H                     1.90326  -2.15827   0.00014 
 H                     1.90326   2.15827   0.00002 
 H                     3.9715    0.86123  -0.00016 
 H                     3.9715   -0.86123  -0.0001 
 

 GradGradGradGradGradGradGradGradGradGradGradGradGradGradGradGradGradGrad
 Berny optimization.
 Initialization pass.
                           ----------------------------
                           !    Initial Parameters    !
                           ! (Angstroms and Degrees)  !
 --------------------------                            --------------------------
 ! Name  Definition              Value          Derivative Info.                !
 --------------------------------------------------------------------------------
 ! R1    R(1,2)                  1.3983         estimate D2E/DX2                !
 ! R2    R(1,6)                  1.3851         estimate D2E/DX2                !
 ! R3    R(1,11)                 1.0827         estimate D2E/DX2                !
 ! R4    R(2,3)                  1.3983         estimate D2E/DX2                !
 ! R5    R(2,8)                  1.4526         estimate D2E/DX2                !
 ! R6    R(3,4)                  1.3851         estimate D2E/DX2                !
 ! R7    R(3,12)                 1.0827         estimate D2E/DX2                !
 ! R8    R(4,5)                  1.4127         estimate D2E/DX2                !
 ! R9    R(4,13)                 1.086          estimate D2E/DX2                !
 ! R10   R(5,6)                  1.4127         estimate D2E/DX2                !
 ! R11   R(5,7)                  1.3693         estimate D2E/DX2                !
 ! R12   R(6,14)                 1.086          estimate D2E/DX2                !
 ! R13   R(7,15)                 1.006          estimate D2E/DX2                !
 ! R14   R(7,16)                 1.006          estimate D2E/DX2                !
 ! R15   R(8,9)                  1.2367         estimate D2E/DX2                !
 ! R16   R(8,10)                 1.2367         estimate D2E/DX2                !
 ! A1    A(2,1,6)              119.5352         estimate D2E/DX2                !
 ! A2    A(2,1,11)             119.3587         estimate D2E/DX2                !
 ! A3    A(6,1,11)             121.1062         estimate D2E/DX2                !
 ! A4    A(1,2,3)              120.9048         estimate D2E/DX2                !
 ! A5    A(1,2,8)              119.5476         estimate D2E/DX2                !
 ! A6    A(3,2,8)              119.5475         estimate D2E/DX2                !
 ! A7    A(2,3,4)              119.5353         estimate D2E/DX2                !
 ! A8    A(2,3,12)             119.3585         estimate D2E/DX2                !
 ! A9    A(4,3,12)             121.1062         estimate D2E/DX2                !
 ! A10   A(3,4,5)              120.6023         estimate D2E/DX2                !
 ! A11   A(3,4,13)             119.8071         estimate D2E/DX2                !
 ! A12   A(5,4,13)             119.5906         estimate D2E/DX2                !
 ! A13   A(4,5,6)              118.8201         estimate D2E/DX2                !
 ! A14   A(4,5,7)              120.5901         estimate D2E/DX2                !
 ! A15   A(6,5,7)              120.5898         estimate D2E/DX2                !
 ! A16   A(1,6,5)              120.6024         estimate D2E/DX2                !
 ! A17   A(1,6,14)             119.8071         estimate D2E/DX2                !
 ! A18   A(5,6,14)             119.5905         estimate D2E/DX2                !
 ! A19   A(5,7,15)             121.1236         estimate D2E/DX2                !
 ! A20   A(5,7,16)             121.1233         estimate D2E/DX2                !
 ! A21   A(15,7,16)            117.7531         estimate D2E/DX2                !
 ! A22   A(2,8,9)              118.0358         estimate D2E/DX2                !
 ! A23   A(2,8,10)             118.0364         estimate D2E/DX2                !
 ! A24   A(9,8,10)             123.9276         estimate D2E/DX2                !
 ! D1    D(6,1,2,3)             -0.0059         estimate D2E/DX2                !
 ! D2    D(6,1,2,8)            179.9966         estimate D2E/DX2                !
 ! D3    D(11,1,2,3)           179.9978         estimate D2E/DX2                !
 ! D4    D(11,1,2,8)             0.0004         estimate D2E/DX2                !
 ! D5    D(2,1,6,5)              0.0029         estimate D2E/DX2                !
 ! D6    D(2,1,6,14)          -179.9966         estimate D2E/DX2                !
 ! D7    D(11,1,6,5)           179.999          estimate D2E/DX2                !
 ! D8    D(11,1,6,14)           -0.0004         estimate D2E/DX2                !
 ! D9    D(1,2,3,4)              0.0059         estimate D2E/DX2                !
 ! D10   D(1,2,3,12)          -179.9979         estimate D2E/DX2                !
 ! D11   D(8,2,3,4)           -179.9966         estimate D2E/DX2                !
 ! D12   D(8,2,3,12)            -0.0004         estimate D2E/DX2                !
 ! D13   D(1,2,8,9)            179.9235         estimate D2E/DX2                !
 ! D14   D(1,2,8,10)             0.0742         estimate D2E/DX2                !
 ! D15   D(3,2,8,9)             -0.074          estimate D2E/DX2                !
 ! D16   D(3,2,8,10)          -179.9233         estimate D2E/DX2                !
 ! D17   D(2,3,4,5)             -0.0029         estimate D2E/DX2                !
 ! D18   D(2,3,4,13)           179.9966         estimate D2E/DX2                !
 ! D19   D(12,3,4,5)          -179.999          estimate D2E/DX2                !
 ! D20   D(12,3,4,13)            0.0005         estimate D2E/DX2                !
 ! D21   D(3,4,5,6)             -0.0001         estimate D2E/DX2                !
 ! D22   D(3,4,5,7)            179.9996         estimate D2E/DX2                !
 ! D23   D(13,4,5,6)          -179.9996         estimate D2E/DX2                !
 ! D24   D(13,4,5,7)             0.0002         estimate D2E/DX2                !
 ! D25   D(4,5,6,1)              0.0001         estimate D2E/DX2                !
 ! D26   D(4,5,6,14)           179.9996         estimate D2E/DX2                !
 ! D27   D(7,5,6,1)           -179.9996         estimate D2E/DX2                !
 ! D28   D(7,5,6,14)            -0.0002         estimate D2E/DX2                !
 ! D29   D(4,5,7,15)           179.9994         estimate D2E/DX2                !
 ! D30   D(4,5,7,16)             0.0007         estimate D2E/DX2                !
 ! D31   D(6,5,7,15)            -0.0008         estimate D2E/DX2                !
 ! D32   D(6,5,7,16)          -179.9995         estimate D2E/DX2                !
 --------------------------------------------------------------------------------
 Trust Radius=3.00D-01 FncErr=1.00D-07 GrdErr=1.00D-06
 Number of steps in this run=     82 maximum allowed number of steps=    100.
 GradGradGradGradGradGradGradGradGradGradGradGradGradGradGradGradGradGrad

                          Input orientation:                          
 ---------------------------------------------------------------------
 Center     Atomic      Atomic             Coordinates (Angstroms)
 Number     Number       Type             X           Y           Z
 ---------------------------------------------------------------------
      1          6           0       -0.021796    1.216405    0.000228
      2          6           0       -0.711339    0.000001    0.000394
      3          6           0       -0.021797   -1.216402    0.000299
      4          6           0        1.363253   -1.216104    0.000162
      5          6           0        2.082168   -0.000001    0.000057
      6          6           0        1.363254    1.216104    0.000091
      7          7           0        3.451498    0.000001   -0.000071
      8          7           0       -2.163906    0.000000    0.000613
      9          8           0       -2.745196   -1.091600   -0.000701
     10          8           0       -2.745209    1.091597   -0.000768
     11          1           0       -0.580949    2.143553    0.000271
     12          1           0       -0.580954   -2.143550    0.000397
     13          1           0        1.903261   -2.158272    0.000144
     14          1           0        1.903264    2.158270    0.000018
     15          1           0        3.971504    0.861227   -0.000155
     16          1           0        3.971503   -0.861226   -0.000103
 ---------------------------------------------------------------------
                    Distance matrix (angstroms):
                    1          2          3          4          5
     1  C    0.000000
     2  C    1.398252   0.000000
     3  C    2.432807   1.398250   0.000000
     4  C    2.799189   2.404754   1.385050   0.000000
     5  C    2.430290   2.793507   2.430288   1.412708   0.000000
     6  C    1.385050   2.404754   2.799188   2.432208   1.412710
     7  N    3.680137   4.162837   3.680138   2.416543   1.369330
     8  N    2.463387   1.452567   2.463385   3.730919   4.246074
     9  O    3.569845   2.308283   2.726257   4.110335   4.949246
    10  O    2.726272   2.308292   3.569851   4.712212   4.949258
    11  H    1.082707   2.147514   3.406163   3.881651   3.418628
    12  H    3.406164   2.147513   1.082710   2.154088   3.418629
    13  H    3.885137   3.390321   2.143121   1.085951   2.165673
    14  H    2.143121   3.390321   3.885135   3.417311   2.165673
    15  H    4.009064   4.761379   4.501444   3.334408   2.076368
    16  H    4.501443   4.761378   4.009064   2.632282   2.076366
                    6          7          8          9         10
     6  C    0.000000
     7  N    2.416541   0.000000
     8  N    3.730920   5.615404   0.000000
     9  O    4.712203   6.292107   1.236726   0.000000
    10  O    4.110349   6.292119   1.236729   2.183197   0.000000
    11  H    2.154086   4.566776   2.664690   3.892323   2.406374
    12  H    3.881652   4.566780   2.664685   2.406355   3.892323
    13  H    3.417312   2.656159   4.604344   4.769271   5.671854
    14  H    1.085950   2.656154   4.604346   5.671846   4.769286
    15  H    2.632281   1.006040   6.195560   6.994826   6.720662
    16  H    3.334406   1.006040   6.195559   6.720649   6.994837
                   11         12         13         14         15
    11  H    0.000000
    12  H    4.287103   0.000000
    13  H    4.967595   2.484259   0.000000
    14  H    2.484257   4.967594   4.316542   0.000000
    15  H    4.729608   5.454682   3.659918   2.441298   0.000000
    16  H    5.454678   4.729611   2.441302   3.659914   1.722453
                   16
    16  H    0.000000
 Stoichiometry    C6H6N2O2
 Framework group  C1[X(C6H6N2O2)]
 Deg. of freedom    42
 Full point group                 C1      NOp   1
 Largest Abelian subgroup         C1      NOp   1
 Largest concise Abelian subgroup C1      NOp   1
                         Standard orientation:                         
 ---------------------------------------------------------------------
 Center     Atomic      Atomic             Coordinates (Angstroms)
 Number     Number       Type             X           Y           Z
 ---------------------------------------------------------------------
      1          6           0        0.021796   -1.216405    0.000228
      2          6           0        0.711339   -0.000001    0.000394
      3          6           0        0.021797    1.216402    0.000299
      4          6           0       -1.363253    1.216104    0.000162
      5          6           0       -2.082168    0.000001    0.000057
      6          6           0       -1.363254   -1.216104    0.000091
      7          7           0       -3.451498   -0.000001   -0.000071
      8          7           0        2.163906    0.000000    0.000613
      9          8           0        2.745196    1.091600   -0.000701
     10          8           0        2.745209   -1.091597   -0.000768
     11          1           0        0.580949   -2.143553    0.000271
     12          1           0        0.580954    2.143550    0.000397
     13          1           0       -1.903261    2.158272    0.000144
     14          1           0       -1.903264   -2.158270    0.000018
     15          1           0       -3.971504   -0.861227   -0.000155
     16          1           0       -3.971503    0.861226   -0.000103
 ---------------------------------------------------------------------
 Rotational constants (GHZ):      3.9094978      0.8215452      0.6788840
 Standard basis: 6-31+G(d,p) (6D, 7F)
 There are   220 symmetry adapted cartesian basis functions of A   symmetry.
 There are   220 symmetry adapted basis functions of A   symmetry.
   220 basis functions,   362 primitive gaussians,   220 cartesian basis functions
    36 alpha electrons       36 beta electrons
       nuclear repulsion energy       494.6945858361 Hartrees.
 NAtoms=   16 NActive=   16 NUniq=   16 SFac= 1.00D+00 NAtFMM=   60 NAOKFM=F Big=F
 Integral buffers will be    131072 words long.
 Raffenetti 2 integral format.
 Two-electron integral symmetry is turned on.
 Nuclear repulsion after empirical dispersion term =      494.6815276976 Hartrees.
 One-electron integrals computed using PRISM.
 NBasis=   220 RedAO= T EigKep=  3.27D-06  NBF=   220
 NBsUse=   220 1.00D-06 EigRej= -1.00D+00 NBFU=   220
 ExpMin= 4.38D-02 ExpMax= 5.48D+03 ExpMxC= 8.25D+02 IAcc=2 IRadAn=         4 AccDes= 0.00D+00
 Harris functional with IExCor=20419 and IRadAn=       4 diagonalized for initial guess.
 HarFok:  IExCor=20419 AccDes= 0.00D+00 IRadAn=         4 IDoV= 1 UseB2=F ITyADJ=14
 ICtDFT=  3500011 ScaDFX=  1.000000  1.000000  1.000000  1.000000
 FoFCou: FMM=F IPFlag=           0 FMFlag=      100000 FMFlg1=           0
         NFxFlg=           0 DoJE=T BraDBF=F KetDBF=T FulRan=T
         wScrn=  0.000000 ICntrl=     500 IOpCl=  0 I1Cent=   200000004 NGrid=           0
         NMat0=    1 NMatS0=      1 NMatT0=    0 NMatD0=    1 NMtDS0=    0 NMtDT0=    0
 Petite list used in FoFCou.
 Keep R1 ints in memory in canonical form, NReq=596566580.
 Requested convergence on RMS density matrix=1.00D-08 within 128 cycles.
 Requested convergence on MAX density matrix=1.00D-06.
 Requested convergence on             energy=1.00D-06.
 No special actions if energy rises.
 SCF Done:  E(RCAM-B3LYP) =  -491.927353405     A.U. after   16 cycles
            NFock= 16  Conv=0.22D-08     -V/T= 2.0093

 **********************************************************************

            Population analysis using the SCF density.

 **********************************************************************

 Orbital symmetries:
       Occupied  (A) (A) (A) (A) (A) (A) (A) (A) (A) (A) (A) (A)
                 (A) (A) (A) (A) (A) (A) (A) (A) (A) (A) (A) (A)
                 (A) (A) (A) (A) (A) (A) (A) (A) (A) (A) (A) (A)
       Virtual   (A) (A) (A) (A) (A) (A) (A) (A) (A) (A) (A) (A)
                 (A) (A) (A) (A) (A) (A) (A) (A) (A) (A) (A) (A)
                 (A) (A) (A) (A) (A) (A) (A) (A) (A) (A) (A) (A)
                 (A) (A) (A) (A) (A) (A) (A) (A) (A) (A) (A) (A)
                 (A) (A) (A) (A) (A) (A) (A) (A) (A) (A) (A) (A)
                 (A) (A) (A) (A) (A) (A) (A) (A) (A) (A) (A) (A)
                 (A) (A) (A) (A) (A) (A) (A) (A) (A) (A) (A) (A)
                 (A) (A) (A) (A) (A) (A) (A) (A) (A) (A) (A) (A)
                 (A) (A) (A) (A) (A) (A) (A) (A) (A) (A) (A) (A)
                 (A) (A) (A) (A) (A) (A) (A) (A) (A) (A) (A) (A)
                 (A) (A) (A) (A) (A) (A) (A) (A) (A) (A) (A) (A)
                 (A) (A) (A) (A) (A) (A) (A) (A) (A) (A) (A) (A)
                 (A) (A) (A) (A) (A) (A) (A) (A) (A) (A) (A) (A)
                 (A) (A) (A) (A) (A) (A) (A) (A) (A) (A) (A) (A)
                 (A) (A) (A) (A) (A) (A) (A) (A) (A) (A) (A) (A)
                 (A) (A) (A) (A)
 The electronic state is 1-A.
 Alpha  occ. eigenvalues --  -19.25654 -19.25651 -14.65181 -14.45575 -10.34886
 Alpha  occ. eigenvalues --  -10.32111 -10.30042 -10.30040 -10.29019 -10.29019
 Alpha  occ. eigenvalues --   -1.30500  -1.12814  -1.04156  -0.96708  -0.87940
 Alpha  occ. eigenvalues --   -0.86061  -0.77572  -0.72500  -0.67977  -0.63906
 Alpha  occ. eigenvalues --   -0.62552  -0.61329  -0.60381  -0.57778  -0.53845
 Alpha  occ. eigenvalues --   -0.52902  -0.51830  -0.49207  -0.48798  -0.43612
 Alpha  occ. eigenvalues --   -0.41035  -0.37697  -0.37094  -0.35807  -0.33875
 Alpha  occ. eigenvalues --   -0.28828
 Alpha virt. eigenvalues --   -0.04418   0.00986   0.01182   0.03490   0.04072
 Alpha virt. eigenvalues --    0.04889   0.06302   0.06753   0.08797   0.09011
 Alpha virt. eigenvalues --    0.10254   0.10799   0.11459   0.12089   0.13678
 Alpha virt. eigenvalues --    0.15045   0.15427   0.15828   0.16219   0.16260
 Alpha virt. eigenvalues --    0.17342   0.19153   0.19391   0.19693   0.19717
 Alpha virt. eigenvalues --    0.20276   0.20425   0.22776   0.23016   0.23582
 Alpha virt. eigenvalues --    0.23617   0.24616   0.24847   0.25688   0.26672
 Alpha virt. eigenvalues --    0.27020   0.27126   0.29087   0.29399   0.29622
 Alpha virt. eigenvalues --    0.30966   0.31669   0.32181   0.34384   0.35324
 Alpha virt. eigenvalues --    0.35546   0.35926   0.37252   0.38798   0.39951
 Alpha virt. eigenvalues --    0.41981   0.43621   0.43916   0.45628   0.45740
 Alpha virt. eigenvalues --    0.48838   0.50752   0.57593   0.63923   0.66059
 Alpha virt. eigenvalues --    0.69089   0.69802   0.70684   0.74983   0.75278
 Alpha virt. eigenvalues --    0.76187   0.78155   0.80105   0.82908   0.83303
 Alpha virt. eigenvalues --    0.86345   0.88682   0.89643   0.92725   0.95282
 Alpha virt. eigenvalues --    0.95750   0.98651   0.98817   1.01078   1.04607
 Alpha virt. eigenvalues --    1.04717   1.07900   1.09274   1.12432   1.12522
 Alpha virt. eigenvalues --    1.13881   1.15542   1.21586   1.22395   1.24813
 Alpha virt. eigenvalues --    1.24890   1.26609   1.27923   1.28951   1.30712
 Alpha virt. eigenvalues --    1.33893   1.36603   1.36740   1.38813   1.40414
 Alpha virt. eigenvalues --    1.42160   1.43385   1.43608   1.44120   1.48648
 Alpha virt. eigenvalues --    1.49183   1.50326   1.51871   1.52538   1.58874
 Alpha virt. eigenvalues --    1.68206   1.74765   1.78499   1.81514   1.86156
 Alpha virt. eigenvalues --    1.87964   1.88233   1.90607   1.92312   1.93856
 Alpha virt. eigenvalues --    1.97810   1.98167   1.98742   2.02184   2.02669
 Alpha virt. eigenvalues --    2.03003   2.03735   2.09258   2.13502   2.14851
 Alpha virt. eigenvalues --    2.19164   2.19793   2.19816   2.23184   2.25713
 Alpha virt. eigenvalues --    2.28091   2.29505   2.36359   2.43743   2.44499
 Alpha virt. eigenvalues --    2.45758   2.48302   2.49049   2.49460   2.54958
 Alpha virt. eigenvalues --    2.58016   2.59607   2.60376   2.62462   2.63886
 Alpha virt. eigenvalues --    2.65785   2.66508   2.73318   2.75899   2.79518
 Alpha virt. eigenvalues --    2.79796   2.85475   2.88567   2.89480   2.90937
 Alpha virt. eigenvalues --    3.05598   3.08924   3.10001   3.13687   3.17627
 Alpha virt. eigenvalues --    3.18152   3.26100   3.34809   3.40782   3.40848
 Alpha virt. eigenvalues --    3.48316   3.59199   3.72086   3.89905   4.18552
 Alpha virt. eigenvalues --    4.27907   4.34533   4.34817   4.39020   4.53850
 Alpha virt. eigenvalues --    4.55213   4.58427   4.86310   4.91619
          Condensed to atoms (all electrons):
               1          2          3          4          5          6
     1  C    8.809744   0.161261  -2.532884  -0.449169  -0.183161  -0.312056
     2  C    0.161261   8.833133   0.161192  -0.874816  -0.338623  -0.874820
     3  C   -2.532884   0.161192   8.809804  -0.312075  -0.183151  -0.449167
     4  C   -0.449169  -0.874816  -0.312075   8.960035   0.353665  -1.889732
     5  C   -0.183161  -0.338623  -0.183151   0.353665   5.712010   0.353696
     6  C   -0.312056  -0.874820  -0.449167  -1.889732   0.353696   8.959978
     7  N    0.034501  -0.011467   0.034501  -0.044766   0.045271  -0.044766
     8  N    0.202919  -0.785654   0.202936   0.022066  -0.013427   0.022071
     9  O    0.129624  -0.307092  -0.062869   0.149489   0.011958  -0.014557
    10  O   -0.062869  -0.307089   0.129627  -0.014558   0.011959   0.149484
    11  H    0.072164   0.255459   0.107792  -0.011273  -0.032680  -0.040449
    12  H    0.107791   0.255462   0.072160  -0.040447  -0.032680  -0.011272
    13  H   -0.015718   0.014745   0.090178   0.194682   0.012017   0.029609
    14  H    0.090178   0.014744  -0.015718   0.029609   0.012017   0.194684
    15  H    0.026710  -0.001203  -0.000365   0.058114  -0.003481  -0.092633
    16  H   -0.000365  -0.001203   0.026710  -0.092635  -0.003480   0.058115
               7          8          9         10         11         12
     1  C    0.034501   0.202919   0.129624  -0.062869   0.072164   0.107791
     2  C   -0.011467  -0.785654  -0.307092  -0.307089   0.255459   0.255462
     3  C    0.034501   0.202936  -0.062869   0.129627   0.107792   0.072160
     4  C   -0.044766   0.022066   0.149489  -0.014558  -0.011273  -0.040447
     5  C    0.045271  -0.013427   0.011958   0.011959  -0.032680  -0.032680
     6  C   -0.044766   0.022071  -0.014557   0.149484  -0.040449  -0.011272
     7  N    7.020149   0.000689  -0.000229  -0.000229  -0.000408  -0.000408
     8  N    0.000689   6.930850   0.380043   0.380054  -0.047318  -0.047319
     9  O   -0.000229   0.380043   7.865451  -0.086034  -0.002723   0.017396
    10  O   -0.000229   0.380054  -0.086034   7.865446   0.017396  -0.002723
    11  H   -0.000408  -0.047318  -0.002723   0.017396   0.510425  -0.000133
    12  H   -0.000408  -0.047319   0.017396  -0.002723  -0.000133   0.510425
    13  H   -0.017283  -0.000343   0.000031   0.000053   0.000011  -0.004742
    14  H   -0.017284  -0.000343   0.000053   0.000031  -0.004742   0.000011
    15  H    0.339447   0.000009  -0.000000   0.000001  -0.000008   0.000002
    16  H    0.339447   0.000009   0.000001  -0.000000   0.000002  -0.000008
              13         14         15         16
     1  C   -0.015718   0.090178   0.026710  -0.000365
     2  C    0.014745   0.014744  -0.001203  -0.001203
     3  C    0.090178  -0.015718  -0.000365   0.026710
     4  C    0.194682   0.029609   0.058114  -0.092635
     5  C    0.012017   0.012017  -0.003481  -0.003480
     6  C    0.029609   0.194684  -0.092633   0.058115
     7  N   -0.017283  -0.017284   0.339447   0.339447
     8  N   -0.000343  -0.000343   0.000009   0.000009
     9  O    0.000031   0.000053  -0.000000   0.000001
    10  O    0.000053   0.000031   0.000001  -0.000000
    11  H    0.000011  -0.004742  -0.000008   0.000002
    12  H   -0.004742   0.000011   0.000002  -0.000008
    13  H    0.564047  -0.000134  -0.000041   0.004541
    14  H   -0.000134   0.564048   0.004541  -0.000041
    15  H   -0.000041   0.004541   0.382985  -0.026821
    16  H    0.004541  -0.000041  -0.026821   0.382985
 Mulliken charges:
               1
     1  C   -0.078669
     2  C   -0.194028
     3  C   -0.078670
     4  C   -0.038190
     5  C    0.278091
     6  C   -0.038185
     7  N   -0.677163
     8  N   -0.247243
     9  O   -0.080542
    10  O   -0.080547
    11  H    0.176483
    12  H    0.176484
    13  H    0.128346
    14  H    0.128346
    15  H    0.312743
    16  H    0.312743
 Sum of Mulliken charges =  -0.00000
 Mulliken charges with hydrogens summed into heavy atoms:
               1
     1  C    0.097814
     2  C   -0.194028
     3  C    0.097814
     4  C    0.090156
     5  C    0.278091
     6  C    0.090161
     7  N   -0.051677
     8  N   -0.247243
     9  O   -0.080542
    10  O   -0.080547
 Electronic spatial extent (au):  <R**2>=           1563.7626
 Charge=             -0.0000 electrons
 Dipole moment (field-independent basis, Debye):
    X=             -7.7241    Y=              0.0000    Z=              0.0027  Tot=              7.7241
 Quadrupole moment (field-independent basis, Debye-Ang):
   XX=            -57.6077   YY=            -53.2183   ZZ=            -61.0042
   XY=              0.0000   XZ=              0.0098   YZ=              0.0002
 Traceless Quadrupole moment (field-independent basis, Debye-Ang):
   XX=             -0.3310   YY=              4.0585   ZZ=             -3.7275
   XY=              0.0000   XZ=              0.0098   YZ=              0.0002
 Octapole moment (field-independent basis, Debye-Ang**2):
  XXX=           -108.9894  YYY=              0.0000  ZZZ=             -0.0067  XYY=            -17.0460
  XXY=              0.0001  XXZ=              0.0189  XZZ=             13.5622  YZZ=              0.0000
  YYZ=             -0.0006  XYZ=             -0.0009
 Hexadecapole moment (field-independent basis, Debye-Ang**3):
 XXXX=          -1389.5922 YYYY=           -371.1696 ZZZZ=            -67.1776 XXXY=              0.0007
 XXXZ=              0.1343 YYYX=              0.0001 YYYZ=             -0.0034 ZZZX=              0.0427
 ZZZY=             -0.0056 XXYY=           -302.9497 XXZZ=           -282.7255 YYZZ=            -85.5922
 XXYZ=             -0.0006 YYXZ=              0.0164 ZZXY=              0.0000
 N-N= 4.946815276976D+02 E-N=-2.135798086167D+03  KE= 4.874031530542D+02
 Calling FoFJK, ICntrl=      2127 FMM=F ISym2X=0 I1Cent= 0 IOpClX= 0 NMat=1 NMatS=1 NMatT=0.
 ***** Axes restored to original set *****
 -------------------------------------------------------------------
 Center     Atomic                   Forces (Hartrees/Bohr)
 Number     Number              X              Y              Z
 -------------------------------------------------------------------
      1        6           0.001047514   -0.004734864    0.000024066
      2        6           0.003983780    0.000001671    0.000086948
      3        6           0.001046716    0.004732791    0.000023876
      4        6          -0.001493473    0.004241149   -0.000006460
      5        6          -0.002818075    0.000001175    0.000002580
      6        6          -0.001493912   -0.004242039   -0.000006196
      7        7          -0.002106196   -0.000000937    0.000000686
      8        7          -0.009570585    0.000002113   -0.000441782
      9        8           0.006521885    0.013202351    0.000160736
     10        8           0.006525406   -0.013205384    0.000161553
     11        1           0.000041696   -0.000143190    0.000000070
     12        1           0.000042727    0.000144347    0.000000019
     13        1          -0.000270537    0.000450216   -0.000002943
     14        1          -0.000270321   -0.000449756   -0.000002923
     15        1          -0.000593393   -0.000524161   -0.000000095
     16        1          -0.000593232    0.000524518   -0.000000135
 -------------------------------------------------------------------
 Cartesian Forces:  Max     0.013205384 RMS     0.003660618

 GradGradGradGradGradGradGradGradGradGradGradGradGradGradGradGradGradGrad
 Berny optimization.
 FormGI is forming the generalized inverse of G from B-inverse, IUseBI=4.
 Internal  Forces:  Max     0.014723044 RMS     0.002992158
 Search for a local minimum.
 Step number   1 out of a maximum of   82
 All quantities printed in internal units (Hartrees-Bohrs-Radians)
 Mixed Optimization -- RFO/linear search
 Second derivative matrix not updated -- first step.
 ITU=  0
     Eigenvalues ---    0.00996   0.00996   0.01774   0.01947   0.02015
     Eigenvalues ---    0.02078   0.02097   0.02097   0.02106   0.02155
     Eigenvalues ---    0.02167   0.02210   0.02216   0.16000   0.16000
     Eigenvalues ---    0.16000   0.16000   0.16000   0.16000   0.22000
     Eigenvalues ---    0.22969   0.24000   0.25000   0.25000   0.25000
     Eigenvalues ---    0.25000   0.35285   0.35285   0.35669   0.35669
     Eigenvalues ---    0.37911   0.40804   0.41759   0.44815   0.45017
     Eigenvalues ---    0.46642   0.46642   0.46706   0.48191   0.51106
     Eigenvalues ---    0.88339   0.88341
 RFO step:  Lambda=-9.69118667D-04 EMin= 9.96419452D-03
 Linear search not attempted -- first point.
 Iteration  1 RMS(Cart)=  0.00956152 RMS(Int)=  0.00004875
 Iteration  2 RMS(Cart)=  0.00004535 RMS(Int)=  0.00002405
 Iteration  3 RMS(Cart)=  0.00000000 RMS(Int)=  0.00002405
 Variable       Old X    -DE/DX   Delta X   Delta X   Delta X     New X
                                 (Linear)    (Quad)   (Total)
    R1        2.64231  -0.00619   0.00000  -0.01354  -0.01354   2.62877
    R2        2.61737  -0.00482   0.00000  -0.00998  -0.00998   2.60738
    R3        2.04602  -0.00014   0.00000  -0.00040  -0.00040   2.04562
    R4        2.64231  -0.00619   0.00000  -0.01354  -0.01354   2.62877
    R5        2.74495  -0.00348   0.00000  -0.00915  -0.00915   2.73581
    R6        2.61737  -0.00482   0.00000  -0.00998  -0.00998   2.60738
    R7        2.04602  -0.00015   0.00000  -0.00041  -0.00041   2.04562
    R8        2.66963  -0.00549   0.00000  -0.01247  -0.01247   2.65716
    R9        2.05215  -0.00053   0.00000  -0.00148  -0.00148   2.05067
   R10        2.66963  -0.00549   0.00000  -0.01247  -0.01247   2.65716
   R11        2.58766  -0.00329   0.00000  -0.00643  -0.00643   2.58123
   R12        2.05215  -0.00052   0.00000  -0.00148  -0.00148   2.05067
   R13        1.90114  -0.00076   0.00000  -0.00162  -0.00162   1.89952
   R14        1.90114  -0.00076   0.00000  -0.00162  -0.00162   1.89952
   R15        2.33707  -0.01472   0.00000  -0.01664  -0.01664   2.32043
   R16        2.33708  -0.01472   0.00000  -0.01665  -0.01665   2.32043
    A1        2.08628  -0.00041   0.00000  -0.00194  -0.00194   2.08434
    A2        2.08320   0.00017   0.00000   0.00073   0.00073   2.08393
    A3        2.11370   0.00024   0.00000   0.00121   0.00121   2.11491
    A4        2.11019   0.00099   0.00000   0.00370   0.00370   2.11389
    A5        2.08650  -0.00049   0.00000  -0.00185  -0.00185   2.08465
    A6        2.08650  -0.00049   0.00000  -0.00185  -0.00185   2.08465
    A7        2.08628  -0.00041   0.00000  -0.00194  -0.00194   2.08434
    A8        2.08320   0.00017   0.00000   0.00073   0.00073   2.08393
    A9        2.11370   0.00024   0.00000   0.00121   0.00121   2.11491
   A10        2.10491  -0.00023   0.00000  -0.00074  -0.00074   2.10417
   A11        2.09103   0.00011   0.00000   0.00030   0.00030   2.09133
   A12        2.08725   0.00013   0.00000   0.00044   0.00044   2.08769
   A13        2.07380   0.00030   0.00000   0.00166   0.00166   2.07546
   A14        2.10469  -0.00015   0.00000  -0.00083  -0.00083   2.10386
   A15        2.10469  -0.00015   0.00000  -0.00083  -0.00083   2.10386
   A16        2.10491  -0.00023   0.00000  -0.00074  -0.00074   2.10417
   A17        2.09103   0.00011   0.00000   0.00030   0.00030   2.09133
   A18        2.08725   0.00013   0.00000   0.00044   0.00044   2.08769
   A19        2.11400  -0.00015   0.00000  -0.00093  -0.00093   2.11307
   A20        2.11400  -0.00015   0.00000  -0.00093  -0.00093   2.11307
   A21        2.05518   0.00030   0.00000   0.00187   0.00187   2.05705
   A22        2.06011   0.00035   0.00000   0.00142   0.00130   2.06142
   A23        2.06012   0.00035   0.00000   0.00141   0.00129   2.06141
   A24        2.16294  -0.00070   0.00000  -0.00276  -0.00288   2.16007
    D1       -0.00010   0.00001   0.00000   0.00042   0.00042   0.00031
    D2        3.14153   0.00001   0.00000   0.00021   0.00021  -3.14144
    D3        3.14155   0.00000   0.00000   0.00016   0.00016  -3.14147
    D4        0.00001  -0.00000   0.00000  -0.00005  -0.00005  -0.00004
    D5        0.00005  -0.00000   0.00000  -0.00020  -0.00020  -0.00015
    D6       -3.14153  -0.00001   0.00000  -0.00023  -0.00023   3.14142
    D7        3.14158   0.00000   0.00000   0.00006   0.00006  -3.14155
    D8       -0.00001   0.00000   0.00000   0.00003   0.00003   0.00003
    D9        0.00010  -0.00001   0.00000  -0.00042  -0.00042  -0.00031
   D10       -3.14156  -0.00000   0.00000  -0.00016  -0.00016   3.14147
   D11       -3.14153  -0.00001   0.00000  -0.00021  -0.00021   3.14144
   D12       -0.00001   0.00000   0.00000   0.00005   0.00005   0.00004
   D13        3.14026   0.00015   0.00000   0.01384   0.01384  -3.12909
   D14        0.00129  -0.00015   0.00000  -0.01363  -0.01363  -0.01234
   D15       -0.00129   0.00015   0.00000   0.01363   0.01363   0.01234
   D16       -3.14025  -0.00015   0.00000  -0.01384  -0.01384   3.12909
   D17       -0.00005   0.00000   0.00000   0.00020   0.00020   0.00015
   D18        3.14153   0.00001   0.00000   0.00023   0.00023  -3.14142
   D19       -3.14157  -0.00000   0.00000  -0.00006  -0.00006   3.14155
   D20        0.00001  -0.00000   0.00000  -0.00003  -0.00003  -0.00003
   D21       -0.00000   0.00000   0.00000   0.00001   0.00001   0.00001
   D22        3.14159   0.00000   0.00000   0.00002   0.00002  -3.14158
   D23       -3.14159  -0.00000   0.00000  -0.00002  -0.00002   3.14158
   D24        0.00000  -0.00000   0.00000  -0.00001  -0.00001  -0.00001
   D25        0.00000  -0.00000   0.00000  -0.00001  -0.00001  -0.00001
   D26        3.14159   0.00000   0.00000   0.00002   0.00002  -3.14158
   D27       -3.14159  -0.00000   0.00000  -0.00002  -0.00002   3.14158
   D28       -0.00000   0.00000   0.00000   0.00001   0.00001   0.00001
   D29        3.14158  -0.00000   0.00000  -0.00001  -0.00001   3.14157
   D30        0.00001   0.00000   0.00000   0.00001   0.00001   0.00002
   D31       -0.00001  -0.00000   0.00000  -0.00001  -0.00001  -0.00002
   D32       -3.14158   0.00000   0.00000   0.00001   0.00001  -3.14158
         Item               Value     Threshold  Converged?
 Maximum Force            0.014723     0.000450     NO 
 RMS     Force            0.002992     0.000300     NO 
 Maximum Displacement     0.028911     0.001800     NO 
 RMS     Displacement     0.009578     0.001200     NO 
 Predicted change in Energy=-4.857112D-04
 GradGradGradGradGradGradGradGradGradGradGradGradGradGradGradGradGradGrad

                          Input orientation:                          
 ---------------------------------------------------------------------
 Center     Atomic      Atomic             Coordinates (Angstroms)
 Number     Number       Type             X           Y           Z
 ---------------------------------------------------------------------
      1          6           0       -0.019844    1.211436   -0.002376
      2          6           0       -0.703611   -0.000001   -0.003358
      3          6           0       -0.019843   -1.211437   -0.002305
      4          6           0        1.359925   -1.211015   -0.000628
      5          6           0        2.074477   -0.000000    0.000199
      6          6           0        1.359923    1.211014   -0.000698
      7          7           0        3.440403    0.000001    0.001849
      8          7           0       -2.151336   -0.000000   -0.005306
      9          8           0       -2.729917   -1.082989    0.007401
     10          8           0       -2.729910    1.082995    0.007334
     11          1           0       -0.579928    2.137772   -0.003121
     12          1           0       -0.579926   -2.137774   -0.002996
     13          1           0        1.899910   -2.152290    0.000042
     14          1           0        1.899908    2.152290   -0.000083
     15          1           0        3.959163    0.860980    0.002434
     16          1           0        3.959164   -0.860977    0.002486
 ---------------------------------------------------------------------
                    Distance matrix (angstroms):
                    1          2          3          4          5
     1  C    0.000000
     2  C    1.391085   0.000000
     3  C    2.422873   1.391085   0.000000
     4  C    2.787836   2.392643   1.379769   0.000000
     5  C    2.419455   2.778090   2.419455   1.406109   0.000000
     6  C    1.379768   2.392642   2.787836   2.422029   1.406109
     7  N    3.666183   4.144017   3.666183   2.407271   1.365927
     8  N    2.451702   1.447726   2.451704   3.714233   4.225816
     9  O    3.550913   2.297585   2.713134   4.091853   4.924949
    10  O    2.713126   2.297582   3.550912   4.689274   4.924943
    11  H    1.082494   2.141348   3.395717   3.870065   3.408217
    12  H    3.395717   2.141347   1.082494   2.149863   3.408217
    13  H    3.872998   3.377969   2.137910   1.085165   2.159358
    14  H    2.137910   3.377970   3.872997   3.406377   2.159358
    15  H    3.994413   4.741601   4.486359   3.324035   2.072036
    16  H    4.486359   4.741601   3.994413   2.622705   2.072035
                    6          7          8          9         10
     6  C    0.000000
     7  N    2.407271   0.000000
     8  N    3.714232   5.591743   0.000000
     9  O    4.689276   6.264643   1.227919   0.000000
    10  O    4.091844   6.264636   1.227919   2.165984   0.000000
    11  H    2.149863   4.553367   2.653186   3.872450   2.394804
    12  H    3.870065   4.553367   2.653188   2.394815   3.872452
    13  H    3.406377   2.646787   4.587480   4.751711   5.648217
    14  H    1.085165   2.646786   4.587478   5.648218   4.751701
    15  H    2.622704   1.005185   6.170862   6.965833   6.692758
    16  H    3.324035   1.005185   6.170862   6.692766   6.965828
                   11         12         13         14         15
    11  H    0.000000
    12  H    4.275545   0.000000
    13  H    4.955223   2.479880   0.000000
    14  H    2.479881   4.955223   4.304580   0.000000
    15  H    4.715249   5.440210   3.649702   2.430641   0.000000
    16  H    5.440210   4.715249   2.430642   3.649701   1.721957
                   16
    16  H    0.000000
 Stoichiometry    C6H6N2O2
 Framework group  C1[X(C6H6N2O2)]
 Deg. of freedom    42
 Full point group                 C1      NOp   1
 Largest Abelian subgroup         C1      NOp   1
 Largest concise Abelian subgroup C1      NOp   1
                         Standard orientation:                         
 ---------------------------------------------------------------------
 Center     Atomic      Atomic             Coordinates (Angstroms)
 Number     Number       Type             X           Y           Z
 ---------------------------------------------------------------------
      1          6           0        0.022750   -1.211435   -0.002872
      2          6           0        0.706516    0.000002   -0.004244
      3          6           0        0.022748    1.211437   -0.002873
      4          6           0       -1.357018    1.211015   -0.000481
      5          6           0       -2.071570    0.000000    0.000752
      6          6           0       -1.357017   -1.211014   -0.000480
      7          7           0       -3.437495   -0.000001    0.003109
      8          7           0        2.154239    0.000001   -0.006941
      9          8           0        2.732827    1.082991    0.005433
     10          8           0        2.732821   -1.082994    0.005431
     11          1           0        0.582834   -2.137771   -0.003880
     12          1           0        0.582831    2.137774   -0.003881
     13          1           0       -1.897003    2.152290    0.000441
     14          1           0       -1.897001   -2.152290    0.000442
     15          1           0       -3.956254   -0.860980    0.003988
     16          1           0       -3.956255    0.860977    0.003989
 ---------------------------------------------------------------------
 Rotational constants (GHZ):      3.9487525      0.8288195      0.6850390
 Standard basis: 6-31+G(d,p) (6D, 7F)
 There are   220 symmetry adapted cartesian basis functions of A   symmetry.
 There are   220 symmetry adapted basis functions of A   symmetry.
   220 basis functions,   362 primitive gaussians,   220 cartesian basis functions
    36 alpha electrons       36 beta electrons
       nuclear repulsion energy       496.9364568600 Hartrees.
 NAtoms=   16 NActive=   16 NUniq=   16 SFac= 1.00D+00 NAtFMM=   60 NAOKFM=F Big=F
 Integral buffers will be    131072 words long.
 Raffenetti 2 integral format.
 Two-electron integral symmetry is turned on.
 Nuclear repulsion after empirical dispersion term =      496.9233651324 Hartrees.
 One-electron integrals computed using PRISM.
 NBasis=   220 RedAO= T EigKep=  3.14D-06  NBF=   220
 NBsUse=   220 1.00D-06 EigRej= -1.00D+00 NBFU=   220
 Initial guess from the checkpoint file:  "camb3lypPNA.chk"
 B after Tr=     0.000000    0.000000   -0.000000
         Rot=    1.000000    0.000015    0.000032    0.000000 Ang=   0.00 deg.
 ExpMin= 4.38D-02 ExpMax= 5.48D+03 ExpMxC= 8.25D+02 IAcc=2 IRadAn=         4 AccDes= 0.00D+00
 Harris functional with IExCor=20419 and IRadAn=       4 diagonalized for initial guess.
 HarFok:  IExCor=20419 AccDes= 0.00D+00 IRadAn=         4 IDoV= 1 UseB2=F ITyADJ=14
 ICtDFT=  3500011 ScaDFX=  1.000000  1.000000  1.000000  1.000000
 FoFCou: FMM=F IPFlag=           0 FMFlag=      100000 FMFlg1=           0
         NFxFlg=           0 DoJE=T BraDBF=F KetDBF=T FulRan=T
         wScrn=  0.000000 ICntrl=     500 IOpCl=  0 I1Cent=   200000004 NGrid=           0
         NMat0=    1 NMatS0=      1 NMatT0=    0 NMatD0=    1 NMtDS0=    0 NMtDT0=    0
 Petite list used in FoFCou.
 Keep R1 ints in memory in canonical form, NReq=596566580.
 Requested convergence on RMS density matrix=1.00D-08 within 128 cycles.
 Requested convergence on MAX density matrix=1.00D-06.
 Requested convergence on             energy=1.00D-06.
 No special actions if energy rises.
 SCF Done:  E(RCAM-B3LYP) =  -491.927782845     A.U. after   13 cycles
            NFock= 13  Conv=0.70D-08     -V/T= 2.0089
 Calling FoFJK, ICntrl=      2127 FMM=F ISym2X=0 I1Cent= 0 IOpClX= 0 NMat=1 NMatS=1 NMatT=0.
 ***** Axes restored to original set *****
 -------------------------------------------------------------------
 Center     Atomic                   Forces (Hartrees/Bohr)
 Number     Number              X              Y              Z
 -------------------------------------------------------------------
      1        6          -0.000453205    0.000428471   -0.000177384
      2        6           0.000824257   -0.000000109   -0.000902730
      3        6          -0.000453304   -0.000428424   -0.000177349
      4        6           0.000456171   -0.000330001    0.000051364
      5        6           0.000095086    0.000000295   -0.000019832
      6        6           0.000456463    0.000329743    0.000051320
      7        7           0.000841984   -0.000000148   -0.000001930
      8        7          -0.004072495    0.000001190    0.004011187
      9        8           0.001020549    0.001046297   -0.001435236
     10        8           0.001020145   -0.001047205   -0.001435165
     11        1          -0.000011627    0.000003497   -0.000003981
     12        1          -0.000011727   -0.000003693   -0.000003985
     13        1           0.000094468   -0.000090677    0.000020302
     14        1           0.000094429    0.000090687    0.000020299
     15        1           0.000049403   -0.000027515    0.000001570
     16        1           0.000049403    0.000027591    0.000001551
 -------------------------------------------------------------------
 Cartesian Forces:  Max     0.004072495 RMS     0.000966123

 GradGradGradGradGradGradGradGradGradGradGradGradGradGradGradGradGradGrad
 Berny optimization.
 Using GEDIIS/GDIIS optimizer.
 FormGI is forming the generalized inverse of G from B-inverse, IUseBI=4.
 Internal  Forces:  Max     0.002030265 RMS     0.000558863
 Search for a local minimum.
 Step number   2 out of a maximum of   82
 All quantities printed in internal units (Hartrees-Bohrs-Radians)
 Mixed Optimization -- En-DIIS/RFO-DIIS
 Update second derivatives using D2CorX and points    1    2
 DE= -4.29D-04 DEPred=-4.86D-04 R= 8.84D-01
 TightC=F SS=  1.41D+00  RLast= 4.87D-02 DXNew= 5.0454D-01 1.4624D-01
 Trust test= 8.84D-01 RLast= 4.87D-02 DXMaxT set to 3.00D-01
 ITU=  1  0
 Use linear search instead of GDIIS.
     Eigenvalues ---    0.00996   0.01149   0.01776   0.01947   0.02015
     Eigenvalues ---    0.02078   0.02097   0.02097   0.02107   0.02155
     Eigenvalues ---    0.02167   0.02210   0.02216   0.15999   0.16000
     Eigenvalues ---    0.16000   0.16000   0.16000   0.16006   0.22000
     Eigenvalues ---    0.22973   0.24118   0.25000   0.25000   0.25000
     Eigenvalues ---    0.25094   0.35285   0.35295   0.35669   0.35669
     Eigenvalues ---    0.38341   0.40839   0.41743   0.44811   0.45942
     Eigenvalues ---    0.46628   0.46642   0.46701   0.49989   0.53253
     Eigenvalues ---    0.76776   0.88340
 RFO step:  Lambda=-6.32406639D-04 EMin= 9.96419452D-03
 Quartic linear search produced a step of -0.10728.
 Iteration  1 RMS(Cart)=  0.02819016 RMS(Int)=  0.00259807
 Iteration  2 RMS(Cart)=  0.00224962 RMS(Int)=  0.00159234
 Iteration  3 RMS(Cart)=  0.00000774 RMS(Int)=  0.00159233
 Iteration  4 RMS(Cart)=  0.00000002 RMS(Int)=  0.00159233
 Variable       Old X    -DE/DX   Delta X   Delta X   Delta X     New X
                                 (Linear)    (Quad)   (Total)
    R1        2.62877   0.00069   0.00145  -0.00911  -0.00766   2.62111
    R2        2.60738   0.00107   0.00107  -0.00574  -0.00467   2.60272
    R3        2.04562   0.00001   0.00004  -0.00029  -0.00025   2.04537
    R4        2.62877   0.00069   0.00145  -0.00911  -0.00766   2.62111
    R5        2.73581   0.00203   0.00098  -0.00229  -0.00131   2.73450
    R6        2.60738   0.00107   0.00107  -0.00574  -0.00467   2.60272
    R7        2.04562   0.00001   0.00004  -0.00029  -0.00025   2.04537
    R8        2.65716   0.00060   0.00134  -0.00842  -0.00708   2.65008
    R9        2.05067   0.00013   0.00016  -0.00083  -0.00067   2.04999
   R10        2.65716   0.00060   0.00134  -0.00842  -0.00708   2.65008
   R11        2.58123   0.00094   0.00069  -0.00333  -0.00264   2.57859
   R12        2.05067   0.00013   0.00016  -0.00083  -0.00067   2.05000
   R13        1.89952   0.00000   0.00017  -0.00125  -0.00107   1.89845
   R14        1.89952   0.00000   0.00017  -0.00125  -0.00107   1.89845
   R15        2.32043  -0.00142   0.00179  -0.01430  -0.01251   2.30792
   R16        2.32043  -0.00142   0.00179  -0.01430  -0.01252   2.30791
    A1        2.08434   0.00017   0.00021  -0.00086  -0.00065   2.08369
    A2        2.08393  -0.00009  -0.00008   0.00019   0.00012   2.08404
    A3        2.11491  -0.00007  -0.00013   0.00066   0.00053   2.11545
    A4        2.11389  -0.00036  -0.00040   0.00159   0.00119   2.11508
    A5        2.08465   0.00018   0.00020  -0.00079  -0.00059   2.08405
    A6        2.08465   0.00018   0.00020  -0.00079  -0.00060   2.08405
    A7        2.08434   0.00017   0.00021  -0.00086  -0.00065   2.08369
    A8        2.08393  -0.00009  -0.00008   0.00020   0.00012   2.08405
    A9        2.11491  -0.00007  -0.00013   0.00066   0.00053   2.11545
   A10        2.10417   0.00014   0.00008  -0.00006   0.00002   2.10419
   A11        2.09133  -0.00003  -0.00003   0.00019   0.00016   2.09148
   A12        2.08769  -0.00011  -0.00005  -0.00013  -0.00017   2.08752
   A13        2.07546  -0.00026  -0.00018   0.00025   0.00008   2.07553
   A14        2.10386   0.00013   0.00009  -0.00013  -0.00004   2.10383
   A15        2.10386   0.00013   0.00009  -0.00013  -0.00004   2.10383
   A16        2.10417   0.00014   0.00008  -0.00006   0.00002   2.10419
   A17        2.09133  -0.00003  -0.00003   0.00019   0.00016   2.09148
   A18        2.08769  -0.00011  -0.00005  -0.00013  -0.00017   2.08752
   A19        2.11307   0.00004   0.00010  -0.00053  -0.00043   2.11264
   A20        2.11307   0.00004   0.00010  -0.00052  -0.00042   2.11265
   A21        2.05705  -0.00007  -0.00020   0.00105   0.00085   2.05789
   A22        2.06142  -0.00029  -0.00014   0.00170  -0.00614   2.05528
   A23        2.06141  -0.00028  -0.00014   0.00169  -0.00614   2.05527
   A24        2.16007   0.00064   0.00031   0.00175  -0.00581   2.15426
    D1        0.00031  -0.00007  -0.00004  -0.00255  -0.00259  -0.00228
    D2       -3.14144  -0.00004  -0.00002  -0.00119  -0.00121   3.14053
    D3       -3.14147  -0.00003  -0.00002  -0.00108  -0.00110   3.14062
    D4       -0.00004   0.00000   0.00001   0.00028   0.00029   0.00024
    D5       -0.00015   0.00003   0.00002   0.00120   0.00122   0.00108
    D6        3.14142   0.00004   0.00002   0.00133   0.00135  -3.14041
    D7       -3.14155  -0.00001  -0.00001  -0.00029  -0.00030   3.14134
    D8        0.00003  -0.00001  -0.00000  -0.00017  -0.00017  -0.00015
    D9       -0.00031   0.00007   0.00004   0.00255   0.00259   0.00228
   D10        3.14147   0.00003   0.00002   0.00108   0.00110  -3.14062
   D11        3.14144   0.00004   0.00002   0.00119   0.00121  -3.14053
   D12        0.00004  -0.00000  -0.00001  -0.00028  -0.00028  -0.00024
   D13       -3.12909  -0.00147  -0.00148  -0.11118  -0.11194   3.04216
   D14       -0.01234   0.00143   0.00146   0.10984   0.11058   0.09824
   D15        0.01234  -0.00143  -0.00146  -0.10984  -0.11058  -0.09824
   D16        3.12909   0.00147   0.00148   0.11118   0.11194  -3.04216
   D17        0.00015  -0.00003  -0.00002  -0.00120  -0.00122  -0.00108
   D18       -3.14142  -0.00004  -0.00002  -0.00133  -0.00135   3.14041
   D19        3.14155   0.00001   0.00001   0.00029   0.00030  -3.14134
   D20       -0.00003   0.00001   0.00000   0.00017   0.00017   0.00015
   D21        0.00001  -0.00000  -0.00000  -0.00010  -0.00010  -0.00009
   D22       -3.14158  -0.00000  -0.00000  -0.00010  -0.00010   3.14150
   D23        3.14158   0.00000   0.00000   0.00003   0.00003  -3.14157
   D24       -0.00001   0.00000   0.00000   0.00002   0.00002   0.00001
   D25       -0.00001   0.00000   0.00000   0.00010   0.00010   0.00009
   D26       -3.14158  -0.00000  -0.00000  -0.00003  -0.00003   3.14157
   D27        3.14158   0.00000   0.00000   0.00010   0.00010  -3.14150
   D28        0.00001  -0.00000  -0.00000  -0.00002  -0.00002  -0.00001
   D29        3.14157   0.00000   0.00000   0.00005   0.00005  -3.14156
   D30        0.00002  -0.00000  -0.00000  -0.00005  -0.00005  -0.00003
   D31       -0.00002   0.00000   0.00000   0.00005   0.00005   0.00003
   D32       -3.14158  -0.00000  -0.00000  -0.00005  -0.00005   3.14156
         Item               Value     Threshold  Converged?
 Maximum Force            0.002030     0.000450     NO 
 RMS     Force            0.000559     0.000300     NO 
 Maximum Displacement     0.124380     0.001800     NO 
 RMS     Displacement     0.028370     0.001200     NO 
 Predicted change in Energy=-3.310221D-04
 GradGradGradGradGradGradGradGradGradGradGradGradGradGradGradGradGradGrad

                          Input orientation:                          
 ---------------------------------------------------------------------
 Center     Atomic      Atomic             Coordinates (Angstroms)
 Number     Number       Type             X           Y           Z
 ---------------------------------------------------------------------
      1          6           0       -0.019599    1.208311    0.019067
      2          6           0       -0.700610   -0.000000    0.026988
      3          6           0       -0.019598   -1.208311    0.019138
      4          6           0        1.357638   -1.207814    0.005928
      5          6           0        2.070209    0.000001   -0.000889
      6          6           0        1.357637    1.207815    0.005857
      7          7           0        3.434679   -0.000000   -0.013868
      8          7           0       -2.147563    0.000001    0.042206
      9          8           0       -2.717470   -1.075474   -0.058418
     10          8           0       -2.717459    1.075474   -0.058483
     11          1           0       -0.580032    2.134267    0.024610
     12          1           0       -0.580029   -2.134267    0.024735
     13          1           0        1.897621   -2.148668    0.000834
     14          1           0        1.897619    2.148669    0.000708
     15          1           0        3.952757    0.860712   -0.018794
     16          1           0        3.952758   -0.860712   -0.018743
 ---------------------------------------------------------------------
                    Distance matrix (angstroms):
                    1          2          3          4          5
     1  C    0.000000
     2  C    1.387031   0.000000
     3  C    2.416622   1.387031   0.000000
     4  C    2.781118   2.386555   1.377300   0.000000
     5  C    2.414065   2.770959   2.414065   1.402362   0.000000
     6  C    1.377299   2.386555   2.781118   2.415629   1.402362
     7  N    3.659663   4.135490   3.659663   2.402770   1.364531
     8  N    2.447199   1.447034   2.447200   3.707637   4.217993
     9  O    3.535561   2.287283   2.702254   4.077765   4.907324
    10  O    2.702242   2.287276   3.535556   4.671614   4.907314
    11  H    1.082364   2.137672   3.389240   3.863214   3.402870
    12  H    3.389239   2.137672   1.082363   2.147842   3.402869
    13  H    3.865925   3.371686   2.135494   1.084810   2.155589
    14  H    2.135494   3.371686   3.865926   3.399645   2.155590
    15  H    3.987715   4.732520   4.479051   3.318742   2.070056
    16  H    4.479052   4.732521   3.987715   2.618346   2.070057
                    6          7          8          9         10
     6  C    0.000000
     7  N    2.402771   0.000000
     8  N    3.707636   5.582524   0.000000
     9  O    4.671621   6.245604   1.221297   0.000000
    10  O    4.077753   6.245594   1.221295   2.150948   0.000000
    11  H    2.147843   4.546920   2.648123   3.857197   2.386743
    12  H    3.863214   4.546918   2.648126   2.386758   3.857198
    13  H    3.399645   2.641881   4.580613   4.738600   5.630061
    14  H    1.084811   2.641883   4.580611   5.630066   4.738587
    15  H    2.618346   1.004617   6.161043   6.945669   6.673791
    16  H    3.318744   1.004617   6.161044   6.673803   6.945661
                   11         12         13         14         15
    11  H    0.000000
    12  H    4.268535   0.000000
    13  H    4.948017   2.477807   0.000000
    14  H    2.477809   4.948016   4.297337   0.000000
    15  H    4.708504   5.433042   3.644219   2.425450   0.000000
    16  H    5.433044   4.708502   2.425449   3.644221   1.721424
                   16
    16  H    0.000000
 Stoichiometry    C6H6N2O2
 Framework group  C1[X(C6H6N2O2)]
 Deg. of freedom    42
 Full point group                 C1      NOp   1
 Largest Abelian subgroup         C1      NOp   1
 Largest concise Abelian subgroup C1      NOp   1
                         Standard orientation:                         
 ---------------------------------------------------------------------
 Center     Atomic      Atomic             Coordinates (Angstroms)
 Number     Number       Type             X           Y           Z
 ---------------------------------------------------------------------
      1          6           0        0.024295   -1.208310    0.022914
      2          6           0        0.705267    0.000001    0.033684
      3          6           0        0.024294    1.208312    0.022913
      4          6           0       -1.352874    1.207815    0.003869
      5          6           0       -2.065409   -0.000000   -0.005931
      6          6           0       -1.352872   -1.207814    0.003870
      7          7           0       -3.429811    0.000000   -0.024691
      8          7           0        2.152143    0.000000    0.055031
      9          8           0        2.722471    1.075472   -0.043209
     10          8           0        2.722461   -1.075476   -0.043211
     11          1           0        0.584700   -2.134266    0.030858
     12          1           0        0.584697    2.134268    0.030857
     13          1           0       -1.892830    2.148668   -0.003541
     14          1           0       -1.892828   -2.148669   -0.003539
     15          1           0       -3.947864   -0.860712   -0.031786
     16          1           0       -3.947866    0.860712   -0.031786
 ---------------------------------------------------------------------
 Rotational constants (GHZ):      3.9738911      0.8333090      0.6891240
 Standard basis: 6-31+G(d,p) (6D, 7F)
 There are   220 symmetry adapted cartesian basis functions of A   symmetry.
 There are   220 symmetry adapted basis functions of A   symmetry.
   220 basis functions,   362 primitive gaussians,   220 cartesian basis functions
    36 alpha electrons       36 beta electrons
       nuclear repulsion energy       498.3453480178 Hartrees.
 NAtoms=   16 NActive=   16 NUniq=   16 SFac= 1.00D+00 NAtFMM=   60 NAOKFM=F Big=F
 Integral buffers will be    131072 words long.
 Raffenetti 2 integral format.
 Two-electron integral symmetry is turned on.
 Nuclear repulsion after empirical dispersion term =      498.3322374220 Hartrees.
 One-electron integrals computed using PRISM.
 NBasis=   220 RedAO= T EigKep=  3.07D-06  NBF=   220
 NBsUse=   220 1.00D-06 EigRej= -1.00D+00 NBFU=   220
 Initial guess from the checkpoint file:  "camb3lypPNA.chk"
 B after Tr=    -0.000000   -0.000000   -0.000000
         Rot=    1.000000   -0.000000   -0.000006    0.000000 Ang=  -0.00 deg.
 ExpMin= 4.38D-02 ExpMax= 5.48D+03 ExpMxC= 8.25D+02 IAcc=2 IRadAn=         4 AccDes= 0.00D+00
 Harris functional with IExCor=20419 and IRadAn=       4 diagonalized for initial guess.
 HarFok:  IExCor=20419 AccDes= 0.00D+00 IRadAn=         4 IDoV= 1 UseB2=F ITyADJ=14
 ICtDFT=  3500011 ScaDFX=  1.000000  1.000000  1.000000  1.000000
 FoFCou: FMM=F IPFlag=           0 FMFlag=      100000 FMFlg1=           0
         NFxFlg=           0 DoJE=T BraDBF=F KetDBF=T FulRan=T
         wScrn=  0.000000 ICntrl=     500 IOpCl=  0 I1Cent=   200000004 NGrid=           0
         NMat0=    1 NMatS0=      1 NMatT0=    0 NMatD0=    1 NMtDS0=    0 NMtDT0=    0
 Petite list used in FoFCou.
 Keep R1 ints in memory in canonical form, NReq=596566580.
 Requested convergence on RMS density matrix=1.00D-08 within 128 cycles.
 Requested convergence on MAX density matrix=1.00D-06.
 Requested convergence on             energy=1.00D-06.
 No special actions if energy rises.
 SCF Done:  E(RCAM-B3LYP) =  -491.925266871     A.U. after   13 cycles
            NFock= 13  Conv=0.95D-08     -V/T= 2.0086
 Calling FoFJK, ICntrl=      2127 FMM=F ISym2X=0 I1Cent= 0 IOpClX= 0 NMat=1 NMatS=1 NMatT=0.
 ***** Axes restored to original set *****
 -------------------------------------------------------------------
 Center     Atomic                   Forces (Hartrees/Bohr)
 Number     Number              X              Y              Z
 -------------------------------------------------------------------
      1        6          -0.001179550    0.003377398    0.001365835
      2        6           0.000079135   -0.000000828    0.007574079
      3        6          -0.001178898   -0.003376130    0.001365967
      4        6           0.001443149   -0.002992426   -0.000415423
      5        6           0.001748892   -0.000000481    0.000134812
      6        6           0.001443790    0.002992768   -0.000415622
      7        7           0.002174091    0.000000496    0.000003740
      8        7           0.004056046   -0.000001534   -0.031113191
      9        8          -0.004940413   -0.009932023    0.010884939
     10        8          -0.004942587    0.009934061    0.010884180
     11        1           0.000009213    0.000120924    0.000039840
     12        1           0.000008516   -0.000121753    0.000039879
     13        1           0.000224885   -0.000381195   -0.000158201
     14        1           0.000224692    0.000380898   -0.000158221
     15        1           0.000414574    0.000327641   -0.000016312
     16        1           0.000414464   -0.000327815   -0.000016300
 -------------------------------------------------------------------
 Cartesian Forces:  Max     0.031113191 RMS     0.005747369

 GradGradGradGradGradGradGradGradGradGradGradGradGradGradGradGradGradGrad
 Berny optimization.
 Using GEDIIS/GDIIS optimizer.
 FormGI is forming the generalized inverse of G from B-inverse, IUseBI=4.
 Internal  Forces:  Max     0.012035321 RMS     0.003602985
 Search for a local minimum.
 Step number   3 out of a maximum of   82
 All quantities printed in internal units (Hartrees-Bohrs-Radians)
 Mixed Optimization -- RFO/linear search
 Update second derivatives using D2CorX and points    1    3    2
 DE=  2.52D-03 DEPred=-3.31D-04 R=-7.60D+00
 Trust test=-7.60D+00 RLast= 2.24D-01 DXMaxT set to 1.50D-01
 ITU= -1  1  0
 Use linear search instead of GDIIS.
 Energy rises -- skip Quadratic/GDIIS search.
 Quartic linear search produced a step of -0.89514.
 Iteration  1 RMS(Cart)=  0.02547564 RMS(Int)=  0.00163610
 Iteration  2 RMS(Cart)=  0.00177067 RMS(Int)=  0.00014873
 Iteration  3 RMS(Cart)=  0.00000448 RMS(Int)=  0.00014869
 Iteration  4 RMS(Cart)=  0.00000000 RMS(Int)=  0.00014869
 Variable       Old X    -DE/DX   Delta X   Delta X   Delta X     New X
                                 (Linear)    (Quad)   (Total)
    R1        2.62111   0.00454   0.00686   0.00000   0.00686   2.62797
    R2        2.60272   0.00405   0.00418   0.00000   0.00418   2.60689
    R3        2.04537   0.00010   0.00022   0.00000   0.00022   2.04559
    R4        2.62111   0.00454   0.00686   0.00000   0.00686   2.62797
    R5        2.73450   0.00573   0.00117   0.00000   0.00117   2.73567
    R6        2.60272   0.00405   0.00418   0.00000   0.00418   2.60690
    R7        2.04537   0.00010   0.00022   0.00000   0.00022   2.04559
    R8        2.65008   0.00402   0.00634   0.00000   0.00634   2.65642
    R9        2.04999   0.00044   0.00060   0.00000   0.00060   2.05060
   R10        2.65008   0.00402   0.00634   0.00000   0.00634   2.65642
   R11        2.57859   0.00300   0.00236   0.00000   0.00236   2.58095
   R12        2.05000   0.00044   0.00060   0.00000   0.00060   2.05060
   R13        1.89845   0.00049   0.00096   0.00000   0.00096   1.89941
   R14        1.89845   0.00049   0.00096   0.00000   0.00096   1.89941
   R15        2.30792   0.01015   0.01120   0.00000   0.01120   2.31912
   R16        2.30791   0.01016   0.01121   0.00000   0.01121   2.31912
    A1        2.08369   0.00040   0.00058   0.00000   0.00058   2.08427
    A2        2.08404  -0.00013  -0.00010   0.00000  -0.00010   2.08394
    A3        2.11545  -0.00027  -0.00048   0.00000  -0.00048   2.11497
    A4        2.11508  -0.00092  -0.00106   0.00000  -0.00106   2.11401
    A5        2.08405   0.00046   0.00053   0.00000   0.00053   2.08459
    A6        2.08405   0.00046   0.00053   0.00000   0.00053   2.08459
    A7        2.08369   0.00040   0.00058   0.00000   0.00058   2.08427
    A8        2.08405  -0.00013  -0.00010   0.00000  -0.00010   2.08394
    A9        2.11545  -0.00027  -0.00048   0.00000  -0.00048   2.11497
   A10        2.10419   0.00027  -0.00002   0.00000  -0.00002   2.10417
   A11        2.09148  -0.00013  -0.00014   0.00000  -0.00014   2.09134
   A12        2.08752  -0.00014   0.00015   0.00000   0.00015   2.08767
   A13        2.07553  -0.00041  -0.00007   0.00000  -0.00007   2.07547
   A14        2.10383   0.00020   0.00004   0.00000   0.00004   2.10386
   A15        2.10383   0.00020   0.00003   0.00000   0.00003   2.10386
   A16        2.10419   0.00027  -0.00001   0.00000  -0.00001   2.10417
   A17        2.09148  -0.00013  -0.00014   0.00000  -0.00014   2.09134
   A18        2.08752  -0.00014   0.00015   0.00000   0.00015   2.08767
   A19        2.11264   0.00012   0.00038   0.00000   0.00038   2.11303
   A20        2.11265   0.00012   0.00038   0.00000   0.00038   2.11303
   A21        2.05789  -0.00024  -0.00076   0.00000  -0.00076   2.05713
   A22        2.05528   0.00177   0.00550   0.00000   0.00623   2.06150
   A23        2.05527   0.00177   0.00550   0.00000   0.00623   2.06150
   A24        2.15426   0.00094   0.00520   0.00000   0.00593   2.16019
    D1       -0.00228   0.00053   0.00232   0.00000   0.00232   0.00004
    D2        3.14053   0.00030   0.00108   0.00000   0.00108  -3.14157
    D3        3.14062   0.00021   0.00098   0.00000   0.00098  -3.14159
    D4        0.00024  -0.00002  -0.00026   0.00000  -0.00026  -0.00001
    D5        0.00108  -0.00025  -0.00110   0.00000  -0.00110  -0.00002
    D6       -3.14041  -0.00029  -0.00121   0.00000  -0.00121   3.14157
    D7        3.14134   0.00007   0.00027   0.00000   0.00027  -3.14158
    D8       -0.00015   0.00004   0.00016   0.00000   0.00016   0.00001
    D9        0.00228  -0.00053  -0.00232   0.00000  -0.00232  -0.00004
   D10       -3.14062  -0.00021  -0.00098   0.00000  -0.00098   3.14159
   D11       -3.14053  -0.00030  -0.00108   0.00000  -0.00108   3.14157
   D12       -0.00024   0.00002   0.00025   0.00000   0.00025   0.00001
   D13        3.04216   0.01204   0.10020   0.00000   0.10020  -3.14083
   D14        0.09824  -0.01181  -0.09898   0.00000  -0.09898  -0.00074
   D15       -0.09824   0.01181   0.09898   0.00000   0.09899   0.00075
   D16       -3.04216  -0.01204  -0.10020   0.00000  -0.10020   3.14083
   D17       -0.00108   0.00025   0.00110   0.00000   0.00110   0.00002
   D18        3.14041   0.00029   0.00121   0.00000   0.00121  -3.14157
   D19       -3.14134  -0.00007  -0.00027   0.00000  -0.00027   3.14158
   D20        0.00015  -0.00004  -0.00016   0.00000  -0.00016  -0.00001
   D21       -0.00009   0.00001   0.00009   0.00000   0.00009   0.00000
   D22        3.14150   0.00002   0.00009   0.00000   0.00009   3.14159
   D23       -3.14157  -0.00002  -0.00002   0.00000  -0.00002   3.14159
   D24        0.00001  -0.00001  -0.00002   0.00000  -0.00002  -0.00001
   D25        0.00009  -0.00001  -0.00009   0.00000  -0.00009  -0.00000
   D26        3.14157   0.00002   0.00002   0.00000   0.00003  -3.14159
   D27       -3.14150  -0.00002  -0.00009   0.00000  -0.00009  -3.14159
   D28       -0.00001   0.00001   0.00002   0.00000   0.00002   0.00001
   D29       -3.14156  -0.00001  -0.00005   0.00000  -0.00005   3.14158
   D30       -0.00003   0.00001   0.00004   0.00000   0.00004   0.00001
   D31        0.00003  -0.00001  -0.00004   0.00000  -0.00004  -0.00001
   D32        3.14156   0.00001   0.00005   0.00000   0.00005  -3.14158
         Item               Value     Threshold  Converged?
 Maximum Force            0.012035     0.000450     NO 
 RMS     Force            0.003603     0.000300     NO 
 Maximum Displacement     0.111312     0.001800     NO 
 RMS     Displacement     0.025425     0.001200     NO 
 Predicted change in Energy=-8.241063D-05
 GradGradGradGradGradGradGradGradGradGradGradGradGradGradGradGradGradGrad

                          Input orientation:                          
 ---------------------------------------------------------------------
 Center     Atomic      Atomic             Coordinates (Angstroms)
 Number     Number       Type             X           Y           Z
 ---------------------------------------------------------------------
      1          6           0       -0.019739    1.211108   -0.000120
      2          6           0       -0.703222   -0.000001   -0.000164
      3          6           0       -0.019738   -1.211110   -0.000049
      4          6           0        1.359771   -1.210679    0.000061
      5          6           0        2.074120   -0.000000    0.000082
      6          6           0        1.359770    1.210679   -0.000010
      7          7           0        3.439900    0.000001    0.000193
      8          7           0       -2.150876    0.000000   -0.000307
      9          8           0       -2.729204   -1.082412    0.000486
     10          8           0       -2.729197    1.082416    0.000419
     11          1           0       -0.579863    2.137405   -0.000205
     12          1           0       -0.579862   -2.137406   -0.000080
     13          1           0        1.899759   -2.151911    0.000125
     14          1           0        1.899758    2.151910   -0.000001
     15          1           0        3.958591    0.860952    0.000198
     16          1           0        3.958592   -0.860949    0.000250
 ---------------------------------------------------------------------
                    Distance matrix (angstroms):
                    1          2          3          4          5
     1  C    0.000000
     2  C    1.390660   0.000000
     3  C    2.422218   1.390660   0.000000
     4  C    2.787132   2.392004   1.379510   0.000000
     5  C    2.418890   2.777342   2.418890   1.405716   0.000000
     6  C    1.379509   2.392004   2.787131   2.421358   1.405716
     7  N    3.665499   4.143123   3.665499   2.406799   1.365781
     8  N    2.451230   1.447654   2.451231   3.713541   4.224996
     9  O    3.549850   2.297001   2.712521   4.090987   4.923772
    10  O    2.712512   2.296998   3.549849   4.688064   4.923766
    11  H    1.082481   2.140962   3.395038   3.869347   3.407657
    12  H    3.395038   2.140962   1.082480   2.149651   3.407656
    13  H    3.872256   3.377311   2.137657   1.085128   2.158963
    14  H    2.137657   3.377311   3.872256   3.405671   2.158963
    15  H    3.993710   4.740648   4.485593   3.323480   2.071828
    16  H    4.485593   4.740648   3.993711   2.622247   2.071828
                    6          7          8          9         10
     6  C    0.000000
     7  N    2.406799   0.000000
     8  N    3.713540   5.590776   0.000000
     9  O    4.688067   6.263343   1.227224   0.000000
    10  O    4.090978   6.263336   1.227225   2.164828   0.000000
    11  H    2.149651   4.552691   2.652655   3.871290   2.394292
    12  H    3.869347   4.552691   2.652657   2.394303   3.871292
    13  H    3.405671   2.646272   4.586760   4.750908   5.646955
    14  H    1.085128   2.646272   4.586758   5.646957   4.750898
    15  H    2.622247   1.005125   6.169832   6.964429   6.691454
    16  H    3.323480   1.005125   6.169833   6.691462   6.964423
                   11         12         13         14         15
    11  H    0.000000
    12  H    4.274811   0.000000
    13  H    4.954468   2.479663   0.000000
    14  H    2.479663   4.954467   4.303821   0.000000
    15  H    4.714542   5.439458   3.649127   2.430097   0.000000
    16  H    5.439458   4.714542   2.430098   3.649126   1.721901
                   16
    16  H    0.000000
 Stoichiometry    C6H6N2O2
 Framework group  C1[X(C6H6N2O2)]
 Deg. of freedom    42
 Full point group                 C1      NOp   1
 Largest Abelian subgroup         C1      NOp   1
 Largest concise Abelian subgroup C1      NOp   1
                         Standard orientation:                         
 ---------------------------------------------------------------------
 Center     Atomic      Atomic             Coordinates (Angstroms)
 Number     Number       Type             X           Y           Z
 ---------------------------------------------------------------------
      1          6           0        0.022777   -1.211108   -0.000197
      2          6           0        0.706260    0.000002   -0.000240
      3          6           0        0.022776    1.211110   -0.000126
      4          6           0       -1.356734    1.210679   -0.000016
      5          6           0       -2.071082    0.000000    0.000005
      6          6           0       -1.356732   -1.210679   -0.000087
      7          7           0       -3.436863   -0.000001    0.000116
      8          7           0        2.153914    0.000001   -0.000384
      9          8           0        2.732242    1.082412    0.000409
     10          8           0        2.732234   -1.082416    0.000343
     11          1           0        0.582901   -2.137404   -0.000282
     12          1           0        0.582899    2.137406   -0.000157
     13          1           0       -1.896722    2.151911    0.000048
     14          1           0       -1.896720   -2.151910   -0.000078
     15          1           0       -3.955554   -0.860952    0.000121
     16          1           0       -3.955555    0.860949    0.000173
 ---------------------------------------------------------------------
 Rotational constants (GHZ):      3.9514502      0.8291527      0.6853436
 Standard basis: 6-31+G(d,p) (6D, 7F)
 There are   220 symmetry adapted cartesian basis functions of A   symmetry.
 There are   220 symmetry adapted basis functions of A   symmetry.
   220 basis functions,   362 primitive gaussians,   220 cartesian basis functions
    36 alpha electrons       36 beta electrons
       nuclear repulsion energy       497.0628514828 Hartrees.
 NAtoms=   16 NActive=   16 NUniq=   16 SFac= 1.00D+00 NAtFMM=   60 NAOKFM=F Big=F
 Integral buffers will be    131072 words long.
 Raffenetti 2 integral format.
 Two-electron integral symmetry is turned on.
 Nuclear repulsion after empirical dispersion term =      497.0497581392 Hartrees.
 One-electron integrals computed using PRISM.
 NBasis=   220 RedAO= T EigKep=  3.13D-06  NBF=   220
 NBsUse=   220 1.00D-06 EigRej= -1.00D+00 NBFU=   220
 Lowest energy guess from the checkpoint file:  "camb3lypPNA.chk"
 B after Tr=     0.000000   -0.000000    0.000000
         Rot=    1.000000   -0.000015    0.000010    0.000000 Ang=  -0.00 deg.
 B after Tr=     0.000000    0.000000    0.000000
         Rot=    1.000000   -0.000015    0.000017   -0.000000 Ang=  -0.00 deg.
 Keep R1 ints in memory in canonical form, NReq=596566580.
 Requested convergence on RMS density matrix=1.00D-08 within 128 cycles.
 Requested convergence on MAX density matrix=1.00D-06.
 Requested convergence on             energy=1.00D-06.
 No special actions if energy rises.
 SCF Done:  E(RCAM-B3LYP) =  -491.927816681     A.U. after   10 cycles
            NFock= 10  Conv=0.46D-08     -V/T= 2.0089
 Calling FoFJK, ICntrl=      2127 FMM=F ISym2X=0 I1Cent= 0 IOpClX= 0 NMat=1 NMatS=1 NMatT=0.
 ***** Axes restored to original set *****
 -------------------------------------------------------------------
 Center     Atomic                   Forces (Hartrees/Bohr)
 Number     Number              X              Y              Z
 -------------------------------------------------------------------
      1        6          -0.000527660    0.000740386   -0.000012951
      2        6           0.000595210   -0.000000183   -0.000053120
      3        6          -0.000527679   -0.000740212   -0.000012924
      4        6           0.000550761   -0.000614286    0.000003387
      5        6           0.000276764    0.000000215   -0.000000860
      6        6           0.000551090    0.000614090    0.000003346
      7        7           0.000969065   -0.000000081   -0.000000165
      8        7          -0.003431924    0.000000912    0.000243401
      9        8           0.000589240    0.000139809   -0.000086904
     10        8           0.000588654   -0.000140417   -0.000086895
[...]
 ! A24   A(9,8,10)             123.9674         -DE/DX =    0.0                 !
 ! D1    D(6,1,2,3)             -0.0001         -DE/DX =    0.0                 !
 ! D2    D(6,1,2,8)           -179.9999         -DE/DX =    0.0                 !
 ! D3    D(11,1,2,3)           179.9998         -DE/DX =    0.0                 !
 ! D4    D(11,1,2,8)             0.0            -DE/DX =    0.0                 !
 ! D5    D(2,1,6,5)              0.0001         -DE/DX =    0.0                 !
 ! D6    D(2,1,6,14)          -180.0            -DE/DX =    0.0                 !
 ! D7    D(11,1,6,5)          -179.9999         -DE/DX =    0.0                 !
 ! D8    D(11,1,6,14)            0.0001         -DE/DX =    0.0                 !
 ! D9    D(1,2,3,4)              0.0001         -DE/DX =    0.0                 !
 ! D10   D(1,2,3,12)          -179.9998         -DE/DX =    0.0                 !
 ! D11   D(8,2,3,4)            179.9999         -DE/DX =    0.0                 !
 ! D12   D(8,2,3,12)            -0.0001         -DE/DX =    0.0                 !
 ! D13   D(1,2,8,9)           -180.0106         -DE/DX =    0.0                 !
 ! D14   D(1,2,8,10)             0.0105         -DE/DX =    0.0                 !
 ! D15   D(3,2,8,9)             -0.0104         -DE/DX =    0.0                 !
 ! D16   D(3,2,8,10)          -179.9893         -DE/DX =    0.0                 !
 ! D17   D(2,3,4,5)             -0.0001         -DE/DX =    0.0                 !
 ! D18   D(2,3,4,13)           180.0            -DE/DX =    0.0                 !
 ! D19   D(12,3,4,5)           179.9999         -DE/DX =    0.0                 !
 ! D20   D(12,3,4,13)           -0.0001         -DE/DX =    0.0                 !
 ! D21   D(3,4,5,6)              0.0            -DE/DX =    0.0                 !
 ! D22   D(3,4,5,7)            179.9998         -DE/DX =    0.0                 !
 ! D23   D(13,4,5,6)          -180.0            -DE/DX =    0.0                 !
 ! D24   D(13,4,5,7)            -0.0002         -DE/DX =    0.0                 !
 ! D25   D(4,5,6,1)              0.0            -DE/DX =    0.0                 !
 ! D26   D(4,5,6,14)           180.0            -DE/DX =    0.0                 !
 ! D27   D(7,5,6,1)           -179.9998         -DE/DX =    0.0                 !
 ! D28   D(7,5,6,14)             0.0002         -DE/DX =    0.0                 !
 ! D29   D(4,5,7,15)           179.9992         -DE/DX =    0.0                 !
 ! D30   D(4,5,7,16)             0.0009         -DE/DX =    0.0                 !
 ! D31   D(6,5,7,15)            -0.001          -DE/DX =    0.0                 !
 ! D32   D(6,5,7,16)          -179.9993         -DE/DX =    0.0                 !
 --------------------------------------------------------------------------------
 GradGradGradGradGradGradGradGradGradGradGradGradGradGradGradGradGradGrad

 1\1\ WCSS.PL-BEM-QINLAB\Freq\RCAM-B3LYP\6-31+G(d,p)\C6H6N2O2\PHZD\13-J
 un-2024\0\\#N Geom=AllCheck Guess=TCheck SCRF=Check GenChk RCAM-B3LYP/
 6-31+G(d,p) Freq\\[No Title]\\0,1\C,-0.020220814,1.2115841291,0.000050
 581\C,-0.7047395834,-0.0000000454,0.0000919247\C,-0.0202206614,-1.2115
 841746,0.0001215878\C,1.360625143,-1.2111605355,0.0001118034\C,2.07604
 55638,0.0000001067,0.0000711427\C,1.3606249209,1.211160664,0.000040906
 \N,3.4429683344,0.0000003045,0.0000647451\N,-2.1563643319,0.0000003159
 ,0.0000994798\O,-2.7325124358,-1.082831297,-0.0000641357\O,-2.73251091
 61,1.0828327187,-0.0001301579\H,-0.5799059128,2.1382272023,0.000025420
 7\H,-0.5799055227,-2.1382273422,0.0001508087\H,1.9004867055,-2.1527220
 602,0.0001347198\H,1.9004864158,2.1527222321,0.0000086499\H,3.96185090
 89,0.860895948,0.0000234656\H,3.9618511859,-0.8608951664,0.0000750583\
 \Version=ES64L-G09RevE.01\State=1-A\HF=-491.9278369\RMSD=2.496e-09\RMS
 F=5.217e-05\ZeroPoint=0.1204471\Thermal=0.1283399\Dipole=2.9904496,-0.
 0000006,0.0001666\DipoleDeriv=0.5722384,0.1150256,-0.0000009,0.3119815
 ,0.0778391,0.0000022,0.0000163,-0.0000123,-0.0382008,-1.1453223,-0.000
 0001,-0.0000246,0.0000006,-0.2042917,0.0000057,0.0000758,0.0000056,-0.
 0115318,0.5722394,-0.1150254,0.0000056,-0.311982,0.07784,-0.0000088,0.
 0000347,0.0000056,-0.0382006,-0.6880164,-0.0258701,-0.0000054,-0.59355
 72,0.0109638,-0.0000071,0.0000267,-0.0000042,-0.2115375,2.1778278,0.00
 00009,0.0000046,-0.0000001,0.1292215,0.0000011,-0.0000113,0.000001,0.1
 609905,-0.6880158,0.0258692,-0.000007,0.5935578,0.0109642,-0.0000061,-
 0.0000087,-0.0000086,-0.2115374,-1.9539795,-0.0000005,-0.0000102,-0.00
 00003,-0.166214,-0.0000138,-0.0000133,-0.0000137,-0.6271693,2.4923844,
 0.000001,0.0000343,0.,1.650095,-0.0000426,0.0000511,-0.0000441,0.26231
 27,-0.9913829,-0.3955794,0.0000106,-0.4587594,-0.9801792,0.0000539,-0.
 0000737,-0.0001093,-0.2678773,-0.9913823,0.3955785,-0.0000136,0.458759
 3,-0.9801798,-0.0000103,-0.0001017,0.0001546,-0.2678773,0.1114734,0.03
 53915,0.0000007,0.0229227,0.0630386,0.000001,0.0000005,0.0000035,0.139
 8172,0.1114731,-0.0353915,0.0000027,-0.0229228,0.0630387,0.0000035,0.0
 000018,0.0000009,0.1398172,-0.006319,0.0756527,-0.0000028,0.0740088,-0
 .0280029,0.0000045,-0.0000104,0.000001,0.1478526,-0.006319,-0.0756525,
 0.0000017,-0.0740088,-0.0280026,0.0000058,-0.0000059,0.0000091,0.14785
 26,0.2165503,0.0482863,0.0000007,0.0873309,0.1519348,0.0000076,0.00000
 67,0.0000069,0.3376446,0.2165504,-0.0482863,0.0000036,-0.0873309,0.151
 9348,0.0000035,0.0000114,0.000004,0.3376446\Polar=146.436679,0.0000095
 ,97.8920486,0.0017432,-0.0014207,49.990017\PG=C01 [X(C6H6N2O2)]\NImag=
 1\\0.74172976,-0.04103738,0.74535278,-0.00000404,-0.00001790,0.1427580
 8,-0.15102704,-0.11158940,0.00000545,0.59255533,-0.04980187,-0.2997754
 7,0.00000768,-0.00000001,0.77445066,0.00000448,0.00000787,-0.05944084,
 0.00000712,-0.00001910,0.12418052,0.05869087,0.02469054,-0.00000143,-0
 .15102702,0.04980182,0.00000160,0.74172939,-0.02469046,-0.05913765,0.0
 0000282,0.11158932,-0.29977542,0.00000620,0.04103746,0.74535290,0.0000
 0002,0.00000097,0.00542638,-0.00000111,0.00000637,-0.05944081,-0.00000
 650,-0.00001738,0.14275806,-0.04707513,-0.03281217,0.00000152,-0.03977
 160,0.07723560,-0.00000226,-0.38314191,-0.03369225,0.00000432,0.750164
 61,-0.02074471,-0.01814649,0.00000064,0.01875849,0.03318954,-0.0000017
 4,0.03594682,-0.13350810,0.00000219,-0.04199860,0.71062062,0.00000124,
 0.00000117,-0.00163051,0.00000047,-0.00000185,0.00565763,0.00000123,0.
 00000291,-0.05790275,-0.00000335,-0.00001575,0.12472431,-0.03490913,0.
 03042718,-0.00000112,0.01919167,-0.00000002,-0.00000017,-0.03490920,-0
 .03042712,0.00000066,-0.15948620,-0.09831726,0.00000359,0.75508747,0.0
 8290895,0.04592830,-0.00000189,-0.00000003,-0.07908383,0.00000213,-0.0
 8290896,0.04592823,-0.00000071,-0.03169115,-0.27764059,0.00000561,0.00
 000002,0.70398423,-0.00000267,-0.00000207,-0.00002514,-0.00000003,0.00
 000218,-0.00435706,0.00000217,-0.00000062,-0.00002515,0.00000216,0.000
 00677,-0.07037959,-0.00000457,-0.00001567,0.16949207,-0.38314218,0.033
 69221,0.00000229,-0.03977157,-0.07723557,0.00000227,-0.04707510,0.0328
 1207,-0.00000041,0.06028093,0.01609245,-0.00000125,-0.15948627,0.03169
 118,0.00000030,0.75016490,-0.03594684,-0.13350811,0.00000217,-0.018758
 44,0.03318953,0.00000022,0.02074469,-0.01814645,0.00000024,-0.01609244
 ,-0.04302332,0.00000147,0.09831728,-0.27764057,0.00000535,0.04199861,0
 .71062060,0.00000336,0.00000149,-0.05790275,0.00000157,0.00000022,0.00
 565763,0.,-0.00000017,-0.00163049,-0.00000033,0.00000140,0.00644918,-0
 .00000214,0.00000651,-0.07037960,-0.00000582,-0.00001850,0.12472432,0.
 01266694,0.00212095,0.00000037,-0.02057401,0.00000002,-0.00000010,0.01
 266698,-0.00212097,0.00000049,-0.04677113,-0.01987703,0.00000099,-0.36
 188379,-0.00000004,0.00000162,-0.04677112,0.01987705,-0.00000020,0.794
 84191,-0.00693807,-0.01088386,0.00000058,0.,0.00825164,-0.00000027,0.0
 0693807,-0.01088385,0.00000032,-0.05092815,0.00168811,0.00000063,-0.00
 000003,-0.13321072,0.00000280,0.05092813,0.00168813,-0.00000012,-0.000
 00004,0.89023805,0.00000049,0.00000054,0.00451612,-0.00000022,-0.00000
 027,-0.00096148,0.00000009,0.00000037,0.00451613,0.00000155,0.00000005
 ,0.01029256,0.00000345,0.00000283,-0.03915324,-0.00000144,0.00000042,0
 .01029257,-0.00001249,-0.00002639,0.00959113,-0.04429062,-0.02201823,0
 .00000077,-0.14577036,-0.00000006,0.00001067,-0.04429063,0.02201827,-0
 .00000051,0.01528710,0.01015741,-0.00000145,-0.01948875,0.00000005,0.0
 0000022,0.01528706,-0.01015749,-0.00000083,0.01822188,0.,0.00000019,0.
 69990461,-0.02623192,0.01478378,0.00000083,-0.00000002,-0.11689944,0.0
 0000122,0.02623195,0.01478370,-0.00000202,0.00519744,-0.00749355,-0.00
 000009,-0.00000003,-0.00486158,0.00000009,-0.00519741,-0.00749359,0.00
 000099,-0.00000001,0.00009631,0.,0.00000027,1.00222279,0.00000004,-0.0
 0000270,-0.00629841,-0.00001050,0.00000135,-0.07375103,-0.00000127,0.0
 0000130,-0.00629851,-0.00000012,-0.00000002,0.00810625,-0.00000056,-0.
 00000003,-0.00193258,0.00000034,0.00000113,0.00810620,0.00000020,-0.00
 000002,-0.00051953,0.00008912,-0.00002332,0.23452748,-0.00237806,0.007
 84624,-0.00000132,-0.04114150,-0.05136875,-0.00001018,-0.00112439,-0.0
 0303122,-0.00000033,-0.00206609,-0.00256227,0.00000016,0.00501457,-0.0
 0201847,-0.00000013,-0.00487634,0.00016240,0.00000064,-0.00499427,0.00
 031271,-0.00000002,-0.24839434,-0.18996191,-0.00003301,0.25516471,0.00
 134518,0.00341513,-0.00000058,-0.03863280,-0.01071970,-0.00000706,0.01
 125521,-0.00876415,0.00000131,-0.00428095,0.00002030,0.00000039,0.0048
 0905,-0.00004407,-0.00000009,-0.00265405,0.00277049,0.00000016,-0.0040
 8552,0.00055369,-0.00000006,-0.18814329,-0.44417232,-0.00004041,0.2302
 7005,0.57767095,-0.00000130,0.00000111,0.00431210,0.00000058,-0.000004
 80,0.01826803,0.00000037,-0.00000082,0.00173678,-0.00000045,-0.0000000
 3,-0.00068332,0.00000048,0.00000021,0.00035713,0.00000003,-0.00000052,
 -0.00112255,-0.00000035,0.00000005,0.00004985,-0.00004394,-0.00005347,
 -0.07819443,0.00004096,0.00004771,0.02899123,-0.00112449,0.00303120,-0
 .00000051,-0.04114152,0.05136886,-0.00001330,-0.00237804,-0.00784627,-
 0.00000087,-0.00487635,-0.00016237,0.00000065,0.00501455,0.00201846,-0
 .00000024,-0.00206607,0.00256229,0.,-0.00499427,-0.00031271,0.,-0.2483
 9383,0.18996163,-0.00004468,0.04918532,-0.01119544,0.00000413,0.255164
 35,-0.01125524,-0.00876417,-0.00000071,0.03863290,-0.01071983,0.000008
 86,-0.00134520,0.00341517,0.00000062,0.00265405,0.00277046,-0.00000039
 ,-0.00480904,-0.00004406,0.00000011,0.00428093,0.00002030,-0.00000043,
 0.00408552,0.00055369,0.00000003,0.18814306,-0.44417288,0.00006268,0.0
 1119519,-0.12525756,0.00001031,-0.23026962,0.57767162,0.00000117,0.000
 00150,0.00173672,-0.00000178,0.00000643,0.01826810,-0.00000134,-0.0000
 0095,0.00431213,-0.00000008,0.00000015,-0.00112256,0.00000082,-0.00000
 003,0.00035712,-0.00000083,-0.00000010,-0.00068328,-0.00000061,-0.0000
 0008,0.00004985,-0.00005549,0.00007576,-0.07819452,0.00000344,-0.00000
 105,0.02679323,0.00005511,-0.00008109,0.02899126,-0.13403836,0.1301530
 8,-0.00000297,0.01327219,-0.01225206,-0.00000003,-0.00173756,-0.003546
 71,0.00000015,-0.00083904,-0.00066281,0.00000003,-0.00486997,-0.000948
 07,0.00000015,-0.00939247,0.02587495,-0.00000060,-0.00025709,0.0012974
 5,-0.00000006,0.00104570,-0.00096518,0.00000020,0.00046581,0.00143387,
 0.00000007,-0.00407213,-0.00006705,-0.00000040,0.13884838,0.12818274,-
 0.28011616,0.00000636,0.01536996,-0.01806115,0.00000045,-0.00394421,-0
 .00316421,0.00000040,-0.00063844,0.00044895,-0.00000005,-0.00154778,0.
 00106859,0.00000029,-0.00274487,0.00661197,0.00000003,-0.00002817,0.00
 025720,-0.00000001,0.00293010,-0.00364087,0.00000048,-0.00006059,0.001
 27351,0.00000003,0.00088141,0.00337404,-0.00000044,-0.13940775,0.29202
 829,-0.00000268,0.00000752,-0.04154764,-0.00000138,0.00000006,0.005520
 72,0.00000010,0.00000037,0.00496158,0.00000020,0.00000004,-0.00098909,
 0.00000020,-0.00000003,0.00848761,-0.00000002,-0.00000041,0.00512939,0
 .,0.,-0.00016865,0.00000068,-0.00000002,-0.00414933,-0.00000013,-0.000
 00012,0.00035341,-0.00000033,0.00000004,-0.00014775,0.00000344,-0.0000
 0732,0.02778919,-0.00173756,0.00354672,-0.00000006,0.01327219,0.012252
 07,-0.00000074,-0.13403835,-0.13015307,0.00000467,-0.00939246,-0.02587
 496,0.00000092,-0.00486998,0.00094808,0.00000010,-0.00083904,0.0006628
 0,-0.00000001,-0.00025709,-0.00129745,0.00000002,0.00104570,0.00096519
 ,0.00000013,-0.00407208,0.00006704,-0.00000039,0.00046581,-0.00143387,
 0.00000016,0.00072397,0.00082716,0.00000002,0.13884832,0.00394422,-0.0
 0316419,0.00000007,-0.01536996,-0.01806116,0.00000092,-0.12818277,-0.2
 8011626,0.00000765,0.00274488,0.00661196,-0.00000013,0.00154776,0.0010
 6860,0.00000015,0.00063844,0.00044893,-0.00000003,0.00002817,0.0002572
 0,-0.00000001,-0.00293010,-0.00364086,-0.00000050,-0.00088140,0.003374
 04,0.00000023,0.00006059,0.00127351,-0.00000009,-0.00082716,-0.0008541
 9,0.00000005,0.13940776,0.29202841,-0.00000015,0.00000009,0.00496158,-
 0.00000050,0.00000137,0.00552073,0.00000488,0.00000648,-0.04154763,-0.
 00000021,0.00000033,0.00512939,0.00000013,0.00000043,0.00848761,0.0000
 0016,-0.00000009,-0.00098909,0.,-0.00000002,-0.00016865,0.00000085,-0.
 00000002,-0.00414933,-0.00000025,-0.00000027,-0.00014775,-0.00000014,0
 .00000007,0.00035341,0.00000006,0.00000003,0.00052039,-0.00000475,-0.0
 0000819,0.02778917,-0.00089781,-0.00071634,0.00000004,-0.00465898,-0.0
 0188759,0.00000041,-0.01196852,0.02923487,-0.00000064,-0.12829593,0.12
 126949,-0.00000295,0.00997111,-0.01489532,0.00000037,-0.00131097,-0.00
 296413,0.00000007,0.00220724,-0.00055671,-0.00000001,0.00039187,0.0018
 3183,0.00000002,-0.00018287,-0.00024069,-0.00000006,-0.00093495,0.0002
 1814,-0.00000015,0.00002578,0.00007558,0.,0.00118387,-0.00020178,-0.00
 000007,0.13409308,-0.00124295,-0.00014478,0.,-0.00069396,0.00199829,0.
 00000016,-0.00171272,0.00436463,-0.00000001,0.12112034,-0.27569640,0.0
 0000588,0.01736091,-0.01870098,0.00000048,-0.00380684,-0.00297086,0.00
 000025,0.00098681,0.00194243,-0.00000015,-0.00046192,0.00021886,0.0000
 0004,0.00017327,0.00003230,0.00000001,0.00002514,-0.00002999,-0.000000
 02,0.00005012,-0.00000191,-0.00000002,0.00017357,0.00076127,-0.0000001
 9,-0.13092339,0.28953979,0.00000013,0.00000009,-0.00058802,0.00000013,
 0.,0.00728192,0.00000009,-0.00000037,0.00253446,-0.00000295,0.00000582
 ,-0.03396498,-0.00000035,0.00000082,0.00411697,0.00000015,0.00000035,0
 .00511227,-0.00000023,-0.00000008,-0.00294230,-0.00000007,0.00000015,0
 .00142195,-0.00000003,-0.00000004,-0.00005381,0.00000015,-0.00000010,-
 0.00060948,0.,-0.00000002,-0.00060611,-0.00000003,-0.00000012,-0.00490
 580,0.00000295,-0.00000651,0.02343475,-0.01196850,-0.02923485,0.000001
 07,-0.00465898,0.00188757,0.00000030,-0.00089783,0.00071634,0.,-0.0013
 1095,0.00296413,-0.00000011,0.00997110,0.01489532,-0.00000050,-0.12829
 592,-0.12126948,0.00000416,0.00220724,0.00055671,-0.00000005,0.0003918
 7,-0.00183183,0.00000014,-0.00093495,-0.00021814,-0.00000015,-0.000182
 87,0.00024069,-0.00000008,0.00118387,0.00020178,-0.00000008,0.00002578
 ,-0.00007558,0.,0.00058035,0.00073653,-0.00000002,0.13409305,0.0017127
 3,0.00436465,-0.00000009,0.00069395,0.00199827,0.00000014,0.00124293,-
 0.00014477,-0.00000003,0.00380686,-0.00297087,0.00000021,-0.01736092,-
 0.01870097,0.00000086,-0.12112033,-0.27569644,0.00000829,-0.00098681,0
 .00194243,-0.00000014,0.00046193,0.00021886,0.00000002,-0.00002514,-0.
 00002999,-0.00000002,-0.00017327,0.00003230,-0.00000001,-0.00017357,0.
 00076127,-0.00000014,-0.00005012,-0.00000191,-0.00000002,-0.00073653,-
 0.00101125,0.00000004,0.13092337,0.28953980,-0.00000004,0.00000025,0.0
 0253447,0.00000008,0.00000034,0.00728192,0.00000008,-0.00000013,-0.000
 58802,-0.00000008,0.00000015,0.00511227,0.00000067,0.00000049,0.004116
 97,0.00000417,0.00000837,-0.03396499,-0.00000017,-0.00000021,-0.002942
 30,-0.00000009,-0.00000009,0.00142195,0.00000015,0.00000007,-0.0006094
 7,-0.00000002,0.00000003,-0.00005381,-0.00000002,-0.00000021,-0.004905
 81,0.,-0.00000001,-0.00060611,0.00000002,0.00000001,-0.00019915,-0.000
 00473,-0.00000908,0.02343475,-0.00059832,-0.00002937,0.,0.00062559,0.0
 0047371,-0.00000005,0.00009963,-0.00192963,0.00000006,-0.00502144,0.00
 305073,-0.00000002,-0.01217359,-0.03208461,0.00000149,0.00231561,-0.00
 196050,-0.00000004,-0.17815465,-0.17618819,0.00000955,-0.00047362,-0.0
 0002882,-0.00000004,0.00021077,0.00025066,0.00000004,0.00012371,-0.000
 01983,0.00000001,0.00000879,0.00000828,0.,-0.00036786,0.00010520,0.,0.
 00009144,-0.00021295,0.,-0.00029470,0.00157196,-0.00000002,0.17933324,
 -0.00105308,-0.00062770,-0.00000007,0.00157592,0.00000904,0.00000003,-
 0.00084870,0.00042394,0.00000002,0.00257857,0.00178532,0.00000003,-0.0
 0110451,0.00597470,-0.00000040,0.00320359,0.00134408,-0.00000014,-0.17
 501248,-0.37624526,0.00001687,-0.00149592,0.00002540,-0.00000004,0.000
 34311,0.00028110,0.00000002,0.00039321,-0.00040371,0.00000007,0.000076
 58,0.00000195,0.,0.00003567,0.00001272,0.,0.00013803,0.00022704,-0.000
 00002,-0.00035455,-0.00052843,0.00000008,0.18925896,0.38141700,-0.0000
 0004,-0.00000004,-0.00088081,0.00000002,0.00000005,0.00015700,0.000000
 04,-0.00000003,0.00206864,-0.00000012,0.00000005,0.00311284,-0.0000005
 3,-0.00000038,-0.00458157,0.00000001,-0.00000014,-0.00191164,0.0000105
 2,0.00001811,0.00377397,-0.00000002,0.,-0.00004809,0.00000003,0.000000
 01,-0.00002669,0.,0.,-0.00002373,0.,0.,0.00011618,-0.00000002,0.,-0.00
 036411,0.,0.,-0.00071447,0.00000004,0.00000002,0.00068180,-0.00000998,
 -0.00001733,0.00251717,0.00009963,0.00192962,-0.00000006,0.00062560,-0
 .00047371,-0.00000001,-0.00059833,0.00002938,0.,0.00231561,0.00196049,
 -0.00000015,-0.01217359,0.03208461,-0.00000044,-0.00502145,-0.00305073
 ,0.00000016,-0.17815477,0.17618826,-0.00000104,-0.00047363,0.00002882,
 -0.00000002,0.00012371,0.00001983,0.,0.00021077,-0.00025066,0.00000004
 ,-0.00036786,-0.00010520,0.,0.00000879,-0.00000828,0.,-0.00029470,-0.0
 0157196,0.00000007,0.00009144,0.00021295,0.,0.01427542,-0.01773439,0.0
 0000005,0.17933337,0.00084870,0.00042394,0.00000008,-0.00157592,0.0000
 0904,-0.00000003,0.00105308,-0.00062770,0.00000006,-0.00320358,0.00134
 407,-0.00000005,0.00110450,0.00597472,-0.00000024,-0.00257856,0.001785
 31,0.00000005,0.17501255,-0.37624517,0.00000594,0.00149592,0.00002541,
 0.00000003,-0.00039321,-0.00040371,-0.00000004,-0.00034311,0.00028110,
 -0.00000004,-0.00003567,0.00001272,-0.00000001,-0.00007657,0.00000195,
 0.,0.00035455,-0.00052843,0.,-0.00013803,0.00022704,-0.00000004,0.0177
 3440,-0.01369719,-0.00000030,-0.18925904,0.38141689,-0.00000002,0.0000
 0011,0.00206865,0.00000010,-0.00000002,0.00015700,-0.00000008,0.,-0.00
 088081,0.00000019,-0.00000003,-0.00191164,-0.00000056,-0.00000028,-0.0
 0458157,0.00000005,0.00000005,0.00311283,-0.00000004,0.00000471,0.0037
 7397,-0.00000010,0.,-0.00004808,0.00000003,0.00000003,-0.00002373,0.00
 000004,-0.00000003,-0.00002670,-0.00000002,-0.00000001,-0.00036411,0.0
 0000001,0.,0.00011618,0.00000002,0.00000004,0.00068180,0.,-0.00000005,
 -0.00071447,-0.00000102,0.00000088,-0.00387647,0.00000140,-0.00000540,
 0.00251716\\0.00011292,0.00002690,-0.00000227,-0.00028215,0.00000006,-
 0.00001357,0.00011294,-0.00002696,-0.00000227,-0.00005051,-0.00002650,
 0.00000077,0.00005248,-0.00000002,-0.00000048,-0.00005058,0.00002652,0
 .00000077,-0.00002479,0.,-0.00000008,0.00008456,-0.00000002,0.00005895
 ,0.00002212,-0.00002341,-0.00002105,0.00002229,0.00002339,-0.00002106,
 -0.00001016,0.00000358,-0.00000015,-0.00001013,-0.00000355,-0.00000015
 ,0.00000453,-0.00000567,0.00000023,0.00000453,0.00000567,0.00000023,0.
 00000598,0.00000042,0.00000007,0.00000597,-0.00000041,0.00000007\\\@


 "MATHEMATICS IS THE ART OF GIVING THE SAME NAME
 TO DIFFERENT THINGS."
                    - H. POINCARE
 Job cpu time:       0 days  0 hours 25 minutes  0.8 seconds.
 File lengths (MBytes):  RWF=     85 Int=      0 D2E=      0 Chk=      5 Scr=      1
 Normal termination of Gaussian 09 at Thu Jun 13 21:52:56 2024.
