 Entering Gaussian System, Link 0=g09
 Input=pbe4NiAnyang.gjf
 Output=pbe4NiAnyang.log
 Initial command:
 /home/phzd/g09E/g09/l1.exe "/home/phzd/g09E/scratch/Gau-149318.inp" -scrdir="/home/phzd/g09E/scratch/"
 Default is to use a total of  18 processors:
                               18 via shared-memory
                                1 via Linda
 Entering Link 1 = /home/phzd/g09E/g09/l1.exe PID=    149320.
  
 Copyright (c) 1988,1990,1992,1993,1995,1998,2003,2009,2015,
            Gaussian, Inc.  All Rights Reserved.
  
 This is part of the Gaussian(R) 09 program.  It is based on
 the Gaussian(R) 03 system (copyright 2003, Gaussian, Inc.),
 the Gaussian(R) 98 system (copyright 1998, Gaussian, Inc.),
 the Gaussian(R) 94 system (copyright 1995, Gaussian, Inc.),
 the Gaussian 92(TM) system (copyright 1992, Gaussian, Inc.),
 the Gaussian 90(TM) system (copyright 1990, Gaussian, Inc.),
 the Gaussian 88(TM) system (copyright 1988, Gaussian, Inc.),
 the Gaussian 86(TM) system (copyright 1986, Carnegie Mellon
 University), and the Gaussian 82(TM) system (copyright 1983,
 Carnegie Mellon University). Gaussian is a federally registered
 trademark of Gaussian, Inc.
  
 This software contains proprietary and confidential information,
 including trade secrets, belonging to Gaussian, Inc.
  
 This software is provided under written license and may be
 used, copied, transmitted, or stored only in accord with that
 written license.
  
 The following legend is applicable only to US Government
 contracts under FAR:
  
                    RESTRICTED RIGHTS LEGEND
  
 Use, reproduction and disclosure by the US Government is
 subject to restrictions as set forth in subparagraphs (a)
 and (c) of the Commercial Computer Software - Restricted
 Rights clause in FAR 52.227-19.
  
 Gaussian, Inc.
 340 Quinnipiac St., Bldg. 40, Wallingford CT 06492
  
  
 ---------------------------------------------------------------
 Warning -- This program may not be used in any manner that
 competes with the business of Gaussian, Inc. or will provide
 assistance to any competitor of Gaussian, Inc.  The licensee
 of this program is prohibited from giving any competitor of
 Gaussian, Inc. access to this program.  By using this program,
 the user acknowledges that Gaussian, Inc. is engaged in the
 business of creating and licensing software in the field of
 computational chemistry and represents and warrants to the
 licensee that it is not a competitor of Gaussian, Inc. and that
 it will not use this program in any manner prohibited above.
 ---------------------------------------------------------------
  

 Cite this work as:
 Gaussian 09, Revision E.01,
 M. J. Frisch, G. W. Trucks, H. B. Schlegel, G. E. Scuseria, 
 M. A. Robb, J. R. Cheeseman, G. Scalmani, V. Barone, B. Mennucci, 
 G. A. Petersson, H. Nakatsuji, M. Caricato, X. Li, H. P. Hratchian, 
 A. F. Izmaylov, J. Bloino, G. Zheng, J. L. Sonnenberg, M. Hada, 
 M. Ehara, K. Toyota, R. Fukuda, J. Hasegawa, M. Ishida, T. Nakajima, 
 Y. Honda, O. Kitao, H. Nakai, T. Vreven, J. A. Montgomery, Jr., 
 J. E. Peralta, F. Ogliaro, M. Bearpark, J. J. Heyd, E. Brothers, 
 K. N. Kudin, V. N. Staroverov, T. Keith, R. Kobayashi, J. Normand, 
 K. Raghavachari, A. Rendell, J. C. Burant, S. S. Iyengar, J. Tomasi, 
 M. Cossi, N. Rega, J. M. Millam, M. Klene, J. E. Knox, J. B. Cross, 
 V. Bakken, C. Adamo, J. Jaramillo, R. Gomperts, R. E. Stratmann, 
 O. Yazyev, A. J. Austin, R. Cammi, C. Pomelli, J. W. Ochterski, 
 R. L. Martin, K. Morokuma, V. G. Zakrzewski, G. A. Voth, 
 P. Salvador, J. J. Dannenberg, S. Dapprich, A. D. Daniels, 
 O. Farkas, J. B. Foresman, J. V. Ortiz, J. Cioslowski, 
 and D. J. Fox, Gaussian, Inc., Wallingford CT, 2013.
 
 ******************************************
 Gaussian 09:  ES64L-G09RevE.01 30-Nov-2015
                20-Jun-2024 
 ******************************************
 %chk=pbe4NiAnyang.chk
 --------------------------------------
 # opt freq pbepbe/6-31+g(d,p) em=gd3bj
 --------------------------------------
 1/14=-1,18=20,19=15,26=3,38=1/1,3;
 2/9=110,12=2,17=6,18=5,40=1/2;
 3/5=1,6=6,7=111,11=2,16=1,25=1,30=1,71=1,74=1009,124=41/1,2,3;
 4//1;
 5/5=2,38=5/2;
 6/7=2,8=2,9=2,10=2,28=1/1;
 7//1,2,3,16;
 1/14=-1,18=20,19=15,26=3/3(2);
 2/9=110/2;
 99//99;
 2/9=110/2;
 3/5=1,6=6,7=111,11=2,16=1,25=1,30=1,71=1,74=1009,124=41/1,2,3;
 4/5=5,16=3,69=1/1;
 5/5=2,38=5/2;
 7//1,2,3,16;
 1/14=-1,18=20,19=15,26=3/3(-5);
 2/9=110/2;
 6/7=2,8=2,9=2,10=2,19=2,28=1/1;
 99/9=1/99;
 ----------
 [No Title]
 ----------
 Symbolic Z-matrix:
 Charge =  1 Multiplicity = 1
 C                    -0.00714  -1.21745   0. 
 C                     0.66826   0.03846   0. 
 C                    -0.06057   1.26464   0. 
 C                    -1.42577   1.23384   0. 
 C                    -2.12282  -0.01851   0. 
 C                    -1.37377  -1.23975   0. 
 N                    -3.45914  -0.04627  0. 
 N                     2.03368   0.11012   0. 
 O                     2.71256   1.12025   0. 
 O                     2.67679  -1.10342  -0.00001 
 H                     0.55689  -2.14153   0.00001 
 H                     0.47737   2.20564   0. 
 H                    -1.99087   2.16033  0. 
 H                    -1.90049  -2.18854   0.00001 
 H                    -3.9711   -0.91855  -0.00001 
 H                    -4.00647   0.80429  -0.00001 
 H                     3.62901  -0.87058  -0.00001 
 

 GradGradGradGradGradGradGradGradGradGradGradGradGradGradGradGradGradGrad
 Berny optimization.
 Initialization pass.
                           ----------------------------
                           !    Initial Parameters    !
                           ! (Angstroms and Degrees)  !
 --------------------------                            --------------------------
 ! Name  Definition              Value          Derivative Info.                !
 --------------------------------------------------------------------------------
 ! R1    R(1,2)                  1.426          estimate D2E/DX2                !
 ! R2    R(1,6)                  1.3668         estimate D2E/DX2                !
 ! R3    R(1,11)                 1.0826         estimate D2E/DX2                !
 ! R4    R(2,3)                  1.4264         estimate D2E/DX2                !
 ! R5    R(2,8)                  1.3673         estimate D2E/DX2                !
 ! R6    R(3,4)                  1.3656         estimate D2E/DX2                !
 ! R7    R(3,12)                 1.0839         estimate D2E/DX2                !
 ! R8    R(4,5)                  1.4333         estimate D2E/DX2                !
 ! R9    R(4,13)                 1.0852         estimate D2E/DX2                !
 ! R10   R(5,6)                  1.4326         estimate D2E/DX2                !
 ! R11   R(5,7)                  1.3366         estimate D2E/DX2                !
 ! R12   R(6,14)                 1.0852         estimate D2E/DX2                !
 ! R13   R(7,15)                 1.0114         estimate D2E/DX2                !
 ! R14   R(7,16)                 1.0114         estimate D2E/DX2                !
 ! R15   R(8,9)                  1.2171         estimate D2E/DX2                !
 ! R16   R(8,10)                 1.3734         estimate D2E/DX2                !
 ! R17   R(10,17)                0.9803         estimate D2E/DX2                !
 ! A1    A(2,1,6)              119.2048         estimate D2E/DX2                !
 ! A2    A(2,1,11)             120.3314         estimate D2E/DX2                !
 ! A3    A(6,1,11)             120.4637         estimate D2E/DX2                !
 ! A4    A(1,2,3)              121.0029         estimate D2E/DX2                !
 ! A5    A(1,2,8)              121.2748         estimate D2E/DX2                !
 ! A6    A(3,2,8)              117.7223         estimate D2E/DX2                !
 ! A7    A(2,3,4)              119.4345         estimate D2E/DX2                !
 ! A8    A(2,3,12)             119.5182         estimate D2E/DX2                !
 ! A9    A(4,3,12)             121.0473         estimate D2E/DX2                !
 ! A10   A(3,4,5)              120.3923         estimate D2E/DX2                !
 ! A11   A(3,4,13)             120.0878         estimate D2E/DX2                !
 ! A12   A(5,4,13)             119.5199         estimate D2E/DX2                !
 ! A13   A(4,5,6)              119.3769         estimate D2E/DX2                !
 ! A14   A(4,5,7)              120.2898         estimate D2E/DX2                !
 ! A15   A(6,5,7)              120.3332         estimate D2E/DX2                !
 ! A16   A(1,6,5)              120.5886         estimate D2E/DX2                !
 ! A17   A(1,6,14)             119.9708         estimate D2E/DX2                !
 ! A18   A(5,6,14)             119.4406         estimate D2E/DX2                !
 ! A19   A(5,7,15)             121.5991         estimate D2E/DX2                !
 ! A20   A(5,7,16)             121.5709         estimate D2E/DX2                !
 ! A21   A(15,7,16)            116.83           estimate D2E/DX2                !
 ! A22   A(2,8,9)              126.9086         estimate D2E/DX2                !
 ! A23   A(2,8,10)             114.9164         estimate D2E/DX2                !
 ! A24   A(9,8,10)             118.175          estimate D2E/DX2                !
 ! A25   A(8,10,17)            104.1802         estimate D2E/DX2                !
 ! D1    D(6,1,2,3)              0.0            estimate D2E/DX2                !
 ! D2    D(6,1,2,8)           -180.0            estimate D2E/DX2                !
 ! D3    D(11,1,2,3)          -179.9999         estimate D2E/DX2                !
 ! D4    D(11,1,2,8)             0.0001         estimate D2E/DX2                !
 ! D5    D(2,1,6,5)              0.0001         estimate D2E/DX2                !
 ! D6    D(2,1,6,14)          -179.9999         estimate D2E/DX2                !
 ! D7    D(11,1,6,5)          -180.0            estimate D2E/DX2                !
 ! D8    D(11,1,6,14)            0.0001         estimate D2E/DX2                !
 ! D9    D(1,2,3,4)              0.0            estimate D2E/DX2                !
 ! D10   D(1,2,3,12)          -180.0            estimate D2E/DX2                !
 ! D11   D(8,2,3,4)            179.9999         estimate D2E/DX2                !
 ! D12   D(8,2,3,12)             0.0            estimate D2E/DX2                !
 ! D13   D(1,2,8,9)           -179.9999         estimate D2E/DX2                !
 ! D14   D(1,2,8,10)             0.0003         estimate D2E/DX2                !
 ! D15   D(3,2,8,9)              0.0001         estimate D2E/DX2                !
 ! D16   D(3,2,8,10)          -179.9997         estimate D2E/DX2                !
 ! D17   D(2,3,4,5)              0.0            estimate D2E/DX2                !
 ! D18   D(2,3,4,13)          -180.0            estimate D2E/DX2                !
 ! D19   D(12,3,4,5)           179.9999         estimate D2E/DX2                !
 ! D20   D(12,3,4,13)           -0.0001         estimate D2E/DX2                !
 ! D21   D(3,4,5,6)              0.0001         estimate D2E/DX2                !
 ! D22   D(3,4,5,7)           -179.9999         estimate D2E/DX2                !
 ! D23   D(13,4,5,6)          -179.9999         estimate D2E/DX2                !
 ! D24   D(13,4,5,7)             0.0001         estimate D2E/DX2                !
 ! D25   D(4,5,6,1)             -0.0001         estimate D2E/DX2                !
 ! D26   D(4,5,6,14)           179.9998         estimate D2E/DX2                !
 ! D27   D(7,5,6,1)            179.9999         estimate D2E/DX2                !
 ! D28   D(7,5,6,14)            -0.0002         estimate D2E/DX2                !
 ! D29   D(4,5,7,15)           179.9999         estimate D2E/DX2                !
 ! D30   D(4,5,7,16)             0.0            estimate D2E/DX2                !
 ! D31   D(6,5,7,15)            -0.0001         estimate D2E/DX2                !
 ! D32   D(6,5,7,16)          -179.9999         estimate D2E/DX2                !
 ! D33   D(2,8,10,17)          179.9997         estimate D2E/DX2                !
 ! D34   D(9,8,10,17)           -0.0001         estimate D2E/DX2                !
 --------------------------------------------------------------------------------
 Trust Radius=3.00D-01 FncErr=1.00D-07 GrdErr=1.00D-06
 Number of steps in this run=     86 maximum allowed number of steps=    102.
 GradGradGradGradGradGradGradGradGradGradGradGradGradGradGradGradGradGrad

                          Input orientation:                          
 ---------------------------------------------------------------------
 Center     Atomic      Atomic             Coordinates (Angstroms)
 Number     Number       Type             X           Y           Z
 ---------------------------------------------------------------------
      1          6           0       -0.007137   -1.217453    0.000003
      2          6           0        0.668262    0.038458    0.000002
      3          6           0       -0.060566    1.264637    0.000001
      4          6           0       -1.425774    1.233839    0.000000
      5          6           0       -2.122823   -0.018514    0.000000
      6          6           0       -1.373773   -1.239746    0.000003
      7          7           0       -3.459143   -0.046270   -0.000003
      8          7           0        2.033678    0.110124    0.000001
      9          8           0        2.712561    1.120252    0.000001
     10          8           0        2.676786   -1.103424   -0.000005
     11          1           0        0.556885   -2.141532    0.000005
     12          1           0        0.477373    2.205644    0.000000
     13          1           0       -1.990867    2.160333   -0.000001
     14          1           0       -1.900486   -2.188544    0.000006
     15          1           0       -3.971097   -0.918554   -0.000005
     16          1           0       -4.006469    0.804292   -0.000006
     17          1           0        3.629009   -0.870580   -0.000010
 ---------------------------------------------------------------------
                    Distance matrix (angstroms):
                    1          2          3          4          5
     1  C    0.000000
     2  C    1.426000   0.000000
     3  C    2.482665   1.426431   0.000000
     4  C    2.832201   2.411208   1.365555   0.000000
     5  C    2.431786   2.791666   2.428864   1.433271   0.000000
     6  C    1.366818   2.409090   2.827799   2.474132   1.432649
     7  N    3.645273   4.128275   3.642637   2.402763   1.336608
     8  N    2.434622   1.367295   2.391393   3.637381   4.158491
     9  O    3.586310   2.312885   2.776883   4.139894   4.967668
    10  O    2.686344   2.310425   3.619504   4.721631   4.920699
    11  H    1.082609   2.182833   3.461681   3.914597   3.418778
    12  H    3.457216   2.175577   1.083915   2.136907   3.421681
    13  H    3.917221   3.401958   2.127988   1.085229   2.182839
    14  H    2.127860   3.399706   3.912769   3.455149   2.181390
    15  H    3.975213   4.737037   4.478680   3.333386   2.055770
    16  H    4.481307   4.737047   3.972665   2.616199   2.055513
    17  H    3.652654   3.097156   4.262876   5.475346   5.814601
                    6          7          8          9         10
     6  C    0.000000
     7  N    2.402739   0.000000
     8  N    3.665088   5.495047   0.000000
     9  O    4.718868   6.280980   1.217062   0.000000
    10  O    4.052852   6.226331   1.373422   2.223964   0.000000
    11  H    2.130882   4.529747   2.692744   3.909754   2.360434
    12  H    3.911196   4.535116   2.610228   2.484782   3.973330
    13  H    3.455625   2.650459   4.516671   4.817053   5.695533
    14  H    1.085193   2.649292   4.556481   5.677000   4.704137
    15  H    2.617108   1.011423   6.092249   6.987704   6.650453
    16  H    3.333044   1.011445   6.079905   6.726455   6.950200
    17  H    5.016384   7.135922   1.872662   2.191641   0.980278
                   11         12         13         14         15
    11  H    0.000000
    12  H    4.347903   0.000000
    13  H    4.999708   2.468656   0.000000
    14  H    2.457821   4.996309   4.349816   0.000000
    15  H    4.690234   5.435945   3.660718   2.429054   0.000000
    16  H    5.431582   4.697726   2.429300   3.659540   1.723209
    17  H    3.324645   4.404085   6.385095   5.684395   7.600257
                   16         17
    16  H    0.000000
    17  H    7.817015   0.000000
 Stoichiometry    C6H7N2O2(1+)
 Framework group  C1[X(C6H7N2O2)]
 Deg. of freedom    45
 Full point group                 C1      NOp   1
 Largest Abelian subgroup         C1      NOp   1
 Largest concise Abelian subgroup C1      NOp   1
                         Standard orientation:                         
 ---------------------------------------------------------------------
 Center     Atomic      Atomic             Coordinates (Angstroms)
 Number     Number       Type             X           Y           Z
 ---------------------------------------------------------------------
      1          6           0        0.007137   -1.217453   -0.000003
      2          6           0       -0.668262    0.038458   -0.000002
      3          6           0        0.060566    1.264637   -0.000001
      4          6           0        1.425774    1.233839   -0.000000
      5          6           0        2.122823   -0.018514   -0.000000
      6          6           0        1.373773   -1.239746   -0.000003
      7          7           0        3.459143   -0.046270    0.000003
      8          7           0       -2.033678    0.110124   -0.000001
      9          8           0       -2.712561    1.120252   -0.000001
     10          8           0       -2.676786   -1.103424    0.000005
     11          1           0       -0.556885   -2.141532   -0.000005
     12          1           0       -0.477373    2.205644   -0.000000
     13          1           0        1.990867    2.160333    0.000001
     14          1           0        1.900486   -2.188544   -0.000006
     15          1           0        3.971097   -0.918554    0.000005
     16          1           0        4.006469    0.804292    0.000006
     17          1           0       -3.629009   -0.870580    0.000010
 ---------------------------------------------------------------------
 Rotational constants (GHZ):      3.7503071      0.8184774      0.6718508
 Standard basis: 6-31+G(d,p) (6D, 7F)
 There are   225 symmetry adapted cartesian basis functions of A   symmetry.
 There are   225 symmetry adapted basis functions of A   symmetry.
   225 basis functions,   369 primitive gaussians,   225 cartesian basis functions
    36 alpha electrons       36 beta electrons
       nuclear repulsion energy       507.5005780756 Hartrees.
 NAtoms=   17 NActive=   17 NUniq=   17 SFac= 1.00D+00 NAtFMM=   60 NAOKFM=F Big=F
 Integral buffers will be    131072 words long.
 Raffenetti 2 integral format.
 Two-electron integral symmetry is turned on.
 Nuclear repulsion after empirical dispersion term =      507.4831220573 Hartrees.
 One-electron integrals computed using PRISM.
 NBasis=   225 RedAO= T EigKep=  3.40D-06  NBF=   225
 NBsUse=   225 1.00D-06 EigRej= -1.00D+00 NBFU=   225
 ExpMin= 4.38D-02 ExpMax= 5.48D+03 ExpMxC= 8.25D+02 IAcc=2 IRadAn=         4 AccDes= 0.00D+00
 Harris functional with IExCor= 1009 and IRadAn=       4 diagonalized for initial guess.
 HarFok:  IExCor= 1009 AccDes= 0.00D+00 IRadAn=         4 IDoV= 1 UseB2=F ITyADJ=14
 ICtDFT=  3500011 ScaDFX=  1.000000  1.000000  1.000000  1.000000
 FoFCou: FMM=F IPFlag=           0 FMFlag=      100000 FMFlg1=           0
         NFxFlg=           0 DoJE=T BraDBF=F KetDBF=T FulRan=T
         wScrn=  0.000000 ICntrl=     500 IOpCl=  0 I1Cent=   200000004 NGrid=           0
         NMat0=    1 NMatS0=      1 NMatT0=    0 NMatD0=    1 NMtDS0=    0 NMtDT0=    0
 Petite list used in FoFCou.
 Keep J ints in memory in canonical form, NReq=329175655.
 Requested convergence on RMS density matrix=1.00D-08 within 128 cycles.
 Requested convergence on MAX density matrix=1.00D-06.
 Requested convergence on             energy=1.00D-06.
 No special actions if energy rises.
 EnCoef did     2 forward-backward iterations
 EnCoef did     2 forward-backward iterations
 EnCoef did     3 forward-backward iterations
 SCF Done:  E(RPBE-PBE) =  -491.964698719     A.U. after   18 cycles
            NFock= 18  Conv=0.29D-08     -V/T= 2.0091

 **********************************************************************

            Population analysis using the SCF density.

 **********************************************************************

 Orbital symmetries:
       Occupied  (A) (A) (A) (A) (A) (A) (A) (A) (A) (A) (A) (A)
                 (A) (A) (A) (A) (A) (A) (A) (A) (A) (A) (A) (A)
                 (A) (A) (A) (A) (A) (A) (A) (A) (A) (A) (A) (A)
       Virtual   (A) (A) (A) (A) (A) (A) (A) (A) (A) (A) (A) (A)
                 (A) (A) (A) (A) (A) (A) (A) (A) (A) (A) (A) (A)
                 (A) (A) (A) (A) (A) (A) (A) (A) (A) (A) (A) (A)
                 (A) (A) (A) (A) (A) (A) (A) (A) (A) (A) (A) (A)
                 (A) (A) (A) (A) (A) (A) (A) (A) (A) (A) (A) (A)
                 (A) (A) (A) (A) (A) (A) (A) (A) (A) (A) (A) (A)
                 (A) (A) (A) (A) (A) (A) (A) (A) (A) (A) (A) (A)
                 (A) (A) (A) (A) (A) (A) (A) (A) (A) (A) (A) (A)
                 (A) (A) (A) (A) (A) (A) (A) (A) (A) (A) (A) (A)
                 (A) (A) (A) (A) (A) (A) (A) (A) (A) (A) (A) (A)
                 (A) (A) (A) (A) (A) (A) (A) (A) (A) (A) (A) (A)
                 (A) (A) (A) (A) (A) (A) (A) (A) (A) (A) (A) (A)
                 (A) (A) (A) (A) (A) (A) (A) (A) (A) (A) (A) (A)
                 (A) (A) (A) (A) (A) (A) (A) (A) (A) (A) (A) (A)
                 (A) (A) (A) (A) (A) (A) (A) (A) (A) (A) (A) (A)
                 (A) (A) (A) (A) (A) (A) (A) (A) (A)
 The electronic state is 1-A.
 Alpha  occ. eigenvalues --  -19.03719 -19.00354 -14.40816 -14.22794 -10.15355
 Alpha  occ. eigenvalues --  -10.14023 -10.10231 -10.10096 -10.09154 -10.09150
 Alpha  occ. eigenvalues --   -1.31597  -1.16368  -1.05257  -0.99666  -0.92541
 Alpha  occ. eigenvalues --   -0.87295  -0.82074  -0.76452  -0.74035  -0.69756
 Alpha  occ. eigenvalues --   -0.67559  -0.66400  -0.65748  -0.65219  -0.58985
 Alpha  occ. eigenvalues --   -0.57487  -0.56543  -0.55788  -0.54290  -0.53938
 Alpha  occ. eigenvalues --   -0.48613  -0.48116  -0.47415  -0.44373  -0.41844
 Alpha  occ. eigenvalues --   -0.38199
 Alpha virt. eigenvalues --   -0.30761  -0.21849  -0.19393  -0.15794  -0.14890
 Alpha virt. eigenvalues --   -0.12368  -0.11898  -0.11495  -0.10087  -0.08899
 Alpha virt. eigenvalues --   -0.08675  -0.07603  -0.07032  -0.05934  -0.04842
 Alpha virt. eigenvalues --   -0.04585  -0.03662  -0.03586  -0.02095  -0.00997
 Alpha virt. eigenvalues --   -0.00293  -0.00267   0.00173   0.00362   0.01160
 Alpha virt. eigenvalues --    0.02589   0.02871   0.03853   0.04385   0.04749
 Alpha virt. eigenvalues --    0.04916   0.05758   0.06010   0.06874   0.07691
 Alpha virt. eigenvalues --    0.08051   0.08054   0.09702   0.10138   0.10183
 Alpha virt. eigenvalues --    0.11102   0.11616   0.12353   0.12454   0.13489
 Alpha virt. eigenvalues --    0.14152   0.15504   0.16442   0.16699   0.17837
 Alpha virt. eigenvalues --    0.18500   0.19167   0.20719   0.22262   0.24969
 Alpha virt. eigenvalues --    0.25174   0.26976   0.30549   0.35359   0.35501
 Alpha virt. eigenvalues --    0.38649   0.44116   0.44681   0.45322   0.48307
 Alpha virt. eigenvalues --    0.50534   0.51595   0.52989   0.54756   0.57502
 Alpha virt. eigenvalues --    0.58532   0.61008   0.63274   0.64485   0.67202
 Alpha virt. eigenvalues --    0.68798   0.69827   0.72560   0.74420   0.75197
 Alpha virt. eigenvalues --    0.77060   0.77619   0.80345   0.80868   0.84032
 Alpha virt. eigenvalues --    0.85152   0.85327   0.87300   0.89800   0.91049
 Alpha virt. eigenvalues --    0.95032   0.95624   0.95687   0.97440   0.99388
 Alpha virt. eigenvalues --    1.01705   1.04097   1.04446   1.06932   1.06977
 Alpha virt. eigenvalues --    1.09860   1.10262   1.10427   1.13621   1.13672
 Alpha virt. eigenvalues --    1.15273   1.16289   1.21145   1.21365   1.24393
 Alpha virt. eigenvalues --    1.28515   1.29727   1.31849   1.43240   1.46786
 Alpha virt. eigenvalues --    1.49932   1.51365   1.56395   1.57265   1.59204
 Alpha virt. eigenvalues --    1.59906   1.64992   1.66123   1.67440   1.68372
 Alpha virt. eigenvalues --    1.70663   1.71406   1.72536   1.72654   1.78098
 Alpha virt. eigenvalues --    1.80718   1.84240   1.85929   1.87876   1.89679
 Alpha virt. eigenvalues --    1.92554   1.93545   1.95803   2.05461   2.05539
 Alpha virt. eigenvalues --    2.12652   2.13297   2.14724   2.15275   2.16751
 Alpha virt. eigenvalues --    2.19896   2.19999   2.23411   2.25381   2.29855
 Alpha virt. eigenvalues --    2.30944   2.32360   2.32950   2.34101   2.35237
 Alpha virt. eigenvalues --    2.37382   2.41888   2.42486   2.45068   2.50370
 Alpha virt. eigenvalues --    2.51581   2.55578   2.58731   2.59738   2.72428
 Alpha virt. eigenvalues --    2.74333   2.77857   2.82431   2.85086   2.90105
 Alpha virt. eigenvalues --    2.94503   3.04768   3.09037   3.09391   3.15808
 Alpha virt. eigenvalues --    3.24750   3.28049   3.41908   3.57636   3.88150
 Alpha virt. eigenvalues --    3.95456   4.02846   4.04680   4.08284   4.20470
 Alpha virt. eigenvalues --    4.22475   4.26491   4.52171   4.59516
          Condensed to atoms (all electrons):
               1          2          3          4          5          6
     1  C   10.996050  -1.995924  -2.670456  -1.013892   0.154696  -0.467515
     2  C   -1.995924  11.620507   0.989773  -0.644268  -0.921562  -1.483791
     3  C   -2.670456   0.989773   8.776296  -0.344633  -0.138553  -1.050851
     4  C   -1.013892  -0.644268  -0.344633   8.774062   0.173330  -1.288189
     5  C    0.154696  -0.921562  -0.138553   0.173330   6.034904   0.436244
     6  C   -0.467515  -1.483791  -1.050851  -1.288189   0.436244   9.589135
     7  N    0.074407  -0.020746   0.079649  -0.053333   0.059445  -0.044179
     8  N    0.100500  -1.136885   0.366497   0.085392   0.033078   0.031303
     9  O    0.329136  -0.195925  -0.249336   0.013015   0.020400   0.002668
    10  O    0.124973  -0.288664   0.006441   0.035432  -0.006931   0.059496
    11  H   -0.007445   0.276464   0.048858   0.007861  -0.051510   0.079392
    12  H    0.067946   0.216603   0.075714   0.036031  -0.036235  -0.006912
    13  H   -0.012958   0.019599   0.093560   0.176983   0.030506   0.020983
    14  H    0.131479   0.023026   0.000109   0.013481   0.032032   0.128660
    15  H    0.026915  -0.000457  -0.002762   0.047320  -0.009846  -0.072928
    16  H   -0.001840  -0.000384   0.027899  -0.073494  -0.011067   0.047006
    17  H   -0.056105   0.028162   0.041570   0.003805  -0.001135  -0.003746
               7          8          9         10         11         12
     1  C    0.074407   0.100500   0.329136   0.124973  -0.007445   0.067946
     2  C   -0.020746  -1.136885  -0.195925  -0.288664   0.276464   0.216603
     3  C    0.079649   0.366497  -0.249336   0.006441   0.048858   0.075714
     4  C   -0.053333   0.085392   0.013015   0.035432   0.007861   0.036031
     5  C    0.059445   0.033078   0.020400  -0.006931  -0.051510  -0.036235
     6  C   -0.044179   0.031303   0.002668   0.059496   0.079392  -0.006912
     7  N    6.817383   0.000935  -0.000538  -0.000150  -0.000108  -0.000254
     8  N    0.000935   7.414355   0.415462   0.141505  -0.058883  -0.055280
     9  O   -0.000538   0.415462   7.656759  -0.103838  -0.002296   0.021201
    10  O   -0.000150   0.141505  -0.103838   7.801242   0.019090  -0.001795
    11  H   -0.000108  -0.058883  -0.002296   0.019090   0.488491  -0.000091
    12  H   -0.000254  -0.055280   0.021201  -0.001795  -0.000091   0.482966
    13  H   -0.018233  -0.000879  -0.000052   0.000079   0.000011  -0.005148
    14  H   -0.018788  -0.001049   0.000035   0.000096  -0.005513   0.000011
    15  H    0.326340   0.000004  -0.000000   0.000001  -0.000010   0.000003
    16  H    0.326507  -0.000006   0.000001   0.000000   0.000003  -0.000010
    17  H    0.000004   0.040121   0.011206   0.203349   0.000215   0.000004
              13         14         15         16         17
     1  C   -0.012958   0.131479   0.026915  -0.001840  -0.056105
     2  C    0.019599   0.023026  -0.000457  -0.000384   0.028162
     3  C    0.093560   0.000109  -0.002762   0.027899   0.041570
     4  C    0.176983   0.013481   0.047320  -0.073494   0.003805
     5  C    0.030506   0.032032  -0.009846  -0.011067  -0.001135
     6  C    0.020983   0.128660  -0.072928   0.047006  -0.003746
     7  N   -0.018233  -0.018788   0.326340   0.326507   0.000004
     8  N   -0.000879  -0.001049   0.000004  -0.000006   0.040121
     9  O   -0.000052   0.000035  -0.000000   0.000001   0.011206
    10  O    0.000079   0.000096   0.000001   0.000000   0.203349
    11  H    0.000011  -0.005513  -0.000010   0.000003   0.000215
    12  H   -0.005148   0.000011   0.000003  -0.000010   0.000004
    13  H    0.511063  -0.000103  -0.000051   0.004924  -0.000000
    14  H   -0.000103   0.513745   0.004907  -0.000048  -0.000000
    15  H   -0.000051   0.004907   0.354439  -0.022818  -0.000000
    16  H    0.004924  -0.000048  -0.022818   0.354161   0.000000
    17  H   -0.000000  -0.000000  -0.000000   0.000000   0.347529
 Mulliken charges:
               1
     1  C    0.220032
     2  C   -0.485528
     3  C   -0.049776
     4  C    0.051098
     5  C    0.202204
     6  C    0.023223
     7  N   -0.528339
     8  N   -0.376172
     9  O    0.082101
    10  O    0.009674
    11  H    0.205472
    12  H    0.205245
    13  H    0.179717
    14  H    0.177919
    15  H    0.348943
    16  H    0.349164
    17  H    0.385022
 Sum of Mulliken charges =   1.00000
 Mulliken charges with hydrogens summed into heavy atoms:
               1
     1  C    0.425504
     2  C   -0.485528
     3  C    0.155470
     4  C    0.230815
     5  C    0.202204
     6  C    0.201142
     7  N    0.169769
     8  N   -0.376172
     9  O    0.082101
    10  O    0.394695
 Electronic spatial extent (au):  <R**2>=           1557.4932
 Charge=              1.0000 electrons
 Dipole moment (field-independent basis, Debye):
    X=              3.8260    Y=             -1.0549    Z=              0.0000  Tot=              3.9688
 Quadrupole moment (field-independent basis, Debye-Ang):
   XX=             -7.3261   YY=            -44.5679   ZZ=            -58.5283
   XY=              4.5272   XZ=             -0.0000   YZ=              0.0000
 Traceless Quadrupole moment (field-independent basis, Debye-Ang):
   XX=             29.4813   YY=             -7.7605   ZZ=            -21.7209
   XY=              4.5272   XZ=             -0.0000   YZ=              0.0000
 Octapole moment (field-independent basis, Debye-Ang**2):
  XXX=             45.5916  YYY=             -0.8630  ZZZ=              0.0000  XYY=             12.8698
  XXY=            -21.1658  XXZ=              0.0005  XZZ=            -10.8162  YZZ=              0.3528
  YYZ=              0.0000  XYZ=              0.0001
 Hexadecapole moment (field-independent basis, Debye-Ang**3):
 XXXX=           -668.6492 YYYY=           -339.8160 ZZZZ=            -58.7172 XXXY=             78.8382
 XXXZ=              0.0000 YYYX=              2.9205 YYYZ=              0.0001 ZZZX=              0.0000
 ZZZY=             -0.0000 XXYY=           -246.8233 XXZZ=           -265.5130 YYZZ=            -82.0237
 XXYZ=             -0.0001 YYXZ=             -0.0000 ZZXY=             -0.5554
 N-N= 5.074831220573D+02 E-N=-2.149020054867D+03  KE= 4.875286802921D+02
 Calling FoFJK, ICntrl=      2527 FMM=F ISym2X=0 I1Cent= 0 IOpClX= 0 NMat=1 NMatS=1 NMatT=0.
 ***** Axes restored to original set *****
 -------------------------------------------------------------------
 Center     Atomic                   Forces (Hartrees/Bohr)
 Number     Number              X              Y              Z
 -------------------------------------------------------------------
      1        6           0.004062105    0.003132875    0.000000082
      2        6          -0.007645366   -0.001481585    0.000000027
      3        6           0.004431749   -0.002680027    0.000000048
      4        6          -0.003804501   -0.002882192    0.000000015
      5        6           0.004024976    0.000075125    0.000000013
      6        6          -0.003908163    0.002511764    0.000000010
      7        7          -0.001020616   -0.000019852    0.000000003
      8        7           0.001914141    0.000157752   -0.000000385
      9        8           0.005701418    0.011950168    0.000000115
     10        8          -0.005135298   -0.013434166    0.000000083
     11        1           0.003164103   -0.004849355    0.000000002
     12        1           0.003062401    0.004843806    0.000000023
     13        1          -0.002843056    0.004829163   -0.000000038
     14        1          -0.002678446   -0.004929390   -0.000000060
     15        1          -0.003034978   -0.005316752    0.000000020
     16        1          -0.003244915    0.005190538   -0.000000003
     17        1           0.006954446    0.002902128    0.000000045
 -------------------------------------------------------------------
 Cartesian Forces:  Max     0.013434166 RMS     0.004015238

 GradGradGradGradGradGradGradGradGradGradGradGradGradGradGradGradGradGrad
 Berny optimization.
 FormGI is forming the generalized inverse of G from B-inverse, IUseBI=4.
 GSVD:  received Info=                   1 from GESDD.
 Internal  Forces:  Max     0.013096367 RMS     0.003375732
 Search for a local minimum.
 Step number   1 out of a maximum of   86
 All quantities printed in internal units (Hartrees-Bohrs-Radians)
 Mixed Optimization -- RFO/linear search
 Second derivative matrix not updated -- first step.
 ITU=  0
     Eigenvalues ---    0.01646   0.01686   0.01801   0.01906   0.01976
     Eigenvalues ---    0.01985   0.02025   0.02118   0.02122   0.02124
     Eigenvalues ---    0.02248   0.02265   0.02530   0.02530   0.16000
     Eigenvalues ---    0.16000   0.16000   0.16000   0.16000   0.16000
     Eigenvalues ---    0.16000   0.22000   0.22948   0.24000   0.25000
     Eigenvalues ---    0.25000   0.25000   0.25000   0.35370   0.35374
     Eigenvalues ---    0.35525   0.35681   0.37957   0.39426   0.41111
     Eigenvalues ---    0.41190   0.45731   0.45735   0.48753   0.50325
     Eigenvalues ---    0.51331   0.51500   0.51721   0.57972   0.96697
 RFO step:  Lambda=-1.72295051D-03 EMin= 1.64638733D-02
 Linear search not attempted -- first point.
 Iteration  1 RMS(Cart)=  0.01132251 RMS(Int)=  0.00002442
 Iteration  2 RMS(Cart)=  0.00004056 RMS(Int)=  0.00000043
 Iteration  3 RMS(Cart)=  0.00000000 RMS(Int)=  0.00000043
 Variable       Old X    -DE/DX   Delta X   Delta X   Delta X     New X
                                 (Linear)    (Quad)   (Total)
    R1        2.69475   0.00207   0.00000   0.00490   0.00490   2.69965
    R2        2.58291   0.00826   0.00000   0.01595   0.01595   2.59887
    R3        2.04584   0.00579   0.00000   0.01614   0.01614   2.06198
    R4        2.69556   0.00186   0.00000   0.00440   0.00440   2.69996
    R5        2.58381   0.00950   0.00000   0.01839   0.01839   2.60220
    R6        2.58053   0.00826   0.00000   0.01588   0.01588   2.59640
    R7        2.04830   0.00573   0.00000   0.01604   0.01604   2.06434
    R8        2.70849   0.00287   0.00000   0.00713   0.00713   2.71562
    R9        2.05078   0.00560   0.00000   0.01577   0.01577   2.06655
   R10        2.70731   0.00286   0.00000   0.00709   0.00709   2.71441
   R11        2.52582   0.00730   0.00000   0.01256   0.01256   2.53838
   R12        2.05072   0.00561   0.00000   0.01578   0.01578   2.06650
   R13        1.91131   0.00612   0.00000   0.01333   0.01333   1.92464
   R14        1.91135   0.00612   0.00000   0.01334   0.01334   1.92469
   R15        2.29991   0.01310   0.00000   0.01352   0.01352   2.31343
   R16        2.59539   0.01016   0.00000   0.02013   0.02013   2.61552
   R17        1.85246   0.00744   0.00000   0.01445   0.01445   1.86691
    A1        2.08052   0.00004   0.00000   0.00006   0.00006   2.08058
    A2        2.10018  -0.00020   0.00000  -0.00112  -0.00112   2.09906
    A3        2.10249   0.00015   0.00000   0.00105   0.00106   2.10354
    A4        2.11190   0.00029   0.00000   0.00090   0.00090   2.11280
    A5        2.11664   0.00021   0.00000   0.00095   0.00095   2.11759
    A6        2.05464  -0.00050   0.00000  -0.00185  -0.00185   2.05279
    A7        2.08452  -0.00007   0.00000  -0.00046  -0.00046   2.08407
    A8        2.08599  -0.00023   0.00000  -0.00140  -0.00140   2.08458
    A9        2.11267   0.00030   0.00000   0.00186   0.00186   2.11453
   A10        2.10124   0.00014   0.00000   0.00072   0.00072   2.10196
   A11        2.09593  -0.00016   0.00000  -0.00093  -0.00094   2.09499
   A12        2.08602   0.00002   0.00000   0.00021   0.00021   2.08623
   A13        2.08352  -0.00038   0.00000  -0.00130  -0.00130   2.08222
   A14        2.09945   0.00016   0.00000   0.00052   0.00052   2.09997
   A15        2.10021   0.00022   0.00000   0.00078   0.00078   2.10099
   A16        2.10467  -0.00001   0.00000   0.00007   0.00007   2.10474
   A17        2.09389  -0.00004   0.00000  -0.00034  -0.00034   2.09355
   A18        2.08463   0.00006   0.00000   0.00027   0.00027   2.08490
   A19        2.12230  -0.00004   0.00000  -0.00023  -0.00023   2.12207
   A20        2.12181  -0.00006   0.00000  -0.00037  -0.00037   2.12144
   A21        2.03907   0.00010   0.00000   0.00061   0.00061   2.03967
   A22        2.21497  -0.00080   0.00000  -0.00317  -0.00317   2.21180
   A23        2.00567  -0.00285   0.00000  -0.01130  -0.01130   1.99437
   A24        2.06254   0.00364   0.00000   0.01447   0.01447   2.07701
   A25        1.81829  -0.00215   0.00000  -0.01332  -0.01332   1.80497
    D1       -0.00000   0.00000   0.00000   0.00000   0.00000   0.00000
    D2       -3.14159  -0.00000   0.00000  -0.00000  -0.00000  -3.14159
    D3       -3.14159  -0.00000   0.00000  -0.00000  -0.00000  -3.14159
    D4        0.00000  -0.00000   0.00000  -0.00000  -0.00000   0.00000
    D5        0.00000  -0.00000   0.00000  -0.00000  -0.00000   0.00000
    D6       -3.14159  -0.00000   0.00000  -0.00000  -0.00000  -3.14159
    D7       -3.14159  -0.00000   0.00000  -0.00000  -0.00000  -3.14159
    D8        0.00000  -0.00000   0.00000  -0.00000  -0.00000   0.00000
    D9       -0.00000  -0.00000   0.00000  -0.00000  -0.00000  -0.00000
   D10       -3.14159  -0.00000   0.00000  -0.00000  -0.00000   3.14159
   D11        3.14159   0.00000   0.00000   0.00000   0.00000   3.14159
   D12       -0.00000   0.00000   0.00000   0.00000   0.00000   0.00000
   D13       -3.14159   0.00000   0.00000   0.00000   0.00000  -3.14159
   D14        0.00000  -0.00000   0.00000  -0.00001  -0.00001  -0.00000
   D15        0.00000   0.00000   0.00000   0.00000   0.00000   0.00000
   D16       -3.14159  -0.00000   0.00000  -0.00001  -0.00001   3.14159
   D17        0.00000   0.00000   0.00000   0.00000   0.00000   0.00000
   D18       -3.14159   0.00000   0.00000   0.00000   0.00000  -3.14159
   D19        3.14159   0.00000   0.00000   0.00000   0.00000   3.14159
   D20       -0.00000   0.00000   0.00000   0.00000   0.00000  -0.00000
   D21        0.00000  -0.00000   0.00000  -0.00000  -0.00000   0.00000
   D22       -3.14159  -0.00000   0.00000  -0.00000  -0.00000  -3.14159
   D23       -3.14159  -0.00000   0.00000  -0.00000  -0.00000  -3.14159
   D24        0.00000  -0.00000   0.00000  -0.00000  -0.00000   0.00000
   D25       -0.00000   0.00000   0.00000   0.00000   0.00000  -0.00000
   D26        3.14159   0.00000   0.00000   0.00000   0.00000   3.14159
   D27        3.14159   0.00000   0.00000   0.00000   0.00000   3.14159
   D28       -0.00000   0.00000   0.00000   0.00000   0.00000  -0.00000
   D29        3.14159   0.00000   0.00000   0.00000   0.00000   3.14159
   D30        0.00000  -0.00000   0.00000  -0.00000  -0.00000   0.00000
   D31       -0.00000   0.00000   0.00000   0.00000   0.00000  -0.00000
   D32       -3.14159  -0.00000   0.00000  -0.00000  -0.00000  -3.14159
   D33        3.14159   0.00000   0.00000   0.00001   0.00001  -3.14159
   D34       -0.00000  -0.00000   0.00000  -0.00000  -0.00000  -0.00000
         Item               Value     Threshold  Converged?
 Maximum Force            0.013096     0.000450     NO 
 RMS     Force            0.003376     0.000300     NO 
 Maximum Displacement     0.032858     0.001800     NO 
 RMS     Displacement     0.011307     0.001200     NO 
 Predicted change in Energy=-8.647977D-04
 GradGradGradGradGradGradGradGradGradGradGradGradGradGradGradGradGradGrad

                          Input orientation:                          
 ---------------------------------------------------------------------
 Center     Atomic      Atomic             Coordinates (Angstroms)
 Number     Number       Type             X           Y           Z
 ---------------------------------------------------------------------
      1          6           0       -0.002975   -1.219170   -0.000000
      2          6           0        0.672800    0.039482   -0.000002
      3          6           0       -0.056945    1.267823   -0.000001
      4          6           0       -1.430546    1.236512   -0.000001
      5          6           0       -2.130042   -0.018797   -0.000000
      6          6           0       -1.378036   -1.242617    0.000001
      7          7           0       -3.473005   -0.046733   -0.000000
      8          7           0        2.047816    0.113893   -0.000003
      9          8           0        2.725810    1.133221    0.000000
     10          8           0        2.684046   -1.115281   -0.000001
     11          1           0        0.567168   -2.149519    0.000000
     12          1           0        0.486745    2.215317   -0.000002
     13          1           0       -1.999330    2.170526   -0.000001
     14          1           0       -1.907770   -2.199289    0.000003
     15          1           0       -3.988298   -0.925235   -0.000001
     16          1           0       -4.023857    0.809955   -0.000001
     17          1           0        3.642836   -0.877126    0.000001
 ---------------------------------------------------------------------
                    Distance matrix (angstroms):
                    1          2          3          4          5
     1  C    0.000000
     2  C    1.428593   0.000000
     3  C    2.487579   1.428758   0.000000
     4  C    2.840481   2.420113   1.373958   0.000000
     5  C    2.442398   2.803448   2.439902   1.437044   0.000000
     6  C    1.375261   2.418617   2.836828   2.479685   1.436401
     7  N    3.662747   4.146702   3.660263   2.412127   1.343254
     8  N    2.445976   1.377027   2.400328   3.655034   4.179964
     9  O    3.602778   2.326181   2.786009   4.157639   4.990636
    10  O    2.689028   2.319178   3.632109   4.739282   4.937380
    11  H    1.091151   2.191548   3.473866   3.931420   3.437283
    12  H    3.469226   2.183776   1.092403   2.152687   3.440761
    13  H    3.933888   3.417840   2.141899   1.093571   2.193222
    14  H    2.142166   3.416348   3.930193   3.468785   2.191791
    15  H    3.996148   4.759886   4.501671   3.348917   2.067546
    16  H    4.503870   4.759435   3.993249   2.628158   2.067212
    17  H    3.661821   3.108260   4.276585   5.496059   5.836338
                    6          7          8          9         10
     6  C    0.000000
     7  N    2.412268   0.000000
     8  N    3.684641   5.523157   0.000000
     9  O    4.741957   6.310119   1.224217   0.000000
    10  O    4.064077   6.249086   1.384073   2.248890   0.000000
    11  H    2.146226   4.554635   2.704691   3.928883   2.356018
    12  H    3.928704   4.560317   2.617810   2.486835   3.990115
    13  H    3.469230   2.662322   4.539728   4.837660   5.721061
    14  H    1.093544   2.661476   4.582300   5.707512   4.718034
    15  H    2.629487   1.018476   6.124905   7.022570   6.675050
    16  H    3.348645   1.018505   6.111441   6.757404   6.978717
    17  H    5.034157   7.164129   1.877820   2.209622   0.987925
                   11         12         13         14         15
    11  H    0.000000
    12  H    4.365577   0.000000
    13  H    5.024908   2.486478   0.000000
    14  H    2.475438   5.022195   4.370774   0.000000
    15  H    4.717111   5.467091   3.679638   2.439633   0.000000
    16  H    5.462233   4.724465   2.439234   3.678773   1.735554
    17  H    3.328471   4.418610   6.412661   5.705904   7.631286
                   16         17
    16  H    0.000000
    17  H    7.850122   0.000000
 Stoichiometry    C6H7N2O2(1+)
 Framework group  C1[X(C6H7N2O2)]
 Deg. of freedom    45
 Full point group                 C1      NOp   1
 Largest Abelian subgroup         C1      NOp   1
 Largest concise Abelian subgroup C1      NOp   1
                         Standard orientation:                         
 ---------------------------------------------------------------------
 Center     Atomic      Atomic             Coordinates (Angstroms)
 Number     Number       Type             X           Y           Z
 ---------------------------------------------------------------------
      1          6           0        0.005319   -1.219684   -0.000000
      2          6           0       -0.671100    0.038623    0.000001
      3          6           0        0.058017    1.267337    0.000001
      4          6           0        1.431633    1.236728   -0.000000
      5          6           0        2.131772   -0.018222   -0.000001
      6          6           0        1.380391   -1.242427   -0.000001
      7          7           0        3.474749   -0.045471   -0.000000
      8          7           0       -2.046154    0.112330    0.000003
      9          8           0       -2.724669    1.131311   -0.000001
     10          8           0       -2.681755   -1.117169   -0.000000
     11          1           0       -0.564348   -2.150324   -0.000001
     12          1           0       -0.486158    2.214553    0.000001
     13          1           0        1.999940    2.171034    0.000000
     14          1           0        1.910615   -2.198828   -0.000003
     15          1           0        3.990491   -0.923710    0.000000
     16          1           0        4.025162    0.811498    0.000000
     17          1           0       -3.640666   -0.879504   -0.000002
 ---------------------------------------------------------------------
 Rotational constants (GHZ):      3.7114290      0.8117631      0.6660785
 Standard basis: 6-31+G(d,p) (6D, 7F)
 There are   225 symmetry adapted cartesian basis functions of A   symmetry.
 There are   225 symmetry adapted basis functions of A   symmetry.
   225 basis functions,   369 primitive gaussians,   225 cartesian basis functions
    36 alpha electrons       36 beta electrons
       nuclear repulsion energy       505.1136738147 Hartrees.
 NAtoms=   17 NActive=   17 NUniq=   17 SFac= 1.00D+00 NAtFMM=   60 NAOKFM=F Big=F
 Integral buffers will be    131072 words long.
 Raffenetti 2 integral format.
 Two-electron integral symmetry is turned on.
 Nuclear repulsion after empirical dispersion term =      505.0962848714 Hartrees.
 One-electron integrals computed using PRISM.
 NBasis=   225 RedAO= T EigKep=  3.52D-06  NBF=   225
 NBsUse=   225 1.00D-06 EigRej= -1.00D+00 NBFU=   225
 Initial guess from the checkpoint file:  "pbe4NiAnyang.chk"
 B after Tr=    -0.000000   -0.000000   -0.000000
         Rot=    1.000000   -0.000000   -0.000000   -0.000221 Ang=  -0.03 deg.
 ExpMin= 4.38D-02 ExpMax= 5.48D+03 ExpMxC= 8.25D+02 IAcc=2 IRadAn=         4 AccDes= 0.00D+00
 Harris functional with IExCor= 1009 and IRadAn=       4 diagonalized for initial guess.
 HarFok:  IExCor= 1009 AccDes= 0.00D+00 IRadAn=         4 IDoV= 1 UseB2=F ITyADJ=14
 ICtDFT=  3500011 ScaDFX=  1.000000  1.000000  1.000000  1.000000
 FoFCou: FMM=F IPFlag=           0 FMFlag=      100000 FMFlg1=           0
         NFxFlg=           0 DoJE=T BraDBF=F KetDBF=T FulRan=T
         wScrn=  0.000000 ICntrl=     500 IOpCl=  0 I1Cent=   200000004 NGrid=           0
         NMat0=    1 NMatS0=      1 NMatT0=    0 NMatD0=    1 NMtDS0=    0 NMtDT0=    0
 Petite list used in FoFCou.
 Keep J ints in memory in canonical form, NReq=329175655.
 Requested convergence on RMS density matrix=1.00D-08 within 128 cycles.
 Requested convergence on MAX density matrix=1.00D-06.
 Requested convergence on             energy=1.00D-06.
 No special actions if energy rises.
 EnCoef did     2 forward-backward iterations
 SCF Done:  E(RPBE-PBE) =  -491.965571805     A.U. after   12 cycles
            NFock= 12  Conv=0.88D-08     -V/T= 2.0096
 Calling FoFJK, ICntrl=      2527 FMM=F ISym2X=0 I1Cent= 0 IOpClX= 0 NMat=1 NMatS=1 NMatT=0.
 ***** Axes restored to original set *****
 -------------------------------------------------------------------
 Center     Atomic                   Forces (Hartrees/Bohr)
 Number     Number              X              Y              Z
 -------------------------------------------------------------------
      1        6           0.000654806    0.000241739   -0.000000083
      2        6          -0.003086804   -0.000336294   -0.000000123
      3        6           0.000600418   -0.000176329   -0.000000093
      4        6          -0.000519954   -0.000473515    0.000000000
      5        6           0.001598564    0.000101986    0.000000013
      6        6          -0.000458700    0.000458903    0.000000013
      7        7          -0.000486470   -0.000016339   -0.000000016
      8        7          -0.001580940    0.003131442    0.000000836
      9        8           0.000697611   -0.000383409   -0.000000334
     10        8           0.001203608   -0.002809429   -0.000000213
     11        1          -0.000232422    0.000075573   -0.000000008
     12        1          -0.000148567   -0.000068697    0.000000003
     13        1           0.000184363   -0.000000296    0.000000011
     14        1           0.000213814    0.000006993   -0.000000012
     15        1           0.000173996   -0.000000784    0.000000017
     16        1           0.000174960    0.000005572    0.000000005
     17        1           0.001011717    0.000242885   -0.000000016
 -------------------------------------------------------------------
 Cartesian Forces:  Max     0.003131442 RMS     0.000861244

 GradGradGradGradGradGradGradGradGradGradGradGradGradGradGradGradGradGrad
 Berny optimization.
 Using GEDIIS/GDIIS optimizer.
 FormGI is forming the generalized inverse of G from B-inverse, IUseBI=4.
 GSVD:  received Info=                   1 from GESDD.
 Internal  Forces:  Max     0.003303829 RMS     0.000521418
 Search for a local minimum.
 Step number   2 out of a maximum of   86
 All quantities printed in internal units (Hartrees-Bohrs-Radians)
 Mixed Optimization -- En-DIIS/RFO-DIIS
 Update second derivatives using D2CorX and points    1    2
 DE= -8.73D-04 DEPred=-8.65D-04 R= 1.01D+00
 TightC=F SS=  1.41D+00  RLast= 6.21D-02 DXNew= 5.0454D-01 1.8632D-01
 Trust test= 1.01D+00 RLast= 6.21D-02 DXMaxT set to 3.00D-01
 ITU=  1  0
 Use linear search instead of GDIIS.
     Eigenvalues ---    0.01646   0.01686   0.01801   0.01906   0.01977
     Eigenvalues ---    0.01983   0.02025   0.02118   0.02123   0.02124
     Eigenvalues ---    0.02248   0.02265   0.02530   0.02530   0.15933
     Eigenvalues ---    0.16000   0.16000   0.16000   0.16000   0.16000
     Eigenvalues ---    0.16063   0.22001   0.22938   0.23898   0.24965
     Eigenvalues ---    0.25000   0.25000   0.25736   0.35369   0.35387
     Eigenvalues ---    0.35545   0.35766   0.37998   0.39431   0.41189
     Eigenvalues ---    0.41851   0.44132   0.45733   0.46899   0.48764
     Eigenvalues ---    0.51194   0.51418   0.53773   0.58276   0.97044
 RFO step:  Lambda=-5.27792504D-05 EMin= 1.64638733D-02
 Quartic linear search produced a step of  0.02329.
 Iteration  1 RMS(Cart)=  0.00194025 RMS(Int)=  0.00000272
 Iteration  2 RMS(Cart)=  0.00000471 RMS(Int)=  0.00000007
 Iteration  3 RMS(Cart)=  0.00000000 RMS(Int)=  0.00000007
 Variable       Old X    -DE/DX   Delta X   Delta X   Delta X     New X
                                 (Linear)    (Quad)   (Total)
    R1        2.69965  -0.00081   0.00011  -0.00195  -0.00183   2.69782
    R2        2.59887  -0.00044   0.00037  -0.00075  -0.00038   2.59848
    R3        2.06198  -0.00019   0.00038  -0.00040  -0.00003   2.06195
    R4        2.69996  -0.00070   0.00010  -0.00169  -0.00159   2.69837
    R5        2.60220   0.00134   0.00043   0.00280   0.00323   2.60544
    R6        2.59640  -0.00044   0.00037  -0.00074  -0.00037   2.59603
    R7        2.06434  -0.00013   0.00037  -0.00025   0.00012   2.06446
    R8        2.71562  -0.00076   0.00017  -0.00185  -0.00168   2.71394
    R9        2.06655  -0.00010   0.00037  -0.00015   0.00022   2.06677
   R10        2.71441  -0.00064   0.00017  -0.00156  -0.00140   2.71301
   R11        2.53838   0.00014   0.00029   0.00034   0.00063   2.53901
   R12        2.06650  -0.00011   0.00037  -0.00019   0.00018   2.06668
   R13        1.92464  -0.00009   0.00031  -0.00010   0.00021   1.92485
   R14        1.92469  -0.00009   0.00031  -0.00009   0.00022   1.92492
   R15        2.31343   0.00006   0.00031   0.00017   0.00049   2.31392
   R16        2.61552   0.00330   0.00047   0.00688   0.00734   2.62286
   R17        1.86691   0.00104   0.00034   0.00218   0.00252   1.86943
    A1        2.08058  -0.00038   0.00000  -0.00166  -0.00166   2.07892
    A2        2.09906   0.00036  -0.00003   0.00188   0.00186   2.10092
    A3        2.10354   0.00002   0.00002  -0.00022  -0.00020   2.10334
    A4        2.11280   0.00063   0.00002   0.00267   0.00270   2.11549
    A5        2.11759  -0.00010   0.00002  -0.00045  -0.00043   2.11716
    A6        2.05279  -0.00053  -0.00004  -0.00222  -0.00227   2.05053
    A7        2.08407  -0.00029  -0.00001  -0.00125  -0.00126   2.08281
    A8        2.08458   0.00024  -0.00003   0.00122   0.00118   2.08577
    A9        2.11453   0.00005   0.00004   0.00003   0.00008   2.11461
   A10        2.10196  -0.00026   0.00002  -0.00108  -0.00106   2.10090
   A11        2.09499  -0.00004  -0.00002  -0.00052  -0.00055   2.09445
   A12        2.08623   0.00029   0.00000   0.00160   0.00161   2.08784
   A13        2.08222   0.00046  -0.00003   0.00198   0.00195   2.08417
   A14        2.09997  -0.00024   0.00001  -0.00103  -0.00102   2.09896
   A15        2.10099  -0.00022   0.00002  -0.00096  -0.00094   2.10005
   A16        2.10474  -0.00017   0.00000  -0.00067  -0.00067   2.10407
   A17        2.09355  -0.00010  -0.00001  -0.00086  -0.00087   2.09268
   A18        2.08490   0.00027   0.00001   0.00153   0.00154   2.08644
   A19        2.12207  -0.00009  -0.00001  -0.00058  -0.00059   2.12148
   A20        2.12144  -0.00010  -0.00001  -0.00065  -0.00066   2.12077
   A21        2.03967   0.00019   0.00001   0.00124   0.00125   2.04093
   A22        2.21180   0.00055  -0.00007   0.00224   0.00217   2.21397
   A23        1.99437   0.00073  -0.00026   0.00291   0.00265   1.99701
   A24        2.07701  -0.00129   0.00034  -0.00515  -0.00481   2.07220
   A25        1.80497   0.00002  -0.00031   0.00003  -0.00028   1.80469
    D1        0.00000  -0.00000   0.00000  -0.00000  -0.00000  -0.00000
    D2       -3.14159  -0.00000  -0.00000  -0.00000  -0.00000  -3.14159
    D3       -3.14159  -0.00000  -0.00000  -0.00000  -0.00000   3.14159
    D4        0.00000   0.00000  -0.00000   0.00000   0.00000   0.00000
    D5        0.00000   0.00000  -0.00000   0.00000   0.00000   0.00000
    D6       -3.14159   0.00000  -0.00000   0.00000   0.00000  -3.14159
    D7       -3.14159  -0.00000  -0.00000  -0.00000  -0.00000  -3.14159
    D8        0.00000  -0.00000  -0.00000  -0.00000  -0.00000   0.00000
    D9       -0.00000   0.00000  -0.00000   0.00000   0.00000   0.00000
   D10        3.14159   0.00000  -0.00000   0.00000   0.00000  -3.14159
   D11        3.14159   0.00000   0.00000   0.00000   0.00000   3.14159
   D12       -0.00000  -0.00000   0.00000  -0.00000  -0.00000  -0.00000
   D13       -3.14159  -0.00000   0.00000  -0.00001  -0.00001   3.14159
   D14       -0.00000   0.00000  -0.00000   0.00001   0.00001   0.00001
   D15        0.00000  -0.00000   0.00000  -0.00001  -0.00001  -0.00001
   D16        3.14159   0.00000  -0.00000   0.00001   0.00001  -3.14158
   D17        0.00000  -0.00000   0.00000  -0.00000  -0.00000  -0.00000
   D18       -3.14159  -0.00000   0.00000  -0.00000  -0.00000   3.14159
   D19        3.14159   0.00000   0.00000   0.00000   0.00000  -3.14159
   D20       -0.00000  -0.00000   0.00000   0.00000   0.00000  -0.00000
   D21        0.00000  -0.00000  -0.00000  -0.00000  -0.00000   0.00000
   D22       -3.14159  -0.00000  -0.00000  -0.00000  -0.00000  -3.14159
   D23       -3.14159  -0.00000  -0.00000  -0.00000  -0.00000  -3.14159
   D24        0.00000  -0.00000  -0.00000  -0.00000  -0.00000   0.00000
   D25       -0.00000   0.00000   0.00000   0.00000   0.00000  -0.00000
   D26        3.14159   0.00000   0.00000   0.00000   0.00000   3.14159
   D27        3.14159   0.00000   0.00000   0.00000   0.00000   3.14159
   D28       -0.00000   0.00000   0.00000   0.00000   0.00000  -0.00000
   D29        3.14159   0.00000   0.00000   0.00000   0.00000   3.14159
   D30        0.00000  -0.00000  -0.00000  -0.00000  -0.00000   0.00000
   D31       -0.00000   0.00000   0.00000   0.00000   0.00000  -0.00000
   D32       -3.14159  -0.00000  -0.00000  -0.00000  -0.00000  -3.14159
   D33       -3.14159  -0.00000   0.00000  -0.00001  -0.00001   3.14159
   D34       -0.00000   0.00000  -0.00000   0.00001   0.00001   0.00001
         Item               Value     Threshold  Converged?
 Maximum Force            0.003304     0.000450     NO 
 RMS     Force            0.000521     0.000300     NO 
 Maximum Displacement     0.009063     0.001800     NO 
 RMS     Displacement     0.001943     0.001200     NO 
 Predicted change in Energy=-2.681340D-05
 GradGradGradGradGradGradGradGradGradGradGradGradGradGradGradGradGradGrad

                          Input orientation:                          
 ---------------------------------------------------------------------
 Center     Atomic      Atomic             Coordinates (Angstroms)
 Number     Number       Type             X           Y           Z
 ---------------------------------------------------------------------
      1          6           0       -0.004279   -1.219921    0.000003
      2          6           0        0.669591    0.038653    0.000003
      3          6           0       -0.057826    1.267396    0.000000
      4          6           0       -1.431239    1.236483   -0.000001
      5          6           0       -2.129328   -0.018590   -0.000001
      6          6           0       -1.379150   -1.242665    0.000001
      7          7           0       -3.472633   -0.046211   -0.000002
      8          7           0        2.046260    0.114148    0.000004
      9          8           0        2.725872    1.132708   -0.000002
     10          8           0        2.688424   -1.116323   -0.000004
     11          1           0        0.565197   -2.150660    0.000004
     12          1           0        0.486238    2.214749    0.000000
     13          1           0       -1.999305    2.171069   -0.000002
     14          1           0       -1.908584   -2.199609    0.000002
     15          1           0       -3.987676   -0.924991   -0.000002
     16          1           0       -4.022775    0.811073   -0.000004
     17          1           0        3.647632   -0.874345   -0.000008
 ---------------------------------------------------------------------
                    Distance matrix (angstroms):
                    1          2          3          4          5
     1  C    0.000000
     2  C    1.427623   0.000000
     3  C    2.487893   1.427917   0.000000
     4  C    2.840798   2.418323   1.373762   0.000000
     5  C    2.441112   2.799504   2.438213   1.436154   0.000000
     6  C    1.375059   2.416426   2.836601   2.479695   1.435662
     7  N    3.661567   4.143093   3.658753   2.410932   1.343589
     8  N    2.446314   1.378738   2.399409   3.654127   4.177698
     9  O    3.603968   2.329216   2.786954   4.158406   4.989835
    10  O    2.694695   2.325866   3.636482   4.744188   4.941229
    11  H    1.091137   2.191800   3.474373   3.931730   3.436013
    12  H    3.469519   2.183807   1.092466   2.152609   3.439330
    13  H    3.934328   3.416168   2.141487   1.093686   2.193516
    14  H    2.141534   3.414206   3.930068   3.469091   2.192161
    15  H    3.994300   4.755917   4.500032   3.347736   2.067612
    16  H    4.502581   4.755515   3.991122   2.626220   2.067240
    17  H    3.668225   3.114850   4.279892   5.500048   5.839998
                    6          7          8          9         10
     6  C    0.000000
     7  N    2.411260   0.000000
     8  N    3.684342   5.521223   0.000000
     9  O    4.742742   6.309621   1.224474   0.000000
    10  O    4.069535   6.253300   1.387959   2.249343   0.000000
    11  H    2.145912   4.553326   2.706086   3.930525   2.361767
    12  H    3.928534   4.559013   2.616523   2.487322   3.993201
    13  H    3.469607   2.662147   4.538450   4.837922   5.725535
    14  H    1.093638   2.661461   4.581950   5.708110   4.722922
    15  H    2.627798   1.018589   6.122760   7.021812   6.678841
    16  H    3.347624   1.018622   6.108919   6.756306   6.982481
    17  H    5.040257   7.168262   1.881890   2.208598   0.989259
                   11         12         13         14         15
    11  H    0.000000
    12  H    4.366123   0.000000
    13  H    5.025337   2.485927   0.000000
    14  H    2.474265   5.022124   4.371620   0.000000
    15  H    4.714967   5.465700   3.679566   2.438703   0.000000
    16  H    5.460892   4.722447   2.438036   3.678860   1.736419
    17  H    3.336223   4.420058   6.415797   5.712080   7.635475
                   16         17
    16  H    0.000000
    17  H    7.853392   0.000000
 Stoichiometry    C6H7N2O2(1+)
 Framework group  C1[X(C6H7N2O2)]
 Deg. of freedom    45
 Full point group                 C1      NOp   1
 Largest Abelian subgroup         C1      NOp   1
 Largest concise Abelian subgroup C1      NOp   1
                         Standard orientation:                         
 ---------------------------------------------------------------------
 Center     Atomic      Atomic             Coordinates (Angstroms)
 Number     Number       Type             X           Y           Z
 ---------------------------------------------------------------------
      1          6           0        0.006140   -1.220222   -0.000003
      2          6           0       -0.667995    0.038210   -0.000003
      3          6           0        0.059163    1.267107   -0.000001
      4          6           0        1.432584    1.236482    0.000001
      5          6           0        2.130936   -0.018445    0.000001
      6          6           0        1.381015   -1.242677   -0.000002
      7          7           0        3.474247   -0.045783    0.000002
      8          7           0       -2.044680    0.113416   -0.000004
      9          8           0       -2.724506    1.131834    0.000002
     10          8           0       -2.686585   -1.117190    0.000004
     11          1           0       -0.563141   -2.151081   -0.000005
     12          1           0       -0.485100    2.214344   -0.000000
     13          1           0        2.000453    2.171187    0.000002
     14          1           0        1.910650   -2.199510   -0.000002
     15          1           0        3.989474   -0.924455    0.000002
     16          1           0        4.024208    0.811616    0.000004
     17          1           0       -3.645844   -0.875414    0.000008
 ---------------------------------------------------------------------
 Rotational constants (GHZ):      3.7105392      0.8114348      0.6658289
 Standard basis: 6-31+G(d,p) (6D, 7F)
 There are   225 symmetry adapted cartesian basis functions of A   symmetry.
 There are   225 symmetry adapted basis functions of A   symmetry.
   225 basis functions,   369 primitive gaussians,   225 cartesian basis functions
    36 alpha electrons       36 beta electrons
       nuclear repulsion energy       504.9956007644 Hartrees.
 NAtoms=   17 NActive=   17 NUniq=   17 SFac= 1.00D+00 NAtFMM=   60 NAOKFM=F Big=F
 Integral buffers will be    131072 words long.
 Raffenetti 2 integral format.
 Two-electron integral symmetry is turned on.
 Nuclear repulsion after empirical dispersion term =      504.9782135228 Hartrees.
 One-electron integrals computed using PRISM.
 NBasis=   225 RedAO= T EigKep=  3.51D-06  NBF=   225
 NBsUse=   225 1.00D-06 EigRej= -1.00D+00 NBFU=   225
 Initial guess from the checkpoint file:  "pbe4NiAnyang.chk"
 B after Tr=     0.000000    0.000000    0.000000
         Rot=    1.000000   -0.000000    0.000000    0.000138 Ang=  -0.02 deg.
 Keep J ints in memory in canonical form, NReq=329175655.
 Requested convergence on RMS density matrix=1.00D-08 within 128 cycles.
 Requested convergence on MAX density matrix=1.00D-06.
 Requested convergence on             energy=1.00D-06.
 No special actions if energy rises.
 EnCoef did     2 forward-backward iterations
 SCF Done:  E(RPBE-PBE) =  -491.965602319     A.U. after   11 cycles
            NFock= 11  Conv=0.42D-08     -V/T= 2.0096
 Calling FoFJK, ICntrl=      2527 FMM=F ISym2X=0 I1Cent= 0 IOpClX= 0 NMat=1 NMatS=1 NMatT=0.
 ***** Axes restored to original set *****
 -------------------------------------------------------------------
 Center     Atomic                   Forces (Hartrees/Bohr)
 Number     Number              X              Y              Z
 -------------------------------------------------------------------
      1        6           0.000483447   -0.000093194    0.000000164
      2        6          -0.000381876   -0.000293192    0.000000215
      3        6           0.000363423    0.000204178    0.000000198
      4        6          -0.000241565    0.000003096   -0.000000016
      5        6           0.000350224    0.000002348    0.000000032
      6        6          -0.000247134    0.000011116   -0.000000020
      7        7          -0.000375762   -0.000021917   -0.000000012
      8        7           0.000123986    0.002010658   -0.000001547
      9        8          -0.000441243   -0.000583705    0.000000588
     10        8           0.000287692   -0.001477801    0.000000408
     11        1          -0.000070564    0.000153299    0.000000007
     12        1          -0.000104840   -0.000163378   -0.000000006
     13        1           0.000117246   -0.000146413   -0.000000039
     14        1           0.000113531    0.000146857   -0.000000038
     15        1           0.000136517    0.000158012    0.000000008
     16        1           0.000142844   -0.000160215    0.000000003
     17        1          -0.000255926    0.000250249    0.000000057
 -------------------------------------------------------------------
 Cartesian Forces:  Max     0.002010658 RMS     0.000402094

 GradGradGradGradGradGradGradGradGradGradGradGradGradGradGradGradGradGrad
 Berny optimization.
 Using GEDIIS/GDIIS optimizer.
 FormGI is forming the generalized inverse of G from B-inverse, IUseBI=4.
 GSVD:  received Info=                   1 from GESDD.
 Internal  Forces:  Max     0.001109153 RMS     0.000208230
 Search for a local minimum.
 Step number   3 out of a maximum of   86
 All quantities printed in internal units (Hartrees-Bohrs-Radians)
 Mixed Optimization -- En-DIIS/RFO-DIIS
 Swapping is turned off.
 Update second derivatives using D2CorX and points    1    2    3
 DE= -3.05D-05 DEPred=-2.68D-05 R= 1.14D+00
 TightC=F SS=  1.41D+00  RLast= 1.24D-02 DXNew= 5.0454D-01 3.7345D-02
 Trust test= 1.14D+00 RLast= 1.24D-02 DXMaxT set to 3.00D-01
 ITU=  1  1  0
     Eigenvalues ---    0.01646   0.01686   0.01801   0.01905   0.01976
     Eigenvalues ---    0.01984   0.02024   0.02118   0.02122   0.02124
     Eigenvalues ---    0.02248   0.02265   0.02530   0.02530   0.14248
     Eigenvalues ---    0.16000   0.16000   0.16000   0.16000   0.16001
     Eigenvalues ---    0.16305   0.20971   0.22009   0.23110   0.24798
     Eigenvalues ---    0.25000   0.25015   0.29653   0.35372   0.35457
     Eigenvalues ---    0.35614   0.36273   0.36558   0.38468   0.39498
     Eigenvalues ---    0.41231   0.42758   0.45733   0.46216   0.48764
     Eigenvalues ---    0.51389   0.52928   0.55467   0.58325   0.99745
 En-DIIS/RFO-DIIS IScMMF=        0 using points:     3    2
 RFO step:  Lambda=-5.97295153D-06.
 DidBck=F Rises=F RFO-DIIS coefs:    1.15841   -0.15841
 Iteration  1 RMS(Cart)=  0.00138820 RMS(Int)=  0.00000123
 Iteration  2 RMS(Cart)=  0.00000207 RMS(Int)=  0.00000008
 Iteration  3 RMS(Cart)=  0.00000000 RMS(Int)=  0.00000008
 Variable       Old X    -DE/DX   Delta X   Delta X   Delta X     New X
                                 (Linear)    (Quad)   (Total)
    R1        2.69782  -0.00032  -0.00029  -0.00093  -0.00122   2.69660
    R2        2.59848   0.00000  -0.00006   0.00015   0.00009   2.59857
    R3        2.06195  -0.00017  -0.00000  -0.00038  -0.00039   2.06156
    R4        2.69837  -0.00017  -0.00025  -0.00049  -0.00075   2.69763
    R5        2.60544  -0.00028   0.00051  -0.00030   0.00021   2.60565
    R6        2.59603  -0.00000  -0.00006   0.00015   0.00009   2.59612
    R7        2.06446  -0.00019   0.00002  -0.00046  -0.00044   2.06402
    R8        2.71394  -0.00011  -0.00027  -0.00031  -0.00058   2.71336
    R9        2.06677  -0.00019   0.00003  -0.00044  -0.00041   2.06636
   R10        2.71301  -0.00013  -0.00022  -0.00035  -0.00057   2.71244
   R11        2.53901   0.00010   0.00010   0.00035   0.00045   2.53946
   R12        2.06668  -0.00018   0.00003  -0.00043  -0.00041   2.06627
   R13        1.92485  -0.00021   0.00003  -0.00038  -0.00035   1.92450
   R14        1.92492  -0.00021   0.00004  -0.00039  -0.00035   1.92457
   R15        2.31392  -0.00073   0.00008  -0.00072  -0.00064   2.31328
   R16        2.62286   0.00111   0.00116   0.00306   0.00422   2.62708
   R17        1.86943  -0.00019   0.00040  -0.00018   0.00022   1.86965
    A1        2.07892  -0.00015  -0.00026  -0.00084  -0.00110   2.07782
    A2        2.10092   0.00006   0.00029   0.00032   0.00062   2.10154
    A3        2.10334   0.00009  -0.00003   0.00052   0.00049   2.10383
    A4        2.11549   0.00029   0.00043   0.00148   0.00191   2.11740
    A5        2.11716  -0.00027  -0.00007  -0.00128  -0.00134   2.11582
    A6        2.05053  -0.00002  -0.00036  -0.00021  -0.00057   2.04996
    A7        2.08281  -0.00016  -0.00020  -0.00087  -0.00107   2.08174
    A8        2.08577   0.00009   0.00019   0.00049   0.00068   2.08645
    A9        2.11461   0.00007   0.00001   0.00038   0.00039   2.11500
   A10        2.10090  -0.00004  -0.00017  -0.00019  -0.00036   2.10055
   A11        2.09445  -0.00001  -0.00009  -0.00016  -0.00025   2.09420
   A12        2.08784   0.00005   0.00025   0.00035   0.00060   2.08844
   A13        2.08417   0.00009   0.00031   0.00052   0.00083   2.08501
   A14        2.09896  -0.00003  -0.00016  -0.00021  -0.00037   2.09859
   A15        2.10005  -0.00006  -0.00015  -0.00032  -0.00046   2.09959
   A16        2.10407  -0.00002  -0.00011  -0.00011  -0.00022   2.10385
   A17        2.09268  -0.00001  -0.00014  -0.00019  -0.00032   2.09235
   A18        2.08644   0.00004   0.00024   0.00030   0.00054   2.08698
   A19        2.12148  -0.00002  -0.00009  -0.00018  -0.00028   2.12121
   A20        2.12077  -0.00002  -0.00011  -0.00021  -0.00031   2.12046
   A21        2.04093   0.00005   0.00020   0.00039   0.00059   2.04152
   A22        2.21397   0.00023   0.00034   0.00111   0.00145   2.21542
   A23        1.99701  -0.00055   0.00042  -0.00254  -0.00212   1.99489
   A24        2.07220   0.00032  -0.00076   0.00143   0.00067   2.07287
   A25        1.80469  -0.00056  -0.00004  -0.00422  -0.00426   1.80043
    D1       -0.00000   0.00000  -0.00000   0.00000   0.00000   0.00000
    D2       -3.14159   0.00000  -0.00000   0.00000   0.00000  -3.14159
    D3        3.14159   0.00000  -0.00000   0.00000   0.00000  -3.14159
    D4        0.00000  -0.00000   0.00000  -0.00000  -0.00000  -0.00000
    D5        0.00000  -0.00000   0.00000  -0.00000  -0.00000  -0.00000
    D6       -3.14159  -0.00000   0.00000  -0.00000  -0.00000   3.14159
    D7        3.14159   0.00000  -0.00000   0.00000   0.00000   3.14159
    D8        0.00000  -0.00000  -0.00000  -0.00000  -0.00000  -0.00000
    D9        0.00000  -0.00000   0.00000  -0.00000  -0.00000  -0.00000
   D10       -3.14159  -0.00000   0.00000  -0.00000  -0.00000   3.14159
   D11        3.14159  -0.00000   0.00000  -0.00000  -0.00000   3.14159
   D12       -0.00000   0.00000  -0.00000   0.00000   0.00000   0.00000
   D13        3.14159   0.00000  -0.00000   0.00002   0.00002  -3.14158
   D14        0.00001  -0.00000   0.00000  -0.00002  -0.00002  -0.00001
   D15       -0.00001   0.00000  -0.00000   0.00002   0.00002   0.00001
   D16       -3.14158  -0.00000   0.00000  -0.00003  -0.00002   3.14158
   D17       -0.00000   0.00000  -0.00000   0.00000   0.00000   0.00000
   D18        3.14159   0.00000  -0.00000   0.00000   0.00000  -3.14159
   D19       -3.14159  -0.00000   0.00000  -0.00000  -0.00000   3.14159
   D20       -0.00000   0.00000   0.00000   0.00000   0.00000   0.00000
   D21        0.00000  -0.00000  -0.00000  -0.00000  -0.00000   0.00000
   D22       -3.14159   0.00000  -0.00000   0.00000  -0.00000  -3.14159
   D23       -3.14159  -0.00000  -0.00000  -0.00000  -0.00000   3.14159
   D24        0.00000  -0.00000  -0.00000  -0.00000  -0.00000  -0.00000
   D25       -0.00000   0.00000   0.00000  -0.00000   0.00000  -0.00000
   D26        3.14159   0.00000   0.00000   0.00000   0.00000  -3.14159
   D27        3.14159  -0.00000   0.00000  -0.00000   0.00000   3.14159
   D28       -0.00000   0.00000   0.00000   0.00000   0.00000   0.00000
   D29        3.14159   0.00000   0.00000   0.00000   0.00000   3.14159
   D30        0.00000  -0.00000  -0.00000  -0.00000  -0.00000   0.00000
   D31       -0.00000   0.00000   0.00000   0.00000   0.00000  -0.00000
   D32       -3.14159  -0.00000  -0.00000  -0.00000  -0.00000  -3.14159
   D33        3.14159   0.00000  -0.00000   0.00002   0.00002  -3.14158
   D34        0.00001  -0.00000   0.00000  -0.00002  -0.00002  -0.00001
         Item               Value     Threshold  Converged?
 Maximum Force            0.001109     0.000450     NO 
 RMS     Force            0.000208     0.000300     YES
 Maximum Displacement     0.005766     0.001800     NO 
 RMS     Displacement     0.001390     0.001200     NO 
 Predicted change in Energy=-5.983542D-06
 GradGradGradGradGradGradGradGradGradGradGradGradGradGradGradGradGradGrad

                          Input orientation:                          
 ---------------------------------------------------------------------
 Center     Atomic      Atomic             Coordinates (Angstroms)
 Number     Number       Type             X           Y           Z
 ---------------------------------------------------------------------
      1          6           0       -0.003490   -1.219403   -0.000005
      2          6           0        0.668488    0.039450   -0.000008
      3          6           0       -0.057929    1.268327   -0.000004
      4          6           0       -1.431377    1.236841   -0.000001
      5          6           0       -2.128348   -0.018502    0.000000
      6          6           0       -1.378404   -1.242365   -0.000002
      7          7           0       -3.471877   -0.046666    0.000003
      8          7           0        2.045276    0.114839   -0.000011
      9          8           0        2.726261    1.132072    0.000002
     10          8           0        2.685758   -1.119024    0.000005
     11          1           0        0.566478   -2.149602   -0.000006
     12          1           0        0.485991    2.215490   -0.000006
     13          1           0       -1.999490    2.171147   -0.000000
     14          1           0       -1.907275   -2.199376   -0.000001
     15          1           0       -3.986232   -0.925635    0.000004
     16          1           0       -4.021993    0.810413    0.000004
     17          1           0        3.644580   -0.875043    0.000015
 ---------------------------------------------------------------------
                    Distance matrix (angstroms):
                    1          2          3          4          5
     1  C    0.000000
     2  C    1.426978   0.000000
     3  C    2.488326   1.427522   0.000000
     4  C    2.841126   2.417267   1.373809   0.000000
     5  C    2.440735   2.797436   2.437737   1.435846   0.000000
     6  C    1.375106   2.415123   2.836763   2.479772   1.435359
     7  N    3.661287   4.141261   3.658449   2.410608   1.343825
     8  N    2.444922   1.378850   2.398751   3.653218   4.175753
     9  O    3.602912   2.329861   2.787522   4.158958   4.989093
    10  O    2.691121   2.326250   3.636931   4.743511   4.938296
    11  H    1.090932   2.191427   3.474495   3.931847   3.435647
    12  H    3.469594   2.183680   1.092231   2.152685   3.438821
    13  H    3.934444   3.415002   2.141201   1.093472   2.193437
    14  H    2.141201   3.412755   3.930018   3.469015   2.192050
    15  H    3.993561   4.753715   4.499448   3.347176   2.067516
    16  H    4.502058   4.753420   3.990425   2.625478   2.067122
    17  H    3.664287   3.113426   4.278155   5.497763   5.836126
                    6          7          8          9         10
     6  C    0.000000
     7  N    2.410876   0.000000
     8  N    3.682878   5.519517   0.000000
     9  O    4.741964   6.309227   1.224134   0.000000
    10  O    4.066033   6.250314   1.390192   2.251460   0.000000
    11  H    2.146077   4.553092   2.704539   3.928618   2.356573
    12  H    3.928451   4.558736   2.616125   2.488495   3.994742
    13  H    3.469555   2.662071   4.537459   4.838636   5.725100
    14  H    1.093423   2.661229   4.580201   5.706855   4.718380
    15  H    2.626991   1.018404   6.120594   7.020806   6.674792
    16  H    3.347008   1.018436   6.107011   6.755916   6.979732
    17  H    5.036397   7.164508   1.880861   2.207220   0.989377
                   11         12         13         14         15
    11  H    0.000000
    12  H    4.365834   0.000000
    13  H    5.025243   2.485876   0.000000
    14  H    2.474254   5.021828   4.371495   0.000000
    15  H    4.714368   5.465112   3.679294   2.438130   0.000000
    16  H    5.460381   4.721881   2.437646   3.678432   1.736416
    17  H    3.331548   4.419059   6.413642   5.707622   7.630980
                   16         17
    16  H    0.000000
    17  H    7.849657   0.000000
 Stoichiometry    C6H7N2O2(1+)
 Framework group  C1[X(C6H7N2O2)]
 Deg. of freedom    45
 Full point group                 C1      NOp   1
 Largest Abelian subgroup         C1      NOp   1
 Largest concise Abelian subgroup C1      NOp   1
                         Standard orientation:                         
 ---------------------------------------------------------------------
 Center     Atomic      Atomic             Coordinates (Angstroms)
 Number     Number       Type             X           Y           Z
 ---------------------------------------------------------------------
      1          6           0        0.004989   -1.219609    0.000003
[...]
 ! D9    D(1,2,3,4)              0.0002         -DE/DX =    0.0                 !
 ! D10   D(1,2,3,12)          -179.9999         -DE/DX =    0.0                 !
 ! D11   D(8,2,3,4)           -180.0            -DE/DX =    0.0                 !
 ! D12   D(8,2,3,12)            -0.0001         -DE/DX =    0.0                 !
 ! D13   D(1,2,8,9)           -180.0013         -DE/DX =    0.0                 !
 ! D14   D(1,2,8,10)             0.0011         -DE/DX =    0.0                 !
 ! D15   D(3,2,8,9)             -0.0011         -DE/DX =    0.0                 !
 ! D16   D(3,2,8,10)           180.0013         -DE/DX =    0.0                 !
 ! D17   D(2,3,4,5)             -0.0001         -DE/DX =    0.0                 !
 ! D18   D(2,3,4,13)           179.9999         -DE/DX =    0.0                 !
 ! D19   D(12,3,4,5)           180.0            -DE/DX =    0.0                 !
 ! D20   D(12,3,4,13)            0.0            -DE/DX =    0.0                 !
 ! D21   D(3,4,5,6)              0.0            -DE/DX =    0.0                 !
 ! D22   D(3,4,5,7)            180.0            -DE/DX =    0.0                 !
 ! D23   D(13,4,5,6)           180.0            -DE/DX =    0.0                 !
 ! D24   D(13,4,5,7)             0.0            -DE/DX =    0.0                 !
 ! D25   D(4,5,6,1)              0.0            -DE/DX =    0.0                 !
 ! D26   D(4,5,6,14)           180.0            -DE/DX =    0.0                 !
 ! D27   D(7,5,6,1)            180.0            -DE/DX =    0.0                 !
 ! D28   D(7,5,6,14)             0.0            -DE/DX =    0.0                 !
 ! D29   D(4,5,7,15)          -180.0            -DE/DX =    0.0                 !
 ! D30   D(4,5,7,16)             0.0            -DE/DX =    0.0                 !
 ! D31   D(6,5,7,15)             0.0            -DE/DX =    0.0                 !
 ! D32   D(6,5,7,16)           180.0            -DE/DX =    0.0                 !
 ! D33   D(2,8,10,17)         -180.0013         -DE/DX =    0.0                 !
 ! D34   D(9,8,10,17)            0.0009         -DE/DX =    0.0                 !
 --------------------------------------------------------------------------------
 GradGradGradGradGradGradGradGradGradGradGradGradGradGradGradGradGradGrad

 1\1\ WCSS.PL-BEM-QINLAB\Freq\RPBEPBE\6-31+G(d,p)\C6H7N2O2(1+)\PHZD\20-
 Jun-2024\0\\#N Geom=AllCheck Guess=TCheck SCRF=Check GenChk RPBEPBE/6-
 31+G(d,p) Freq\\[No Title]\\1,1\C,-0.0035045733,-1.2194307022,0.000007
 2639\C,0.6686485307,0.0394729899,0.0000096009\C,-0.0579470111,1.268370
 4096,0.0000030231\C,-1.4314685731,1.2368633533,-0.0000012825\C,-2.1285
 276691,-0.0184837888,-0.0000013177\C,-1.378510536,-1.242329961,0.00000
 28367\N,-3.4720824863,-0.0466582505,-0.0000051851\N,2.0453022628,0.115
 1252865,0.0000142978\O,2.7261117017,1.1319795893,-0.0000053882\O,2.686
 5425616,-1.1190905991,-0.0000082498\H,0.5663737534,-2.1495355424,0.000
 0104894\H,0.485923459,2.2154575597,0.0000034697\H,-1.9996429265,2.1710
 342411,-0.0000042042\H,-1.9074881019,-2.199190244,0.0000027875\H,-3.98
 63787052,-0.9255669781,-0.0000053047\H,-4.0221694605,0.8103438126,-0.0
 000082195\H,3.6452367739,-0.8753991759,-0.000022616\\Version=ES64L-G09
 RevE.01\State=1-A\HF=-491.9656093\RMSD=4.945e-09\RMSF=8.792e-05\ZeroPo
 int=0.1287946\Thermal=0.137522\Dipole=-1.5134843,-0.4006378,-0.0000078
 \DipoleDeriv=0.6239577,0.0502655,0.0000008,0.3432938,0.0489919,0.00000
 02,0.0000015,0.0000012,-0.0202698,-1.3116632,-0.0648327,0.0000026,0.02
 39697,-0.0558343,-0.0000002,0.0000106,-0.0000021,0.0757893,0.621823,0.
 0040416,0.000001,-0.3394295,0.0339847,-0.0000004,0.0000011,0.0000001,-
 0.0322091,-0.5845236,-0.1342706,-0.0000001,-0.5956752,-0.0629149,-0.00
 00011,-0.000003,-0.0000005,-0.1249918,1.8754825,0.0412554,0.000003,0.0
 318647,0.3244213,-0.0000002,0.0000049,0.0000002,0.2109534,-0.6203517,0
 .0905917,-0.0000006,0.5877288,-0.0166586,0.0000009,-0.000005,-0.000000
 4,-0.1285938,-1.7614889,-0.0433426,-0.0000021,-0.033156,-0.1622297,-0.
 0000004,-0.0000037,-0.0000006,-0.4213838,2.935533,-0.0073274,-0.000003
 8,0.2069461,1.3323474,0.0000082,-0.000084,0.0000045,0.1892527,-1.27413
 69,-0.3004589,-0.0000019,-1.0278512,-0.6814137,-0.0000068,0.0000442,0.
 0000103,-0.1243584,-1.0156206,0.4825813,0.0000032,0.917496,-0.7057221,
 -0.0000013,0.0000356,-0.0000139,-0.222365,0.0853069,0.0131575,-0.00000
 03,-0.0091177,0.1028457,0.,0.0000005,0.0000003,0.1452354,0.0773301,-0.
 0207616,-0.0000001,0.0209895,0.1097669,0.0000002,0.0000004,-0.0000002,
 0.1450502,0.0337036,0.0358802,-0.0000003,0.011321,0.0551272,0.0000004,
 0.0000012,0.0000004,0.1499127,0.0364048,-0.0349365,-0.0000002,-0.01441
 72,0.0504952,0.,0.0000008,-0.0000002,0.1490723,0.3294115,0.0654644,-0.
 0000002,0.2170344,0.2065734,0.0000005,-0.0000003,0.0000004,0.3213033,0
 .340684,-0.0584114,0.,-0.2117302,0.1918771,-0.0000001,0.0000003,0.,0.3
 217884,0.6081478,-0.1188959,-0.000001,-0.1292668,0.2283425,0.0000003,-
 0.0000051,0.0000003,0.3658142\Polar=198.1663155,3.774667,92.0185779,0.
 0000353,-0.0000397,45.7128823\PG=C01 [X(C6H7N2O2)]\NImag=0\\0.73017355
 ,-0.05224476,0.66423929,0.00000224,-0.00000074,0.12421343,-0.11186484,
 -0.07228773,0.,0.61905814,-0.04680960,-0.25970903,-0.00000013,0.006893
 63,0.67387010,-0.00000045,-0.00000010,-0.05173902,0.00000010,-0.000000
 71,0.11530960,0.02992223,0.00806951,0.00000013,-0.11526674,0.05133653,
 -0.00000060,0.73621792,-0.00505213,-0.04405585,0.,0.07758781,-0.251055
 89,0.00000070,0.05324702,0.66102165,0.00000016,0.00000017,0.00486602,-
 0.00000026,0.00000080,-0.05241755,0.00000214,-0.00000090,0.12362237,-0
 .01913074,-0.01583178,-0.00000007,-0.04248018,0.03845847,-0.00000020,-
 0.41597503,-0.02395995,-0.00000125,0.74436526,-0.00821371,-0.00770137,
 -0.00000003,0.01868172,0.01374002,0.00000019,0.01311446,-0.11262448,0.
 00000025,-0.04945464,0.64312118,-0.00000004,-0.00000008,-0.00076163,-0
 .00000030,0.00000010,0.00424982,-0.00000122,0.00000003,-0.04897419,0.0
 0000209,-0.00000110,0.11303256,-0.03692952,0.02655591,-0.00000011,0.01
 750773,0.00053221,0.00000004,-0.03377244,-0.02908046,0.,-0.12544682,-0
 .07186065,-0.00000008,0.75000115,0.04503252,0.02328281,0.00000018,0.00
 116928,-0.02464097,0.,-0.04699287,0.02049501,-0.00000026,-0.03394001,-
 0.24716861,0.00000029,0.00199260,0.63109659,-0.00000009,0.00000015,-0.
 00016762,0.00000009,0.00000002,-0.00734632,0.00000007,-0.00000020,-0.0
 0032156,-0.00000025,0.00000006,-0.06321160,0.00000180,-0.00000074,0.15
 576241,-0.41207116,0.01238382,-0.00000129,-0.03958901,-0.04069722,-0.0
 0000007,-0.02013727,0.01551042,-0.00000014,0.03544031,0.00388588,0.000
 00012,-0.13070296,0.03911728,-0.00000037,0.73718444,-0.02550739,-0.112
 67193,-0.00000008,-0.02103503,0.01066238,-0.00000020,0.00743006,-0.006
 76438,0.00000005,-0.00096596,-0.03450151,0.00000007,0.07708370,-0.2427
 1475,0.00000052,0.05222360,0.64778363,-0.00000116,0.00000014,-0.049779
 00,-0.00000022,-0.00000016,0.00506652,-0.00000008,0.00000010,-0.000734
 45,0.00000013,0.00000006,0.00486837,-0.00000032,0.00000030,-0.06335703
 ,0.00000195,-0.00000052,0.11313688,0.01335481,0.00375279,0.,-0.0186321
 2,0.00015535,0.00000003,0.01339691,-0.00300491,0.00000001,-0.04647147,
 -0.02061238,-0.00000014,-0.41061807,-0.00577255,-0.00000110,-0.0490043
 3,0.01864647,-0.00000022,0.81322741,-0.00210316,-0.00862703,0.,-0.0004
 5699,0.00138574,0.,0.00286487,-0.00873867,0.00000005,-0.04597216,0.000
 73892,-0.00000015,-0.00578051,-0.13070907,0.00000012,0.04397266,0.0034
 5233,0.00000016,-0.00014254,0.82442958,0.00000001,0.00000001,0.0033376
 5,-0.00000005,0.,-0.00065022,0.,0.00000003,0.00331297,-0.00000007,-0.0
 0000003,0.00846630,-0.00000108,0.00000012,-0.04077190,-0.00000022,0.00
 000005,0.00849348,0.00000229,-0.00000127,0.04012289,-0.04708069,-0.027
 43067,-0.00000054,-0.24984854,-0.00913381,-0.00000086,-0.05931080,0.02
 917283,-0.00000051,0.01653364,0.01045639,0.00000013,-0.01915168,-0.000
 51372,-0.00000009,0.01687469,-0.00974405,0.00000015,0.01852523,0.00034
 774,0.00000005,0.79071159,-0.03394995,0.00821460,-0.00000031,0.0022420
 7,-0.11727914,0.00000008,0.02994044,0.01000287,0.00000005,0.00472891,-
 0.00569344,0.00000011,-0.00074420,-0.00548531,0.,-0.00370230,-0.008265
 27,-0.00000001,0.00103723,0.00069502,0.,0.16555878,0.65718686,0.,-0.00
 000004,-0.00900830,0.00000103,0.00000007,-0.05492802,-0.00000008,0.000
 00001,-0.00502445,0.00000006,-0.00000019,0.00482315,0.00000014,0.00000
 010,-0.00163369,0.00000010,0.00000017,0.00512466,-0.00000027,-0.000000
 03,-0.00021254,-0.00000720,-0.00000421,0.16587444,0.00044259,0.0094067
 5,0.00000025,-0.04286876,-0.04980667,0.00000103,0.00373078,-0.00589037
 ,-0.00000003,-0.00228036,-0.00276752,-0.00000001,0.00560603,-0.0032936
 5,0.00000006,-0.00511017,0.00097314,-0.00000008,-0.00596243,0.00063585
 ,-0.00000002,-0.27718417,-0.20667554,0.00000414,0.28457472,0.00491886,
 0.00443921,0.00000024,-0.03961633,-0.00802420,0.00000064,0.01148226,-0
 .00645552,0.00000001,-0.00339377,-0.00213310,-0.00000006,0.00527850,-0
 .00093968,0.00000002,-0.00289095,0.00418793,-0.00000006,-0.00576525,0.
 00052332,-0.00000001,-0.21487826,-0.41749982,0.00000460,0.26308736,0.5
 1420983,0.,-0.00000007,0.00866910,-0.00000017,0.00000028,0.01196732,-0
 .00000010,0.00000007,-0.00064270,0.00000003,0.00000009,-0.00056893,-0.
 00000011,0.,0.00027514,-0.00000001,-0.00000007,-0.00070788,0.00000016,
 0.,0.00005726,0.00000553,0.00000603,-0.06093569,-0.00000484,-0.0000060
 0,0.02809820,-0.00280723,0.00280595,0.00000004,-0.03294301,0.04722050,
 0.00000094,-0.00136622,-0.00866802,0.00000016,-0.00402815,0.00045809,-
 0.00000008,0.00405821,0.00331630,0.00000003,-0.00166605,0.00146701,-0.
 00000003,-0.00413127,-0.00082225,-0.00000001,-0.16028272,0.03509597,0.
 00000155,0.03901876,-0.01314407,-0.00000040,0.57714464,-0.00597786,-0.
 00397724,0.00000005,0.02575096,-0.00051265,-0.00000059,-0.00656602,0.0
 0434406,-0.00000013,0.00259126,0.00343346,0.00000002,-0.00426449,-0.00
 120222,-0.00000002,0.00318992,-0.00175389,0.00000005,0.00470914,0.0006
 0848,0.00000001,-0.00707949,-0.12923365,0.00000054,0.00304888,-0.09046
 683,-0.00000055,0.07302293,0.29780549,0.00000004,-0.00000004,0.0006294
 0,-0.00000006,-0.00000031,0.00638675,-0.00000004,0.00000011,0.00403783
 ,0.00000003,0.00000008,0.00025466,-0.00000010,-0.00000009,-0.00001566,
 0.00000002,-0.00000005,-0.00070801,0.00000014,0.00000003,0.00010275,0.
 00000197,-0.00000175,-0.04210591,-0.00000030,0.00000051,0.01780266,-0.
 00000795,0.00000002,0.01961241,-0.12854954,0.12783551,-0.00000054,0.00
 991394,-0.01364988,0.00000008,-0.00181184,-0.00323644,0.,-0.00052582,-
 0.00035676,0.,-0.00456542,-0.00139099,-0.00000006,-0.01078581,0.024414
 82,-0.00000010,-0.00025400,0.00142315,0.,0.00364560,-0.00108290,-0.000
 00009,-0.00040196,0.00050774,0.00000003,-0.00538533,-0.00027489,0.0000
 0009,0.13740927,0.12644040,-0.26411124,0.00000075,0.01276015,-0.016150
 88,0.00000010,-0.00365392,-0.00219532,-0.00000002,-0.00021586,0.000509
 99,0.,-0.00155772,0.00024787,0.,-0.00292672,0.00639517,-0.00000002,-0.
 00027127,0.00050051,0.,0.00292478,-0.00187801,-0.00000007,-0.00044341,
 0.00024001,0.00000002,0.00021160,0.00113678,0.00000002,-0.13382108,0.2
 7429698,-0.00000057,0.00000069,-0.03586299,0.00000011,0.,0.00248652,-0
 .00000004,-0.00000001,0.00319520,0.,0.,-0.00105326,-0.00000006,0.00000
 004,0.00960871,-0.00000003,0.00000009,0.00541302,0.,0.,-0.00036969,-0.
 00000007,-0.00000001,-0.00235132,0.00000001,0.,0.00006169,0.00000006,-
 0.00000001,0.00091258,0.00000058,-0.00000078,0.02341975,-0.00210356,0.
 00304690,-0.00000001,0.01024199,0.01425001,0.00000003,-0.12047773,-0.1
 2192093,-0.00000014,-0.00983909,-0.02475614,-0.00000003,-0.00450649,0.
 00125250,-0.00000007,-0.00057746,0.00037611,0.,-0.00027703,-0.00142739
 ,0.,0.00267196,0.00260181,-0.00000007,-0.00308551,-0.00112583,0.000000
 05,0.00014015,-0.00102174,0.00000001,0.00064291,0.00075785,0.,0.126561
 28,0.00362740,-0.00201267,0.00000004,-0.01166945,-0.01676078,-0.000000
 04,-0.12094967,-0.26933873,-0.00000004,0.00241625,0.00576824,0.0000000
 1,0.00136870,0.00032169,0.00000003,0.00021248,0.00050793,0.,0.00030069
 ,0.00048053,0.,-0.00319959,-0.00298533,0.00000006,0.00001848,0.0028368
 6,-0.00000005,0.00007048,0.00037967,0.,-0.00070714,-0.00062199,0.,0.12
 822827,0.28064560,-0.00000005,0.00000003,0.00306098,0.00000015,0.00000
 007,0.00317594,-0.00000018,-0.00000003,-0.03631950,-0.00000003,-0.0000
 0010,0.00528303,-0.00000005,0.,0.00973186,0.,-0.00000001,-0.00109374,0
 .,0.,-0.00038419,-0.00000005,0.,-0.00222700,0.00000002,0.00000002,0.00
 018108,0.,0.,-0.00026269,0.,0.,0.00103446,0.00000019,0.00000003,0.0239
 6244,-0.00055516,-0.00046100,0.,-0.00409735,-0.00202682,-0.00000006,-0
 .01267386,0.02609655,-0.00000014,-0.12715454,0.12231610,-0.00000042,0.
 00914041,-0.01446139,0.00000005,-0.00166578,-0.00288509,0.,0.00222865,
 -0.00069028,0.,-0.00002282,0.00156599,0.00000002,-0.00000896,0.0001104
 0,0.,-0.00085326,-0.00007542,0.,0.00004282,0.00008347,0.,0.00098077,0.
 00018795,0.00000002,0.13451253,-0.00083835,-0.00004592,0.,-0.00152231,
 0.00128390,0.,-0.00233836,0.00504465,-0.00000002,0.12299477,-0.2582614
 2,0.00000073,0.01478838,-0.01734198,0.00000009,-0.00353473,-0.00231848
 ,0.,0.00136337,0.00170563,0.,0.00021894,0.00044256,-0.00000001,-0.0000
 0962,-0.00013389,0.,-0.00041718,0.00021816,0.,0.00006386,0.00000670,0.
 ,-0.00016860,0.00079725,0.,-0.12967462,0.26976044,-0.00000001,0.,-0.00
 066653,-0.00000012,0.00000005,0.00798271,-0.00000003,0.00000008,0.0030
 5691,-0.00000040,0.00000069,-0.03237631,-0.00000005,-0.00000002,0.0028
 0210,-0.00000001,0.,0.00371640,0.00000003,0.,-0.00187433,0.00000004,0.
 00000002,0.00188182,0.,0.,0.00008536,0.,0.,-0.00085968,0.,0.,-0.000499
 97,0.00000003,-0.00000001,-0.00523375,0.00000053,-0.00000077,0.0220490
 2,-0.01174067,-0.02678620,-0.00000005,-0.00423225,0.00184140,-0.000000
 07,-0.00059535,0.00044080,0.,-0.00195086,0.00288437,-0.00000001,0.0091
 3309,0.01571497,0.,-0.11713361,-0.11640936,-0.00000004,0.00220559,0.00
 071000,0.,0.00000342,-0.00192213,0.00000002,-0.00071705,0.00008952,0.,
 -0.00008646,0.00000677,0.,0.00093264,-0.00020361,0.00000002,0.00005126
 ,-0.00008622,0.,0.00061483,0.00076482,0.,0.12387343,0.00171504,0.00400
 530,0.00000001,0.00125077,0.00140512,0.00000002,0.00084049,0.00000275,
 0.,0.00354352,-0.00208860,0.00000002,-0.01368548,-0.01736243,-0.000000
 03,-0.11713367,-0.26812328,-0.00000002,-0.00132103,0.00171388,0.,-0.00
 007554,0.00039880,0.00000002,0.00036110,0.00020081,-0.00000001,-0.0000
 2507,-0.00006520,0.,0.00017042,0.00081899,-0.00000001,-0.00006874,0.00
 000446,0.,-0.00070893,-0.00075392,0.,0.12343142,0.28020944,-0.00000003
 ,-0.00000010,0.00304755,-0.00000012,-0.00000003,0.00781656,0.,0.,-0.00
 067061,-0.00000003,0.00000003,0.00370841,0.,0.00000009,0.00281374,-0.0
 0000003,0.,-0.03221281,0.00000003,0.,-0.00189704,0.00000007,0.00000002
 ,0.00212309,-0.00000003,-0.00000003,-0.00133363,0.,0.,0.00007166,0.000
 00002,0.,-0.00518182,0.,0.,-0.00045877,0.,0.,0.00006804,0.00000012,0.,
 0.02196670,-0.00033706,0.00011800,0.,0.00098001,-0.00007703,0.,-0.0002
 8949,-0.00176948,0.,-0.00400292,0.00316655,-0.00000003,-0.01349263,-0.
 03070734,0.00000001,0.00184720,-0.00198217,0.00000002,-0.15796953,-0.1
 5724274,-0.00000019,-0.00115290,-0.00015056,0.00000005,0.00061478,0.00
 071336,-0.00000003,0.00026493,-0.00033714,-0.00000001,0.00004846,0.000
 05383,0.,-0.00037583,0.00011161,0.,0.00000682,-0.00018117,0.,-0.000398
 47,0.00156104,0.,0.16071423,-0.00126716,-0.00085322,0.,0.00186393,0.00
 012712,-0.00000002,-0.00095057,0.00035930,0.,0.00256746,0.00200204,0.0
 0000002,-0.00185658,0.00561344,-0.00000001,0.00360426,0.00167396,0.,-0
 .15583406,-0.35082407,0.00000007,-0.00243040,-0.00038868,0.00000009,0.
 00088321,0.00108561,-0.00000004,0.00062675,-0.00082723,-0.00000003,0.0
 0008298,0.00004437,0.,0.00004360,-0.00002556,0.,0.00016263,0.00019891,
 0.,-0.00029890,-0.00058591,0.,0.16932465,0.35502452,0.00000001,0.00000
 001,-0.00059412,0.,-0.00000002,0.00032848,-0.00000003,0.00000002,0.001
 51625,0.,0.00000003,0.00614535,-0.00000004,-0.00000011,-0.00229051,0.,
 -0.00000001,-0.00361079,-0.00000019,0.00000006,-0.00880658,0.,0.,-0.00
 002646,0.,0.,-0.00000411,0.,0.,-0.00014242,0.,0.,0.00039408,0.,0.,-0.0
 0092590,0.,0.,-0.00043755,0.,0.,0.00058435,0.00000018,-0.00000005,0.00
 937617,-0.00039305,0.00173041,0.,0.00106058,0.00005704,-0.00000001,-0.
 00035407,-0.00009420,0.,0.00194010,0.00200601,0.00000002,-0.01474021,0
 .02977280,-0.00000009,-0.00376977,-0.00340866,-0.00000002,-0.17126892,
 0.16459364,-0.00000075,-0.00123251,-0.00027503,0.00000006,0.00047776,0
 .00055206,-0.00000002,0.00045517,-0.00051143,-0.00000002,-0.00037982,-
 0.00012313,0.,0.00005433,-0.00005688,0.,-0.00049052,-0.00152259,0.,0.0
 0000657,0.00017313,0.,0.01369053,-0.01626448,0.00000007,0.17510792,0.0
 0092160,0.00045320,0.,-0.00181832,0.00020250,0.00000002,0.00129585,-0.
 00082792,0.,-0.00362198,0.00164563,-0.00000002,0.00104561,0.00693840,-
 0.00000002,-0.00281255,0.00176246,-0.00000001,0.16315814,-0.33747487,0
 .00000104,0.00236653,0.00036257,-0.00000008,-0.00096751,-0.00119164,0.
 00000004,-0.00046933,0.00068689,0.00000003,-0.00004941,-0.00002136,0.,
 -0.00010033,0.00004903,0.,0.00027717,-0.00065596,0.,-0.00016643,0.0001
 9702,0.,0.01733950,-0.01267778,0.00000007,-0.17663596,0.34061447,-0.00
 000003,-0.00000002,0.00157136,0.,0.00000002,0.00019009,0.,-0.00000001,
 -0.00055210,0.,0.,-0.00363147,-0.00000003,0.00000007,-0.00230638,0.000
 00001,-0.00000002,0.00611025,-0.00000076,0.00000105,-0.00879835,-0.000
 00001,0.,-0.00014705,0.,0.,0.00003419,0.,0.,0.00014845,0.,0.,-0.000905
 11,0.,0.,0.00039831,0.,0.,0.00057903,0.,0.,-0.00044412,0.00000002,-0.0
 0000003,-0.00158859,0.00000078,-0.00000107,0.00941875,-0.00032997,-0.0
 0066340,-0.00000002,0.00306042,0.00145588,0.00000008,-0.00123702,0.000
 62147,0.00000002,0.00100666,0.00105222,0.00000001,-0.00152038,-0.00029
 575,0.,0.00086672,-0.00067721,0.00000002,0.00165058,0.00009010,0.,-0.0
 3369931,0.00573141,0.00000053,0.00315394,-0.00592561,-0.00000011,-0.40
 753217,-0.08621139,0.00000618,0.00002390,-0.00001537,-0.00000001,-0.00
 010194,0.00012663,0.,-0.00000457,0.00001337,0.,0.00003390,-0.00002848,
 0.,-0.00014814,-0.00025733,0.,-0.00016409,0.00023743,0.,0.43494148,-0.
 00069174,-0.00086890,0.00000002,0.00020583,-0.00854334,-0.00000010,0.0
 0182993,0.00078645,0.,0.00005546,-0.00078695,0.00000001,0.00018446,-0.
 00043078,0.,-0.00040219,0.00068767,-0.00000001,-0.00039920,0.00013977,
 0.,0.06343952,0.01140538,-0.00000102,-0.00856047,-0.00087890,0.0000002
 6,-0.14074966,-0.08057408,0.00000148,0.00007100,0.00078144,0.,0.000032
 64,-0.00004619,0.,0.00018328,0.00005340,0.,-0.00001122,0.00002279,0.,0
 .00005908,0.00005320,0.,0.00000727,-0.00006264,0.,0.08474601,0.0782616
 9,-0.00000001,0.,-0.00081629,-0.00000020,-0.00000006,0.00212082,0.0000
 0005,0.,0.00204954,-0.00000004,-0.00000004,-0.00025426,0.00000003,0.00
 000002,0.00042829,-0.00000002,0.00000002,0.00027412,-0.00000003,0.,-0.
 00012847,0.00000139,-0.00000002,-0.00122674,-0.00000020,0.00000010,-0.
 00303906,0.00000570,0.00000062,-0.00586477,0.,0.,-0.00030187,0.,0.,0.0
 0007745,0.,0.,-0.00027328,0.,0.,-0.00000131,0.,0.,0.00008237,0.,0.,-0.
 00007728,-0.00000668,-0.00000064,0.00695072\\0.00012990,0.00002318,-0.
 00000050,-0.00030652,0.00003182,-0.00000063,0.00011635,-0.00001139,-0.
 00000058,-0.00008377,-0.00003767,0.00000004,0.00013604,0.00001552,-0.0
 0000007,-0.00008439,0.00002645,0.00000006,-0.00007432,-0.00000199,0.,-
 0.00004127,-0.00035287,0.00000462,0.00016903,0.00022656,-0.00000176,-0
 .00008869,0.00005330,-0.00000121,-0.00001759,0.00000114,-0.00000003,-0
 .00000437,-0.00001022,0.00000001,0.00001750,0.00000066,0.00000011,0.00
 001328,0.00000370,0.00000009,0.00001014,0.00000793,0.,0.00001347,0.000
 00193,0.,0.00009521,0.00002197,-0.00000017\\\@


 BLACK HOLES SUCK.
 Job cpu time:       0 days  0 hours 19 minutes 55.3 seconds.
 File lengths (MBytes):  RWF=     93 Int=      0 D2E=      0 Chk=      5 Scr=      1
 Normal termination of Gaussian 09 at Thu Jun 20 17:12:32 2024.
