 Entering Gaussian System, Link 0=g09
 Input=B2PLYPD3THAP.gjf
 Output=B2PLYPD3THAP.log
 Initial command:
 /home/phzd/g09E/g09/l1.exe "/home/phzd/g09E/scratch/Gau-1513255.inp" -scrdir="/home/phzd/g09E/scratch/"
 Default is to use a total of  18 processors:
                               18 via shared-memory
                                1 via Linda
 Entering Link 1 = /home/phzd/g09E/g09/l1.exe PID=   1513257.
  
 Copyright (c) 1988,1990,1992,1993,1995,1998,2003,2009,2015,
            Gaussian, Inc.  All Rights Reserved.
  
 This is part of the Gaussian(R) 09 program.  It is based on
 the Gaussian(R) 03 system (copyright 2003, Gaussian, Inc.),
 the Gaussian(R) 98 system (copyright 1998, Gaussian, Inc.),
 the Gaussian(R) 94 system (copyright 1995, Gaussian, Inc.),
 the Gaussian 92(TM) system (copyright 1992, Gaussian, Inc.),
 the Gaussian 90(TM) system (copyright 1990, Gaussian, Inc.),
 the Gaussian 88(TM) system (copyright 1988, Gaussian, Inc.),
 the Gaussian 86(TM) system (copyright 1986, Carnegie Mellon
 University), and the Gaussian 82(TM) system (copyright 1983,
 Carnegie Mellon University). Gaussian is a federally registered
 trademark of Gaussian, Inc.
  
 This software contains proprietary and confidential information,
 including trade secrets, belonging to Gaussian, Inc.
  
 This software is provided under written license and may be
 used, copied, transmitted, or stored only in accord with that
 written license.
  
 The following legend is applicable only to US Government
 contracts under FAR:
  
                    RESTRICTED RIGHTS LEGEND
  
 Use, reproduction and disclosure by the US Government is
 subject to restrictions as set forth in subparagraphs (a)
 and (c) of the Commercial Computer Software - Restricted
 Rights clause in FAR 52.227-19.
  
 Gaussian, Inc.
 340 Quinnipiac St., Bldg. 40, Wallingford CT 06492
  
  
 ---------------------------------------------------------------
 Warning -- This program may not be used in any manner that
 competes with the business of Gaussian, Inc. or will provide
 assistance to any competitor of Gaussian, Inc.  The licensee
 of this program is prohibited from giving any competitor of
 Gaussian, Inc. access to this program.  By using this program,
 the user acknowledges that Gaussian, Inc. is engaged in the
 business of creating and licensing software in the field of
 computational chemistry and represents and warrants to the
 licensee that it is not a competitor of Gaussian, Inc. and that
 it will not use this program in any manner prohibited above.
 ---------------------------------------------------------------
  

 Cite this work as:
 Gaussian 09, Revision E.01,
 M. J. Frisch, G. W. Trucks, H. B. Schlegel, G. E. Scuseria, 
 M. A. Robb, J. R. Cheeseman, G. Scalmani, V. Barone, B. Mennucci, 
 G. A. Petersson, H. Nakatsuji, M. Caricato, X. Li, H. P. Hratchian, 
 A. F. Izmaylov, J. Bloino, G. Zheng, J. L. Sonnenberg, M. Hada, 
 M. Ehara, K. Toyota, R. Fukuda, J. Hasegawa, M. Ishida, T. Nakajima, 
 Y. Honda, O. Kitao, H. Nakai, T. Vreven, J. A. Montgomery, Jr., 
 J. E. Peralta, F. Ogliaro, M. Bearpark, J. J. Heyd, E. Brothers, 
 K. N. Kudin, V. N. Staroverov, T. Keith, R. Kobayashi, J. Normand, 
 K. Raghavachari, A. Rendell, J. C. Burant, S. S. Iyengar, J. Tomasi, 
 M. Cossi, N. Rega, J. M. Millam, M. Klene, J. E. Knox, J. B. Cross, 
 V. Bakken, C. Adamo, J. Jaramillo, R. Gomperts, R. E. Stratmann, 
 O. Yazyev, A. J. Austin, R. Cammi, C. Pomelli, J. W. Ochterski, 
 R. L. Martin, K. Morokuma, V. G. Zakrzewski, G. A. Voth, 
 P. Salvador, J. J. Dannenberg, S. Dapprich, A. D. Daniels, 
 O. Farkas, J. B. Foresman, J. V. Ortiz, J. Cioslowski, 
 and D. J. Fox, Gaussian, Inc., Wallingford CT, 2013.
 
 ******************************************
 Gaussian 09:  ES64L-G09RevE.01 30-Nov-2015
                19-Dec-2024 
 ******************************************
 %chk=B2PLYPD3THAP.chk
 -----------------------------------------------------
 # opt freq B2PLYP/6-31+g(d,p) EmpiricalDispersion=GD3
 -----------------------------------------------------
 1/18=20,19=15,38=1/1,3;
 2/9=110,12=2,17=6,18=5,40=1/2;
 3/5=1,6=6,7=111,11=9,16=1,25=1,30=1,71=1,74=-47,124=31/1,2,3;
 4//1;
 5/5=2,38=5/2;
 8/6=4,10=2/1;
 9/15=2,16=-3/6;
 10/5=1/2;
 6/7=2,8=2,9=2,10=2/1;
 7/12=2/1,2,3,16;
 1/18=20,19=15/3(2);
 2/9=110/2;
 99//99;
 2/9=110/2;
 3/5=1,6=6,7=111,11=9,16=1,25=1,30=1,71=1,74=-47,124=31/1,2,3;
 4/5=5,16=3,69=1/1;
 5/5=2,38=5/2;
 8/6=4,10=2/1;
 9/15=2,16=-3/6;
 10/5=1/2;
 7/12=2/1,2,3,16;
 1/18=20,19=15/3(-8);
 2/9=110/2;
 6/7=2,8=2,9=2,10=2/1;
 99//99;
 ----------
 [No Title]
 ----------
 Symbolic Z-matrix:
 Charge =  0 Multiplicity = 1
 C                    -1.52928   1.24718   0.00006 
 C                    -2.26011   0.05263   0.00004 
 C                    -1.62212  -1.18033  -0.00002 
 C                    -0.22481  -1.22934  -0.00006 
 C                     0.56718  -0.03309  -0.00003 
 C                    -0.14383   1.19776   0.00003 
 O                     0.57233   2.35363   0.00006 
 C                     2.02366  -0.16437  -0.00006 
 C                     2.95347   1.01873   0.00002 
 O                     2.54326  -1.30079  0. 
 O                     0.34614  -2.42788  -0.00013 
 O                    -3.60987   0.17257   0.00007 
 H                    -2.06093   2.19409   0.0001 
 H                    -2.17348  -2.11563  -0.00005 
 H                    -0.03668   3.10186   0.00012 
 H                     2.78452   1.65076   0.87612 
 H                     3.9761    0.63933   0.00005 
 H                     2.78459   1.65081  -0.87606 
 H                     1.34179  -2.25356  -0.00016 
 H                    -4.01572  -0.70287   0.00005 
 

 GradGradGradGradGradGradGradGradGradGradGradGradGradGradGradGradGradGrad
 Berny optimization.
 Initialization pass.
                           ----------------------------
                           !    Initial Parameters    !
                           ! (Angstroms and Degrees)  !
 --------------------------                            --------------------------
 ! Name  Definition              Value          Derivative Info.                !
 --------------------------------------------------------------------------------
 ! R1    R(1,2)                  1.4004         estimate D2E/DX2                !
 ! R2    R(1,6)                  1.3863         estimate D2E/DX2                !
 ! R3    R(1,13)                 1.086          estimate D2E/DX2                !
 ! R4    R(2,3)                  1.3882         estimate D2E/DX2                !
 ! R5    R(2,12)                 1.3551         estimate D2E/DX2                !
 ! R6    R(3,4)                  1.3982         estimate D2E/DX2                !
 ! R7    R(3,14)                 1.0857         estimate D2E/DX2                !
 ! R8    R(4,5)                  1.4347         estimate D2E/DX2                !
 ! R9    R(4,11)                 1.3276         estimate D2E/DX2                !
 ! R10   R(5,6)                  1.4215         estimate D2E/DX2                !
 ! R11   R(5,8)                  1.4624         estimate D2E/DX2                !
 ! R12   R(6,7)                  1.3597         estimate D2E/DX2                !
 ! R13   R(7,15)                 0.9648         estimate D2E/DX2                !
 ! R14   R(8,9)                  1.5048         estimate D2E/DX2                !
 ! R15   R(8,10)                 1.2496         estimate D2E/DX2                !
 ! R16   R(9,16)                 1.0934         estimate D2E/DX2                !
 ! R17   R(9,17)                 1.0907         estimate D2E/DX2                !
 ! R18   R(9,18)                 1.0934         estimate D2E/DX2                !
 ! R19   R(11,19)                1.0108         estimate D2E/DX2                !
 ! R20   R(12,20)                0.9649         estimate D2E/DX2                !
 ! A1    A(2,1,6)              119.4162         estimate D2E/DX2                !
 ! A2    A(2,1,13)             119.2289         estimate D2E/DX2                !
 ! A3    A(6,1,13)             121.3549         estimate D2E/DX2                !
 ! A4    A(1,2,3)              121.1818         estimate D2E/DX2                !
 ! A5    A(1,2,12)             116.3808         estimate D2E/DX2                !
 ! A6    A(3,2,12)             122.4374         estimate D2E/DX2                !
 ! A7    A(2,3,4)              119.3685         estimate D2E/DX2                !
 ! A8    A(2,3,14)             122.1211         estimate D2E/DX2                !
 ! A9    A(4,3,14)             118.5104         estimate D2E/DX2                !
 ! A10   A(3,4,5)              121.498          estimate D2E/DX2                !
 ! A11   A(3,4,11)             117.4807         estimate D2E/DX2                !
 ! A12   A(5,4,11)             121.0214         estimate D2E/DX2                !
 ! A13   A(4,5,6)              116.4799         estimate D2E/DX2                !
 ! A14   A(4,5,8)              118.3568         estimate D2E/DX2                !
 ! A15   A(6,5,8)              125.1634         estimate D2E/DX2                !
 ! A16   A(1,6,5)              122.0557         estimate D2E/DX2                !
 ! A17   A(1,6,7)              119.7396         estimate D2E/DX2                !
 ! A18   A(5,6,7)              118.2047         estimate D2E/DX2                !
 ! A19   A(6,7,15)             109.0748         estimate D2E/DX2                !
 ! A20   A(5,8,9)              123.014          estimate D2E/DX2                !
 ! A21   A(5,8,10)             119.721          estimate D2E/DX2                !
 ! A22   A(9,8,10)             117.2649         estimate D2E/DX2                !
 ! A23   A(8,9,16)             111.0408         estimate D2E/DX2                !
 ! A24   A(8,9,17)             107.8091         estimate D2E/DX2                !
 ! A25   A(8,9,18)             111.0404         estimate D2E/DX2                !
 ! A26   A(16,9,17)            110.2373         estimate D2E/DX2                !
 ! A27   A(16,9,18)            106.4977         estimate D2E/DX2                !
 ! A28   A(17,9,18)            110.2373         estimate D2E/DX2                !
 ! A29   A(4,11,19)            105.5409         estimate D2E/DX2                !
 ! A30   A(2,12,20)            109.7942         estimate D2E/DX2                !
 ! D1    D(6,1,2,3)             -0.0003         estimate D2E/DX2                !
 ! D2    D(6,1,2,12)           179.9998         estimate D2E/DX2                !
 ! D3    D(13,1,2,3)           179.9998         estimate D2E/DX2                !
 ! D4    D(13,1,2,12)           -0.0001         estimate D2E/DX2                !
 ! D5    D(2,1,6,5)              0.0003         estimate D2E/DX2                !
 ! D6    D(2,1,6,7)           -179.9998         estimate D2E/DX2                !
 ! D7    D(13,1,6,5)          -179.9998         estimate D2E/DX2                !
 ! D8    D(13,1,6,7)             0.0002         estimate D2E/DX2                !
 ! D9    D(1,2,3,4)              0.0            estimate D2E/DX2                !
 ! D10   D(1,2,3,14)          -179.9998         estimate D2E/DX2                !
 ! D11   D(12,2,3,4)           179.9998         estimate D2E/DX2                !
 ! D12   D(12,2,3,14)            0.0            estimate D2E/DX2                !
 ! D13   D(1,2,12,20)          179.9998         estimate D2E/DX2                !
 ! D14   D(3,2,12,20)           -0.0001         estimate D2E/DX2                !
 ! D15   D(2,3,4,5)              0.0003         estimate D2E/DX2                !
 ! D16   D(2,3,4,11)          -179.9996         estimate D2E/DX2                !
 ! D17   D(14,3,4,5)          -179.9999         estimate D2E/DX2                !
 ! D18   D(14,3,4,11)            0.0002         estimate D2E/DX2                !
 ! D19   D(3,4,5,6)             -0.0003         estimate D2E/DX2                !
 ! D20   D(3,4,5,8)            179.9992         estimate D2E/DX2                !
 ! D21   D(11,4,5,6)           179.9996         estimate D2E/DX2                !
 ! D22   D(11,4,5,8)            -0.0009         estimate D2E/DX2                !
 ! D23   D(3,4,11,19)          179.9988         estimate D2E/DX2                !
 ! D24   D(5,4,11,19)           -0.0011         estimate D2E/DX2                !
 ! D25   D(4,5,6,1)              0.0            estimate D2E/DX2                !
 ! D26   D(4,5,6,7)           -180.0            estimate D2E/DX2                !
 ! D27   D(8,5,6,1)           -179.9994         estimate D2E/DX2                !
 ! D28   D(8,5,6,7)              0.0006         estimate D2E/DX2                !
 ! D29   D(4,5,8,9)           -179.9978         estimate D2E/DX2                !
 ! D30   D(4,5,8,10)            -0.0051         estimate D2E/DX2                !
 ! D31   D(6,5,8,9)              0.0017         estimate D2E/DX2                !
 ! D32   D(6,5,8,10)           179.9944         estimate D2E/DX2                !
 ! D33   D(1,6,7,15)             0.0015         estimate D2E/DX2                !
 ! D34   D(5,6,7,15)          -179.9985         estimate D2E/DX2                !
 ! D35   D(5,8,9,16)            59.1425         estimate D2E/DX2                !
 ! D36   D(5,8,9,17)           179.9963         estimate D2E/DX2                !
 ! D37   D(5,8,9,18)           -59.1501         estimate D2E/DX2                !
 ! D38   D(10,8,9,16)         -120.8503         estimate D2E/DX2                !
 ! D39   D(10,8,9,17)            0.0034         estimate D2E/DX2                !
 ! D40   D(10,8,9,18)          120.857          estimate D2E/DX2                !
 --------------------------------------------------------------------------------
 Trust Radius=3.00D-01 FncErr=1.00D-07 GrdErr=1.00D-07
 Number of steps in this run=    100 maximum allowed number of steps=    120.
 GradGradGradGradGradGradGradGradGradGradGradGradGradGradGradGradGradGrad

                          Input orientation:                          
 ---------------------------------------------------------------------
 Center     Atomic      Atomic             Coordinates (Angstroms)
 Number     Number       Type             X           Y           Z
 ---------------------------------------------------------------------
      1          6           0       -1.529278    1.247175    0.000059
      2          6           0       -2.260114    0.052631    0.000035
      3          6           0       -1.622116   -1.180327   -0.000024
      4          6           0       -0.224810   -1.229342   -0.000061
      5          6           0        0.567179   -0.033094   -0.000032
      6          6           0       -0.143834    1.197764    0.000029
      7          8           0        0.572333    2.353627    0.000057
      8          6           0        2.023660   -0.164368   -0.000055
      9          6           0        2.953472    1.018731    0.000021
     10          8           0        2.543255   -1.300790   -0.000003
     11          8           0        0.346137   -2.427883   -0.000126
     12          8           0       -3.609869    0.172570    0.000070
     13          1           0       -2.060929    2.194087    0.000102
     14          1           0       -2.173479   -2.115631   -0.000046
     15          1           0       -0.036675    3.101863    0.000121
     16          1           0        2.784518    1.650757    0.876121
     17          1           0        3.976098    0.639331    0.000052
     18          1           0        2.784589    1.650806   -0.876055
     19          1           0        1.341787   -2.253564   -0.000164
     20          1           0       -4.015716   -0.702868    0.000046
 ---------------------------------------------------------------------
                    Distance matrix (angstroms):
                    1          2          3          4          5
     1  C    0.000000
     2  C    1.400377   0.000000
     3  C    2.429277   1.388246   0.000000
     4  C    2.799066   2.405393   1.398165   0.000000
     5  C    2.456465   2.828592   2.471671   1.434662   0.000000
     6  C    1.386325   2.406236   2.800113   2.428456   1.421461
     7  O    2.375080   3.649293   4.159860   3.670573   2.386727
     8  C    3.823064   4.289267   3.784687   2.487928   1.462385
     9  C    4.488567   5.302342   5.076599   3.892982   2.607821
    10  O    4.803920   4.990401   4.167113   2.768987   2.347750
    11  O    4.125922   3.597985   2.330325   1.327585   2.404969
    12  O    2.341716   1.355073   2.404473   3.663875   4.182108
    13  H    1.085954   2.150700   3.402826   3.884739   3.444893
    14  H    3.423954   2.169992   1.085723   2.140752   3.442117
    15  H    2.380700   3.773791   4.566265   4.335289   3.192584
    16  H    4.420317   5.363753   5.310470   4.256609   2.918834
    17  H    5.538830   6.263749   5.886523   4.597778   3.474606
    18  H    4.420401   5.363835   5.310536   4.256654   2.918877
    19  H    4.527492   4.276941   3.152231   1.871699   2.351702
    20  H    3.159912   1.911261   2.440756   3.827289   4.631579
                    6          7          8          9         10
     6  C    0.000000
     7  O    1.359748   0.000000
     8  C    2.559968   2.906312   0.000000
     9  C    3.102476   2.729793   1.504750   0.000000
    10  O    3.669226   4.152023   1.249573   2.355516   0.000000
    11  O    3.658605   4.786857   2.817372   4.321729   2.469345
    12  O    3.614474   4.716760   5.643596   6.617661   6.327063
    13  H    2.160535   2.638091   4.716585   5.150309   5.780370
    14  H    3.885620   5.245355   4.628542   6.009147   4.786601
    15  H    1.907112   0.964753   3.861767   3.644231   5.102881
    16  H    3.089981   2.480983   2.154360   1.093414   3.088273
    17  H    4.157606   3.811093   2.111385   1.090738   2.411868
    18  H    3.090054   2.481049   2.154355   1.093412   3.088305
    19  H    3.757490   4.671003   2.197656   3.647663   1.533396
    20  H    4.313221   5.512926   6.063336   7.178683   6.586168
                   11         12         13         14         15
    11  O    0.000000
    12  O    4.734167   0.000000
    13  H    5.211197   2.546713   0.000000
    14  H    2.538891   2.701681   4.311187   0.000000
    15  H    5.542981   4.620441   2.218482   5.638100   0.000000
    16  H    4.832061   6.621230   4.953885   6.287693   3.291233
    17  H    4.752307   7.600313   6.234016   6.738480   4.708122
    18  H    4.832081   6.621319   4.953973   6.287756   3.291319
    19  H    1.010795   5.514075   5.600007   3.517971   5.529987
    20  H    4.690569   0.964937   3.494788   2.321581   5.505338
                   16         17         18         19         20
    16  H    0.000000
    17  H    1.791743   0.000000
    18  H    1.752176   1.791742   0.000000
    19  H    4.253595   3.912600   4.253583   0.000000
    20  H    7.249154   8.103739   7.249240   5.577409   0.000000
 Stoichiometry    C8H8O4
 Framework group  C1[X(C8H8O4)]
 Deg. of freedom    54
 Full point group                 C1      NOp   1
 Largest Abelian subgroup         C1      NOp   1
 Largest concise Abelian subgroup C1      NOp   1
                         Standard orientation:                         
 ---------------------------------------------------------------------
 Center     Atomic      Atomic             Coordinates (Angstroms)
 Number     Number       Type             X           Y           Z
 ---------------------------------------------------------------------
      1          6           0       -1.529278    1.247175    0.000059
      2          6           0       -2.260114    0.052631    0.000035
      3          6           0       -1.622116   -1.180327   -0.000024
      4          6           0       -0.224810   -1.229342   -0.000061
      5          6           0        0.567179   -0.033094   -0.000032
      6          6           0       -0.143834    1.197764    0.000029
      7          8           0        0.572333    2.353627    0.000057
      8          6           0        2.023660   -0.164368   -0.000055
      9          6           0        2.953472    1.018732    0.000021
     10          8           0        2.543255   -1.300790   -0.000003
     11          8           0        0.346137   -2.427883   -0.000126
     12          8           0       -3.609869    0.172569    0.000070
     13          1           0       -2.060929    2.194087    0.000102
     14          1           0       -2.173479   -2.115631   -0.000046
     15          1           0       -0.036675    3.101863    0.000121
     16          1           0        2.784518    1.650758    0.876121
     17          1           0        3.976098    0.639332    0.000052
     18          1           0        2.784589    1.650807   -0.876055
     19          1           0        1.341787   -2.253564   -0.000164
     20          1           0       -4.015716   -0.702869    0.000046
 ---------------------------------------------------------------------
 Rotational constants (GHZ):      1.5520496      0.7667849      0.5148446
 Standard basis: 6-31+G(d,p) (6D, 7F)
 There are   268 symmetry adapted cartesian basis functions of A   symmetry.
 There are   268 symmetry adapted basis functions of A   symmetry.
   268 basis functions,   440 primitive gaussians,   268 cartesian basis functions
    44 alpha electrons       44 beta electrons
       nuclear repulsion energy       698.6002325153 Hartrees.
 NAtoms=   20 NActive=   20 NUniq=   20 SFac= 1.00D+00 NAtFMM=   60 NAOKFM=F Big=F
 Integral buffers will be    131072 words long.
 Regular integral format.
 Two-electron integral symmetry is turned on.
 Nuclear repulsion after empirical dispersion term =      698.5908872437 Hartrees.
 One-electron integrals computed using PRISM.
 NBasis=   268 RedAO= T EigKep=  1.53D-06  NBF=   268
 NBsUse=   268 1.00D-06 EigRej= -1.00D+00 NBFU=   268
 ExpMin= 4.38D-02 ExpMax= 5.48D+03 ExpMxC= 8.25D+02 IAcc=2 IRadAn=         4 AccDes= 0.00D+00
 Harris functional with IExCor=  419 and IRadAn=       4 diagonalized for initial guess.
 HarFok:  IExCor=  419 AccDes= 0.00D+00 IRadAn=         4 IDoV= 1 UseB2=F ITyADJ=14
 ICtDFT=  3500011 ScaDFX=  1.000000  1.000000  1.000000  1.000000
 FoFCou: FMM=F IPFlag=           0 FMFlag=      100000 FMFlg1=           0
         NFxFlg=           0 DoJE=T BraDBF=F KetDBF=T FulRan=T
         wScrn=  0.000000 ICntrl=     500 IOpCl=  0 I1Cent=   200000004 NGrid=           0
         NMat0=    1 NMatS0=      1 NMatT0=    0 NMatD0=    1 NMtDS0=    0 NMtDT0=    0
 Petite list used in FoFCou.
 Keep R1 ints in memory in canonical form, NReq=659648347.
 Requested convergence on RMS density matrix=1.00D-08 within 128 cycles.
 Requested convergence on MAX density matrix=1.00D-06.
 Requested convergence on             energy=1.00D-06.
 No special actions if energy rises.
 SCF Done:  E(RB2PLYP) =  -609.442982061     A.U. after   15 cycles
            NFock= 15  Conv=0.81D-08     -V/T= 2.0066
 DoSCS=T DFT=T ScalE2(SS,OS)=  0.270000  0.270000
 ExpMin= 4.38D-02 ExpMax= 5.48D+03 ExpMxC= 8.25D+02 IAcc=3 IRadAn=         5 AccDes= 0.00D+00
 HarFok:  IExCor=  205 AccDes= 0.00D+00 IRadAn=         5 IDoV=-2 UseB2=F ITyADJ=14
 ICtDFT= 12500011 ScaDFX=  1.000000  1.000000  1.000000  1.000000
 Range of M.O.s used for correlation:    13   268
 NBasis=   268 NAE=    44 NBE=    44 NFC=    12 NFV=     0
 NROrb=    256 NOA=    32 NOB=    32 NVA=   224 NVB=   224

 **** Warning!!: The largest alpha MO coefficient is  0.15739261D+03

 DoSCS=T DFT=T ScalE2(SS,OS)=  0.270000  0.270000
 Fully direct method using O(ONN) memory.
 JobTyp=1 Pass  1:  I=  13 to  16 NPSUse= 18 ParTrn=T ParDer=T DoDerP=T.
 JobTyp=1 Pass  2:  I=  17 to  20 NPSUse= 18 ParTrn=T ParDer=T DoDerP=T.
 JobTyp=1 Pass  3:  I=  21 to  24 NPSUse= 18 ParTrn=T ParDer=T DoDerP=T.
 JobTyp=1 Pass  4:  I=  25 to  28 NPSUse= 18 ParTrn=T ParDer=T DoDerP=T.
 JobTyp=1 Pass  5:  I=  29 to  32 NPSUse= 18 ParTrn=T ParDer=T DoDerP=T.
 JobTyp=1 Pass  6:  I=  33 to  36 NPSUse= 18 ParTrn=T ParDer=T DoDerP=T.
 JobTyp=1 Pass  7:  I=  37 to  40 NPSUse= 18 ParTrn=T ParDer=T DoDerP=T.
 JobTyp=1 Pass  8:  I=  41 to  44 NPSUse= 18 ParTrn=T ParDer=T DoDerP=T.
 Spin components of T(2) and E(2):
     alpha-alpha T2 =       0.1287775751D+00 E2=     -0.8182927232D-01
     alpha-beta  T2 =       0.6557167680D+00 E2=     -0.4337137245D+00
     beta-beta   T2 =       0.1287775751D+00 E2=     -0.8182927232D-01
 E2(B2PLYP) =    -0.5973722691D+00 E(B2PLYP) =    -0.61004035433000D+03
          IDoAtm=11111111111111111111
          Differentiating once with respect to electric field.
                with respect to dipole field.
          Differentiating once with respect to nuclear coordinates.
 Keep R1 ints in memory in canonical form, NReq=659410000.
          There are     1 degrees of freedom in the 1st order CPHF.  IDoFFX=0 NUNeed=     1.
 LinEq1:  Iter=  0 NonCon=     1 RMS=1.97D-03 Max=6.48D-02 NDo=     1
 AX will form     1 AO Fock derivatives at one time.
 LinEq1:  Iter=  1 NonCon=     1 RMS=9.55D-04 Max=2.18D-02 NDo=     1
 LinEq1:  Iter=  2 NonCon=     1 RMS=3.36D-04 Max=9.92D-03 NDo=     1
 LinEq1:  Iter=  3 NonCon=     1 RMS=2.38D-04 Max=6.42D-03 NDo=     1
 LinEq1:  Iter=  4 NonCon=     1 RMS=1.03D-04 Max=4.03D-03 NDo=     1
 LinEq1:  Iter=  5 NonCon=     1 RMS=4.85D-05 Max=1.99D-03 NDo=     1
 LinEq1:  Iter=  6 NonCon=     1 RMS=1.81D-05 Max=6.33D-04 NDo=     1
 LinEq1:  Iter=  7 NonCon=     1 RMS=7.03D-06 Max=3.07D-04 NDo=     1
 LinEq1:  Iter=  8 NonCon=     1 RMS=3.55D-06 Max=9.27D-05 NDo=     1
 LinEq1:  Iter=  9 NonCon=     1 RMS=1.50D-06 Max=4.54D-05 NDo=     1
 LinEq1:  Iter= 10 NonCon=     1 RMS=5.06D-07 Max=1.12D-05 NDo=     1
 LinEq1:  Iter= 11 NonCon=     1 RMS=1.96D-07 Max=5.17D-06 NDo=     1
 LinEq1:  Iter= 12 NonCon=     1 RMS=9.97D-08 Max=2.74D-06 NDo=     1
 LinEq1:  Iter= 13 NonCon=     1 RMS=2.83D-08 Max=5.28D-07 NDo=     1
 LinEq1:  Iter= 14 NonCon=     1 RMS=1.53D-08 Max=3.83D-07 NDo=     1
 LinEq1:  Iter= 15 NonCon=     1 RMS=5.16D-09 Max=1.82D-07 NDo=     1
 LinEq1:  Iter= 16 NonCon=     1 RMS=2.51D-09 Max=5.89D-08 NDo=     1
 LinEq1:  Iter= 17 NonCon=     1 RMS=8.60D-10 Max=1.58D-08 NDo=     1
 LinEq1:  Iter= 18 NonCon=     1 RMS=3.11D-10 Max=6.24D-09 NDo=     1
 LinEq1:  Iter= 19 NonCon=     1 RMS=1.12D-10 Max=2.03D-09 NDo=     1
 LinEq1:  Iter= 20 NonCon=     1 RMS=3.12D-11 Max=1.04D-09 NDo=     1
 LinEq1:  Iter= 21 NonCon=     0 RMS=1.24D-11 Max=2.69D-10 NDo=     1
 Linear equations converged to 1.000D-10 1.000D-09 after    21 iterations.
 End of Minotr F.D. properties file   721 does not exist.
 End of Minotr F.D. properties file   722 does not exist.
 End of Minotr F.D. properties file   788 does not exist.

 **********************************************************************

            Population analysis using the SCF density.

 **********************************************************************

 Orbital symmetries:
       Occupied  (A) (A) (A) (A) (A) (A) (A) (A) (A) (A) (A) (A)
                 (A) (A) (A) (A) (A) (A) (A) (A) (A) (A) (A) (A)
                 (A) (A) (A) (A) (A) (A) (A) (A) (A) (A) (A) (A)
                 (A) (A) (A) (A) (A) (A) (A) (A)
       Virtual   (A) (A) (A) (A) (A) (A) (A) (A) (A) (A) (A) (A)
                 (A) (A) (A) (A) (A) (A) (A) (A) (A) (A) (A) (A)
                 (A) (A) (A) (A) (A) (A) (A) (A) (A) (A) (A) (A)
                 (A) (A) (A) (A) (A) (A) (A) (A) (A) (A) (A) (A)
                 (A) (A) (A) (A) (A) (A) (A) (A) (A) (A) (A) (A)
                 (A) (A) (A) (A) (A) (A) (A) (A) (A) (A) (A) (A)
                 (A) (A) (A) (A) (A) (A) (A) (A) (A) (A) (A) (A)
                 (A) (A) (A) (A) (A) (A) (A) (A) (A) (A) (A) (A)
                 (A) (A) (A) (A) (A) (A) (A) (A) (A) (A) (A) (A)
                 (A) (A) (A) (A) (A) (A) (A) (A) (A) (A) (A) (A)
                 (A) (A) (A) (A) (A) (A) (A) (A) (A) (A) (A) (A)
                 (A) (A) (A) (A) (A) (A) (A) (A) (A) (A) (A) (A)
                 (A) (A) (A) (A) (A) (A) (A) (A) (A) (A) (A) (A)
                 (A) (A) (A) (A) (A) (A) (A) (A) (A) (A) (A) (A)
                 (A) (A) (A) (A) (A) (A) (A) (A) (A) (A) (A) (A)
                 (A) (A) (A) (A) (A) (A) (A) (A) (A) (A) (A) (A)
                 (A) (A) (A) (A) (A) (A) (A) (A) (A) (A) (A) (A)
                 (A) (A) (A) (A) (A) (A) (A) (A) (A) (A) (A) (A)
                 (A) (A) (A) (A) (A) (A) (A) (A)
 The electronic state is 1-A.
 Alpha  occ. eigenvalues --  -19.80859 -19.80532 -19.76607 -19.74811 -10.74117
 Alpha  occ. eigenvalues --  -10.73318 -10.72815 -10.72404 -10.64674 -10.63751
 Alpha  occ. eigenvalues --  -10.63187 -10.62701  -1.24230  -1.23663  -1.22285
 Alpha  occ. eigenvalues --   -1.18374  -0.98906  -0.90128  -0.87193  -0.84813
 Alpha  occ. eigenvalues --   -0.75989  -0.73769  -0.68725  -0.67326  -0.61040
 Alpha  occ. eigenvalues --   -0.60400  -0.59049  -0.56312  -0.53750  -0.52593
 Alpha  occ. eigenvalues --   -0.51574  -0.50717  -0.49582  -0.49196  -0.49117
 Alpha  occ. eigenvalues --   -0.47724  -0.45981  -0.44256  -0.44061  -0.42570
 Alpha  occ. eigenvalues --   -0.36917  -0.33709  -0.28793  -0.27427
 Alpha virt. eigenvalues --   -0.00493   0.01606   0.02414   0.04495   0.04732
 Alpha virt. eigenvalues --    0.06082   0.06504   0.07202   0.07462   0.08050
 Alpha virt. eigenvalues --    0.08838   0.09167   0.10841   0.10986   0.11661
 Alpha virt. eigenvalues --    0.12874   0.13266   0.13442   0.15000   0.16115
 Alpha virt. eigenvalues --    0.16279   0.16907   0.17577   0.18676   0.18791
 Alpha virt. eigenvalues --    0.19528   0.20128   0.20157   0.21195   0.22092
 Alpha virt. eigenvalues --    0.23183   0.23413   0.24101   0.24663   0.24900
 Alpha virt. eigenvalues --    0.25411   0.26780   0.28287   0.28566   0.28590
 Alpha virt. eigenvalues --    0.29074   0.30512   0.30599   0.30985   0.31741
 Alpha virt. eigenvalues --    0.32640   0.32843   0.33567   0.34148   0.34837
 Alpha virt. eigenvalues --    0.35356   0.36853   0.37067   0.37210   0.38086
 Alpha virt. eigenvalues --    0.38244   0.39092   0.39385   0.40804   0.42768
 Alpha virt. eigenvalues --    0.43915   0.44436   0.46162   0.47310   0.49675
 Alpha virt. eigenvalues --    0.51822   0.53670   0.54211   0.56881   0.57589
 Alpha virt. eigenvalues --    0.68429   0.72064   0.72924   0.74510   0.77904
 Alpha virt. eigenvalues --    0.79483   0.79494   0.80770   0.81859   0.82722
 Alpha virt. eigenvalues --    0.82912   0.83831   0.85402   0.86597   0.90135
 Alpha virt. eigenvalues --    0.92067   0.95709   0.96157   0.97833   1.00445
 Alpha virt. eigenvalues --    1.01935   1.03249   1.08204   1.08973   1.13409
 Alpha virt. eigenvalues --    1.14513   1.15963   1.16630   1.19345   1.19805
 Alpha virt. eigenvalues --    1.22640   1.25877   1.26634   1.28128   1.29643
 Alpha virt. eigenvalues --    1.29744   1.30661   1.31777   1.33488   1.33493
 Alpha virt. eigenvalues --    1.33999   1.35915   1.37514   1.37893   1.39271
 Alpha virt. eigenvalues --    1.39491   1.42910   1.44935   1.45835   1.46500
 Alpha virt. eigenvalues --    1.47939   1.48571   1.49124   1.49901   1.50970
 Alpha virt. eigenvalues --    1.51906   1.55422   1.57267   1.59542   1.68292
 Alpha virt. eigenvalues --    1.68928   1.69442   1.71554   1.73472   1.79572
 Alpha virt. eigenvalues --    1.82686   1.82979   1.85158   1.87654   1.91161
 Alpha virt. eigenvalues --    1.94314   1.95647   1.97864   1.98599   2.00712
 Alpha virt. eigenvalues --    2.02120   2.02395   2.02673   2.03439   2.06237
 Alpha virt. eigenvalues --    2.09193   2.10900   2.13745   2.15038   2.15616
 Alpha virt. eigenvalues --    2.16107   2.18383   2.20822   2.26824   2.30139
 Alpha virt. eigenvalues --    2.33416   2.34290   2.34880   2.39465   2.44834
 Alpha virt. eigenvalues --    2.45709   2.47373   2.50605   2.52060   2.54792
 Alpha virt. eigenvalues --    2.55485   2.57355   2.58528   2.63133   2.63322
 Alpha virt. eigenvalues --    2.63967   2.66630   2.67312   2.68423   2.69438
 Alpha virt. eigenvalues --    2.71746   2.77323   2.78526   2.79735   2.84090
 Alpha virt. eigenvalues --    2.85151   2.85852   2.87454   2.87532   2.89316
 Alpha virt. eigenvalues --    2.92660   2.97286   3.00297   3.02385   3.07056
 Alpha virt. eigenvalues --    3.12972   3.16806   3.21661   3.24525   3.29442
 Alpha virt. eigenvalues --    3.34338   3.36017   3.39949   3.46344   3.56816
 Alpha virt. eigenvalues --    3.58655   3.58796   3.63573   3.66149   3.68704
 Alpha virt. eigenvalues --    3.82587   3.93213   4.40352   4.41698   4.43701
 Alpha virt. eigenvalues --    4.51639   4.56787   4.62609   4.63613   4.68909
 Alpha virt. eigenvalues --    4.84647   4.93092   4.98321   5.08589
          Condensed to atoms (all electrons):
               1          2          3          4          5          6
     1  C   12.612890  -1.834433   0.747935  -3.216087  -0.931942  -3.678828
     2  C   -1.834433   6.779146  -0.615588   1.770594  -1.431732   2.368062
     3  C    0.747935  -0.615588  12.659246  -4.174751  -1.054982  -2.191933
     4  C   -3.216087   1.770594  -4.174751  14.398409  -1.770128   2.022503
     5  C   -0.931942  -1.431732  -1.054982  -1.770128  14.248629  -3.636642
     6  C   -3.678828   2.368062  -2.191933   2.022503  -3.636642  14.280787
     7  O    0.224482   0.004087   0.004889   0.008512  -0.425747   0.204102
     8  C    1.498835  -0.614601   0.189045  -1.942398  -1.300866  -0.890806
     9  C   -0.273784   0.004359  -0.395618  -0.274760   0.119606  -0.381026
    10  O    0.017158  -0.005843  -0.052894  -0.236509  -0.105498  -0.043278
    11  O    0.044447  -0.025604  -0.403886   0.265850   0.264929   0.001447
    12  O   -0.245967   0.162610   0.019540   0.020911  -0.014765   0.060708
    13  H    0.190235   0.134486   0.040143  -0.025360   0.006141  -0.012901
    14  H   -0.024569  -0.026145   0.147643   0.202992   0.030333   0.000696
    15  H   -0.164997  -0.002950   0.000429   0.005744   0.173886  -0.016544
    16  H    0.006032   0.000129  -0.000362  -0.008199   0.005678   0.024022
    17  H   -0.001353   0.000194  -0.003368  -0.020223   0.043507   0.009257
    18  H    0.006021   0.000129  -0.000362  -0.008160   0.005751   0.023967
    19  H    0.004461  -0.000477   0.189828   0.068609  -0.222622  -0.059885
    20  H    0.116438  -0.015558  -0.068851  -0.018481   0.019965  -0.033621
               7          8          9         10         11         12
     1  C    0.224482   1.498835  -0.273784   0.017158   0.044447  -0.245967
     2  C    0.004087  -0.614601   0.004359  -0.005843  -0.025604   0.162610
     3  C    0.004889   0.189045  -0.395618  -0.052894  -0.403886   0.019540
     4  C    0.008512  -1.942398  -0.274760  -0.236509   0.265850   0.020911
     5  C   -0.425747  -1.300866   0.119606  -0.105498   0.264929  -0.014765
     6  C    0.204102  -0.890806  -0.381026  -0.043278   0.001447   0.060708
     7  O    8.434712   0.005392  -0.093706   0.001041  -0.000534  -0.000614
     8  C    0.005392   9.501692  -1.230249   0.605311  -0.136589  -0.002372
     9  C   -0.093706  -1.230249   7.695449  -0.019648  -0.051532  -0.000604
    10  O    0.001041   0.605311  -0.019648   8.316758   0.011148  -0.000020
    11  O   -0.000534  -0.136589  -0.051532   0.011148   8.461274  -0.000496
    12  O   -0.000614  -0.002372  -0.000604  -0.000020  -0.000496   8.341250
    13  H   -0.014411   0.008565   0.000622   0.000018   0.000057  -0.007020
    14  H    0.000046   0.008856   0.000459   0.000105  -0.007274  -0.010403
    15  H    0.217864  -0.002255   0.012097  -0.000025   0.000018  -0.000066
    16  H   -0.006303  -0.061379   0.396537   0.003765   0.000112   0.000001
    17  H    0.001762  -0.106459   0.451699  -0.009550   0.000097  -0.000000
    18  H   -0.006301  -0.061408   0.396515   0.003770   0.000112   0.000001
    19  H    0.000019   0.012819   0.007757   0.065033   0.182548   0.000019
    20  H    0.000032   0.002109  -0.000011   0.000001   0.000015   0.226284
              13         14         15         16         17         18
     1  C    0.190235  -0.024569  -0.164997   0.006032  -0.001353   0.006021
     2  C    0.134486  -0.026145  -0.002950   0.000129   0.000194   0.000129
     3  C    0.040143   0.147643   0.000429  -0.000362  -0.003368  -0.000362
     4  C   -0.025360   0.202992   0.005744  -0.008199  -0.020223  -0.008160
     5  C    0.006141   0.030333   0.173886   0.005678   0.043507   0.005751
     6  C   -0.012901   0.000696  -0.016544   0.024022   0.009257   0.023967
     7  O   -0.014411   0.000046   0.217864  -0.006303   0.001762  -0.006301
     8  C    0.008565   0.008856  -0.002255  -0.061379  -0.106459  -0.061408
     9  C    0.000622   0.000459   0.012097   0.396537   0.451699   0.396515
    10  O    0.000018   0.000105  -0.000025   0.003765  -0.009550   0.003770
    11  O    0.000057  -0.007274   0.000018   0.000112   0.000097   0.000112
    12  O   -0.007020  -0.010403  -0.000066   0.000001  -0.000000   0.000001
    13  H    0.533553  -0.000109   0.007220  -0.000001  -0.000000  -0.000001
    14  H   -0.000109   0.527744  -0.000001   0.000000  -0.000000   0.000000
    15  H    0.007220  -0.000001   0.378273   0.000172  -0.000015   0.000172
    16  H   -0.000001   0.000000   0.000172   0.513562  -0.023255  -0.023193
    17  H   -0.000000  -0.000000  -0.000015  -0.023255   0.507284  -0.023255
    18  H   -0.000001   0.000000   0.000172  -0.023193  -0.023255   0.513568
    19  H    0.000000   0.000006   0.000000  -0.000050   0.000003  -0.000050
    20  H   -0.000044   0.004886   0.000000   0.000000  -0.000000   0.000000
              19         20
     1  C    0.004461   0.116438
     2  C   -0.000477  -0.015558
     3  C    0.189828  -0.068851
     4  C    0.068609  -0.018481
     5  C   -0.222622   0.019965
     6  C   -0.059885  -0.033621
     7  O    0.000019   0.000032
     8  C    0.012819   0.002109
     9  C    0.007757  -0.000011
    10  O    0.065033   0.000001
    11  O    0.182548   0.000015
    12  O    0.000019   0.226284
    13  H    0.000000  -0.000044
    14  H    0.000006   0.004886
    15  H    0.000000   0.000000
    16  H   -0.000050   0.000000
    17  H    0.000003  -0.000000
    18  H   -0.000050   0.000000
    19  H    0.278311   0.000000
    20  H    0.000000   0.394862
 Mulliken charges:
               1
     1  C    0.903028
     2  C   -0.650865
     3  C    0.963896
     4  C   -1.069068
     5  C    1.976500
     6  C   -2.050085
     7  O   -0.559324
     8  C    0.516759
     9  C   -0.364164
    10  O   -0.550841
    11  O   -0.606140
    12  O   -0.548996
    13  H    0.138807
    14  H    0.144736
    15  H    0.390978
    16  H    0.172730
    17  H    0.173677
    18  H    0.172725
    19  H    0.473673
    20  H    0.371974
 Sum of Mulliken charges =  -0.00000
 Mulliken charges with hydrogens summed into heavy atoms:
               1
     1  C    1.041836
     2  C   -0.650865
     3  C    1.108632
     4  C   -1.069068
     5  C    1.976500
     6  C   -2.050085
     7  O   -0.168347
     8  C    0.516759
     9  C    0.154968
    10  O   -0.550841
    11  O   -0.132467
    12  O   -0.177021
 Electronic spatial extent (au):  <R**2>=           2068.9894
 Charge=             -0.0000 electrons
 Dipole moment (field-independent basis, Debye):
    X=             -2.3057    Y=              3.2947    Z=              0.0000  Tot=              4.0214
 Quadrupole moment (field-independent basis, Debye-Ang):
   XX=            -67.5046   YY=            -66.6561   ZZ=            -72.1179
   XY=              9.3109   XZ=             -0.0003   YZ=              0.0006
 Traceless Quadrupole moment (field-independent basis, Debye-Ang):
   XX=              1.2549   YY=              2.1034   ZZ=             -3.3584
   XY=              9.3109   XZ=             -0.0003   YZ=              0.0006
 Octapole moment (field-independent basis, Debye-Ang**2):
  XXX=            -30.4770  YYY=             45.2175  ZZZ=              0.0001  XYY=            -19.8963
  XXY=            -15.5878  XXZ=             -0.0010  XZZ=              5.1682  YZZ=             -0.2137
  YYZ=              0.0022  XYZ=              0.0006
 Hexadecapole moment (field-independent basis, Debye-Ang**3):
 XXXX=          -1617.5718 YYYY=           -764.4257 ZZZZ=            -82.6932 XXXY=            168.6364
 XXXZ=              0.0099 YYYX=            -29.5228 YYYZ=             -0.0076 ZZZX=              0.0081
 ZZZY=             -0.0142 XXYY=           -405.9996 XXZZ=           -305.5265 YYZZ=           -160.2522
 XXYZ=             -0.0041 YYXZ=             -0.0001 ZZXY=              0.3158
 N-N= 6.985908872437D+02 E-N=-2.822883832351D+03  KE= 6.054328649694D+02
 Calling FoFJK, ICntrl=  10002127 FMM=F ISym2X=0 I1Cent= 0 IOpClX= 0 NMat=1 NMatS=1 NMatT=0.
 ***** Axes restored to original set *****
 -------------------------------------------------------------------
 Center     Atomic                   Forces (Hartrees/Bohr)
 Number     Number              X              Y              Z
 -------------------------------------------------------------------
      1        6          -0.002017860    0.002160414    0.000000583
      2        6           0.005141227   -0.000828531   -0.000000169
      3        6          -0.001581866   -0.002509969   -0.000000042
      4        6          -0.001703623    0.006348103    0.000000059
      5        6          -0.001441162    0.000109946   -0.000003789
      6        6          -0.002502028   -0.004329548   -0.000001371
      7        8           0.004309927    0.004742056   -0.000000114
      8        6          -0.001906915    0.005910915    0.000015995
      9        6           0.002262108    0.003781032   -0.000003190
     10        8           0.005123419   -0.006150552   -0.000008389
     11        8           0.004082793   -0.006638877   -0.000003086
     12        8          -0.005704808    0.001463588    0.000000186
     13        1           0.000800683   -0.001344954    0.000000087
     14        1           0.000711723    0.001343913    0.000000003
     15        1          -0.000304657    0.001099757   -0.000000102
     16        1          -0.000079754   -0.001235840   -0.001326298
     17        1          -0.001508019    0.000358963   -0.000000326
     18        1          -0.000079093   -0.001233550    0.001325246
     19        1          -0.002753637   -0.002281035    0.000004722
     20        1          -0.000848456   -0.000765831   -0.000000003
 -------------------------------------------------------------------
 Cartesian Forces:  Max     0.006638877 RMS     0.002590537

 GradGradGradGradGradGradGradGradGradGradGradGradGradGradGradGradGradGrad
 Berny optimization.
 FormGI is forming the generalized inverse of G from B-inverse, IUseBI=4.
 Internal  Forces:  Max     0.008624245 RMS     0.002274544
 Search for a local minimum.
 Step number   1 out of a maximum of  100
 All quantities printed in internal units (Hartrees-Bohrs-Radians)
 Mixed Optimization -- RFO/linear search
 Second derivative matrix not updated -- first step.
 ITU=  0
     Eigenvalues ---    0.00703   0.00934   0.01264   0.01596   0.01779
     Eigenvalues ---    0.01985   0.02064   0.02104   0.02150   0.02184
     Eigenvalues ---    0.02185   0.02213   0.02224   0.02286   0.02650
     Eigenvalues ---    0.07307   0.07496   0.16000   0.16000   0.16000
     Eigenvalues ---    0.16000   0.16000   0.16000   0.16000   0.16000
     Eigenvalues ---    0.23478   0.23498   0.25000   0.25000   0.25000
     Eigenvalues ---    0.25000   0.25000   0.25000   0.25000   0.31884
     Eigenvalues ---    0.34421   0.34421   0.34728   0.35284   0.35312
     Eigenvalues ---    0.36667   0.38825   0.40618   0.43684   0.44924
     Eigenvalues ---    0.45840   0.46758   0.47509   0.52998   0.53956
     Eigenvalues ---    0.54425   0.54464   0.60080   0.83395
 RFO step:  Lambda=-1.24913070D-03 EMin= 7.03109463D-03
 Linear search not attempted -- first point.
 Iteration  1 RMS(Cart)=  0.03590912 RMS(Int)=  0.00037788
 Iteration  2 RMS(Cart)=  0.00057994 RMS(Int)=  0.00000161
 Iteration  3 RMS(Cart)=  0.00000014 RMS(Int)=  0.00000161
 Variable       Old X    -DE/DX   Delta X   Delta X   Delta X     New X
                                 (Linear)    (Quad)   (Total)
    R1        2.64633   0.00060   0.00000   0.00111   0.00111   2.64744
    R2        2.61977   0.00141   0.00000   0.00286   0.00286   2.62264
    R3        2.05215  -0.00156   0.00000  -0.00442  -0.00442   2.04774
    R4        2.62340   0.00097   0.00000   0.00191   0.00191   2.62532
    R5        2.56072   0.00659   0.00000   0.01219   0.01219   2.57290
    R6        2.64215   0.00207   0.00000   0.00457   0.00457   2.64672
    R7        2.05172  -0.00152   0.00000  -0.00429  -0.00429   2.04743
    R8        2.71112   0.00410   0.00000   0.01035   0.01035   2.72147
    R9        2.50877   0.00862   0.00000   0.01432   0.01432   2.52310
   R10        2.68617   0.00146   0.00000   0.00357   0.00357   2.68974
   R11        2.76351   0.00367   0.00000   0.00997   0.00997   2.77348
   R12        2.56955   0.00708   0.00000   0.01332   0.01332   2.58287
   R13        1.82312   0.00104   0.00000   0.00191   0.00191   1.82503
   R14        2.84357   0.00168   0.00000   0.00525   0.00525   2.84881
   R15        2.36135   0.00772   0.00000   0.00925   0.00925   2.37060
   R16        2.06625  -0.00177   0.00000  -0.00511  -0.00511   2.06114
   R17        2.06120  -0.00154   0.00000  -0.00441  -0.00441   2.05678
   R18        2.06625  -0.00176   0.00000  -0.00510  -0.00510   2.06114
   R19        1.91013  -0.00311   0.00000  -0.00676  -0.00676   1.90337
   R20        1.82347   0.00105   0.00000   0.00193   0.00193   1.82539
    A1        2.08421   0.00002   0.00000  -0.00056  -0.00056   2.08365
    A2        2.08094   0.00003   0.00000   0.00054   0.00054   2.08147
    A3        2.11804  -0.00005   0.00000   0.00002   0.00002   2.11806
    A4        2.11502  -0.00012   0.00000  -0.00114  -0.00114   2.11388
    A5        2.03123  -0.00050   0.00000  -0.00166  -0.00165   2.02957
    A6        2.13694   0.00062   0.00000   0.00279   0.00280   2.13973
    A7        2.08337   0.00099   0.00000   0.00430   0.00430   2.08767
    A8        2.13142  -0.00057   0.00000  -0.00260  -0.00260   2.12882
    A9        2.06840  -0.00042   0.00000  -0.00170  -0.00170   2.06670
   A10        2.12054  -0.00102   0.00000  -0.00363  -0.00362   2.11692
   A11        2.05042  -0.00449   0.00000  -0.01809  -0.01809   2.03233
   A12        2.11222   0.00551   0.00000   0.02172   0.02172   2.13394
   A13        2.03296  -0.00080   0.00000  -0.00266  -0.00266   2.03030
   A14        2.06572   0.00641   0.00000   0.02524   0.02524   2.09096
   A15        2.18451  -0.00561   0.00000  -0.02258  -0.02258   2.16193
   A16        2.13027   0.00092   0.00000   0.00369   0.00369   2.13396
   A17        2.08985   0.00038   0.00000   0.00150   0.00150   2.09135
   A18        2.06306  -0.00130   0.00000  -0.00519  -0.00519   2.05787
   A19        1.90372   0.00084   0.00000   0.00519   0.00519   1.90890
   A20        2.14700  -0.00311   0.00000  -0.01238  -0.01238   2.13462
   A21        2.08953   0.00404   0.00000   0.01606   0.01606   2.10559
   A22        2.04666  -0.00093   0.00000  -0.00369  -0.00369   2.04297
   A23        1.93803  -0.00050   0.00000  -0.00332  -0.00332   1.93471
   A24        1.88162  -0.00004   0.00000   0.00018   0.00018   1.88180
   A25        1.93802  -0.00050   0.00000  -0.00329  -0.00330   1.93472
   A26        1.92400   0.00034   0.00000   0.00249   0.00249   1.92649
   A27        1.85874   0.00037   0.00000   0.00152   0.00151   1.86025
   A28        1.92400   0.00034   0.00000   0.00249   0.00249   1.92649
   A29        1.84204   0.00339   0.00000   0.02099   0.02099   1.86303
   A30        1.91627   0.00082   0.00000   0.00507   0.00507   1.92134
    D1       -0.00000   0.00000   0.00000   0.00002   0.00002   0.00001
    D2        3.14159   0.00000   0.00000   0.00001   0.00001  -3.14159
    D3        3.14159   0.00000   0.00000   0.00000   0.00000   3.14159
    D4       -0.00000  -0.00000   0.00000  -0.00001  -0.00001  -0.00001
    D5        0.00001  -0.00000   0.00000  -0.00002  -0.00002  -0.00001
    D6       -3.14159  -0.00000   0.00000  -0.00004  -0.00004   3.14156
    D7       -3.14159   0.00000   0.00000   0.00000   0.00000  -3.14159
    D8        0.00000  -0.00000   0.00000  -0.00002  -0.00002  -0.00002
    D9       -0.00000   0.00000   0.00000   0.00001   0.00001   0.00000
   D10       -3.14159  -0.00000   0.00000  -0.00003  -0.00003   3.14157
   D11        3.14159   0.00000   0.00000   0.00001   0.00001  -3.14158
   D12        0.00000  -0.00000   0.00000  -0.00002  -0.00002  -0.00001
   D13        3.14159   0.00000   0.00000   0.00000   0.00000  -3.14159
   D14       -0.00000  -0.00000   0.00000  -0.00000  -0.00000  -0.00001
   D15        0.00001  -0.00000   0.00000  -0.00003  -0.00003  -0.00003
   D16       -3.14159  -0.00000   0.00000  -0.00007  -0.00007   3.14153
   D17       -3.14159  -0.00000   0.00000  -0.00000  -0.00000  -3.14159
   D18        0.00000  -0.00000   0.00000  -0.00005  -0.00004  -0.00004
   D19       -0.00001   0.00000   0.00000   0.00003   0.00003   0.00003
   D20        3.14158   0.00000   0.00000   0.00008   0.00009  -3.14152
   D21        3.14159   0.00000   0.00000   0.00008   0.00008  -3.14152
   D22       -0.00002   0.00000   0.00000   0.00013   0.00013   0.00011
   D23        3.14157   0.00000   0.00000   0.00018   0.00018  -3.14144
   D24       -0.00002   0.00000   0.00000   0.00013   0.00013   0.00011
   D25       -0.00000  -0.00000   0.00000  -0.00001  -0.00001  -0.00001
   D26       -3.14159   0.00000   0.00000   0.00001   0.00001  -3.14158
   D27       -3.14158  -0.00000   0.00000  -0.00006  -0.00006   3.14154
   D28        0.00001  -0.00000   0.00000  -0.00004  -0.00004  -0.00003
   D29       -3.14155  -0.00000   0.00000  -0.00012  -0.00012   3.14151
   D30       -0.00009   0.00000   0.00000   0.00041   0.00041   0.00032
   D31        0.00003   0.00000   0.00000  -0.00006  -0.00006  -0.00004
   D32        3.14149   0.00001   0.00000   0.00046   0.00046  -3.14123
   D33        0.00003   0.00000   0.00000   0.00000   0.00000   0.00003
   D34       -3.14157  -0.00000   0.00000  -0.00002  -0.00002  -3.14158
   D35        1.03223  -0.00008   0.00000  -0.00090  -0.00090   1.03133
   D36        3.14153   0.00000   0.00000   0.00027   0.00027  -3.14139
   D37       -1.03236   0.00009   0.00000   0.00146   0.00145  -1.03091
   D38       -2.10924  -0.00009   0.00000  -0.00141  -0.00141  -2.11065
   D39        0.00006  -0.00000   0.00000  -0.00024  -0.00024  -0.00018
   D40        2.10935   0.00009   0.00000   0.00094   0.00094   2.11029
         Item               Value     Threshold  Converged?
 Maximum Force            0.008624     0.000450     NO 
 RMS     Force            0.002275     0.000300     NO 
 Maximum Displacement     0.175609     0.001800     NO 
 RMS     Displacement     0.036156     0.001200     NO 
 Predicted change in Energy=-6.271027D-04
 GradGradGradGradGradGradGradGradGradGradGradGradGradGradGradGradGradGrad

                          Input orientation:                          
 ---------------------------------------------------------------------
 Center     Atomic      Atomic             Coordinates (Angstroms)
 Number     Number       Type             X           Y           Z
 ---------------------------------------------------------------------
      1          6           0       -1.515705    1.244123    0.000068
      2          6           0       -2.256610    0.055105   -0.000020
      3          6           0       -1.626859   -1.183221   -0.000057
      4          6           0       -0.227783   -1.248197   -0.000001
      5          6           0        0.576478   -0.053554    0.000063
      6          6           0       -0.129233    1.182527    0.000102
      7          8           0        0.602520    2.336940    0.000150
      8          6           0        2.040298   -0.159671    0.000031
      9          6           0        2.935978    1.052927   -0.000009
     10          8           0        2.599942   -1.282386   -0.000397
     11          8           0        0.310696   -2.469960    0.000037
     12          8           0       -3.611536    0.188959   -0.000057
     13          1           0       -2.037946    2.193590    0.000094
     14          1           0       -2.186045   -2.111221   -0.000105
     15          1           0        0.004508    3.095284    0.000181
     16          1           0        2.745506    1.676287    0.874514
     17          1           0        3.967337    0.705192   -0.000242
     18          1           0        2.745181    1.676491   -0.874316
     19          1           0        1.310318   -2.346493    0.000225
     20          1           0       -4.030837   -0.681247   -0.000116
 ---------------------------------------------------------------------
                    Distance matrix (angstroms):
                    1          2          3          4          5
     1  C    0.000000
     2  C    1.400965   0.000000
     3  C    2.429888   1.389258   0.000000
     4  C    2.805424   2.411376   1.400584   0.000000
     5  C    2.461949   2.835171   2.476053   1.440142   0.000000
     6  C    1.387840   2.407657   2.799936   2.432720   1.423349
     7  O    2.383511   3.658059   4.166733   3.680029   2.390636
     8  C    3.823061   4.302273   3.807321   2.515767   1.467662
     9  C    4.455788   5.287592   5.081323   3.912104   2.606059
    10  O    4.829264   5.037358   4.227963   2.827931   2.367369
    11  O    4.138859   3.600974   2.325901   1.335165   2.430980
    12  O    2.346461   1.361521   2.412845   3.676303   4.195029
    13  H    1.083616   2.149635   3.401741   3.888777   3.447443
    14  H    3.421650   2.167475   1.083454   2.140000   3.444637
    15  H    2.395380   3.788844   4.578969   4.349688   3.200363
    16  H    4.371424   5.330498   5.297097   4.261201   2.908900
    17  H    5.509464   6.257805   5.904331   4.627608   3.474712
    18  H    4.371114   5.330216   5.296887   4.261072   2.908757
    19  H    4.569346   4.300075   3.159147   1.889976   2.407507
    20  H    3.167481   1.920962   2.455827   3.845081   4.649876
                    6          7          8          9         10
     6  C    0.000000
     7  O    1.366797   0.000000
     8  C    2.551149   2.881020   0.000000
     9  C    3.067950   2.663404   1.507526   0.000000
    10  O    3.677525   4.133910   1.254468   2.359366   0.000000
    11  O    3.678886   4.815751   2.885994   4.393500   2.578949
    12  O    3.621272   4.729915   5.662577   6.604270   6.383362
    13  H    2.159961   2.644354   4.708493   5.103041   5.795895
    14  H    3.883201   5.249974   4.655161   6.020544   4.857225
    15  H    1.917427   0.965766   3.839163   3.572778   5.089230
    16  H    3.045082   2.406941   2.152390   1.090710   3.088754
    17  H    4.124286   3.739598   2.112218   1.088402   2.412517
    18  H    3.044809   2.406632   2.152402   1.090711   3.088654
    19  H    3.811336   4.736615   2.305441   3.768133   1.671961
    20  H    4.323906   5.529688   6.093498   7.179406   6.657972
                   11         12         13         14         15
    11  O    0.000000
    12  O    4.738539   0.000000
    13  H    5.221572   2.548477   0.000000
    14  H    2.522381   2.706077   4.307358   0.000000
    15  H    5.573661   4.639235   2.232637   5.648558   0.000000
    16  H    4.887165   6.587033   4.890156   6.279361   3.207972
    17  H    4.842790   7.596434   6.186982   6.767295   4.627802
    18  H    4.887154   6.586724   4.889814   6.279171   3.207648
    19  H    1.007218   5.536530   5.641207   3.504269   5.596255
    20  H    4.695572   0.965956   3.498043   2.334113   5.526861
                   16         17         18         19         20
    16  H    0.000000
    17  H    1.789159   0.000000
    18  H    1.748831   1.789160   0.000000
    19  H    4.359691   4.046298   4.359822   0.000000
    20  H    7.227847   8.117450   7.227556   5.594727   0.000000
 Stoichiometry    C8H8O4
 Framework group  C1[X(C8H8O4)]
 Deg. of freedom    54
 Full point group                 C1      NOp   1
 Largest Abelian subgroup         C1      NOp   1
 Largest concise Abelian subgroup C1      NOp   1
                         Standard orientation:                         
 ---------------------------------------------------------------------
 Center     Atomic      Atomic             Coordinates (Angstroms)
 Number     Number       Type             X           Y           Z
 ---------------------------------------------------------------------
      1          6           0       -1.510968    1.259862    0.000078
      2          6           0       -2.261842    0.077114   -0.000010
      3          6           0       -1.642521   -1.166462   -0.000048
      4          6           0       -0.244041   -1.243196    0.000008
      5          6           0        0.570233   -0.055355    0.000073
      6          6           0       -0.125063    1.186614    0.000112
      7          8           0        0.616368    2.334836    0.000160
      8          6           0        2.033110   -0.173773    0.000040
      9          6           0        2.938951    1.031254    0.000001
     10          8           0        2.583296   -1.301152   -0.000387
     11          8           0        0.284149   -2.469442    0.000047
     12          8           0       -3.615594    0.222352   -0.000047
     13          1           0       -2.025210    2.213685    0.000103
     14          1           0       -2.209488   -2.089729   -0.000096
     15          1           0        0.024751    3.098179    0.000191
     16          1           0        2.753725    1.656193    0.874523
     17          1           0        3.967350    0.674862   -0.000232
     18          1           0        2.753401    1.656399   -0.874307
     19          1           0        1.284774   -2.354381    0.000234
     20          1           0       -4.042195   -0.644299   -0.000107
 ---------------------------------------------------------------------
 Rotational constants (GHZ):      1.5375070      0.7626574      0.5113758
 Standard basis: 6-31+G(d,p) (6D, 7F)
 There are   268 symmetry adapted cartesian basis functions of A   symmetry.
 There are   268 symmetry adapted basis functions of A   symmetry.
   268 basis functions,   440 primitive gaussians,   268 cartesian basis functions
    44 alpha electrons       44 beta electrons
       nuclear repulsion energy       696.1313322738 Hartrees.
 NAtoms=   20 NActive=   20 NUniq=   20 SFac= 1.00D+00 NAtFMM=   60 NAOKFM=F Big=F
 Integral buffers will be    131072 words long.
 Regular integral format.
 Two-electron integral symmetry is turned on.
 Nuclear repulsion after empirical dispersion term =      696.1218692583 Hartrees.
 One-electron integrals computed using PRISM.
 NBasis=   268 RedAO= T EigKep=  1.51D-06  NBF=   268
 NBsUse=   268 1.00D-06 EigRej= -1.00D+00 NBFU=   268
 Initial guess from the checkpoint file:  "B2PLYPD3THAP.chk"
 B after Tr=    -0.000000    0.000000   -0.000000
         Rot=    0.999990   -0.000006   -0.000002    0.004582 Ang=  -0.53 deg.
 ExpMin= 4.38D-02 ExpMax= 5.48D+03 ExpMxC= 8.25D+02 IAcc=2 IRadAn=         4 AccDes= 0.00D+00
 Harris functional with IExCor=  419 and IRadAn=       4 diagonalized for initial guess.
 HarFok:  IExCor=  419 AccDes= 0.00D+00 IRadAn=         4 IDoV= 1 UseB2=F ITyADJ=14
 ICtDFT=  3500011 ScaDFX=  1.000000  1.000000  1.000000  1.000000
 FoFCou: FMM=F IPFlag=           0 FMFlag=      100000 FMFlg1=           0
         NFxFlg=           0 DoJE=T BraDBF=F KetDBF=T FulRan=T
         wScrn=  0.000000 ICntrl=     500 IOpCl=  0 I1Cent=   200000004 NGrid=           0
         NMat0=    1 NMatS0=      1 NMatT0=    0 NMatD0=    1 NMtDS0=    0 NMtDT0=    0
 Petite list used in FoFCou.
 Keep R1 ints in memory in canonical form, NReq=659648347.
 Requested convergence on RMS density matrix=1.00D-08 within 128 cycles.
 Requested convergence on MAX density matrix=1.00D-06.
 Requested convergence on             energy=1.00D-06.
 No special actions if energy rises.
 SCF Done:  E(RB2PLYP) =  -609.441879594     A.U. after   13 cycles
            NFock= 13  Conv=0.91D-08     -V/T= 2.0069
 DoSCS=T DFT=T ScalE2(SS,OS)=  0.270000  0.270000
 ExpMin= 4.38D-02 ExpMax= 5.48D+03 ExpMxC= 8.25D+02 IAcc=3 IRadAn=         5 AccDes= 0.00D+00
 HarFok:  IExCor=  205 AccDes= 0.00D+00 IRadAn=         5 IDoV=-2 UseB2=F ITyADJ=14
 ICtDFT= 12500011 ScaDFX=  1.000000  1.000000  1.000000  1.000000
 Range of M.O.s used for correlation:    13   268
 NBasis=   268 NAE=    44 NBE=    44 NFC=    12 NFV=     0
 NROrb=    256 NOA=    32 NOB=    32 NVA=   224 NVB=   224

 **** Warning!!: The largest alpha MO coefficient is  0.14527795D+03

 DoSCS=T DFT=T ScalE2(SS,OS)=  0.270000  0.270000
 Fully direct method using O(ONN) memory.
 JobTyp=1 Pass  1:  I=  13 to  16 NPSUse= 18 ParTrn=T ParDer=T DoDerP=T.
 JobTyp=1 Pass  2:  I=  17 to  20 NPSUse= 18 ParTrn=T ParDer=T DoDerP=T.
 JobTyp=1 Pass  3:  I=  21 to  24 NPSUse= 18 ParTrn=T ParDer=T DoDerP=T.
 JobTyp=1 Pass  4:  I=  25 to  28 NPSUse= 18 ParTrn=T ParDer=T DoDerP=T.
 JobTyp=1 Pass  5:  I=  29 to  32 NPSUse= 18 ParTrn=T ParDer=T DoDerP=T.
 JobTyp=1 Pass  6:  I=  33 to  36 NPSUse= 18 ParTrn=T ParDer=T DoDerP=T.
 JobTyp=1 Pass  7:  I=  37 to  40 NPSUse= 18 ParTrn=T ParDer=T DoDerP=T.
 JobTyp=1 Pass  8:  I=  41 to  44 NPSUse= 18 ParTrn=T ParDer=T DoDerP=T.
 Spin components of T(2) and E(2):
     alpha-alpha T2 =       0.1293941280D+00 E2=     -0.8184763574D-01
     alpha-beta  T2 =       0.6597794191D+00 E2=     -0.4344572123D+00
     beta-beta   T2 =       0.1293941280D+00 E2=     -0.8184763574D-01
 E2(B2PLYP) =    -0.5981524838D+00 E(B2PLYP) =    -0.61004003207772D+03
          IDoAtm=11111111111111111111
          Differentiating once with respect to electric field.
                with respect to dipole field.
          Differentiating once with respect to nuclear coordinates.
 Keep R1 ints in memory in canonical form, NReq=659410000.
          There are     1 degrees of freedom in the 1st order CPHF.  IDoFFX=0 NUNeed=     1.
 LinEq1:  Iter=  0 NonCon=     1 RMS=1.97D-03 Max=6.69D-02 NDo=     1
 AX will form     1 AO Fock derivatives at one time.
 LinEq1:  Iter=  1 NonCon=     1 RMS=9.62D-04 Max=2.23D-02 NDo=     1
 LinEq1:  Iter=  2 NonCon=     1 RMS=3.44D-04 Max=1.01D-02 NDo=     1
 LinEq1:  Iter=  3 NonCon=     1 RMS=2.51D-04 Max=6.47D-03 NDo=     1
 LinEq1:  Iter=  4 NonCon=     1 RMS=1.09D-04 Max=4.23D-03 NDo=     1
 LinEq1:  Iter=  5 NonCon=     1 RMS=5.01D-05 Max=2.08D-03 NDo=     1
 LinEq1:  Iter=  6 NonCon=     1 RMS=1.88D-05 Max=6.78D-04 NDo=     1
 LinEq1:  Iter=  7 NonCon=     1 RMS=7.00D-06 Max=3.00D-04 NDo=     1
 LinEq1:  Iter=  8 NonCon=     1 RMS=3.54D-06 Max=9.44D-05 NDo=     1
 LinEq1:  Iter=  9 NonCon=     1 RMS=1.56D-06 Max=5.38D-05 NDo=     1
 LinEq1:  Iter= 10 NonCon=     1 RMS=5.11D-07 Max=1.06D-05 NDo=     1
 LinEq1:  Iter= 11 NonCon=     1 RMS=1.89D-07 Max=4.42D-06 NDo=     1
 LinEq1:  Iter= 12 NonCon=     1 RMS=9.99D-08 Max=2.24D-06 NDo=     1
 LinEq1:  Iter= 13 NonCon=     1 RMS=2.85D-08 Max=6.24D-07 NDo=     1
 LinEq1:  Iter= 14 NonCon=     1 RMS=1.33D-08 Max=3.13D-07 NDo=     1
 LinEq1:  Iter= 15 NonCon=     1 RMS=5.49D-09 Max=1.97D-07 NDo=     1
 LinEq1:  Iter= 16 NonCon=     1 RMS=2.59D-09 Max=6.56D-08 NDo=     1
 LinEq1:  Iter= 17 NonCon=     1 RMS=8.81D-10 Max=2.57D-08 NDo=     1
 LinEq1:  Iter= 18 NonCon=     1 RMS=3.27D-10 Max=1.13D-08 NDo=     1
 LinEq1:  Iter= 19 NonCon=     1 RMS=1.39D-10 Max=4.66D-09 NDo=     1
 LinEq1:  Iter= 20 NonCon=     1 RMS=4.70D-11 Max=1.03D-09 NDo=     1
 LinEq1:  Iter= 21 NonCon=     0 RMS=1.55D-11 Max=2.69D-10 NDo=     1
 Linear equations converged to 1.000D-10 1.000D-09 after    21 iterations.
 End of Minotr F.D. properties file   721 does not exist.
 End of Minotr F.D. properties file   722 does not exist.
 End of Minotr F.D. properties file   788 does not exist.
 Calling FoFJK, ICntrl=  10002127 FMM=F ISym2X=0 I1Cent= 0 IOpClX= 0 NMat=1 NMatS=1 NMatT=0.
 ***** Axes restored to original set *****
 -------------------------------------------------------------------
 Center     Atomic                   Forces (Hartrees/Bohr)
 Number     Number              X              Y              Z
 -------------------------------------------------------------------
      1        6          -0.001013801    0.000096941   -0.000001202
      2        6           0.002117326    0.000490284   -0.000000227
      3        6           0.000956482   -0.000936780   -0.000000710
      4        6          -0.000628611    0.009252425    0.000004292
      5        6          -0.002844601   -0.002861820    0.000011126
      6        6          -0.000994949   -0.002196410    0.000001729
      7        8          -0.001338320    0.002113307    0.000002567
      8        6           0.003625979   -0.003724539   -0.000051784
      9        6           0.001559381    0.000970927    0.000011695
     10        8          -0.007272773   -0.000992624    0.000030754
     11        8           0.015088457   -0.001533857    0.000010631
     12        8          -0.001306156    0.000417510   -0.000000019
     13        1           0.000030823   -0.000009147   -0.000000307
     14        1           0.000026119   -0.000072511    0.000000265
     15        1          -0.000558933   -0.000290250   -0.000000099
     16        1           0.000420735   -0.000249074   -0.000164192
     17        1          -0.000150170   -0.000520358    0.000001114
     18        1           0.000419423   -0.000255518    0.000165141
     19        1          -0.008416002    0.000414250   -0.000020742
     20        1           0.000279590   -0.000112757   -0.000000032
 -------------------------------------------------------------------
 Cartesian Forces:  Max     0.015088457 RMS     0.002916629

 GradGradGradGradGradGradGradGradGradGradGradGradGradGradGradGradGradGrad
 Berny optimization.
 Using GEDIIS/GDIIS optimizer.
 FormGI is forming the generalized inverse of G from B-inverse, IUseBI=4.
 Internal  Forces:  Max     0.019170295 RMS     0.003992047
 Search for a local minimum.
 Step number   2 out of a maximum of  100
 All quantities printed in internal units (Hartrees-Bohrs-Radians)
 Mixed Optimization -- RFO/linear search
 Update second derivatives using D2CorX and points    2    1
 DE=  3.22D-04 DEPred=-6.27D-04 R=-5.14D-01
 Trust test=-5.14D-01 RLast= 6.38D-02 DXMaxT set to 1.50D-01
 ITU= -1  0
 Use linear search instead of GDIIS.
     Eigenvalues ---    0.00703   0.00937   0.01264   0.01593   0.01780
     Eigenvalues ---    0.01982   0.02064   0.02104   0.02150   0.02184
     Eigenvalues ---    0.02185   0.02213   0.02224   0.02286   0.02650
     Eigenvalues ---    0.07351   0.07508   0.15323   0.16000   0.16000
     Eigenvalues ---    0.16000   0.16000   0.16000   0.16000   0.16021
     Eigenvalues ---    0.23475   0.23509   0.23710   0.25000   0.25000
     Eigenvalues ---    0.25000   0.25000   0.25000   0.30770   0.33007
     Eigenvalues ---    0.34421   0.34639   0.35043   0.35299   0.36026
     Eigenvalues ---    0.37101   0.39899   0.41849   0.43674   0.44781
     Eigenvalues ---    0.46717   0.47146   0.48992   0.53516   0.54415
     Eigenvalues ---    0.54457   0.57934   0.79088   1.03206
 RFO step:  Lambda=-4.60471401D-04 EMin= 7.03109505D-03
 Quartic linear search produced a step of -0.61889.
 Iteration  1 RMS(Cart)=  0.02898138 RMS(Int)=  0.00020912
 Iteration  2 RMS(Cart)=  0.00034781 RMS(Int)=  0.00000164
 Iteration  3 RMS(Cart)=  0.00000003 RMS(Int)=  0.00000164
 Variable       Old X    -DE/DX   Delta X   Delta X   Delta X     New X
                                 (Linear)    (Quad)   (Total)
    R1        2.64744  -0.00007  -0.00069   0.00124   0.00056   2.64800
    R2        2.62264   0.00093  -0.00177   0.00362   0.00185   2.62448
    R3        2.04774  -0.00002   0.00273  -0.00415  -0.00141   2.04632
    R4        2.62532   0.00021  -0.00118   0.00207   0.00089   2.62621
    R5        2.57290   0.00105  -0.00754   0.01243   0.00489   2.57779
    R6        2.64672  -0.00202  -0.00283   0.00251  -0.00032   2.64640
    R7        2.04743   0.00005   0.00265  -0.00395  -0.00130   2.04614
    R8        2.72147  -0.01103  -0.00641  -0.00093  -0.00734   2.71413
    R9        2.52310   0.00371  -0.00887   0.01617   0.00730   2.53040
   R10        2.68974   0.00168  -0.00221   0.00481   0.00260   2.69234
   R11        2.77348  -0.00105  -0.00617   0.00825   0.00208   2.77556
   R12        2.58287   0.00053  -0.00824   0.01314   0.00490   2.58777
   R13        1.82503   0.00012  -0.00118   0.00192   0.00073   1.82577
   R14        2.84881   0.00129  -0.00325   0.00639   0.00314   2.85195
   R15        2.37060  -0.00236  -0.00572   0.00796   0.00224   2.37284
   R16        2.06114  -0.00035   0.00316  -0.00514  -0.00198   2.05916
   R17        2.05678   0.00003   0.00273  -0.00409  -0.00135   2.05543
   R18        2.06114  -0.00035   0.00316  -0.00514  -0.00198   2.05916
   R19        1.90337  -0.00830   0.00418  -0.01332  -0.00914   1.89423
   R20        1.82539  -0.00002  -0.00119   0.00183   0.00064   1.82603
    A1        2.08365  -0.00010   0.00035   0.00028   0.00063   2.08428
    A2        2.08147   0.00007  -0.00033   0.00014  -0.00020   2.08128
    A3        2.11806   0.00002  -0.00001  -0.00042  -0.00043   2.11763
    A4        2.11388  -0.00007   0.00071  -0.00045   0.00026   2.11414
    A5        2.02957   0.00004   0.00102  -0.00178  -0.00075   2.02882
    A6        2.13973   0.00003  -0.00173   0.00222   0.00049   2.14022
    A7        2.08767  -0.00223  -0.00266  -0.00012  -0.00278   2.08489
    A8        2.12882   0.00118   0.00161  -0.00018   0.00143   2.13025
    A9        2.06670   0.00106   0.00105   0.00030   0.00135   2.06804
   A10        2.11692   0.00375   0.00224   0.00175   0.00400   2.12091
   A11        2.03233   0.00663   0.01120  -0.00590   0.00530   2.03763
   A12        2.13394  -0.01038  -0.01344   0.00415  -0.00929   2.12464
   A13        2.03030   0.00115   0.00165  -0.00120   0.00044   2.03074
   A14        2.09096  -0.01917  -0.01562  -0.00611  -0.02174   2.06922
   A15        2.16193   0.01802   0.01398   0.00732   0.02130   2.18323
   A16        2.13396  -0.00251  -0.00228  -0.00027  -0.00255   2.13141
   A17        2.09135  -0.00264  -0.00093  -0.00276  -0.00369   2.08766
   A18        2.05787   0.00514   0.00321   0.00303   0.00624   2.06411
   A19        1.90890  -0.00113  -0.00321   0.00169  -0.00152   1.90738
   A20        2.13462   0.01029   0.00766   0.00449   0.01215   2.14677
   A21        2.10559  -0.01339  -0.00994  -0.00588  -0.01582   2.08977
   A22        2.04297   0.00310   0.00228   0.00139   0.00367   2.04664
   A23        1.93471   0.00045   0.00205  -0.00136   0.00070   1.93541
   A24        1.88180  -0.00105  -0.00011  -0.00310  -0.00321   1.87859
   A25        1.93472   0.00044   0.00204  -0.00136   0.00068   1.93540
   A26        1.92649   0.00006  -0.00154   0.00153  -0.00001   1.92648
   A27        1.86025   0.00007  -0.00093   0.00286   0.00193   1.86217
   A28        1.92649   0.00007  -0.00154   0.00153  -0.00001   1.92648
   A29        1.86303  -0.00274  -0.01299   0.01115  -0.00184   1.86119
   A30        1.92134  -0.00055  -0.00314   0.00297  -0.00017   1.92117
    D1        0.00001  -0.00000  -0.00001  -0.00003  -0.00004  -0.00003
    D2       -3.14159  -0.00000  -0.00001  -0.00002  -0.00002   3.14158
    D3        3.14159   0.00000  -0.00000   0.00000  -0.00000   3.14159
    D4       -0.00001   0.00000   0.00000   0.00002   0.00002   0.00001
    D5       -0.00001   0.00000   0.00001   0.00002   0.00003   0.00002
    D6        3.14156   0.00000   0.00002   0.00008   0.00010  -3.14153
    D7       -3.14159  -0.00000  -0.00000  -0.00001  -0.00001   3.14158
    D8       -0.00002   0.00000   0.00001   0.00004   0.00005   0.00004
    D9        0.00000  -0.00000  -0.00000  -0.00001  -0.00001  -0.00000
   D10        3.14157   0.00000   0.00002   0.00005   0.00007  -3.14154
   D11       -3.14158  -0.00000  -0.00001  -0.00003  -0.00003   3.14157
   D12       -0.00001   0.00000   0.00001   0.00004   0.00005   0.00003
   D13       -3.14159  -0.00000  -0.00000  -0.00001  -0.00001   3.14158
   D14       -0.00001   0.00000   0.00000   0.00001   0.00001   0.00001
   D15       -0.00003   0.00000   0.00002   0.00006   0.00008   0.00005
   D16        3.14153   0.00001   0.00005   0.00017   0.00022  -3.14144
   D17       -3.14159  -0.00000   0.00000   0.00000   0.00000  -3.14159
   D18       -0.00004   0.00000   0.00003   0.00011   0.00014   0.00010
   D19        0.00003  -0.00000  -0.00002  -0.00007  -0.00009  -0.00006
   D20       -3.14152  -0.00001  -0.00005  -0.00018  -0.00023   3.14143
   D21       -3.14152  -0.00001  -0.00005  -0.00019  -0.00023   3.14143
   D22        0.00011  -0.00001  -0.00008  -0.00030  -0.00038  -0.00026
   D23       -3.14144  -0.00002  -0.00011  -0.00030  -0.00041   3.14134
   D24        0.00011  -0.00001  -0.00008  -0.00019  -0.00027  -0.00016
   D25       -0.00001   0.00000   0.00001   0.00003   0.00003   0.00003
   D26       -3.14158  -0.00000  -0.00001  -0.00002  -0.00003   3.14157
   D27        3.14154   0.00000   0.00004   0.00015   0.00019  -3.14146
   D28       -0.00003   0.00000   0.00003   0.00009   0.00012   0.00009
   D29        3.14151   0.00000   0.00007   0.00041   0.00048  -3.14120
   D30        0.00032  -0.00002  -0.00025  -0.00123  -0.00148  -0.00116
   D31       -0.00004  -0.00000   0.00004   0.00028   0.00032   0.00028
   D32       -3.14123  -0.00002  -0.00029  -0.00135  -0.00164   3.14032
   D33        0.00003  -0.00000  -0.00000  -0.00003  -0.00003   0.00000
   D34       -3.14158   0.00000   0.00001   0.00003   0.00004  -3.14155
   D35        1.03133   0.00031   0.00056   0.00002   0.00057   1.03191
   D36       -3.14139  -0.00001  -0.00017  -0.00089  -0.00106   3.14074
   D37       -1.03091  -0.00033  -0.00090  -0.00180  -0.00271  -1.03362
   D38       -2.11065   0.00033   0.00087   0.00161   0.00248  -2.10817
   D39       -0.00018   0.00001   0.00015   0.00069   0.00085   0.00067
   D40        2.11029  -0.00032  -0.00058  -0.00022  -0.00080   2.10949
         Item               Value     Threshold  Converged?
 Maximum Force            0.019170     0.000450     NO 
 RMS     Force            0.003992     0.000300     NO 
 Maximum Displacement     0.100300     0.001800     NO 
 RMS     Displacement     0.029066     0.001200     NO 
 Predicted change in Energy=-4.382114D-04
 GradGradGradGradGradGradGradGradGradGradGradGradGradGradGradGradGradGrad

                          Input orientation:                          
 ---------------------------------------------------------------------
 Center     Atomic      Atomic             Coordinates (Angstroms)
 Number     Number       Type             X           Y           Z
 ---------------------------------------------------------------------
      1          6           0       -1.532716    1.247550    0.000059
      2          6           0       -2.263032    0.051654    0.000169
      3          6           0       -1.622255   -1.181534    0.000031
      4          6           0       -0.222692   -1.230376   -0.000228
      5          6           0        0.570407   -0.032951   -0.000290
      6          6           0       -0.144738    1.199285   -0.000154
      7          8           0        0.572921    2.365560   -0.000183
      8          6           0        2.033667   -0.159948   -0.000356
      9          6           0        2.962016    1.029936    0.000074
     10          8           0        2.559851   -1.300031    0.000909
     11          8           0        0.337882   -2.446418   -0.000528
     12          8           0       -3.621594    0.174547    0.000395
     13          1           0       -2.063309    2.191518    0.000169
     14          1           0       -2.171620   -2.114585    0.000069
     15          1           0       -0.036530    3.115242   -0.000039
     16          1           0        2.789139    1.657324    0.874064
     17          1           0        3.981972    0.652116    0.000805
     18          1           0        2.790293    1.657053   -0.874337
     19          1           0        1.330240   -2.305001   -0.000928
     20          1           0       -4.033695   -0.699466    0.000445
 ---------------------------------------------------------------------
                    Distance matrix (angstroms):
                    1          2          3          4          5
     1  C    0.000000
     2  C    1.401260   0.000000
     3  C    2.430734   1.389729   0.000000
     4  C    2.802906   2.409686   1.400415   0.000000
     5  C    2.462277   2.834702   2.475279   1.436256   0.000000
     6  C    1.388817   2.409196   2.802027   2.430911   1.424724
     7  O    2.384040   3.660162   4.171410   3.682900   2.398512
     8  C    3.834076   4.301906   3.795972   2.497393   1.468761
     9  C    4.499996   5.315840   5.089806   3.905300   2.617159
    10  O    4.820713   5.008717   4.183784   2.783414   2.358682
    11  O    4.140597   3.606261   2.332824   1.339030   2.424643
    12  O    2.348351   1.364110   2.415847   3.677819   4.197134
    13  H    1.082868   2.149164   3.401765   3.885515   3.447422
    14  H    3.422303   2.168167   1.082769   2.140128   3.442661
    15  H    2.393082   3.787200   4.580044   4.349604   3.206165
    16  H    4.428344   5.372737   5.318218   4.263136   2.923063
    17  H    5.546740   6.273805   5.896578   4.606840   3.479669
    18  H    4.429522   5.373840   5.319086   4.263730   2.923690
    19  H    4.562580   4.297141   3.159019   1.888496   2.395738
    20  H    3.169507   1.923390   2.459153   3.847806   4.652096
                    6          7          8          9         10
     6  C    0.000000
     7  O    1.369390   0.000000
     8  C    2.567677   2.917528   0.000000
     9  C    3.111366   2.737091   1.509190   0.000000
    10  O    3.682578   4.169466   1.255651   2.364420   0.000000
    11  O    3.677510   4.817715   2.846689   4.355584   2.500271
    12  O    3.624723   4.732282   5.665146   6.638946   6.354892
    13  H    2.159963   2.641968   4.723834   5.157825   5.793489
    14  H    3.884583   5.253970   4.637354   6.020152   4.801075
    15  H    1.919010   0.966154   3.874608   3.652366   5.122092
    16  H    3.095431   2.485464   2.153562   1.089661   3.092074
    17  H    4.162827   3.815432   2.110768   1.087686   2.415224
    18  H    3.096474   2.486537   2.153560   1.089661   3.092491
    19  H    3.802050   4.731561   2.257446   3.712748   1.588053
    20  H    4.327730   5.533109   6.091303   7.206303   6.620840
                   11         12         13         14         15
    11  O    0.000000
    12  O    4.748359   0.000000
    13  H    5.222659   2.548808   0.000000
    14  H    2.531346   2.709715   4.307465   0.000000
    15  H    5.574249   4.636849   2.227352   5.648867   0.000000
    16  H    4.859453   6.637728   4.959366   6.292877   3.297573
    17  H    4.783337   7.618550   6.238204   6.746950   4.713316
    18  H    4.859665   6.638922   4.960632   6.293681   3.298733
    19  H    1.002384   5.537944   5.633370   3.507033   5.589910
    20  H    4.707709   0.966296   3.498601   2.338778   5.525335
                   16         17         18         19         20
    16  H    0.000000
    17  H    1.787701   0.000000
    18  H    1.748402   1.787700   0.000000
    19  H    4.312079   3.971930   4.311899   0.000000
    20  H    7.271090   8.128819   7.272224   5.599066   0.000000
 Stoichiometry    C8H8O4
 Framework group  C1[X(C8H8O4)]
 Deg. of freedom    54
 Full point group                 C1      NOp   1
 Largest Abelian subgroup         C1      NOp   1
 Largest concise Abelian subgroup C1      NOp   1
                         Standard orientation:                         
[...]
 200,-0.00000110,-0.00000265,0.00889047,-0.00000018,-0.00000020,0.01022
 487,-0.00000020,-0.00000025,-0.00208302,-0.00000090,0.00000004,0.00388
 700,0.00000154,-0.00000168,0.00276196,-0.00001242,-0.00000944,-0.03808
 351,0.00001242,0.00001830,0.02523617,0.01201847,0.00468850,0.00000020,
 -0.00950031,-0.00622040,-0.00000061,0.00094526,-0.00305722,0.00000237,
 -0.02536460,-0.04359581,-0.00000956,-0.20309526,-0.01165515,-0.0000241
 1,-0.01757365,0.03766304,-0.00000095,-0.00646967,-0.01458442,-0.000000
 68,0.58144519,-0.00194591,-0.00753277,0.00000043,0.00238026,0.00004213
 ,-0.00000039,-0.00218175,-0.00719183,-0.00000076,-0.03445664,0.0328766
 0,-0.00000134,-0.02969348,-0.11198419,0.00000174,0.03762698,-0.0001297
 1,0.00000177,-0.00182102,0.00194629,0.00000022,-0.07449333,0.78154049,
 0.00000066,-0.00000090,0.00704720,0.00000010,-0.00000103,-0.00155598,-
 0.00000099,0.00000103,0.00259930,0.00000388,-0.00000035,0.00070889,-0.
 00001693,0.00000002,-0.05350120,0.00000087,0.00000080,-0.01184273,0.00
 000028,0.00000037,-0.00236545,0.00000487,-0.00001183,0.20644465,-0.000
 60463,-0.00030459,0.00000012,0.00057242,0.00007760,0.00000013,-0.00005
 114,-0.00161416,-0.00000118,-0.00507168,0.00381179,0.00000146,-0.01171
 738,-0.02339377,0.00000950,-0.00003819,-0.00006830,-0.00000149,-0.0078
 6761,0.00535764,0.00000146,-0.15099066,-0.06784234,0.00000752,0.571027
 36,-0.00083173,-0.00029424,-0.00000021,0.00058464,0.00006440,-0.000000
 30,-0.00008656,0.00179277,0.00000135,0.00476749,-0.00092153,-0.0000009
 4,-0.00353037,0.00961687,0.00000177,0.00003401,-0.00206603,0.00000111,
 0.00394248,-0.00030183,-0.00000147,-0.05216765,-0.14053863,0.00001533,
 -0.07430854,0.54219387,0.00000006,0.00000014,-0.00054456,-0.00000051,0
 .00000040,0.00002268,0.00000041,-0.00000102,-0.00031870,-0.00000223,-0
 .00000052,0.00119032,-0.00000067,-0.00000058,0.01144326,-0.00000008,0.
 00000165,0.00077437,-0.00000090,-0.00000075,-0.00064573,0.00001937,0.0
 0002913,-0.08449586,0.00001851,0.00000866,0.54783730,-0.00212084,0.002
 03562,-0.00000013,0.00381736,-0.00030513,0.00000034,-0.00289973,0.0035
 1788,-0.00000124,0.00834174,-0.00195236,-0.00000018,-0.03453146,0.0542
 2743,0.00000053,-0.00648467,-0.01317605,-0.00000059,0.00279563,0.00468
 404,0.00000026,-0.18561621,0.18320545,-0.00000172,0.01805526,-0.017020
 31,0.00000454,0.24269515,0.00771942,0.00417490,0.00000074,-0.00443636,
 -0.00786276,-0.00000033,-0.00416457,0.00436068,0.00000070,0.00394049,-
 0.03888802,-0.00000584,0.06319674,-0.01322656,0.00000275,-0.00851251,0
 .01372552,-0.00000190,0.00060047,-0.00250950,-0.00000035,0.14768527,-0
 .49473475,-0.00000573,0.01260924,-0.06054094,0.00000227,-0.20061070,0.
 57688443,0.00000199,0.00000151,-0.00122501,-0.00000030,-0.00000295,0.0
 0025723,-0.00000279,0.00000239,0.00033352,0.00000209,-0.00001138,-0.00
 161626,0.00000488,0.00000248,0.01527957,-0.00000262,0.00000173,0.00612
 828,0.00000013,-0.00000001,0.00000700,-0.00000680,-0.00000896,-0.06439
 150,0.00000379,0.00000843,0.02202015,-0.00000102,-0.00000674,0.0323250
 0,0.00999393,0.00931897,0.00000044,-0.00445354,-0.02159649,-0.00000040
 ,-0.04261332,0.06658240,0.00000930,-0.15067466,0.09877412,0.00002604,0
 .03503744,-0.00917169,0.00000224,-0.01622245,0.00428237,-0.00000068,0.
 00337537,-0.00011027,0.00000014,-0.03302010,0.02500847,-0.00000402,0.0
 0216745,-0.00437678,0.00000259,-0.03282332,-0.05648043,-0.00002437,0.5
 6538072,-0.00183229,-0.00691355,0.00000067,-0.00494597,0.00915268,-0.0
 0000187,0.02999236,-0.01137146,-0.00000589,0.06877919,-0.30692821,-0.0
 0003692,0.00065133,-0.04907100,-0.00000732,-0.00202241,-0.00011066,-0.
 00000285,0.00055045,-0.00251605,0.00000010,0.02141093,-0.00782826,0.00
 000059,-0.00047865,-0.00074337,0.00000073,-0.01843311,0.01213348,-0.00
 000099,-0.05280480,0.42923771,-0.00000168,-0.00000113,-0.00232977,-0.0
 0000038,0.00000263,0.00548150,0.00000612,-0.00000638,0.00607856,0.0000
 2270,-0.00005124,-0.04357772,0.00000130,-0.00000583,0.00634015,0.00000
 078,-0.00000144,0.00771044,-0.00000032,-0.00000089,0.00025088,0.000006
 18,-0.00000129,-0.00224776,-0.00000041,-0.00000037,-0.00064574,-0.0000
 0736,0.00000191,0.00780851,-0.00010230,0.00005388,0.04019093,-0.047312
 16,-0.01099370,-0.00000203,-0.31113103,0.04767289,-0.00000811,-0.04549
 300,0.00811524,-0.00000228,0.01135275,0.00376768,-0.00000024,-0.013352
 11,-0.00066560,0.00000031,0.00834746,-0.00204433,-0.00000029,-0.002189
 35,-0.00161776,-0.00000008,0.01125502,-0.00228202,0.,-0.00048598,-0.00
 082368,0.00000068,-0.00425804,0.00432200,0.00000022,-0.00271252,0.0011
 5446,0.00000070,0.51201586,-0.04870266,0.00718522,-0.00000142,-0.00653
 238,-0.11385534,-0.00000174,0.04647795,0.00256432,0.00000122,-0.008496
 33,-0.00723818,-0.00000066,-0.00015432,0.00455305,-0.00000007,0.006695
 08,-0.00945730,-0.00000018,-0.00350614,-0.00054705,-0.00000005,0.00081
 552,0.00004783,-0.00000012,0.00005765,0.00004751,0.00000003,0.00005141
 ,0.00125081,0.00000045,0.00438016,-0.00045106,-0.00000056,0.15436309,0
 .55406116,-0.00000233,0.00000032,0.00536517,-0.00001000,-0.00000036,-0
 .04052600,0.00000005,-0.00000105,0.00833769,0.00000008,-0.00000127,0.0
 1013384,-0.00000011,0.00000022,-0.00159798,-0.00000029,-0.00000020,0.0
 0391456,-0.00000005,-0.00000006,0.00003018,0.00000021,-0.00000005,-0.0
 0040859,0.,0.00000005,0.00020823,-0.00000002,0.00000011,-0.00011276,-0
 .00000053,0.00000053,-0.00029580,0.00002267,0.00002441,0.02690638,-0.1
 2622112,0.12334894,0.00000136,0.01208877,-0.01562506,-0.00000012,-0.00
 191608,-0.00304207,-0.00000025,-0.00133878,-0.00080443,0.00000002,-0.0
 0491568,-0.00202996,-0.00000073,-0.01049835,0.02819069,0.00000036,0.00
 280285,0.00131656,0.00000022,0.00087415,0.00131166,0.00000026,0.000008
 27,-0.00001665,0.,-0.00080208,0.00046777,0.00000007,0.00054874,-0.0000
 2317,-0.00000005,0.00099969,0.00063844,0.00000007,0.12954385,0.1219944
 0,-0.27913244,-0.00000365,0.01773846,-0.01954049,-0.00000005,-0.004321
 94,-0.00247778,-0.00000029,-0.00128428,0.00023291,0.00000002,-0.000259
 53,0.00133390,-0.00000015,-0.00423724,-0.00006019,-0.00000010,-0.00082
 283,0.00341663,0.00000022,-0.00062096,0.00005170,-0.00000005,0.0000199
 1,0.00003114,-0.00000006,0.00025624,0.00003071,0.00000006,0.00037239,0
 .00001755,-0.00000010,0.00062284,0.00174258,0.00000013,-0.13136916,0.2
 9445740,0.00000104,-0.00000372,-0.02130060,0.00000049,-0.00000006,0.00
 102045,0.00000054,-0.00000086,0.00434937,-0.00000010,-0.00000002,-0.00
 209421,-0.00000104,-0.00000007,0.00550429,-0.00000089,0.00000057,0.000
 15355,0.00000056,0.00000068,-0.00477873,0.00000027,-0.00000013,0.00146
 999,-0.00000003,-0.00000005,-0.00017151,-0.00000008,0.00000010,-0.0005
 6899,0.00000008,-0.00000013,0.00019182,0.00000037,-0.00000004,-0.00272
 454,-0.00000097,0.00000396,0.01765205,-0.00101220,0.00292302,0.,0.0087
 8992,0.01473809,0.00000165,-0.13356703,-0.12622490,-0.00001287,-0.0113
 9556,-0.03076893,-0.00000310,-0.00499877,0.00227191,-0.00000048,-0.001
 24456,0.00124315,-0.00000006,0.00027567,-0.00022703,0.,0.00021816,-0.0
 0215971,0.00000014,-0.00049078,0.00034156,-0.00000008,0.00025677,0.000
 71692,0.00000033,0.00297624,0.00033412,-0.00000010,0.00346605,0.000157
 32,0.00000025,0.00057050,0.00073264,-0.00000013,0.13725877,0.00388470,
 -0.00239613,-0.00000039,-0.01819338,-0.01766058,-0.00000202,-0.1280792
 4,-0.27303682,-0.00002335,0.00250497,0.00360033,0.00000038,0.00051567,
 0.00070897,-0.00000040,0.00099918,0.00009564,0.00000016,-0.00019434,0.
 00015545,0.,0.00055388,-0.00007042,0.00000012,0.00000087,0.00000341,0.
 00000001,-0.00008072,0.00026762,0.,0.00029676,0.00040742,0.00000031,-0
 .00057759,0.00280691,0.00000055,-0.00082645,-0.00090965,-0.00000005,0.
 13697150,0.28679399,-0.00000124,-0.00000057,0.00522567,-0.00000147,0.0
 0000137,0.00003792,-0.00001079,-0.00002493,-0.02325904,-0.00000302,-0.
 00000084,0.00211822,0.00000002,0.00000009,0.00511424,0.00000130,-0.000
 00034,-0.00158080,-0.00000035,-0.00000028,-0.00013978,0.00000017,-0.00
 000005,0.00056111,-0.00000008,-0.00000002,-0.00014362,0.00000001,0.000
 00018,-0.00009101,0.00000015,0.00000052,-0.00321164,0.00000079,0.00000
 037,-0.00418087,-0.00000003,-0.00000002,0.00092426,0.00001462,0.000024
 77,0.01859365,0.00049580,-0.00544384,0.00000009,-0.00093344,0.00002509
 ,-0.00000018,-0.00018100,0.00004317,0.00000019,0.00093989,-0.00085931,
 -0.00000031,-0.00160796,-0.00380934,-0.00000046,0.01375247,-0.02461413
 ,-0.00000019,-0.24391032,0.26285627,0.00000017,-0.00066134,-0.00050448
 ,0.00000025,-0.00142809,0.00010398,-0.00000034,0.00019247,-0.00012898,
 -0.00000007,-0.00048768,0.00017423,0.00000002,0.00014651,0.00009795,0.
 ,-0.00148205,0.00113541,-0.00000003,-0.00009157,0.00014417,0.,0.235264
 14,0.00284506,0.00545875,0.00000045,-0.00037637,-0.00203646,0.00000003
 ,-0.00065658,0.00107046,0.00000001,0.00285999,-0.00097153,-0.00000019,
 -0.00674268,-0.00208008,-0.00000064,0.02671503,-0.03841835,-0.00000010
 ,0.20682933,-0.31527929,-0.00000379,0.00078950,0.00002872,0.00000013,-
 0.00016399,0.00007993,0.00000005,-0.00048140,0.00042685,-0.00000005,-0
 .00084735,0.00007857,0.00000001,0.00088934,0.00052949,0.00000001,-0.00
 147863,0.00038453,-0.00000020,-0.00006417,0.00008424,0.00000004,-0.230
 26326,0.35046563,0.00000002,-0.00000005,-0.00113928,0.00000001,-0.0000
 0002,-0.00123171,-0.00000011,0.,0.00003593,-0.00000011,-0.00000006,0.0
 0191806,-0.00000028,-0.00000054,0.00186180,0.00000189,-0.00000217,-0.0
 0244597,-0.00000190,-0.00000176,-0.00408789,-0.00000007,-0.00000002,-0
 .00043051,-0.00000033,0.00000019,-0.00021146,0.00000007,0.00000013,-0.
 00007423,0.00000002,0.00000015,-0.00025871,0.00000005,0.00000002,-0.00
 007534,-0.00000007,0.00000002,0.00109685,0.,0.00000002,0.00002465,0.00
 000042,0.00000423,0.00439057,-0.00013962,0.00013562,-0.00006160,0.0001
 6369,-0.00003816,0.00014031,-0.00006070,0.00035093,-0.00033585,0.00052
 713,0.00021088,0.00061649,-0.00235539,0.00069815,0.00131641,-0.0010288
 9,-0.00271628,0.00000281,-0.00203831,0.00202303,-0.00080274,0.00756262
 ,-0.00802934,-0.02014788,-0.05719927,0.02390229,0.03741456,-0.00100222
 ,-0.00278512,0.00210511,-0.00036890,-0.00008574,-0.00005254,-0.0002207
 8,0.00004405,0.00001921,-0.00004130,0.00002118,-0.00006440,0.00001830,
 -0.00000057,-0.00002117,-0.00002273,0.00020999,0.00008413,0.05704209,0
 .00007768,0.00000877,-0.00023498,-0.00001578,-0.00016219,-0.00001407,-
 0.00020057,0.00008928,-0.00027261,0.00028402,-0.00045183,0.00056997,-0
 .00033041,0.00031289,0.00186326,-0.00035479,0.00029009,-0.00015946,0.0
 0138808,-0.00085281,0.00091849,0.00752991,-0.01489779,-0.02217652,0.02
 485395,-0.13382440,-0.13443833,-0.00368383,-0.00462715,0.00283731,-0.0
 0084565,0.00013276,-0.00014763,-0.00000148,0.00000492,0.00005326,0.000
 00694,-0.00000065,0.00000609,0.00001012,-0.00000083,-0.00001821,0.0002
 6969,0.00002901,0.00020930,-0.02789162,0.14748850,0.00041855,0.0004106
 3,-0.00017131,-0.00002552,-0.00033711,-0.00005241,-0.00015307,0.000159
 47,0.00002423,0.00010461,-0.00004309,0.00017845,-0.00045793,-0.0002996
 4,0.00008662,-0.00057686,-0.00172152,0.00010874,0.00121052,0.00065811,
 0.00038956,0.00031687,0.00247374,0.00182243,0.03685859,-0.13032802,-0.
 22376819,-0.00036679,0.00114708,-0.00087585,-0.00015908,0.00015632,-0.
 00003927,0.00002736,0.00006896,0.00000871,-0.00003771,0.00002727,0.000
 03389,-0.00001241,0.00000657,-0.00000280,0.00047534,-0.00001529,0.0001
 0493,-0.04153975,0.14119697,0.24189752,-0.00016210,-0.00004000,-0.0000
 0004,0.00027659,0.00006803,-0.00000002,-0.00009251,-0.00046019,-0.0000
 0008,-0.00112434,0.00140744,0.00000009,-0.00022298,-0.00422323,0.00000
 130,0.00069411,-0.00013906,-0.00000015,-0.00022601,0.00061345,0.000000
 14,-0.02444071,0.00868830,-0.00000064,-0.29659846,0.08991169,0.0000019
 6,0.00444130,0.00261997,-0.00000006,0.00102123,-0.00029019,-0.00000003
 ,-0.00024504,-0.00000107,0.,-0.00000631,0.00002278,0.,-0.00013560,-0.0
 0000325,0.,-0.00006729,-0.00023099,0.,-0.00175433,-0.00002594,-0.00039
 949,0.32125664,0.00026410,0.00037259,0.00000006,0.00004672,-0.00024927
 ,-0.00000005,-0.00016067,-0.00034030,-0.00000006,-0.00126520,0.0006461
 1,-0.00000014,-0.00125998,-0.00458378,0.00000125,-0.00031878,-0.001652
 53,-0.00000018,0.00176182,0.00008656,0.00000002,-0.03034028,0.00737547
 ,-0.00000013,0.09661697,-0.08317686,-0.00000075,0.00052075,0.00197057,
 0.00000020,0.00043330,0.00012412,0.00000005,-0.00001554,0.00006479,0.,
 -0.00005094,0.00003083,0.,-0.00014861,0.00001135,0.00000001,0.00040723
 ,0.00012112,0.,0.01584157,-0.00515229,0.00269244,-0.09754251,0.0896261
 7,-0.00000001,-0.00000006,-0.00021876,-0.00000002,0.00000007,0.0000230
 6,0.00000006,0.00000021,-0.00021371,0.00000030,-0.00000020,0.00057976,
 -0.00000036,0.00000143,0.00137889,0.00000003,-0.00000008,-0.00007561,0
 .00000035,-0.00000043,0.00078980,0.00000878,-0.00000268,-0.00128512,0.
 00000100,-0.00000040,-0.05182655,-0.00000082,-0.00000068,-0.00097942,-
 0.00000005,-0.00000006,-0.00008123,-0.00000004,0.,0.00001054,0.,0.,0.0
 0001983,0.00000005,0.,-0.00001190,0.00000017,0.00000007,0.00020621,0.0
 2522756,-0.00697465,0.00194342,-0.00000341,-0.00000091,0.04776144,-0.0
 0014010,0.00013528,0.00006154,0.00016397,-0.00003805,-0.00014030,-0.00
 006077,0.00035080,0.00033602,0.00052745,0.00021159,-0.00061653,-0.0023
 5541,0.00069735,-0.00131751,-0.00102850,-0.00271532,-0.00000193,-0.002
 03537,0.00202136,0.00080172,0.00756291,-0.00802449,0.02015095,-0.05720
 975,0.02391054,-0.03745272,-0.00100338,-0.00278313,-0.00210517,-0.0003
 6891,-0.00008603,0.00005250,-0.00022102,0.00004402,-0.00001922,-0.0000
 4129,0.00002118,0.00006438,0.00001830,-0.00000059,0.00002119,-0.000022
 71,0.00020985,-0.00008370,0.00040157,-0.00204528,0.00417019,-0.0017599
 1,0.01582981,-0.02523379,0.05705530,0.00007768,0.00000868,0.00023487,-
 0.00001578,-0.00016232,0.00001403,-0.00020073,0.00008921,0.00027263,0.
 00028431,-0.00045162,-0.00056987,-0.00032948,0.00031249,-0.00186410,-0
 .00035466,0.00029090,0.00015931,0.00138523,-0.00085213,-0.00091754,0.0
 0753200,-0.01488965,0.02218001,0.02486451,-0.13371615,0.13440268,-0.00
 368387,-0.00462474,-0.00283882,-0.00084595,0.00013261,0.00014762,-0.00
 000142,0.00000492,-0.00005326,0.00000698,-0.00000067,-0.00000607,0.000
 01013,-0.00000084,0.00001821,0.00026917,0.00002905,-0.00020935,-0.0020
 5070,0.01120441,-0.01635589,-0.00002406,-0.00515035,0.00697834,-0.0278
 9918,0.14736613,-0.00041845,-0.00041055,-0.00017153,0.00002566,0.00033
 698,-0.00005237,0.00015297,-0.00015940,0.00002405,-0.00010458,0.000043
 63,0.00017912,0.00045745,0.00029905,0.00008771,0.00057745,0.00172116,0
 .00010889,-0.00121013,-0.00065808,0.00039018,-0.00032189,-0.00246931,0
 .00181137,-0.03689880,0.13029169,-0.22386437,0.00036799,-0.00114444,-0
 .00087442,0.00015941,-0.00015652,-0.00003951,-0.00002754,-0.00006894,0
 .00000873,0.00003769,-0.00002726,0.00003389,0.00001239,-0.00000658,-0.
 00000283,-0.00047514,0.00001515,0.00010489,-0.00417396,0.01634179,-0.0
 2159997,0.00040074,-0.00269169,0.00194568,0.04158544,-0.14115372,0.241
 99908,-0.00488927,-0.00461679,-0.00000021,-0.00009480,0.00836937,0.000
 00078,0.00965089,-0.00513315,0.00000048,-0.03327476,0.03467770,0.00000
 995,-0.01579594,-0.00394734,-0.00000238,0.00343649,-0.00398903,-0.0000
 0003,-0.00097591,-0.00109131,0.00000014,0.03573859,-0.02507647,0.00000
 244,-0.00217159,0.00558995,-0.00000509,-0.00954845,0.03617270,0.000024
 54,-0.33786861,-0.04140850,0.00007512,-0.00038555,-0.00125075,-0.00000
 018,-0.00028269,-0.00014534,-0.00000009,-0.00050924,0.00008939,-0.0000
 0021,0.00010470,-0.00003737,-0.00000004,0.00050456,0.00096977,0.000141
 21,-0.00089563,-0.00063464,0.00000019,0.00050511,0.00097065,-0.0001413
 3,0.35714295,-0.00306295,-0.00209968,-0.00000051,0.00247114,0.00502623
 ,0.00000038,0.00511786,-0.00945121,-0.00000212,0.04501648,0.01155449,-
 0.00000706,-0.00825496,-0.00202578,-0.00000168,0.00316272,-0.00298448,
 0.00000132,-0.00052698,0.00062286,0.00000008,0.00913934,-0.02433599,-0
 .00000194,-0.00008800,0.00221458,-0.00000362,0.01062055,0.01231886,0.0
 0001541,-0.06246512,-0.06536098,0.00001046,-0.00068933,-0.00113942,0.0
 0000018,-0.00022866,-0.00004601,-0.00000003,-0.00032341,0.00006532,-0.
 00000006,0.00009895,0.00001077,-0.00000006,0.00013082,0.00041139,0.000
 10239,-0.00035810,-0.00011985,0.00000004,0.00013122,0.00041219,-0.0001
 0238,0.00025818,0.07481006,-0.00000092,-0.00000093,0.00006093,0.000000
 20,0.00000155,0.00244404,0.00000072,-0.00000179,0.00352960,0.00000766,
 0.00000940,-0.00209043,-0.00000502,-0.00000039,-0.00022161,0.00000116,
 -0.00000051,-0.00135369,-0.00000026,0.00000034,-0.00005982,0.00000542,
 -0.00001024,0.00000248,0.00000023,0.00000325,0.00322672,0.00000620,0.0
 0001006,-0.01338350,0.00009088,-0.00000079,-0.02130704,-0.00000060,-0.
 00000016,-0.00059544,-0.00000013,0.00000001,-0.00003463,-0.00000013,0.
 ,-0.00081016,0.00000006,0.00000007,0.00008777,0.00029048,0.00044092,-0
 .00009871,-0.00000032,-0.00000010,0.00002640,-0.00029024,-0.00043999,-
 0.00009858,-0.00010533,-0.00001077,0.03056973,-0.00614442,0.00365556,-
 0.00000024,-0.02550505,-0.04706054,-0.00000211,0.00372138,-0.00064534,
 -0.00000002,-0.00166777,-0.00006596,0.00000031,0.00109698,0.00044063,-
 0.00000002,-0.00018929,-0.00247326,-0.00000022,-0.00035034,0.00061264,
 0.00000009,-0.00088787,0.00028985,-0.00000005,0.00009446,0.00007364,-0
 .00000005,0.00049472,-0.00014918,0.00000009,0.00111290,-0.00063622,-0.
 00000024,-0.11957676,-0.14517901,-0.00000982,0.00010892,0.00012385,0.0
 0000001,-0.00040336,0.00199505,0.00000010,0.00000022,-0.00000531,0.,0.
 00001250,0.00000519,0.00000538,0.00004136,0.00001488,0.,0.00001252,0.0
 0000518,-0.00000536,-0.00039084,-0.00014973,-0.00000004,0.14841974,0.0
 0176723,0.00197447,-0.00000003,0.00526320,0.00204218,0.00000038,0.0058
 3368,0.00291514,0.00000083,-0.00066119,-0.00105408,-0.00000034,0.00117
 192,0.00003901,-0.00000008,-0.00063960,0.00030704,0.00000003,0.0000190
 2,-0.00009358,-0.00000002,-0.00107269,0.00022476,0.00000020,-0.0000077
 8,0.00007953,-0.00000013,0.00030811,-0.00052999,-0.00000008,0.00009559
 ,-0.00012227,0.,-0.20119510,-0.44217513,-0.00002352,0.00020722,0.00043
 800,0.00000003,-0.00053371,-0.00092540,-0.00000024,-0.00000198,-0.0000
 1141,0.,0.00002903,-0.00000210,0.00000060,0.00000692,-0.00000445,0.,0.
 00002905,-0.00000211,-0.00000059,0.00023297,0.00011666,0.00000007,0.18
 914810,0.43678374,0.00000001,0.00000016,0.00256956,-0.00000050,-0.0000
 0182,-0.00295764,0.00000035,0.00000047,-0.00103610,-0.00000005,0.00000
 015,-0.00126027,-0.00000003,-0.00000007,-0.00020014,-0.00000018,-0.000
 00003,0.00270864,0.00000006,0.00000007,-0.00061414,-0.00000005,0.00000
 003,0.00005729,0.,-0.00000006,-0.00008673,0.,0.,0.00003370,0.00000014,
 -0.00000015,-0.00001860,-0.00001191,-0.00002151,-0.00440671,0.00000002
 ,0.00000002,-0.00077705,-0.00000007,-0.00000010,0.00083474,0.,0.,0.000
 12345,-0.00001720,-0.00000090,0.00001000,0.,0.,0.00000728,0.00001719,0
 .00000092,0.00001001,0.00000004,-0.00000004,0.00010594,0.00001217,0.00
 002289,0.00489678\\0.00002324,0.00002725,0.00000106,0.00014786,-0.0000
 4006,0.00000026,-0.00000182,0.00000476,-0.00000387,-0.00001341,0.00003
 744,0.00001398,0.00008093,-0.00005690,-0.00001379,-0.00008318,-0.00010
 238,-0.00000822,0.00001099,0.00004563,0.00000027,-0.00011883,0.0001271
 4,0.00005844,0.00004497,-0.00005892,-0.00002544,0.00008914,0.00000166,
 -0.00000765,-0.00010050,-0.00000332,0.00000558,-0.00005214,0.00001591,
 -0.00000031,-0.00000792,0.00001609,0.00000041,-0.00001760,-0.00001100,
 0.00000108,-0.00001174,-0.00000268,-0.00000005,-0.00001477,-0.00000593
 ,0.00002096,0.00001468,-0.00001850,0.00000006,-0.00000691,0.00000153,-
 0.00001982,0.00000883,0.00002667,-0.00002268,0.00000820,-0.00000438,-0
 .00000026\\\@


 BE NOT THE FIRST BY WHOM THE NEW ARE TRIED,
 NOR YET THE THE LAST TO LAY THE OLD ASIDE.

                          -- ALEXANDER POPE
 Job cpu time:       0 days 11 hours 11 minutes 47.3 seconds.
 File lengths (MBytes):  RWF=  27603 Int=      0 D2E=      0 Chk=      8 Scr=      1
 Normal termination of Gaussian 09 at Thu Dec 19 10:19:58 2024.
