 Entering Gaussian System, Link 0=g09
 Input=b3lypD3THAPyang.gjf
 Output=b3lypD3THAPyang.log
 Initial command:
 /home/c612/g09E/g09/l1.exe "/mnt/ja_sm883/scratch/Gau-1836057.inp" -scrdir="/mnt/ja_sm883/scratch/"
 Default is to use a total of  18 processors:
                               18 via shared-memory
                                1 via Linda
 Entering Link 1 = /home/c612/g09E/g09/l1.exe PID=   1836059.
  
 Copyright (c) 1988,1990,1992,1993,1995,1998,2003,2009,2015,
            Gaussian, Inc.  All Rights Reserved.
  
 This is part of the Gaussian(R) 09 program.  It is based on
 the Gaussian(R) 03 system (copyright 2003, Gaussian, Inc.),
 the Gaussian(R) 98 system (copyright 1998, Gaussian, Inc.),
 the Gaussian(R) 94 system (copyright 1995, Gaussian, Inc.),
 the Gaussian 92(TM) system (copyright 1992, Gaussian, Inc.),
 the Gaussian 90(TM) system (copyright 1990, Gaussian, Inc.),
 the Gaussian 88(TM) system (copyright 1988, Gaussian, Inc.),
 the Gaussian 86(TM) system (copyright 1986, Carnegie Mellon
 University), and the Gaussian 82(TM) system (copyright 1983,
 Carnegie Mellon University). Gaussian is a federally registered
 trademark of Gaussian, Inc.
  
 This software contains proprietary and confidential information,
 including trade secrets, belonging to Gaussian, Inc.
  
 This software is provided under written license and may be
 used, copied, transmitted, or stored only in accord with that
 written license.
  
 The following legend is applicable only to US Government
 contracts under FAR:
  
                    RESTRICTED RIGHTS LEGEND
  
 Use, reproduction and disclosure by the US Government is
 subject to restrictions as set forth in subparagraphs (a)
 and (c) of the Commercial Computer Software - Restricted
 Rights clause in FAR 52.227-19.
  
 Gaussian, Inc.
 340 Quinnipiac St., Bldg. 40, Wallingford CT 06492
  
  
 ---------------------------------------------------------------
 Warning -- This program may not be used in any manner that
 competes with the business of Gaussian, Inc. or will provide
 assistance to any competitor of Gaussian, Inc.  The licensee
 of this program is prohibited from giving any competitor of
 Gaussian, Inc. access to this program.  By using this program,
 the user acknowledges that Gaussian, Inc. is engaged in the
 business of creating and licensing software in the field of
 computational chemistry and represents and warrants to the
 licensee that it is not a competitor of Gaussian, Inc. and that
 it will not use this program in any manner prohibited above.
 ---------------------------------------------------------------
  

 Cite this work as:
 Gaussian 09, Revision E.01,
 M. J. Frisch, G. W. Trucks, H. B. Schlegel, G. E. Scuseria, 
 M. A. Robb, J. R. Cheeseman, G. Scalmani, V. Barone, B. Mennucci, 
 G. A. Petersson, H. Nakatsuji, M. Caricato, X. Li, H. P. Hratchian, 
 A. F. Izmaylov, J. Bloino, G. Zheng, J. L. Sonnenberg, M. Hada, 
 M. Ehara, K. Toyota, R. Fukuda, J. Hasegawa, M. Ishida, T. Nakajima, 
 Y. Honda, O. Kitao, H. Nakai, T. Vreven, J. A. Montgomery, Jr., 
 J. E. Peralta, F. Ogliaro, M. Bearpark, J. J. Heyd, E. Brothers, 
 K. N. Kudin, V. N. Staroverov, T. Keith, R. Kobayashi, J. Normand, 
 K. Raghavachari, A. Rendell, J. C. Burant, S. S. Iyengar, J. Tomasi, 
 M. Cossi, N. Rega, J. M. Millam, M. Klene, J. E. Knox, J. B. Cross, 
 V. Bakken, C. Adamo, J. Jaramillo, R. Gomperts, R. E. Stratmann, 
 O. Yazyev, A. J. Austin, R. Cammi, C. Pomelli, J. W. Ochterski, 
 R. L. Martin, K. Morokuma, V. G. Zakrzewski, G. A. Voth, 
 P. Salvador, J. J. Dannenberg, S. Dapprich, A. D. Daniels, 
 O. Farkas, J. B. Foresman, J. V. Ortiz, J. Cioslowski, 
 and D. J. Fox, Gaussian, Inc., Wallingford CT, 2013.
 
 ******************************************
 Gaussian 09:  ES64L-G09RevE.01 30-Nov-2015
                17-Dec-2024 
 ******************************************
 %chk=b3lypD3THAPyang.chk
 ----------------------------------------------------
 # opt freq b3lyp/6-31+g(d,p) EmpiricalDispersion=GD3
 ----------------------------------------------------
 1/14=-1,18=20,19=15,26=3,38=1/1,3;
 2/9=110,12=2,17=6,18=5,40=1/2;
 3/5=1,6=6,7=111,11=2,16=1,25=1,30=1,71=1,74=-5,124=31/1,2,3;
 4//1;
 5/5=2,38=5/2;
 6/7=2,8=2,9=2,10=2,28=1/1;
 7//1,2,3,16;
 1/14=-1,18=20,19=15,26=3/3(2);
 2/9=110/2;
 99//99;
 2/9=110/2;
 3/5=1,6=6,7=111,11=2,16=1,25=1,30=1,71=1,74=-5,124=31/1,2,3;
 4/5=5,16=3,69=1/1;
 5/5=2,38=5/2;
 7//1,2,3,16;
 1/14=-1,18=20,19=15,26=3/3(-5);
 2/9=110/2;
 6/7=2,8=2,9=2,10=2,19=2,28=1/1;
 99/9=1/99;
 ----------
 [No Title]
 ----------
 Symbolic Z-matrix:
 Charge =  1 Multiplicity = 1
 C                     1.54773  -1.26429  -0.00024 
 C                     2.2825   -0.07519  -0.00009 
 C                     1.63361   1.17375   0.00001 
 C                     0.25836   1.20939   0.00002 
 C                    -0.55744   0.02341  -0.00005 
 C                     0.16585  -1.22455  -0.00025 
 O                    -0.55413  -2.35209  -0.00044 
 C                    -1.98026   0.08243   0.00021 
 C                    -2.90836  -1.07715   0.00031 
 O                    -2.62203   1.21508   0.00043 
 O                    -0.40436   2.39343  -0.00001 
 O                     3.60672  -0.19686  -0.0001 
 H                     2.08314  -2.20841  -0.00037 
 H                     2.20853   2.0959   -0.00002 
 H                     0.01968  -3.13121  -0.00054 
 H                    -2.73772  -1.71002  -0.87523 
 H                    -2.73718  -1.71036   0.87549 
 H                    -3.93212  -0.70352   0.00068 
 H                    -2.01101   1.98682   0.00039 
 H                     0.18503   3.16024   0.00091 
 H                     4.06018   0.65737   0.00001 
 

 GradGradGradGradGradGradGradGradGradGradGradGradGradGradGradGradGradGrad
 Berny optimization.
 Initialization pass.
                           ----------------------------
                           !    Initial Parameters    !
                           ! (Angstroms and Degrees)  !
 --------------------------                            --------------------------
 ! Name  Definition              Value          Derivative Info.                !
 --------------------------------------------------------------------------------
 ! R1    R(1,2)                  1.3978         estimate D2E/DX2                !
 ! R2    R(1,6)                  1.3824         estimate D2E/DX2                !
 ! R3    R(1,13)                 1.0854         estimate D2E/DX2                !
 ! R4    R(2,3)                  1.4074         estimate D2E/DX2                !
 ! R5    R(2,12)                 1.3298         estimate D2E/DX2                !
 ! R6    R(3,4)                  1.3757         estimate D2E/DX2                !
 ! R7    R(3,14)                 1.0867         estimate D2E/DX2                !
 ! R8    R(4,5)                  1.4395         estimate D2E/DX2                !
 ! R9    R(4,11)                 1.3569         estimate D2E/DX2                !
 ! R10   R(5,6)                  1.4424         estimate D2E/DX2                !
 ! R11   R(5,8)                  1.424          estimate D2E/DX2                !
 ! R12   R(6,7)                  1.3378         estimate D2E/DX2                !
 ! R13   R(7,15)                 0.9676         estimate D2E/DX2                !
 ! R14   R(8,9)                  1.4853         estimate D2E/DX2                !
 ! R15   R(8,10)                 1.3018         estimate D2E/DX2                !
 ! R16   R(9,16)                 1.0937         estimate D2E/DX2                !
 ! R17   R(9,17)                 1.0937         estimate D2E/DX2                !
 ! R18   R(9,18)                 1.0898         estimate D2E/DX2                !
 ! R19   R(10,19)                0.9843         estimate D2E/DX2                !
 ! R20   R(11,20)                0.9671         estimate D2E/DX2                !
 ! R21   R(12,21)                0.9671         estimate D2E/DX2                !
 ! A1    A(2,1,6)              120.0656         estimate D2E/DX2                !
 ! A2    A(2,1,13)             118.7296         estimate D2E/DX2                !
 ! A3    A(6,1,13)             121.2048         estimate D2E/DX2                !
 ! A4    A(1,2,3)              120.8332         estimate D2E/DX2                !
 ! A5    A(1,2,12)             116.4631         estimate D2E/DX2                !
 ! A6    A(3,2,12)             122.7037         estimate D2E/DX2                !
 ! A7    A(2,3,4)              118.9385         estimate D2E/DX2                !
 ! A8    A(2,3,14)             120.6044         estimate D2E/DX2                !
 ! A9    A(4,3,14)             120.457          estimate D2E/DX2                !
 ! A10   A(3,4,5)              123.0384         estimate D2E/DX2                !
 ! A11   A(3,4,11)             120.7206         estimate D2E/DX2                !
 ! A12   A(5,4,11)             116.241          estimate D2E/DX2                !
 ! A13   A(4,5,6)              115.3815         estimate D2E/DX2                !
 ! A14   A(4,5,8)              122.1477         estimate D2E/DX2                !
 ! A15   A(6,5,8)              122.4709         estimate D2E/DX2                !
 ! A16   A(1,6,5)              121.7429         estimate D2E/DX2                !
 ! A17   A(1,6,7)              120.913          estimate D2E/DX2                !
 ! A18   A(5,6,7)              117.3441         estimate D2E/DX2                !
 ! A19   A(6,7,15)             111.0684         estimate D2E/DX2                !
 ! A20   A(5,8,9)              126.2978         estimate D2E/DX2                !
 ! A21   A(5,8,10)             121.9114         estimate D2E/DX2                !
 ! A22   A(9,8,10)             111.7907         estimate D2E/DX2                !
 ! A23   A(8,9,16)             110.7456         estimate D2E/DX2                !
 ! A24   A(8,9,17)             110.7478         estimate D2E/DX2                !
 ! A25   A(8,9,18)             108.6228         estimate D2E/DX2                !
 ! A26   A(16,9,17)            106.3284         estimate D2E/DX2                !
 ! A27   A(16,9,18)            110.1953         estimate D2E/DX2                !
 ! A28   A(17,9,18)            110.1967         estimate D2E/DX2                !
 ! A29   A(8,10,19)            112.0932         estimate D2E/DX2                !
 ! A30   A(4,11,20)            113.2172         estimate D2E/DX2                !
 ! A31   A(2,12,21)            112.7114         estimate D2E/DX2                !
 ! D1    D(6,1,2,3)             -0.0022         estimate D2E/DX2                !
 ! D2    D(6,1,2,12)          -179.9996         estimate D2E/DX2                !
 ! D3    D(13,1,2,3)           179.9962         estimate D2E/DX2                !
 ! D4    D(13,1,2,12)           -0.0011         estimate D2E/DX2                !
 ! D5    D(2,1,6,5)             -0.0027         estimate D2E/DX2                !
 ! D6    D(2,1,6,7)            179.9976         estimate D2E/DX2                !
 ! D7    D(13,1,6,5)           179.9989         estimate D2E/DX2                !
 ! D8    D(13,1,6,7)            -0.0008         estimate D2E/DX2                !
 ! D9    D(1,2,3,4)              0.003          estimate D2E/DX2                !
 ! D10   D(1,2,3,14)          -179.9911         estimate D2E/DX2                !
 ! D11   D(12,2,3,4)          -179.9998         estimate D2E/DX2                !
 ! D12   D(12,2,3,14)            0.0061         estimate D2E/DX2                !
 ! D13   D(1,2,12,21)         -179.9998         estimate D2E/DX2                !
 ! D14   D(3,2,12,21)            0.0029         estimate D2E/DX2                !
 ! D15   D(2,3,4,5)              0.0011         estimate D2E/DX2                !
 ! D16   D(2,3,4,11)          -179.9945         estimate D2E/DX2                !
 ! D17   D(14,3,4,5)           179.9952         estimate D2E/DX2                !
 ! D18   D(14,3,4,11)           -0.0004         estimate D2E/DX2                !
 ! D19   D(3,4,5,6)             -0.0055         estimate D2E/DX2                !
 ! D20   D(3,4,5,8)            179.988          estimate D2E/DX2                !
 ! D21   D(11,4,5,6)           179.9902         estimate D2E/DX2                !
 ! D22   D(11,4,5,8)            -0.0163         estimate D2E/DX2                !
 ! D23   D(3,4,11,20)           -0.0602         estimate D2E/DX2                !
 ! D24   D(5,4,11,20)          179.9439         estimate D2E/DX2                !
 ! D25   D(4,5,6,1)              0.0063         estimate D2E/DX2                !
 ! D26   D(4,5,6,7)           -179.994          estimate D2E/DX2                !
 ! D27   D(8,5,6,1)           -179.9872         estimate D2E/DX2                !
 ! D28   D(8,5,6,7)              0.0125         estimate D2E/DX2                !
 ! D29   D(4,5,8,9)           -179.9936         estimate D2E/DX2                !
 ! D30   D(4,5,8,10)             0.0048         estimate D2E/DX2                !
 ! D31   D(6,5,8,9)             -0.0005         estimate D2E/DX2                !
 ! D32   D(6,5,8,10)           179.9979         estimate D2E/DX2                !
 ! D33   D(1,6,7,15)             0.0009         estimate D2E/DX2                !
 ! D34   D(5,6,7,15)          -179.9988         estimate D2E/DX2                !
 ! D35   D(5,8,9,16)           -58.8649         estimate D2E/DX2                !
 ! D36   D(5,8,9,17)            58.8436         estimate D2E/DX2                !
 ! D37   D(5,8,9,18)           179.9909         estimate D2E/DX2                !
 ! D38   D(10,8,9,16)          121.1366         estimate D2E/DX2                !
 ! D39   D(10,8,9,17)         -121.1549         estimate D2E/DX2                !
 ! D40   D(10,8,9,18)           -0.0076         estimate D2E/DX2                !
 ! D41   D(5,8,10,19)            0.0003         estimate D2E/DX2                !
 ! D42   D(9,8,10,19)          179.9989         estimate D2E/DX2                !
 --------------------------------------------------------------------------------
 Trust Radius=3.00D-01 FncErr=1.00D-07 GrdErr=1.00D-06
 Number of steps in this run=    104 maximum allowed number of steps=    126.
 GradGradGradGradGradGradGradGradGradGradGradGradGradGradGradGradGradGrad

                          Input orientation:                          
 ---------------------------------------------------------------------
 Center     Atomic      Atomic             Coordinates (Angstroms)
 Number     Number       Type             X           Y           Z
 ---------------------------------------------------------------------
      1          6           0        1.547729   -1.264290   -0.000238
      2          6           0        2.282497   -0.075192   -0.000089
      3          6           0        1.633613    1.173747    0.000007
      4          6           0        0.258358    1.209387    0.000015
      5          6           0       -0.557439    0.023409   -0.000048
      6          6           0        0.165853   -1.224552   -0.000247
      7          8           0       -0.554132   -2.352086   -0.000436
      8          6           0       -1.980262    0.082426    0.000214
      9          6           0       -2.908361   -1.077149    0.000310
     10          8           0       -2.622034    1.215082    0.000432
     11          8           0       -0.404360    2.393427   -0.000006
     12          8           0        3.606718   -0.196863   -0.000099
     13          1           0        2.083141   -2.208409   -0.000371
     14          1           0        2.208530    2.095900   -0.000023
     15          1           0        0.019684   -3.131205   -0.000541
     16          1           0       -2.737722   -1.710022   -0.875226
     17          1           0       -2.737182   -1.710358    0.875493
     18          1           0       -3.932116   -0.703516    0.000683
     19          1           0       -2.011007    1.986820    0.000387
     20          1           0        0.185027    3.160238    0.000908
     21          1           0        4.060175    0.657367    0.000011
 ---------------------------------------------------------------------
                    Distance matrix (angstroms):
                    1          2          3          4          5
     1  C    0.000000
     2  C    1.397798   0.000000
     3  C    2.439549   1.407444   0.000000
     4  C    2.789544   2.397349   1.375717   0.000000
     5  C    2.467772   2.841647   2.474669   1.439468   0.000000
     6  C    1.382447   2.408570   2.811789   2.435696   1.442414
     7  O    2.366669   3.637404   4.149425   3.652976   2.375497
     8  C    3.776290   4.265672   3.775059   2.506284   1.424046
     9  C    4.460018   5.286674   5.069128   3.905939   2.595778
    10  O    4.851207   5.071413   4.255848   2.880398   2.383828
    11  O    4.146028   3.648737   2.375069   1.356888   2.374957
    12  O    2.319232   1.329799   2.402439   3.631674   4.169979
    13  H    1.085369   2.142512   3.411899   3.874424   3.457409
    14  H    3.424549   2.172352   1.086690   2.142213   3.456270
    15  H    2.412528   3.802570   4.597541   4.347149   3.206971
    16  H    4.396518   5.351741   5.309494   4.273815   2.919650
    17  H    4.396174   5.351410   5.309274   4.273714   2.919555
    18  H    5.508463   6.246295   5.873794   4.606438   3.452081
    19  H    4.820199   4.762990   3.734212   2.398837   2.442917
    20  H    4.629623   3.855825   2.458566   1.952229   3.223500
    21  H    3.163092   1.922702   2.480897   3.841684   4.660929
                    6          7          8          9         10
     6  C    0.000000
     7  O    1.337801   0.000000
     8  C    2.512768   2.821471   0.000000
     9  C    3.077746   2.677286   1.485255   0.000000
    10  O    3.704609   4.123216   1.301838   2.310045   0.000000
    11  O    3.662638   4.747876   2.797176   4.279593   2.511290
    12  O    3.591058   4.685900   5.593956   6.574280   6.386779
    13  H    2.154987   2.641184   4.664672   5.118090   5.818846
    14  H    3.898452   5.236113   4.647586   6.020865   4.910213
    15  H    1.912248   0.967621   3.785130   3.576674   5.086146
    16  H    3.071159   2.438354   2.133778   1.093713   3.055551
    17  H    3.070918   2.438191   2.133803   1.093710   3.055682
    18  H    4.130960   3.758798   2.104148   1.089806   2.323216
    19  H    3.879643   4.576963   1.904642   3.192671   0.984344
    20  H    4.384832   5.561661   3.763164   5.246380   3.415146
    21  H    4.325201   5.508960   6.067737   7.181159   6.705443
                   11         12         13         14         15
    11  O    0.000000
    12  O    4.774762   0.000000
    13  H    5.231114   2.523411   0.000000
    14  H    2.629775   2.685459   4.306135   0.000000
    15  H    5.540882   4.634347   2.260400   5.666893   0.000000
    16  H    4.800925   6.580837   4.924884   6.302097   3.223061
    17  H    4.801001   6.580456   4.924501   6.301920   3.222817
    18  H    4.694264   7.555840   6.200647   6.748649   4.637930
    19  H    1.657300   6.027214   5.861911   4.220947   5.506168
    20  H    0.967149   4.793547   5.694314   2.286347   6.293615
    21  H    4.790196   0.967126   3.481571   2.344774   5.538849
                   16         17         18         19         20
    16  H    0.000000
    17  H    1.750719   0.000000
    18  H    1.790767   1.790779   0.000000
    19  H    3.868004   3.868109   3.305838   0.000000
    20  H    5.747130   5.746904   5.646190   2.489875   0.000000
    21  H    7.251343   7.250976   8.107325   6.215038   4.613148
                   21
    21  H    0.000000
 Stoichiometry    C8H9O4(1+)
 Framework group  C1[X(C8H9O4)]
 Deg. of freedom    57
 Full point group                 C1      NOp   1
 Largest Abelian subgroup         C1      NOp   1
 Largest concise Abelian subgroup C1      NOp   1
                         Standard orientation:                         
 ---------------------------------------------------------------------
 Center     Atomic      Atomic             Coordinates (Angstroms)
 Number     Number       Type             X           Y           Z
 ---------------------------------------------------------------------
      1          6           0        1.547729   -1.264290   -0.000238
      2          6           0        2.282497   -0.075193   -0.000089
      3          6           0        1.633613    1.173747    0.000007
      4          6           0        0.258358    1.209387    0.000015
      5          6           0       -0.557439    0.023409   -0.000048
      6          6           0        0.165853   -1.224552   -0.000247
      7          8           0       -0.554132   -2.352086   -0.000436
      8          6           0       -1.980262    0.082426    0.000214
      9          6           0       -2.908361   -1.077149    0.000310
     10          8           0       -2.622034    1.215082    0.000432
     11          8           0       -0.404359    2.393427   -0.000006
     12          8           0        3.606718   -0.196864   -0.000099
     13          1           0        2.083141   -2.208410   -0.000371
     14          1           0        2.208530    2.095899   -0.000023
     15          1           0        0.019683   -3.131205   -0.000541
     16          1           0       -2.737722   -1.710022   -0.875226
     17          1           0       -2.737182   -1.710358    0.875493
     18          1           0       -3.932116   -0.703515    0.000683
     19          1           0       -2.011007    1.986820    0.000387
     20          1           0        0.185028    3.160238    0.000908
     21          1           0        4.060175    0.657366    0.000011
 ---------------------------------------------------------------------
 Rotational constants (GHZ):      1.5271255      0.7601428      0.5090989
 Standard basis: 6-31+G(d,p) (6D, 7F)
 There are   273 symmetry adapted cartesian basis functions of A   symmetry.
 There are   273 symmetry adapted basis functions of A   symmetry.
   273 basis functions,   447 primitive gaussians,   273 cartesian basis functions
    44 alpha electrons       44 beta electrons
       nuclear repulsion energy       714.0654711331 Hartrees.
 NAtoms=   21 NActive=   21 NUniq=   21 SFac= 1.00D+00 NAtFMM=   60 NAOKFM=F Big=F
 Integral buffers will be    131072 words long.
 Raffenetti 2 integral format.
 Two-electron integral symmetry is turned on.
 Nuclear repulsion after empirical dispersion term =      714.0482368802 Hartrees.
 One-electron integrals computed using PRISM.
 NBasis=   273 RedAO= T EigKep=  1.39D-06  NBF=   273
 NBsUse=   273 1.00D-06 EigRej= -1.00D+00 NBFU=   273
 ExpMin= 4.38D-02 ExpMax= 5.48D+03 ExpMxC= 8.25D+02 IAcc=2 IRadAn=         4 AccDes= 0.00D+00
 Harris functional with IExCor=  402 and IRadAn=       4 diagonalized for initial guess.
 HarFok:  IExCor=  402 AccDes= 0.00D+00 IRadAn=         4 IDoV= 1 UseB2=F ITyADJ=14
 ICtDFT=  3500011 ScaDFX=  1.000000  1.000000  1.000000  1.000000
 FoFCou: FMM=F IPFlag=           0 FMFlag=      100000 FMFlg1=           0
         NFxFlg=           0 DoJE=T BraDBF=F KetDBF=T FulRan=T
         wScrn=  0.000000 ICntrl=     500 IOpCl=  0 I1Cent=   200000004 NGrid=           0
         NMat0=    1 NMatS0=      1 NMatT0=    0 NMatD0=    1 NMtDS0=    0 NMtDT0=    0
 Petite list used in FoFCou.
 Keep R1 ints in memory in canonical form, NReq=709970467.
 Requested convergence on RMS density matrix=1.00D-08 within 128 cycles.
 Requested convergence on MAX density matrix=1.00D-06.
 Requested convergence on             energy=1.00D-06.
 No special actions if energy rises.
 SCF Done:  E(RB3LYP) =  -610.985751803     A.U. after   14 cycles
            NFock= 14  Conv=0.72D-08     -V/T= 2.0090

 **********************************************************************

            Population analysis using the SCF density.

 **********************************************************************

 Orbital symmetries:
       Occupied  (A) (A) (A) (A) (A) (A) (A) (A) (A) (A) (A) (A)
                 (A) (A) (A) (A) (A) (A) (A) (A) (A) (A) (A) (A)
                 (A) (A) (A) (A) (A) (A) (A) (A) (A) (A) (A) (A)
                 (A) (A) (A) (A) (A) (A) (A) (A)
       Virtual   (A) (A) (A) (A) (A) (A) (A) (A) (A) (A) (A) (A)
                 (A) (A) (A) (A) (A) (A) (A) (A) (A) (A) (A) (A)
                 (A) (A) (A) (A) (A) (A) (A) (A) (A) (A) (A) (A)
                 (A) (A) (A) (A) (A) (A) (A) (A) (A) (A) (A) (A)
                 (A) (A) (A) (A) (A) (A) (A) (A) (A) (A) (A) (A)
                 (A) (A) (A) (A) (A) (A) (A) (A) (A) (A) (A) (A)
                 (A) (A) (A) (A) (A) (A) (A) (A) (A) (A) (A) (A)
                 (A) (A) (A) (A) (A) (A) (A) (A) (A) (A) (A) (A)
                 (A) (A) (A) (A) (A) (A) (A) (A) (A) (A) (A) (A)
                 (A) (A) (A) (A) (A) (A) (A) (A) (A) (A) (A) (A)
                 (A) (A) (A) (A) (A) (A) (A) (A) (A) (A) (A) (A)
                 (A) (A) (A) (A) (A) (A) (A) (A) (A) (A) (A) (A)
                 (A) (A) (A) (A) (A) (A) (A) (A) (A) (A) (A) (A)
                 (A) (A) (A) (A) (A) (A) (A) (A) (A) (A) (A) (A)
                 (A) (A) (A) (A) (A) (A) (A) (A) (A) (A) (A) (A)
                 (A) (A) (A) (A) (A) (A) (A) (A) (A) (A) (A) (A)
                 (A) (A) (A) (A) (A) (A) (A) (A) (A) (A) (A) (A)
                 (A) (A) (A) (A) (A) (A) (A) (A) (A) (A) (A) (A)
                 (A) (A) (A) (A) (A) (A) (A) (A) (A) (A) (A) (A)
                 (A)
 The electronic state is 1-A.
 Alpha  occ. eigenvalues --  -19.39149 -19.38152 -19.36591 -19.36363 -10.48019
 Alpha  occ. eigenvalues --  -10.45956 -10.45155 -10.44920 -10.38794 -10.36782
 Alpha  occ. eigenvalues --  -10.35542 -10.33906  -1.28736  -1.26295  -1.25503
 Alpha  occ. eigenvalues --   -1.25101  -1.03611  -0.96650  -0.92861  -0.91379
 Alpha  occ. eigenvalues --   -0.83863  -0.82128  -0.79678  -0.76772  -0.74372
 Alpha  occ. eigenvalues --   -0.72171  -0.68502  -0.66317  -0.63643  -0.62371
 Alpha  occ. eigenvalues --   -0.61523  -0.61218  -0.60211  -0.58794  -0.57749
 Alpha  occ. eigenvalues --   -0.57099  -0.56101  -0.54167  -0.53931  -0.52387
 Alpha  occ. eigenvalues --   -0.51829  -0.47769  -0.41579  -0.40439
 Alpha virt. eigenvalues --   -0.24712  -0.16721  -0.14994  -0.13953  -0.13044
 Alpha virt. eigenvalues --   -0.12682  -0.11013  -0.08524  -0.07995  -0.07628
 Alpha virt. eigenvalues --   -0.07465  -0.05781  -0.04775  -0.04524  -0.04002
 Alpha virt. eigenvalues --   -0.03459  -0.01633  -0.01571  -0.00904  -0.00629
 Alpha virt. eigenvalues --    0.00270   0.00981   0.01089   0.01599   0.02231
 Alpha virt. eigenvalues --    0.02296   0.03368   0.03967   0.04173   0.04937
 Alpha virt. eigenvalues --    0.05427   0.05912   0.06733   0.07504   0.08046
 Alpha virt. eigenvalues --    0.08161   0.08570   0.08992   0.09644   0.09853
 Alpha virt. eigenvalues --    0.11239   0.11415   0.12077   0.12843   0.13258
 Alpha virt. eigenvalues --    0.13821   0.14030   0.14654   0.15287   0.16068
 Alpha virt. eigenvalues --    0.16413   0.16654   0.17284   0.17914   0.18580
 Alpha virt. eigenvalues --    0.19389   0.19616   0.20373   0.22083   0.22220
 Alpha virt. eigenvalues --    0.23510   0.23872   0.26016   0.26633   0.28040
 Alpha virt. eigenvalues --    0.28706   0.29114   0.29951   0.31727   0.32769
 Alpha virt. eigenvalues --    0.38313   0.43246   0.45096   0.49061   0.51223
 Alpha virt. eigenvalues --    0.52903   0.54648   0.54719   0.55942   0.56909
 Alpha virt. eigenvalues --    0.57758   0.59206   0.59362   0.60401   0.61665
 Alpha virt. eigenvalues --    0.65593   0.67916   0.70302   0.70387   0.72582
 Alpha virt. eigenvalues --    0.76604   0.77545   0.79269   0.84563   0.86103
 Alpha virt. eigenvalues --    0.87908   0.89038   0.89616   0.92769   0.92821
 Alpha virt. eigenvalues --    0.94376   0.94877   0.97888   0.98450   1.00633
 Alpha virt. eigenvalues --    1.02317   1.02489   1.03090   1.03815   1.04292
 Alpha virt. eigenvalues --    1.05230   1.05967   1.07059   1.09246   1.10132
 Alpha virt. eigenvalues --    1.11503   1.12612   1.13804   1.15192   1.16014
 Alpha virt. eigenvalues --    1.18317   1.19176   1.20422   1.20976   1.21466
 Alpha virt. eigenvalues --    1.22098   1.23369   1.27026   1.29944   1.30975
 Alpha virt. eigenvalues --    1.35443   1.35741   1.42682   1.43272   1.43439
 Alpha virt. eigenvalues --    1.44817   1.47669   1.54136   1.54599   1.56712
 Alpha virt. eigenvalues --    1.58718   1.64026   1.64648   1.66877   1.69079
 Alpha virt. eigenvalues --    1.70489   1.72434   1.72991   1.74432   1.76169
 Alpha virt. eigenvalues --    1.77333   1.78971   1.80384   1.82969   1.84186
 Alpha virt. eigenvalues --    1.86075   1.88866   1.89085   1.91776   1.97792
 Alpha virt. eigenvalues --    1.99059   2.01155   2.03388   2.03817   2.09467
 Alpha virt. eigenvalues --    2.10278   2.14454   2.14552   2.17621   2.20989
 Alpha virt. eigenvalues --    2.22751   2.25135   2.25230   2.29270   2.29749
 Alpha virt. eigenvalues --    2.30101   2.31952   2.33679   2.34727   2.36138
 Alpha virt. eigenvalues --    2.36911   2.38625   2.39634   2.44869   2.47242
 Alpha virt. eigenvalues --    2.48010   2.49346   2.50021   2.53158   2.54802
 Alpha virt. eigenvalues --    2.56923   2.57159   2.57997   2.60639   2.62623
 Alpha virt. eigenvalues --    2.67041   2.71536   2.71542   2.77886   2.85940
 Alpha virt. eigenvalues --    2.87979   2.90741   2.95401   2.97642   3.00313
 Alpha virt. eigenvalues --    3.05080   3.08309   3.16494   3.23766   3.29435
 Alpha virt. eigenvalues --    3.29704   3.31180   3.34830   3.38376   3.40091
 Alpha virt. eigenvalues --    3.49195   3.60501   4.08135   4.09988   4.12930
 Alpha virt. eigenvalues --    4.18439   4.24625   4.28648   4.32412   4.37943
 Alpha virt. eigenvalues --    4.49120   4.61061   4.65017   4.75187
          Condensed to atoms (all electrons):
               1          2          3          4          5          6
     1  C   12.045298  -1.777152   0.972429  -3.959369  -0.242628  -4.235413
     2  C   -1.777152   7.386899  -0.776854   2.049898  -2.055710   2.745832
     3  C    0.972429  -0.776854  11.055545  -3.603580  -0.276303  -2.284140
     4  C   -3.959369   2.049898  -3.603580  16.953514  -3.189389   2.263049
     5  C   -0.242628  -2.055710  -0.276303  -3.189389  15.693565  -3.821716
     6  C   -4.235413   2.745832  -2.284140   2.263049  -3.821716  15.616603
     7  O    0.197622  -0.009048   0.020554   0.029426  -0.194408   0.008728
     8  C    2.097448  -0.993064  -0.055804  -3.272075  -2.375747  -1.243665
     9  C   -0.198178  -0.024683  -0.352778  -0.120586  -0.019929  -0.787174
    10  O    0.000328   0.002851   0.005315  -0.143385   0.270186   0.051492
    11  O    0.047860   0.025168   0.469138  -0.169990  -0.061260  -0.052889
    12  O   -0.173414   0.114388  -0.054158   0.077410  -0.033925   0.086575
    13  H    0.188471   0.110067   0.047615  -0.019363   0.009141  -0.005621
    14  H    0.018605   0.059291   0.174747   0.057436   0.026089  -0.026100
    15  H   -0.089023   0.009018   0.001866   0.003448   0.107750  -0.032943
    16  H   -0.001055   0.000799  -0.003002  -0.008000   0.038561   0.015673
    17  H   -0.001070   0.000798  -0.003029  -0.008097   0.038570   0.015665
    18  H    0.000299   0.000314  -0.001920  -0.019445   0.028861   0.025271
    19  H    0.001157   0.000308   0.018659   0.086624  -0.230998  -0.064149
    20  H    0.004147  -0.004528  -0.096495  -0.047923   0.103775   0.001116
    21  H    0.077454  -0.050296  -0.013511  -0.000032   0.026220  -0.040683
               7          8          9         10         11         12
     1  C    0.197622   2.097448  -0.198178   0.000328   0.047860  -0.173414
     2  C   -0.009048  -0.993064  -0.024683   0.002851   0.025168   0.114388
     3  C    0.020554  -0.055804  -0.352778   0.005315   0.469138  -0.054158
     4  C    0.029426  -3.272075  -0.120586  -0.143385  -0.169990   0.077410
     5  C   -0.194408  -2.375747  -0.019929   0.270186  -0.061260  -0.033925
     6  C    0.008728  -1.243665  -0.787174   0.051492  -0.052889   0.086575
     7  O    8.406159  -0.038821  -0.094281   0.001703  -0.000945  -0.000776
     8  C   -0.038821  12.296488  -0.904423   0.303884  -0.323568   0.001798
     9  C   -0.094281  -0.904423   7.842269  -0.445197  -0.016236   0.000170
    10  O    0.001703   0.303884  -0.445197   8.091463   0.043521  -0.000031
    11  O   -0.000945  -0.323568  -0.016236   0.043521   8.409382  -0.001044
    12  O   -0.000776   0.001798   0.000170  -0.000031  -0.001044   8.250679
    13  H   -0.016727   0.003695   0.001014   0.000012   0.000038  -0.009041
    14  H    0.000024   0.020282  -0.000288  -0.000056  -0.019330  -0.014566
    15  H    0.212144  -0.003550   0.010678   0.000022   0.000012  -0.000066
    16  H   -0.001867  -0.086134   0.393153   0.004279  -0.000032   0.000000
    17  H   -0.001874  -0.086010   0.393178   0.004275  -0.000028   0.000000
    18  H    0.000091  -0.113147   0.443232  -0.007563   0.000119  -0.000000
    19  H   -0.000012   0.107456   0.077975   0.201095   0.030695   0.000005
    20  H    0.000019   0.032275   0.003633   0.001737   0.229590  -0.000048
    21  H    0.000032   0.002949  -0.000029  -0.000000  -0.000085   0.219046
              13         14         15         16         17         18
     1  C    0.188471   0.018605  -0.089023  -0.001055  -0.001070   0.000299
     2  C    0.110067   0.059291   0.009018   0.000799   0.000798   0.000314
     3  C    0.047615   0.174747   0.001866  -0.003002  -0.003029  -0.001920
     4  C   -0.019363   0.057436   0.003448  -0.008000  -0.008097  -0.019445
     5  C    0.009141   0.026089   0.107750   0.038561   0.038570   0.028861
     6  C   -0.005621  -0.026100  -0.032943   0.015673   0.015665   0.025271
     7  O   -0.016727   0.000024   0.212144  -0.001867  -0.001874   0.000091
     8  C    0.003695   0.020282  -0.003550  -0.086134  -0.086010  -0.113147
     9  C    0.001014  -0.000288   0.010678   0.393153   0.393178   0.443232
    10  O    0.000012  -0.000056   0.000022   0.004279   0.004275  -0.007563
    11  O    0.000038  -0.019330   0.000012  -0.000032  -0.000028   0.000119
    12  O   -0.009041  -0.014566  -0.000066   0.000000   0.000000  -0.000000
    13  H    0.525321  -0.000122   0.007405  -0.000001  -0.000001  -0.000000
    14  H   -0.000122   0.554408  -0.000000   0.000000   0.000000  -0.000000
    15  H    0.007405  -0.000000   0.358953   0.000369   0.000369  -0.000030
    16  H   -0.000001   0.000000   0.000369   0.472283  -0.019186  -0.020353
    17  H   -0.000001   0.000000   0.000369  -0.019186   0.472294  -0.020354
    18  H   -0.000000  -0.000000  -0.000030  -0.020353  -0.020354   0.481782
    19  H   -0.000000  -0.000005  -0.000000  -0.000282  -0.000282   0.000262
    20  H   -0.000000   0.008469  -0.000000  -0.000000  -0.000000  -0.000000
    21  H   -0.000032   0.005963   0.000000   0.000000   0.000000  -0.000000
              19         20         21
     1  C    0.001157   0.004147   0.077454
     2  C    0.000308  -0.004528  -0.050296
     3  C    0.018659  -0.096495  -0.013511
     4  C    0.086624  -0.047923  -0.000032
     5  C   -0.230998   0.103775   0.026220
     6  C   -0.064149   0.001116  -0.040683
     7  O   -0.000012   0.000019   0.000032
     8  C    0.107456   0.032275   0.002949
     9  C    0.077975   0.003633  -0.000029
    10  O    0.201095   0.001737  -0.000000
    11  O    0.030695   0.229590  -0.000085
    12  O    0.000005  -0.000048   0.219046
    13  H   -0.000000  -0.000000  -0.000032
    14  H   -0.000005   0.008469   0.005963
    15  H   -0.000000  -0.000000   0.000000
    16  H   -0.000282  -0.000000   0.000000
    17  H   -0.000282  -0.000000   0.000000
    18  H    0.000262  -0.000000  -0.000000
    19  H    0.308240   0.000157  -0.000000
    20  H    0.000157   0.335297   0.000011
    21  H   -0.000000   0.000011   0.387094
 Mulliken charges:
               1
     1  C    1.026184
     2  C   -0.814295
     3  C    0.755705
     4  C   -0.959569
     5  C    2.159294
     6  C   -2.235511
     7  O   -0.517743
     8  C    0.629732
     9  C   -0.201523
    10  O   -0.385931
    11  O   -0.610117
    12  O   -0.463004
    13  H    0.158130
    14  H    0.135154
    15  H    0.413578
    16  H    0.214794
    17  H    0.214781
    18  H    0.202580
    19  H    0.463094
    20  H    0.428768
    21  H    0.385897
 Sum of Mulliken charges =   1.00000
 Mulliken charges with hydrogens summed into heavy atoms:
               1
     1  C    1.184314
     2  C   -0.814295
     3  C    0.890859
     4  C   -0.959569
     5  C    2.159294
     6  C   -2.235511
     7  O   -0.104165
     8  C    0.629732
     9  C    0.430633
    10  O    0.077163
    11  O   -0.181349
    12  O   -0.077106
 Electronic spatial extent (au):  <R**2>=           2067.0161
 Charge=              1.0000 electrons
 Dipole moment (field-independent basis, Debye):
    X=              1.6822    Y=              1.6841    Z=              0.0017  Tot=              2.3803
 Quadrupole moment (field-independent basis, Debye-Ang):
   XX=            -43.3969   YY=            -36.9005   ZZ=            -69.6246
   XY=              8.8769   XZ=             -0.0008   YZ=              0.0083
 Traceless Quadrupole moment (field-independent basis, Debye-Ang):
   XX=              6.5771   YY=             13.0735   ZZ=            -19.6506
   XY=              8.8769   XZ=             -0.0008   YZ=              0.0083
 Octapole moment (field-independent basis, Debye-Ang**2):
  XXX=             29.5666  YYY=             13.9883  ZZZ=              0.0010  XYY=             15.6054
  XXY=             19.5883  XXZ=              0.0031  XZZ=             -5.0332  YZZ=              0.0931
  YYZ=              0.0160  XYZ=              0.0038
 Hexadecapole moment (field-independent basis, Debye-Ang**3):
 XXXX=          -1319.9749 YYYY=           -484.7560 ZZZZ=            -75.6594 XXXY=            153.3012
 XXXZ=              0.0597 YYYX=            -14.8484 YYYZ=              0.0624 ZZZX=              0.0596
 ZZZY=             -0.0384 XXYY=           -354.5302 XXZZ=           -291.3359 YYZZ=           -154.2766
 XXYZ=             -0.0132 YYXZ=              0.0128 ZZXY=              1.2413
 N-N= 7.140482368802D+02 E-N=-2.839532559107D+03  KE= 6.055342754078D+02
 Calling FoFJK, ICntrl=      2127 FMM=F ISym2X=0 I1Cent= 0 IOpClX= 0 NMat=1 NMatS=1 NMatT=0.
 ***** Axes restored to original set *****
 -------------------------------------------------------------------
 Center     Atomic                   Forces (Hartrees/Bohr)
 Number     Number              X              Y              Z
 -------------------------------------------------------------------
      1        6           0.001149678   -0.001735404   -0.000000317
      2        6          -0.002723881   -0.000292751   -0.000000197
      3        6           0.000739549    0.001874505    0.000001033
      4        6           0.001917102   -0.002576210   -0.000003690
      5        6          -0.000701903   -0.000418551   -0.000000507
      6        6           0.001421393    0.002364357    0.000000142
      7        8          -0.002333905   -0.003540066   -0.000000165
      8        6           0.002113182   -0.001851280   -0.000000333
      9        6          -0.002485132   -0.002283871   -0.000000481
     10        8          -0.002310476    0.003709049    0.000000649
     11        8          -0.001688356    0.003850536    0.000007693
     12        8           0.003824756   -0.001208485   -0.000000042
     13        1          -0.000196185    0.000295396    0.000000158
     14        1          -0.000138724   -0.000319265    0.000000943
     15        1           0.000139113   -0.001911447   -0.000000449
     16        1           0.000182360   -0.000009387    0.000052928
     17        1           0.000181978   -0.000008592   -0.000052869
     18        1          -0.000124136   -0.000290408   -0.000000056
     19        1          -0.001041482    0.001228661    0.000000066
     20        1           0.000359427    0.001868568   -0.000004486
     21        1           0.001715643    0.001254644   -0.000000019
 -------------------------------------------------------------------
 Cartesian Forces:  Max     0.003850536 RMS     0.001487727

 GradGradGradGradGradGradGradGradGradGradGradGradGradGradGradGradGradGrad
 Berny optimization.
 FormGI is forming the generalized inverse of G from B-inverse, IUseBI=4.
 Internal  Forces:  Max     0.005949042 RMS     0.001649666
 Search for a local minimum.
 Step number   1 out of a maximum of  104
 All quantities printed in internal units (Hartrees-Bohrs-Radians)
 Mixed Optimization -- RFO/linear search
 Second derivative matrix not updated -- first step.
 ITU=  0
     Eigenvalues ---    0.00961   0.01559   0.01587   0.01729   0.01771
     Eigenvalues ---    0.01976   0.02050   0.02099   0.02131   0.02187
     Eigenvalues ---    0.02226   0.02252   0.02262   0.02515   0.02620
     Eigenvalues ---    0.02990   0.07508   0.07559   0.16000   0.16000
     Eigenvalues ---    0.16000   0.16000   0.16000   0.16000   0.16000
     Eigenvalues ---    0.16000   0.16000   0.23480   0.23491   0.25000
     Eigenvalues ---    0.25000   0.25000   0.25000   0.25000   0.25000
     Eigenvalues ---    0.25000   0.33975   0.34387   0.34387   0.34835
     Eigenvalues ---    0.35198   0.35353   0.37760   0.38659   0.41857
     Eigenvalues ---    0.43250   0.44546   0.47045   0.49408   0.50550
     Eigenvalues ---    0.53581   0.53866   0.53964   0.53969   0.57701
     Eigenvalues ---    0.59553   0.66685
 RFO step:  Lambda=-6.34209647D-04 EMin= 9.60997620D-03
 Linear search not attempted -- first point.
 Iteration  1 RMS(Cart)=  0.01833442 RMS(Int)=  0.00012570
 Iteration  2 RMS(Cart)=  0.00019502 RMS(Int)=  0.00000114
 Iteration  3 RMS(Cart)=  0.00000003 RMS(Int)=  0.00000114
 Variable       Old X    -DE/DX   Delta X   Delta X   Delta X     New X
                                 (Linear)    (Quad)   (Total)
    R1        2.64145   0.00183   0.00000   0.00385   0.00385   2.64530
    R2        2.61245   0.00222   0.00000   0.00454   0.00454   2.61698
    R3        2.05105  -0.00035   0.00000  -0.00100  -0.00100   2.05005
    R4        2.65968   0.00215   0.00000   0.00473   0.00473   2.66441
    R5        2.51296   0.00551   0.00000   0.00925   0.00925   2.52220
    R6        2.59973   0.00216   0.00000   0.00433   0.00433   2.60406
    R7        2.05355  -0.00034   0.00000  -0.00098  -0.00098   2.05257
    R8        2.72020   0.00409   0.00000   0.01044   0.01044   2.73064
    R9        2.56415   0.00564   0.00000   0.01051   0.01051   2.57466
   R10        2.72577   0.00345   0.00000   0.00891   0.00891   2.73468
   R11        2.69106   0.00350   0.00000   0.00835   0.00835   2.69941
   R12        2.52808   0.00578   0.00000   0.01000   0.01000   2.53808
   R13        1.82854   0.00162   0.00000   0.00301   0.00301   1.83155
   R14        2.80672   0.00342   0.00000   0.01006   0.01006   2.81679
   R15        2.46012   0.00595   0.00000   0.00891   0.00891   2.46903
   R16        2.06682  -0.00001   0.00000  -0.00003  -0.00003   2.06679
   R17        2.06681  -0.00001   0.00000  -0.00003  -0.00003   2.06678
   R18        2.05943   0.00002   0.00000   0.00005   0.00005   2.05948
   R19        1.86014   0.00032   0.00000   0.00063   0.00063   1.86077
   R20        1.82765   0.00170   0.00000   0.00315   0.00315   1.83079
   R21        1.82760   0.00191   0.00000   0.00354   0.00354   1.83114
    A1        2.09554   0.00045   0.00000   0.00164   0.00164   2.09718
    A2        2.07222  -0.00020   0.00000  -0.00066  -0.00066   2.07157
    A3        2.11542  -0.00025   0.00000  -0.00098  -0.00098   2.11444
    A4        2.10894  -0.00030   0.00000  -0.00170  -0.00170   2.10723
    A5        2.03266  -0.00001   0.00000   0.00023   0.00023   2.03289
    A6        2.14158   0.00030   0.00000   0.00147   0.00147   2.14306
    A7        2.07587   0.00068   0.00000   0.00280   0.00280   2.07867
    A8        2.10494  -0.00039   0.00000  -0.00173  -0.00173   2.10321
    A9        2.10237  -0.00029   0.00000  -0.00107  -0.00107   2.10130
   A10        2.14742  -0.00025   0.00000  -0.00083  -0.00083   2.14660
   A11        2.10697  -0.00119   0.00000  -0.00484  -0.00484   2.10213
   A12        2.02879   0.00144   0.00000   0.00567   0.00567   2.03445
   A13        2.01379  -0.00078   0.00000  -0.00274  -0.00274   2.01105
   A14        2.13188   0.00232   0.00000   0.00908   0.00908   2.14095
   A15        2.13752  -0.00154   0.00000  -0.00633  -0.00634   2.13118
   A16        2.12481   0.00019   0.00000   0.00083   0.00083   2.12564
   A17        2.11033  -0.00053   0.00000  -0.00215  -0.00215   2.10818
   A18        2.04804   0.00034   0.00000   0.00132   0.00132   2.04936
   A19        1.93851   0.00187   0.00000   0.01164   0.01164   1.95015
   A20        2.20431  -0.00184   0.00000  -0.00733  -0.00733   2.19698
   A21        2.12776   0.00298   0.00000   0.01188   0.01188   2.13964
   A22        1.95112  -0.00114   0.00000  -0.00455  -0.00455   1.94656
   A23        1.93288  -0.00026   0.00000  -0.00198  -0.00198   1.93089
   A24        1.93291  -0.00026   0.00000  -0.00198  -0.00199   1.93093
   A25        1.89583   0.00060   0.00000   0.00447   0.00447   1.90030
   A26        1.85578  -0.00001   0.00000  -0.00152  -0.00152   1.85426
   A27        1.92327  -0.00005   0.00000   0.00043   0.00043   1.92370
   A28        1.92329  -0.00005   0.00000   0.00042   0.00042   1.92372
   A29        1.95640   0.00294   0.00000   0.01829   0.01829   1.97468
   A30        1.97601   0.00156   0.00000   0.00971   0.00971   1.98572
   A31        1.96718   0.00170   0.00000   0.01056   0.01056   1.97774
    D1       -0.00004   0.00000   0.00000   0.00001   0.00001  -0.00003
    D2       -3.14159  -0.00000   0.00000  -0.00000  -0.00000  -3.14159
    D3        3.14153   0.00000   0.00000   0.00001   0.00001   3.14154
    D4       -0.00002  -0.00000   0.00000   0.00000   0.00000  -0.00002
    D5       -0.00005  -0.00000   0.00000   0.00000   0.00000  -0.00004
    D6        3.14155  -0.00000   0.00000  -0.00000  -0.00000   3.14155
    D7        3.14157  -0.00000   0.00000   0.00000   0.00000   3.14157
    D8       -0.00001  -0.00000   0.00000  -0.00000  -0.00000  -0.00002
    D9        0.00005  -0.00000   0.00000  -0.00001  -0.00001   0.00004
   D10       -3.14144  -0.00000   0.00000  -0.00003  -0.00003  -3.14147
   D11       -3.14159   0.00000   0.00000  -0.00000  -0.00000  -3.14159
   D12        0.00011  -0.00000   0.00000  -0.00002  -0.00002   0.00009
   D13       -3.14159  -0.00000   0.00000  -0.00000  -0.00000  -3.14159
   D14        0.00005  -0.00000   0.00000  -0.00001  -0.00001   0.00004
   D15        0.00002   0.00000   0.00000  -0.00000  -0.00000   0.00002
   D16       -3.14150  -0.00000   0.00000  -0.00002  -0.00002  -3.14151
   D17        3.14151   0.00000   0.00000   0.00002   0.00002   3.14153
   D18       -0.00001   0.00000   0.00000   0.00000   0.00000  -0.00000
   D19       -0.00010   0.00000   0.00000   0.00001   0.00001  -0.00009
   D20        3.14138   0.00000   0.00000   0.00004   0.00004   3.14142
   D21        3.14142   0.00000   0.00000   0.00002   0.00002   3.14145
   D22       -0.00028   0.00000   0.00000   0.00006   0.00006  -0.00023
   D23       -0.00105   0.00001   0.00000   0.00022   0.00022  -0.00084
   D24        3.14061   0.00000   0.00000   0.00020   0.00020   3.14081
   D25        0.00011  -0.00000   0.00000  -0.00001  -0.00001   0.00010
   D26       -3.14149  -0.00000   0.00000  -0.00001  -0.00001  -3.14149
   D27       -3.14137  -0.00000   0.00000  -0.00004  -0.00004  -3.14141
   D28        0.00022  -0.00000   0.00000  -0.00004  -0.00004   0.00018
   D29       -3.14148  -0.00000   0.00000  -0.00002  -0.00002  -3.14150
   D30        0.00008   0.00000   0.00000   0.00001   0.00001   0.00009
   D31       -0.00001   0.00000   0.00000   0.00002   0.00002   0.00001
   D32        3.14156   0.00000   0.00000   0.00004   0.00004  -3.14159
   D33        0.00002  -0.00000   0.00000  -0.00000  -0.00000   0.00001
   D34       -3.14157  -0.00000   0.00000  -0.00001  -0.00001  -3.14158
   D35       -1.02739   0.00017   0.00000   0.00222   0.00222  -1.02517
   D36        1.02701  -0.00016   0.00000  -0.00214  -0.00214   1.02487
   D37        3.14143   0.00000   0.00000   0.00004   0.00004   3.14147
   D38        2.11423   0.00017   0.00000   0.00220   0.00219   2.11643
   D39       -2.11455  -0.00017   0.00000  -0.00217  -0.00217  -2.11672
   D40       -0.00013  -0.00000   0.00000   0.00001   0.00001  -0.00012
   D41        0.00000   0.00000   0.00000  -0.00001  -0.00001  -0.00000
   D42        3.14157   0.00000   0.00000   0.00002   0.00002   3.14159
         Item               Value     Threshold  Converged?
 Maximum Force            0.005949     0.000450     NO 
 RMS     Force            0.001650     0.000300     NO 
 Maximum Displacement     0.103089     0.001800     NO 
 RMS     Displacement     0.018441     0.001200     NO 
 Predicted change in Energy=-3.177354D-04
 GradGradGradGradGradGradGradGradGradGradGradGradGradGradGradGradGradGrad

                          Input orientation:                          
 ---------------------------------------------------------------------
 Center     Atomic      Atomic             Coordinates (Angstroms)
 Number     Number       Type             X           Y           Z
 ---------------------------------------------------------------------
      1          6           0        1.546765   -1.264585   -0.000243
      2          6           0        2.288167   -0.077209   -0.000101
      3          6           0        1.641853    1.175879    0.000024
      4          6           0        0.264536    1.219530    0.000057
      5          6           0       -0.560272    0.033068   -0.000008
      6          6           0        0.162617   -1.220571   -0.000226
      7          8           0       -0.561224   -2.351921   -0.000411
      8          6           0       -1.987744    0.086376    0.000231
      9          6           0       -2.905776   -1.087951    0.000297
     10          8           0       -2.649960    1.212677    0.000421
     11          8           0       -0.388243    2.415420    0.000084
     12          8           0        3.616705   -0.205238   -0.000136
     13          1           0        2.078116   -2.210390   -0.000391
     14          1           0        2.220828    2.094878    0.000016
     15          1           0        0.003714   -3.139459   -0.000536
     16          1           0       -2.724792   -1.718651   -0.874712
     17          1           0       -2.724329   -1.718956    0.874986
     18          1           0       -3.935379   -0.730667    0.000619
     19          1           0       -2.065559    2.005181    0.000382
     20          1           0        0.202858    3.183015    0.000817
     21          1           0        4.083829    0.643733   -0.000032
 ---------------------------------------------------------------------
                    Distance matrix (angstroms):
                    1          2          3          4          5
     1  C    0.000000
     2  C    1.399835   0.000000
     3  C    2.442316   1.409947   0.000000
     4  C    2.795522   2.403459   1.378008   0.000000
     5  C    2.474573   2.850573   2.481003   1.444992   0.000000
     6  C    1.384847   2.413553   2.816223   2.442229   1.447128
     7  O    2.371902   3.646004   4.159197   3.665671   2.384989
     8  C    3.783894   4.279039   3.789590   2.521270   1.428467
     9  C    4.456043   5.291374   5.079946   3.921141   2.599629
    10  O    4.873328   5.103812   4.291971   2.914504   2.399640
    11  O    4.157727   3.657371   2.378603   1.362451   2.388555
    12  O    2.325267   1.334693   2.409880   3.642389   4.183769
    13  H    1.084841   2.143497   3.414255   3.879874   3.463264
    14  H    3.426420   2.173131   1.086173   2.143201   3.462020
    15  H    2.428201   3.820484   4.615803   4.366786   3.222268
    16  H    4.383728   5.346871   5.311408   4.281847   2.918694
    17  H    4.383461   5.346609   5.311231   4.281766   2.918620
    18  H    5.508082   6.257757   5.894101   4.630610   3.460438
    19  H    4.872398   4.826104   3.799033   2.458982   2.480952
    20  H    4.646207   3.870087   2.469677   1.964453   3.241070
    21  H    3.174645   1.934984   2.499285   3.862453   4.684079
                    6          7          8          9         10
     6  C    0.000000
     7  O    1.343093   0.000000
     8  C    2.516380   2.824934   0.000000
     9  C    3.071258   2.663558   1.490579   0.000000
    10  O    3.719044   4.131486   1.306554   2.314807   0.000000
    11  O    3.677483   4.770478   2.825394   4.314114   2.561632
    12  O    3.600225   4.697163   5.612030   6.581940   6.425073
    13  H    2.156125   2.643132   4.669728   5.108723   5.837130
    14  H    3.902363   5.245363   4.663278   6.034275   4.950036
    15  H    1.925456   0.969212   3.791032   3.560031   5.097360
    16  H    3.057768   2.417946   2.137028   1.093700   3.060089
    17  H    3.057588   2.417848   2.137049   1.093695   3.060207
    18  H    4.127176   3.743446   2.112070   1.089832   2.329997
    19  H    3.920491   4.609486   1.920382   3.205220   0.984676
    20  H    4.403770   5.587427   3.793140   5.282495   3.467103
    21  H    4.341835   5.527247   6.097102   7.200924   6.757782
                   11         12         13         14         15
    11  O    0.000000
    12  O    4.786173   0.000000
    13  H    5.242236   2.527427   0.000000
    14  H    2.628687   2.690540   4.307633   0.000000
    15  H    5.568691   4.654391   2.272953   5.684530   0.000000
    16  H    4.828590   6.577985   4.906544   6.306133   3.198066
    17  H    4.828645   6.577681   4.906249   6.305988   3.197904
    18  H    4.741312   7.570339   6.192875   6.773669   4.617222
    19  H    1.726756   6.097055   5.911099   4.287326   5.545198
    20  H    0.968815   4.809845   5.710115   2.292650   6.325610
    21  H    4.810229   0.968998   3.488395   2.361482   5.564161
                   16         17         18         19         20
    16  H    0.000000
    17  H    1.749698   0.000000
    18  H    1.791044   1.791053   0.000000
    19  H    3.881663   3.881766   3.313773   0.000000
    20  H    5.776160   5.775977   5.695780   2.555975   0.000000
    21  H    7.259701   7.259406   8.136134   6.298295   4.637876
                   21
    21  H    0.000000
 Stoichiometry    C8H9O4(1+)
 Framework group  C1[X(C8H9O4)]
 Deg. of freedom    57
 Full point group                 C1      NOp   1
 Largest Abelian subgroup         C1      NOp   1
 Largest concise Abelian subgroup C1      NOp   1
                         Standard orientation:                         
 ---------------------------------------------------------------------
 Center     Atomic      Atomic             Coordinates (Angstroms)
 Number     Number       Type             X           Y           Z
 ---------------------------------------------------------------------
      1          6           0        1.545644   -1.268086   -0.000255
      2          6           0        2.288323   -0.081509   -0.000112
      3          6           0        1.643359    1.172274    0.000013
      4          6           0        0.266090    1.217408    0.000046
      5          6           0       -0.559996    0.031835   -0.000019
      6          6           0        0.161544   -1.222582   -0.000237
      7          8           0       -0.563515   -2.353152   -0.000422
      8          6           0       -1.987409    0.086680    0.000220
      9          6           0       -2.906705   -1.086658    0.000286
     10          8           0       -2.648412    1.213693    0.000410
     11          8           0       -0.385401    2.414000    0.000073
     12          8           0        3.616722   -0.210968   -0.000147
     13          1           0        2.075976   -2.214462   -0.000402
     14          1           0        2.223323    2.090650    0.000005
     15          1           0        0.000575   -3.141298   -0.000547
     16          1           0       -2.726400   -1.717553   -0.874723
     17          1           0       -2.725938   -1.717858    0.874975
     18          1           0       -3.935922   -0.728266    0.000608
     19          1           0       -2.063158    2.005568    0.000371
     20          1           0        0.206526    3.180959    0.000806
     21          1           0        4.084761    0.637499   -0.000043
 ---------------------------------------------------------------------
 Rotational constants (GHZ):      1.5154144      0.7549318      0.5054581
 Standard basis: 6-31+G(d,p) (6D, 7F)
 There are   273 symmetry adapted cartesian basis functions of A   symmetry.
 There are   273 symmetry adapted basis functions of A   symmetry.
   273 basis functions,   447 primitive gaussians,   273 cartesian basis functions
    44 alpha electrons       44 beta electrons
       nuclear repulsion energy       711.5654790588 Hartrees.
 NAtoms=   21 NActive=   21 NUniq=   21 SFac= 1.00D+00 NAtFMM=   60 NAOKFM=F Big=F
 Integral buffers will be    131072 words long.
 Raffenetti 2 integral format.
 Two-electron integral symmetry is turned on.
 Nuclear repulsion after empirical dispersion term =      711.5481666498 Hartrees.
 One-electron integrals computed using PRISM.
 NBasis=   273 RedAO= T EigKep=  1.40D-06  NBF=   273
 NBsUse=   273 1.00D-06 EigRej= -1.00D+00 NBFU=   273
 Initial guess from the checkpoint file:  "b3lypD3THAPyang.chk"
 B after Tr=     0.000000    0.000000    0.000000
         Rot=    1.000000   -0.000004   -0.000001    0.000865 Ang=  -0.10 deg.
 ExpMin= 4.38D-02 ExpMax= 5.48D+03 ExpMxC= 8.25D+02 IAcc=2 IRadAn=         4 AccDes= 0.00D+00
 Harris functional with IExCor=  402 and IRadAn=       4 diagonalized for initial guess.
 HarFok:  IExCor=  402 AccDes= 0.00D+00 IRadAn=         4 IDoV= 1 UseB2=F ITyADJ=14
 ICtDFT=  3500011 ScaDFX=  1.000000  1.000000  1.000000  1.000000
 FoFCou: FMM=F IPFlag=           0 FMFlag=      100000 FMFlg1=           0
         NFxFlg=           0 DoJE=T BraDBF=F KetDBF=T FulRan=T
         wScrn=  0.000000 ICntrl=     500 IOpCl=  0 I1Cent=   200000004 NGrid=           0
         NMat0=    1 NMatS0=      1 NMatT0=    0 NMatD0=    1 NMtDS0=    0 NMtDT0=    0
 Petite list used in FoFCou.
 Keep R1 ints in memory in canonical form, NReq=709970467.
 Requested convergence on RMS density matrix=1.00D-08 within 128 cycles.
 Requested convergence on MAX density matrix=1.00D-06.
 Requested convergence on             energy=1.00D-06.
 No special actions if energy rises.
 SCF Done:  E(RB3LYP) =  -610.985840395     A.U. after   12 cycles
            NFock= 12  Conv=0.67D-08     -V/T= 2.0093
 Calling FoFJK, ICntrl=      2127 FMM=F ISym2X=0 I1Cent= 0 IOpClX= 0 NMat=1 NMatS=1 NMatT=0.
 ***** Axes restored to original set *****
 -------------------------------------------------------------------
 Center     Atomic                   Forces (Hartrees/Bohr)
 Number     Number              X              Y              Z
 -------------------------------------------------------------------
      1        6           0.000043134   -0.000222983   -0.000000255
      2        6          -0.000778719    0.000752971   -0.000000020
      3        6           0.000059576   -0.000449723    0.000000739
      4        6           0.000456853    0.000805648   -0.000002109
      5        6          -0.001896152    0.000517493    0.000000116
      6        6           0.001207763    0.000387479    0.000000275
      7        8          -0.000060275   -0.000521884    0.000000428
      8        6           0.002815780   -0.000591762   -0.000003034
      9        6          -0.001061544   -0.000075757   -0.000000396
     10        8           0.001757558    0.002855238    0.000000599
     11        8          -0.003440117   -0.001502883    0.000006996
     12        8           0.000257256   -0.000666818   -0.000000029
     13        1          -0.000104417   -0.000012094    0.000000036
     14        1          -0.000089788   -0.000063513    0.000000747
     15        1           0.000400812    0.000368434   -0.000000067
     16        1           0.000003438    0.000192847    0.000015638
     17        1           0.000003215    0.000192820   -0.000014885
     18        1           0.000112868    0.000202667    0.000000092
     19        1           0.000274859   -0.001638853   -0.000000093
     20        1           0.000429085   -0.000699057   -0.000004671
     21        1          -0.000391186    0.000169730   -0.000000106
 -------------------------------------------------------------------
 Cartesian Forces:  Max     0.003440117 RMS     0.000867011

 GradGradGradGradGradGradGradGradGradGradGradGradGradGradGradGradGradGrad
 Berny optimization.
 Using GEDIIS/GDIIS optimizer.
 FormGI is forming the generalized inverse of G from B-inverse, IUseBI=4.
 Internal  Forces:  Max     0.007969345 RMS     0.001657702
 Search for a local minimum.
 Step number   2 out of a maximum of  104
 All quantities printed in internal units (Hartrees-Bohrs-Radians)
 Mixed Optimization -- RFO/linear search
 Update second derivatives using D2CorX and points    1    2
 DE= -8.86D-05 DEPred=-3.18D-04 R= 2.79D-01
 Trust test= 2.79D-01 RLast= 4.47D-02 DXMaxT set to 3.00D-01
 ITU=  0  0
 Use linear search instead of GDIIS.
     Eigenvalues ---    0.00961   0.01566   0.01588   0.01729   0.01771
     Eigenvalues ---    0.01974   0.02049   0.02099   0.02131   0.02187
     Eigenvalues ---    0.02226   0.02252   0.02262   0.02515   0.02620
     Eigenvalues ---    0.02990   0.07518   0.07533   0.14916   0.16000
     Eigenvalues ---    0.16000   0.16000   0.16000   0.16000   0.16000
     Eigenvalues ---    0.16000   0.16056   0.23309   0.23496   0.24291
     Eigenvalues ---    0.25000   0.25000   0.25000   0.25000   0.25000
     Eigenvalues ---    0.29219   0.34385   0.34387   0.34835   0.35008
     Eigenvalues ---    0.35221   0.35376   0.38017   0.39996   0.42257
     Eigenvalues ---    0.44179   0.46944   0.47409   0.50350   0.50498
     Eigenvalues ---    0.53831   0.53919   0.53960   0.55958   0.58851
     Eigenvalues ---    0.65045   0.77201
 RFO step:  Lambda=-2.37910323D-04 EMin= 9.60997543D-03
 Quartic linear search produced a step of -0.42132.
 Iteration  1 RMS(Cart)=  0.02045903 RMS(Int)=  0.00009691
 Iteration  2 RMS(Cart)=  0.00020147 RMS(Int)=  0.00000047
 Iteration  3 RMS(Cart)=  0.00000002 RMS(Int)=  0.00000047
 Variable       Old X    -DE/DX   Delta X   Delta X   Delta X     New X
                                 (Linear)    (Quad)   (Total)
    R1        2.64530   0.00018  -0.00162   0.00338   0.00176   2.64706
    R2        2.61698  -0.00037  -0.00191   0.00320   0.00129   2.61827
    R3        2.05005  -0.00004   0.00042  -0.00085  -0.00043   2.04963
    R4        2.66441  -0.00015  -0.00199   0.00359   0.00160   2.66601
    R5        2.52220  -0.00008  -0.00390   0.00723   0.00334   2.52554
    R6        2.60406  -0.00062  -0.00182   0.00264   0.00082   2.60488
    R7        2.05257  -0.00010   0.00041  -0.00093  -0.00052   2.05205
    R8        2.73064  -0.00352  -0.00440   0.00294  -0.00146   2.72918
    R9        2.57466  -0.00049  -0.00443   0.00777   0.00334   2.57800
   R10        2.73468   0.00025  -0.00375   0.00730   0.00354   2.73822
   R11        2.69941  -0.00386  -0.00352   0.00124  -0.00228   2.69713
   R12        2.53808  -0.00005  -0.00421   0.00785   0.00364   2.54172
   R13        1.83155  -0.00007  -0.00127   0.00230   0.00104   1.83258
   R14        2.81679   0.00017  -0.00424   0.00817   0.00393   2.82072
   R15        2.46903   0.00002  -0.00376   0.00708   0.00332   2.47235
   R16        2.06679  -0.00012   0.00001  -0.00023  -0.00022   2.06657
   R17        2.06678  -0.00012   0.00001  -0.00023  -0.00022   2.06657
   R18        2.05948  -0.00004  -0.00002  -0.00003  -0.00005   2.05944
   R19        1.86077  -0.00115  -0.00026  -0.00083  -0.00109   1.85968
   R20        1.83079  -0.00029  -0.00133   0.00217   0.00085   1.83164
   R21        1.83114  -0.00004  -0.00149   0.00275   0.00126   1.83240
    A1        2.09718  -0.00020  -0.00069   0.00115   0.00046   2.09764
    A2        2.07157   0.00020   0.00028  -0.00009   0.00019   2.07176
    A3        2.11444  -0.00000   0.00041  -0.00107  -0.00065   2.11379
    A4        2.10723   0.00038   0.00072  -0.00008   0.00064   2.10787
    A5        2.03289  -0.00045  -0.00010  -0.00104  -0.00114   2.03176
    A6        2.14306   0.00007  -0.00062   0.00112   0.00050   2.14355
    A7        2.07867  -0.00086  -0.00118  -0.00004  -0.00122   2.07745
    A8        2.10321   0.00047   0.00073  -0.00008   0.00065   2.10386
    A9        2.10130   0.00039   0.00045   0.00012   0.00057   2.10188
   A10        2.14660   0.00068   0.00035   0.00067   0.00101   2.14761
   A11        2.10213   0.00372   0.00204   0.00496   0.00700   2.10914
   A12        2.03445  -0.00439  -0.00239  -0.00563  -0.00802   2.02644
   A13        2.01105   0.00105   0.00115   0.00001   0.00117   2.01221
   A14        2.14095  -0.00797  -0.00382  -0.01124  -0.01507   2.12589
   A15        2.13118   0.00692   0.00267   0.01123   0.01390   2.14509
   A16        2.12564  -0.00104  -0.00035  -0.00171  -0.00206   2.12358
   A17        2.10818  -0.00044   0.00090  -0.00271  -0.00180   2.10638
   A18        2.04936   0.00148  -0.00055   0.00442   0.00386   2.05322
   A19        1.95015  -0.00099  -0.00490   0.00529   0.00039   1.95054
   A20        2.19698   0.00491   0.00309   0.00567   0.00876   2.20574
   A21        2.13964  -0.00649  -0.00501  -0.00579  -0.01080   2.12884
   A22        1.94656   0.00158   0.00192   0.00012   0.00204   1.94860
   A23        1.93089  -0.00007   0.00084  -0.00165  -0.00081   1.93008
   A24        1.93093  -0.00007   0.00084  -0.00165  -0.00081   1.93011
   A25        1.90030  -0.00032  -0.00189   0.00199   0.00011   1.90041
   A26        1.85426   0.00019   0.00064   0.00003   0.00068   1.85493
   A27        1.92370   0.00015  -0.00018   0.00061   0.00043   1.92412
   A28        1.92372   0.00015  -0.00018   0.00060   0.00043   1.92414
   A29        1.97468  -0.00222  -0.00770   0.00590  -0.00180   1.97288
   A30        1.98572  -0.00141  -0.00409   0.00231  -0.00178   1.98394
   A31        1.97774  -0.00077  -0.00445   0.00524   0.00079   1.97853
    D1       -0.00003   0.00000  -0.00000   0.00001   0.00001  -0.00003
    D2       -3.14159  -0.00000   0.00000  -0.00000  -0.00000  -3.14159
    D3        3.14154   0.00000  -0.00000   0.00001   0.00001   3.14154
    D4       -0.00002   0.00000  -0.00000   0.00000   0.00000  -0.00002
    D5       -0.00004   0.00000  -0.00000   0.00001   0.00001  -0.00004
    D6        3.14155   0.00000   0.00000   0.00000   0.00000   3.14155
    D7        3.14157   0.00000  -0.00000   0.00000   0.00000   3.14158
    D8       -0.00002   0.00000   0.00000  -0.00000   0.00000  -0.00002
    D9        0.00004  -0.00000   0.00000  -0.00001  -0.00001   0.00004
   D10       -3.14147  -0.00000   0.00001  -0.00003  -0.00002  -3.14149
   D11       -3.14159  -0.00000   0.00000   0.00000   0.00000  -3.14159
   D12        0.00009  -0.00000   0.00001  -0.00002  -0.00001   0.00007
   D13       -3.14159  -0.00000   0.00000  -0.00000   0.00000  -3.14159
   D14        0.00004  -0.00000   0.00000  -0.00001  -0.00001   0.00003
   D15        0.00002  -0.00000   0.00000  -0.00000  -0.00000   0.00002
   D16       -3.14151  -0.00000   0.00001  -0.00002  -0.00002  -3.14153
   D17        3.14153   0.00000  -0.00001   0.00002   0.00001   3.14154
   D18       -0.00000  -0.00000  -0.00000  -0.00000  -0.00000  -0.00001
   D19       -0.00009   0.00000  -0.00000   0.00002   0.00001  -0.00007
   D20        3.14142   0.00000  -0.00002   0.00004   0.00002   3.14145
   D21        3.14145   0.00000  -0.00001   0.00004   0.00003   3.14147
   D22       -0.00023   0.00000  -0.00002   0.00006   0.00004  -0.00019
   D23       -0.00084   0.00000  -0.00009   0.00022   0.00013  -0.00071
   D24        3.14081   0.00000  -0.00008   0.00020   0.00011   3.14093
   D25        0.00010  -0.00000   0.00000  -0.00002  -0.00001   0.00008
   D26       -3.14149  -0.00000   0.00000  -0.00001  -0.00001  -3.14151
   D27       -3.14141  -0.00000   0.00002  -0.00004  -0.00002  -3.14143
   D28        0.00018  -0.00000   0.00002  -0.00004  -0.00002   0.00016
   D29       -3.14150   0.00000   0.00001  -0.00001   0.00000  -3.14150
   D30        0.00009  -0.00000  -0.00000  -0.00001  -0.00001   0.00008
   D31        0.00001   0.00000  -0.00001   0.00002   0.00001   0.00002
   D32       -3.14159  -0.00000  -0.00002   0.00001  -0.00000  -3.14159
   D33        0.00001  -0.00000   0.00000  -0.00000  -0.00000   0.00001
   D34       -3.14158  -0.00000   0.00000  -0.00001  -0.00000  -3.14158
   D35       -1.02517  -0.00007  -0.00093   0.00101   0.00008  -1.02509
   D36        1.02487   0.00007   0.00090  -0.00099  -0.00009   1.02478
   D37        3.14147  -0.00000  -0.00002   0.00001  -0.00001   3.14146
   D38        2.11643  -0.00007  -0.00092   0.00102   0.00010   2.11652
   D39       -2.11672   0.00007   0.00091  -0.00099  -0.00008  -2.11680
   D40       -0.00012   0.00000  -0.00000   0.00001   0.00001  -0.00012
   D41       -0.00000   0.00000   0.00000   0.00001   0.00001   0.00001
   D42        3.14159  -0.00000  -0.00001   0.00000  -0.00001   3.14159
         Item               Value     Threshold  Converged?
 Maximum Force            0.007969     0.000450     NO 
 RMS     Force            0.001658     0.000300     NO 
 Maximum Displacement     0.079649     0.001800     NO 
 RMS     Displacement     0.020572     0.001200     NO 
 Predicted change in Energy=-2.121008D-04
 GradGradGradGradGradGradGradGradGradGradGradGradGradGradGradGradGradGrad

                          Input orientation:                          
 ---------------------------------------------------------------------
 Center     Atomic      Atomic             Coordinates (Angstroms)
 Number     Number       Type             X           Y           Z
 ---------------------------------------------------------------------
      1          6           0        1.557031   -1.267455   -0.000248
      2          6           0        2.291172   -0.074485   -0.000109
      3          6           0        1.637119    1.175536    0.000031
      4          6           0        0.259095    1.209432    0.000073
      5          6           0       -0.558052    0.018615   -0.000000
      6          6           0        0.171930   -1.233079   -0.000219
      7          8           0       -0.542980   -2.372368   -0.000398
      8          6           0       -1.983780    0.084699    0.000224
      9          6           0       -2.923820   -1.074766    0.000291
     10          8           0       -2.624437    1.225418    0.000417
     11          8           0       -0.411343    2.397544    0.000135
     12          8           0        3.622137   -0.195531   -0.000154
     13          1           0        2.094239   -2.209685   -0.000400
     14          1           0        2.209946    2.098056    0.000039
     15          1           0        0.028864   -3.155586   -0.000529
     16          1           0       -2.753364   -1.708020   -0.874844
     17          1           0       -2.752913   -1.708323    0.875113
     18          1           0       -3.946936   -0.699381    0.000609
     19          1           0       -2.023411    2.004661    0.000384
     20          1           0        0.170527    3.172721    0.000774
     21          1           0        4.085684    0.656158   -0.000052
 ---------------------------------------------------------------------
                    Distance matrix (angstroms):
                    1          2          3          4          5
     1  C    0.000000
     2  C    1.400764   0.000000
     3  C    2.444304   1.410794   0.000000
     4  C    2.796357   2.403702   1.378441   0.000000
     5  C    2.475389   2.850744   2.481379   1.444221   0.000000
     6  C    1.385528   2.415269   2.819256   2.444066   1.449003
     7  O    2.372947   3.648655   4.164188   3.670507   2.391031
     8  C    3.790206   4.277914   3.781645   2.509086   1.427259
     9  C    4.484992   5.310057   5.085865   3.917717   2.606212
    10  O    4.868171   5.084580   4.261848   2.883576   2.392973
    11  O    4.160134   3.662583   2.385267   1.364220   2.383448
    12  O    2.326733   1.336458   2.412493   3.644719   4.185670
    13  H    1.084615   2.144263   3.415946   3.880480   3.464097
    14  H    3.428260   2.174059   1.085897   2.143706   3.462064
    15  H    2.429059   3.822462   4.620076   4.371086   3.228006
    16  H    4.420240   5.374099   5.325096   4.283914   2.926776
    17  H    4.419982   5.373847   5.324922   4.283828   2.926697
    18  H    5.533205   6.269329   5.890415   4.618902   3.464110
    19  H    4.850393   4.789413   3.753256   2.417069   2.468128
    20  H    4.651619   3.878335   2.477830   1.965286   3.237161
    21  H    3.177165   1.937554   2.503043   3.866381   4.687296
                    6          7          8          9         10
     6  C    0.000000
     7  O    1.345019   0.000000
     8  C    2.526583   2.848348   0.000000
     9  C    3.099795   2.711489   1.492660   0.000000
    10  O    3.723422   4.156505   1.308312   2.319585   0.000000
    11  O    3.677176   4.771728   2.796749   4.285962   2.504329
    12  O    3.602837   4.699662   5.612917   6.604742   6.406152
    13  H    2.156162   2.642232   4.679150   5.144800   5.836595
    14  H    3.905121   5.250076   4.651983   6.035093   4.912510
    15  H    1.927823   0.969761   3.814471   3.612224   5.121836
    16  H    3.089965   2.468160   2.138188   1.093584   3.063946
    17  H    3.089785   2.468052   2.138206   1.093580   3.064055
    18  H    4.153299   3.792862   2.113945   1.089807   2.335349
    19  H    3.911838   4.620613   1.920371   3.208365   0.984099
    20  H    4.405800   5.590806   3.765224   5.255105   3.406437
    21  H    4.345882   5.531411   6.096307   7.220059   6.734225
                   11         12         13         14         15
    11  O    0.000000
    12  O    4.795102   0.000000
    13  H    5.244474   2.528100   0.000000
    14  H    2.638343   2.693478   4.309295   0.000000
    15  H    5.570550   4.655484   2.271674   5.688398   0.000000
    16  H    4.806902   6.610577   4.951321   6.315543   3.255867
    17  H    4.806941   6.610287   4.951037   6.315398   3.255703
    18  H    4.700144   7.585824   6.227104   6.762607   4.673321
    19  H    1.659253   6.059130   5.892008   4.234388   5.553376
    20  H    0.969264   4.822731   5.715853   2.305242   6.329893
    21  H    4.822414   0.969665   3.489829   2.365896   5.566613
                   16         17         18         19         20
    16  H    0.000000
    17  H    1.749957   0.000000
    18  H    1.791196   1.791204   0.000000
    19  H    3.883665   3.883758   3.318402   0.000000
    20  H    5.756516   5.756350   5.652138   2.485503   0.000000
    21  H    7.288840   7.288559   8.146194   6.256158   4.654197
                   21
    21  H    0.000000
 Stoichiometry    C8H9O4(1+)
 Framework group  C1[X(C8H9O4)]
 Deg. of freedom    57
 Full point group                 C1      NOp   1
 Largest Abelian subgroup         C1      NOp   1
 Largest concise Abelian subgroup C1      NOp   1
                         Standard orientation:                         
 ---------------------------------------------------------------------
 Center     Atomic      Atomic             Coordinates (Angstroms)
 Number     Number       Type             X           Y           Z
 ---------------------------------------------------------------------
      1          6           0        1.559842   -1.260847   -0.000263
      2          6           0        2.289587   -0.065182   -0.000124
      3          6           0        1.630937    1.182423    0.000015
      4          6           0        0.252797    1.211246    0.000058
      5          6           0       -0.559960    0.017430   -0.000015
      6          6           0        0.174624   -1.231569   -0.000234
      7          8           0       -0.536088   -2.373482   -0.000414
      8          6           0       -1.985922    0.078265    0.000209
      9          6           0       -2.921688   -1.084652    0.000275
     10          8           0       -2.630774    1.216618    0.000402
     11          8           0       -0.422009    2.396882    0.000120
     12          8           0        3.620988   -0.181328   -0.000169
     13          1           0        2.100515   -2.201093   -0.000415
     14          1           0        2.200365    2.107045    0.000024
     15          1           0        0.038636   -3.154590   -0.000544
     16          1           0       -2.748903   -1.717274   -0.874859
     17          1           0       -2.748450   -1.717576    0.875098
     18          1           0       -3.946179   -0.713036    0.000594
     19          1           0       -2.032620    1.998068    0.000369
     20          1           0        0.157003    3.174196    0.000758
     21          1           0        4.081397    0.672061   -0.000067
 ---------------------------------------------------------------------
 Rotational constants (GHZ):      1.5143141      0.7546992      0.5052319
 Standard basis: 6-31+G(d,p) (6D, 7F)
 There are   273 symmetry adapted cartesian basis functions of A   symmetry.
 There are   273 symmetry adapted basis functions of A   symmetry.
   273 basis functions,   447 primitive gaussians,   273 cartesian basis functions
    44 alpha electrons       44 beta electrons
       nuclear repulsion energy       711.4318509603 Hartrees.
 NAtoms=   21 NActive=   21 NUniq=   21 SFac= 1.00D+00 NAtFMM=   60 NAOKFM=F Big=F
 Integral buffers will be    131072 words long.
 Raffenetti 2 integral format.
 Two-electron integral symmetry is turned on.
 Nuclear repulsion after empirical dispersion term =      711.4145940517 Hartrees.
 One-electron integrals computed using PRISM.
 NBasis=   273 RedAO= T EigKep=  1.42D-06  NBF=   273
 NBsUse=   273 1.00D-06 EigRej= -1.00D+00 NBFU=   273
 Initial guess from the checkpoint file:  "b3lypD3THAPyang.chk"
 B after Tr=    -0.000000   -0.000000    0.000000
         Rot=    0.999996   -0.000002   -0.000001   -0.002881 Ang=  -0.33 deg.
 ExpMin= 4.38D-02 ExpMax= 5.48D+03 ExpMxC= 8.25D+02 IAcc=2 IRadAn=         4 AccDes= 0.00D+00
 Harris functional with IExCor=  402 and IRadAn=       4 diagonalized for initial guess.
 HarFok:  IExCor=  402 AccDes= 0.00D+00 IRadAn=         4 IDoV= 1 UseB2=F ITyADJ=14
 ICtDFT=  3500011 ScaDFX=  1.000000  1.000000  1.000000  1.000000
 FoFCou: FMM=F IPFlag=           0 FMFlag=      100000 FMFlg1=           0
         NFxFlg=           0 DoJE=T BraDBF=F KetDBF=T FulRan=T
         wScrn=  0.000000 ICntrl=     500 IOpCl=  0 I1Cent=   200000004 NGrid=           0
         NMat0=    1 NMatS0=      1 NMatT0=    0 NMatD0=    1 NMtDS0=    0 NMtDT0=    0
 Petite list used in FoFCou.
 Keep R1 ints in memory in canonical form, NReq=709970467.
 Requested convergence on RMS density matrix=1.00D-08 within 128 cycles.
 Requested convergence on MAX density matrix=1.00D-06.
 Requested convergence on             energy=1.00D-06.
 No special actions if energy rises.
 SCF Done:  E(RB3LYP) =  -610.985857018     A.U. after   12 cycles
            NFock= 12  Conv=0.47D-08     -V/T= 2.0093
 Calling FoFJK, ICntrl=      2127 FMM=F ISym2X=0 I1Cent= 0 IOpClX= 0 NMat=1 NMatS=1 NMatT=0.
 ***** Axes restored to original set *****
 -------------------------------------------------------------------
 Center     Atomic                   Forces (Hartrees/Bohr)
 Number     Number              X              Y              Z
[...]
 0.00742636,-0.00294753,0.00000049,0.00141878,0.00052839,0.00000014,-0.
 00283056,-0.03341953,-0.00000464,0.05317189,-0.00763726,-0.00000740,-0
 .01022979,0.01547892,0.00000303,-0.00013377,-0.00466569,-0.00000108,0.
 12179275,-0.34868818,-0.00004447,0.01373156,-0.06024836,-0.00000956,0.
 04891001,0.69835816,0.00000068,0.00000039,-0.00144691,-0.00000125,0.00
 000006,0.00028020,0.00000116,-0.00000062,-0.00017483,-0.00000209,-0.00
 000402,-0.00329419,0.00001123,-0.00000920,0.01814655,0.00000040,0.0000
 0234,0.00864081,-0.00000037,-0.00000121,0.00004657,0.00003025,-0.00004
 359,-0.05782026,0.00000103,-0.00000541,0.00950571,-0.00004244,0.000061
 10,0.05119382,0.00852426,0.00661522,0.00000005,-0.00476209,-0.01788355
 ,-0.00000188,-0.03402650,0.05984645,0.00000727,-0.16646849,0.05011745,
 -0.00000290,0.02972280,-0.01548225,-0.00000256,-0.01612551,0.00214304,
 0.00000206,0.00356872,-0.00013676,-0.00000013,-0.01839483,0.01238774,0
 .00000354,0.00089782,-0.00150893,-0.00000023,-0.01745906,-0.03067932,-
 0.00000208,0.44237407,-0.00471469,-0.00610805,0.00000008,-0.00368086,0
 .01246474,0.00000022,0.02565010,-0.01856097,-0.00000231,0.10472514,-0.
 25965709,-0.00002803,0.00321645,-0.04640963,-0.00000518,0.00214837,-0.
 00252602,-0.00000149,-0.00015872,-0.00317256,-0.00000049,0.01904855,-0
 .00549018,-0.00000289,-0.00047148,-0.00196761,-0.00000009,-0.01861265,
 0.00843968,0.00000398,0.12817021,0.65948274,-0.00000097,-0.00000043,-0
 .00151608,0.00000107,0.00000014,0.00976483,0.00000392,-0.00000605,0.01
 244862,0.00001019,-0.00004099,-0.04133395,0.00000247,-0.00000704,0.002
 83820,-0.00000040,-0.00000098,0.00242098,0.00000003,-0.00000117,0.0005
 3793,0.00000410,0.00000025,-0.00148414,-0.00000023,0.,0.00056013,-0.00
 000353,0.00000205,0.00342772,0.00010094,0.00019392,0.02496192,-0.06012
 739,-0.01830360,0.00000192,-0.35946050,0.04820429,0.00002313,-0.045803
 17,0.01496537,0.00000568,0.01140338,0.00332848,0.00000059,-0.01754020,
 0.00119357,0.00000097,0.01778925,-0.00428176,-0.00000181,-0.00362005,-
 0.00283437,-0.00000016,0.01548909,-0.00337057,-0.00000234,-0.00048650,
 -0.00214276,0.00000005,-0.00466934,0.00728168,0.00000120,-0.00156778,0
 .00196206,0.00000021,0.58350336,-0.05050746,0.00805605,0.00000458,-0.0
 0278052,-0.11878208,-0.00001017,0.04615588,0.00175245,-0.00000455,-0.0
 0758826,-0.00703486,0.00000145,0.00052726,0.00332700,-0.00000146,0.006
 38084,-0.00816299,-0.00000358,-0.00399426,-0.00156715,0.00000035,0.000
 24786,0.00031529,-0.00000109,0.00001849,0.00010400,0.00000170,-0.00004
 437,0.00092584,-0.00000023,0.00401617,-0.00123561,-0.00000057,0.166859
 83,0.53126981,-0.00000274,0.00000111,0.00718003,0.00001626,-0.00001182
 ,-0.04704362,0.00000917,-0.00000223,0.01282717,-0.00000117,-0.00000087
 ,0.00792779,0.00000197,0.00000096,-0.00111564,0.00000028,-0.00000202,0
 .00451741,-0.00000027,0.00000038,-0.00056588,-0.00000194,-0.00000032,-
 0.00026185,0.00000023,0.00000039,0.00011849,0.00000022,-0.00000035,-0.
 00001761,0.00000077,-0.00000035,-0.00151190,-0.00000711,0.00005782,0.0
 3117393,-0.12682890,0.12345674,0.00002278,0.01324800,-0.01613374,-0.00
 000278,-0.00208259,-0.00284103,0.00000019,-0.00121459,-0.00069715,-0.0
 0000058,-0.00397467,-0.00210214,0.00000058,-0.01147153,0.02743187,0.00
 000507,0.00278156,0.00111598,-0.00000026,0.00009776,0.00146963,0.00000
 029,0.00005206,-0.00000105,-0.00000034,-0.00055594,0.00016470,0.000000
 16,0.00046495,-0.00010687,0.,0.00031276,0.00037941,-0.00000011,0.13042
 480,0.12209257,-0.27695946,-0.00004194,0.01551059,-0.01994071,-0.00000
 464,-0.00372670,-0.00212334,-0.00000083,-0.00107867,0.00013057,0.00000
 135,-0.00078859,0.00086084,-0.00000137,-0.00331718,0.00251329,-0.00000
 051,-0.00090696,0.00259741,0.00000128,-0.00035016,0.00019956,-0.000000
 56,-0.00003170,0.00006658,0.00000072,-0.00001493,0.00007924,-0.0000000
 3,0.00025556,0.00011522,-0.00000014,0.00097948,0.00150496,0.00000068,-
 0.12996394,0.29097799,0.00002253,-0.00004324,-0.02879310,0.00000204,-0
 .00000216,0.00351580,-0.00000022,-0.00000044,0.00428939,-0.00000036,-0
 .00000003,-0.00123130,0.00000022,-0.00000085,0.00533479,0.00000060,-0.
 00000118,0.00292384,-0.00000062,0.00000083,-0.00489812,0.00000034,0.00
 000006,0.00112415,-0.00000007,-0.00000004,-0.00009795,-0.00000002,0.00
 000009,-0.00066690,0.00000013,0.00000015,-0.00010312,-0.00000031,0.000
 00055,-0.00295772,-0.00002485,0.00004611,0.02058214,-0.00140224,0.0029
 3169,-0.00000018,0.01067531,0.01415191,0.00000120,-0.13830998,-0.12611
 180,-0.00000312,-0.01296225,-0.02831193,-0.00000300,-0.00408041,0.0026
 6004,0.00000204,-0.00098831,0.00078645,0.00000088,0.00032730,-0.000015
 04,-0.00000020,-0.00005641,-0.00189588,0.00000042,-0.00037892,0.000332
 54,-0.00000082,0.00018085,0.00044159,0.00000020,0.00293490,-0.00086864
 ,-0.00000065,0.00263262,-0.00010374,-0.00000059,0.00061723,0.00067359,
 0.00000021,0.14363544,0.00394303,-0.00253706,-0.00000224,-0.01846305,-
 0.01884294,0.00000011,-0.12650130,-0.26114437,-0.00001200,0.00345392,0
 .00298358,-0.00000236,0.00097080,0.00091666,0.00000120,0.00123179,-0.0
 0003483,0.00000126,-0.00031402,0.00006290,-0.00000024,0.00050540,-0.00
 005056,0.00000086,0.00004289,0.00001233,-0.00000132,-0.00003973,0.0004
 2213,0.00000031,0.00104275,0.00246140,0.00000119,-0.00060650,0.0027421
 4,0.00000023,-0.00091733,-0.00086478,-0.00000008,0.13441420,0.27445087
 ,0.00000090,-0.00000103,0.00384290,-0.00000222,-0.00000388,0.00214149,
 -0.00000331,-0.00001036,-0.02663616,0.00000153,0.00000102,0.00356873,0
 .00000053,-0.00000055,0.00532633,-0.00000002,0.00000016,-0.00128883,0.
 ,0.00000011,-0.00004698,-0.00000002,-0.00000003,0.00110635,-0.00000005
 ,0.00000003,-0.00039861,0.00000010,-0.00000008,-0.00003636,-0.00000013
 ,0.00000159,-0.00506920,-0.00000071,0.00000062,-0.00338453,-0.00000012
 ,-0.00000023,0.00054373,0.00000285,0.00001377,0.01859999,-0.00032408,-
 0.00529395,-0.00000064,-0.00042559,0.00125200,-0.00000002,0.00036478,-
 0.00029200,-0.00000022,0.00042370,-0.00075991,0.00000060,-0.00136110,-
 0.00370794,-0.00000076,0.01556063,-0.02578500,-0.00000517,-0.21654010,
 0.25108003,0.00004814,-0.00078772,-0.00042796,-0.00000025,-0.00148297,
 0.00009677,0.00000077,0.00020388,-0.00030508,-0.00000015,-0.00038278,-
 0.00000150,-0.00000008,-0.00014032,-0.00002195,0.,-0.00166433,0.000749
 62,0.00000025,-0.00008211,0.00014428,0.00000004,0.20663961,0.00403865,
 0.00597211,0.00000081,-0.00099007,-0.00319247,-0.00000015,-0.00125965,
 0.00134073,0.00000024,0.00301468,-0.00045948,-0.00000057,-0.00655841,-
 0.00110399,0.00000008,0.02097048,-0.03896590,-0.00000651,0.19841972,-0
 .32946668,-0.00005893,0.00157437,-0.00035710,0.00000002,-0.00015161,0.
 00000872,-0.00000019,-0.00062847,0.00087564,0.00000021,-0.00084455,0.0
 0042912,-0.00000001,0.00146249,0.00065152,-0.00000007,-0.00138814,0.00
 044535,0.,-0.00007021,0.00009320,0.,-0.21782800,0.36404780,0.00000043,
 0.00000157,-0.00204759,-0.00000014,-0.00000019,-0.00098257,0.00000020,
 -0.00000002,-0.00010430,0.00000008,-0.00000017,0.00135460,-0.00000116,
 -0.00000040,0.00338422,0.00000210,-0.00000459,-0.00214984,0.00004007,-
 0.00006151,-0.00806696,0.00000061,0.00000015,-0.00061529,0.00000030,-0
 .00000009,0.00048234,-0.00000025,0.00000046,-0.00024600,0.,-0.00000005
 ,0.00003127,0.00000015,-0.00000008,0.00001610,-0.00000004,-0.00000018,
 0.00091205,0.00000008,0.00000013,0.00004653,-0.00004271,0.00006511,0.0
 0753357,0.00009613,0.00012294,0.00017052,0.00048390,-0.00069757,0.0001
 3307,-0.00064517,0.00079900,-0.00030333,0.00118714,0.00112192,0.000979
 73,-0.00395194,0.00024193,0.00118847,-0.00136727,-0.00398802,-0.000498
 17,-0.00203368,0.00271082,-0.00118511,0.00721427,-0.00794825,-0.020214
 00,-0.05473790,0.02198664,0.03795416,-0.00120558,-0.00215937,0.0006000
 9,0.00000316,-0.00036961,0.00010777,-0.00057887,0.00010056,0.00000345,
 -0.00003733,0.00003699,-0.00005598,0.00000469,0.00000349,-0.00007493,-
 0.00004800,0.00023459,0.00017327,0.05601394,0.00012278,-0.00001286,-0.
 00022723,-0.00032153,0.00006217,-0.00003889,0.00013458,-0.00024090,-0.
 00020677,-0.00029316,-0.00078161,0.00080290,0.00136724,0.00000603,0.00
 132351,-0.00015084,0.00148480,-0.00044914,0.00108511,-0.00141409,0.001
 07947,0.00328448,-0.01838231,-0.02072845,0.02451569,-0.12912365,-0.131
 32893,-0.00312994,-0.00283419,0.00012697,-0.00033329,0.00031895,0.0001
 1205,0.00036241,-0.00002364,0.00004586,0.00003169,-0.00000114,0.000024
 28,0.00001488,0.00000083,-0.00005465,0.00034548,0.00006906,0.00020879,
 -0.02598332,0.14592521,0.00063649,0.00048857,-0.00024777,-0.00024904,-
 0.00042132,-0.00005515,-0.00009518,0.00007486,0.00001863,-0.00003393,-
 0.00020514,0.00012725,0.00025463,-0.00026949,0.00067283,-0.00071163,-0
 .00129089,0.00009982,0.00099372,0.00055775,0.00030480,-0.00128280,0.00
 160830,0.00170646,0.03658948,-0.12980681,-0.21529204,-0.00017169,0.002
 02832,-0.00089927,-0.00002311,0.00027560,-0.00009100,0.00028042,0.0000
 7480,0.00000543,-0.00002887,0.00001828,0.00004303,-0.00000534,0.000010
 05,-0.00000495,0.00042097,0.00002628,0.00002450,-0.04012659,0.13913591
 ,0.23370053,0.00009574,0.00012280,-0.00017056,0.00048396,-0.00069724,-
 0.00013332,-0.00064455,0.00079864,0.00030364,0.00118604,0.00112222,-0.
 00097957,-0.00395220,0.00024187,-0.00118702,-0.00136763,-0.00398783,0.
 00049746,-0.00203498,0.00271118,0.00118682,0.00722414,-0.00795315,0.02
 020938,-0.05476986,0.02204977,-0.03801089,-0.00120618,-0.00216100,-0.0
 0060080,0.00000315,-0.00036970,-0.00010764,-0.00057904,0.00010020,-0.0
 0000338,-0.00003725,0.00003683,0.00005605,0.00000488,0.00000375,0.0000
 7492,-0.00004836,0.00023483,-0.00017311,0.00021133,-0.00166041,0.00367
 636,0.05604783,0.00012278,-0.00001293,0.00022706,-0.00032160,0.0000620
 2,0.00003908,0.00013450,-0.00024069,0.00020662,-0.00029341,-0.00078200
 ,-0.00080320,0.00136673,0.00000581,-0.00132375,-0.00015085,0.00148481,
 0.00044969,0.00108552,-0.00141399,-0.00108041,0.00329287,-0.01838727,0
 .02071988,0.02457916,-0.12921231,0.13135019,-0.00313049,-0.00283459,-0
 .00012588,-0.00033353,0.00031918,-0.00011195,0.00036256,-0.00002369,-0
 .00004596,0.00003165,-0.00000115,-0.00002429,0.00001495,0.00000091,0.0
 0005465,0.00034570,0.00006912,-0.00020888,-0.00166518,0.01048009,-0.01
 524483,-0.02605201,0.14601977,-0.00063638,-0.00048839,-0.00024788,0.00
 024860,0.00042188,-0.00005493,0.00009609,-0.00007587,0.00001856,0.0000
 3263,0.00020488,0.00012720,-0.00025196,0.00026929,0.00067311,0.0007119
 7,0.00129297,0.00010037,-0.00099271,-0.00055973,0.00030426,0.00128074,
 -0.00161339,0.00170449,-0.03664413,0.12983109,-0.21518113,0.00017060,-
 0.00202784,-0.00089940,0.00002311,-0.00027544,-0.00009097,-0.00028009,
 -0.00007499,0.00000538,0.00002898,-0.00001838,0.00004301,0.00000537,-0
 .00000998,-0.00000495,-0.00042099,-0.00002635,0.00002466,-0.00368572,0
 .01525613,-0.02139739,0.04018910,-0.13915750,0.23358064,-0.00006285,0.
 00001245,-0.00000008,0.00013411,0.00002663,0.00000001,-0.00003654,-0.0
 0036734,-0.00000011,-0.00079570,0.00097033,0.00000037,0.00034935,-0.00
 329073,-0.00000003,0.00044238,-0.00002919,-0.00000010,-0.00007974,0.00
 040319,0.00000024,-0.02313034,0.00654445,0.00000503,-0.29570243,0.0874
 9469,0.00006090,0.00234831,0.00252481,-0.00000031,0.00053967,-0.000113
 72,-0.00000008,-0.00008721,-0.00000199,-0.00000003,-0.00000416,0.00000
 556,0.00000002,-0.00008253,0.00000177,0.,-0.00003613,-0.00017660,0.,-0
 .00117673,0.00032804,-0.00008937,-0.00118549,0.00033039,0.00009058,0.3
 1844859,0.00037875,0.00042544,0.00000011,0.00009495,-0.00044088,-0.000
 00009,-0.00030784,-0.00029619,0.00000003,-0.00106725,0.00085411,0.0000
 0005,-0.00126970,-0.00478638,-0.00000082,-0.00040644,-0.00177277,-0.00
 000018,0.00192469,0.00017723,-0.00000041,-0.03068250,0.00817794,0.0000
 0751,0.09597337,-0.08368963,-0.00002266,-0.00104200,0.00012909,0.00000
 027,0.00022088,-0.00001859,-0.00000004,-0.00004478,0.00007823,0.000000
 01,-0.00005229,0.00001945,0.,-0.00014745,0.00002170,0.00000002,0.00037
 759,0.00012052,-0.00000007,0.01558063,-0.00488386,0.00276385,0.0155868
 6,-0.00488474,-0.00277232,-0.09467103,0.09076485,0.00000005,0.00000009
 ,-0.00021296,-0.00000005,-0.00000004,0.00004112,-0.00000012,0.00000011
 ,-0.00022359,0.00000018,-0.00000041,0.00085064,0.00000040,-0.00000023,
 0.00181441,-0.00000003,0.00000004,-0.00035214,0.00000013,-0.00000027,0
 .00100867,-0.00000169,-0.00000055,-0.00202389,0.00006226,-0.00002061,-
 0.04944128,-0.00000051,-0.00000010,-0.00080961,-0.00000017,0.00000011,
 -0.00009601,0.00000009,0.00000009,0.00000055,-0.00000003,0.00000003,0.
 00002382,-0.00000005,-0.00000006,-0.00006573,0.00000009,0.00000005,0.0
 0009691,0.02395192,-0.00641072,0.00191280,-0.02394542,0.00640794,0.001
 92347,-0.00006683,0.00002460,0.04572214,-0.00315669,-0.00271290,-0.000
 00034,0.00128391,0.00394858,0.00000063,0.00333327,-0.00376761,-0.00000
 009,-0.00843036,0.02476017,0.00000286,-0.01249308,0.00108122,0.0000011
 5,0.00382143,-0.00340122,-0.00000065,-0.00065791,-0.00028680,-0.000000
 03,0.03549039,0.01104654,-0.00000317,-0.00247518,0.00446792,0.00000179
 ,-0.20509960,-0.19620673,0.00000220,0.00258298,-0.00583449,0.00000346,
 -0.00109781,-0.00085975,-0.00000023,-0.00013497,-0.00007205,0.00000003
 ,-0.00042479,-0.00023148,0.00000004,0.00008178,-0.00001364,-0.00000005
 ,0.00047747,0.00038952,-0.00001033,0.00047760,0.00038947,0.00000998,0.
 00002217,-0.00051328,-0.00000010,0.18210742,-0.00260998,-0.00147106,0.
 00000079,0.00239042,0.00238488,-0.00000025,0.00121613,-0.00293528,-0.0
 0000065,0.00508371,0.01641201,0.00000280,-0.00950823,0.00193787,0.0000
 0064,0.00216967,-0.00456081,-0.00000143,-0.00010740,0.00120470,0.00000
 041,-0.00902108,-0.04546459,-0.00000417,0.00289533,-0.00000278,-0.0000
 0069,-0.16588197,-0.26835959,-0.00000509,0.00405151,-0.01558681,-0.000
 00192,-0.00201727,-0.00059809,0.00000013,-0.00020540,-0.00004184,-0.00
 000004,-0.00039290,-0.00008261,0.00000006,0.00008695,-0.00018970,-0.00
 000018,-0.00026310,-0.00058882,0.00024462,-0.00026316,-0.00058839,-0.0
 0024486,0.00002263,-0.00001346,0.00000009,0.17321447,0.31970941,0.0000
 0016,0.00000020,0.00018798,-0.00000002,-0.00000007,0.00021816,-0.00000
 025,-0.00000006,0.00046313,0.00000115,-0.00000018,0.00030766,0.0000006
 3,0.00000034,-0.00273306,-0.00000016,-0.00000013,-0.00090806,0.0000001
 0,0.00000025,-0.00017289,-0.00000644,-0.00000629,-0.00090435,0.0000026
 5,-0.00000171,0.01131505,0.00000551,-0.00000117,-0.02594181,0.00000309
 ,-0.00000286,-0.00268957,0.00000005,0.00000024,-0.00009936,-0.00000002
 ,0.00000007,0.00010837,-0.00000009,-0.00000015,0.00000212,0.00000002,-
 0.00000004,0.00009369,0.00095944,0.00140970,-0.00069097,-0.00096002,-0
 .00140928,-0.00069098,-0.00000022,0.00000014,-0.00021824,-0.00000305,0
 .00000971,0.02331599,0.00052238,0.00029354,-0.00000043,-0.00055088,-0.
 00125405,0.00000016,0.00010202,0.00500342,0.00000041,0.01750569,0.0187
 2240,0.00000837,-0.00036551,0.00410807,0.00000105,0.00019087,0.0009847
 4,0.00000043,-0.00029164,0.00003321,-0.00000015,-0.00245014,0.00206087
 ,0.00000102,0.00011107,-0.00015452,-0.00000074,-0.00313632,-0.00331794
 ,0.00000073,-0.23351923,-0.24868048,-0.00012079,-0.00018946,-0.0000394
 9,-0.00000008,-0.00008002,-0.00012441,-0.00000006,-0.00154760,-0.00062
 200,0.00000039,0.00003542,0.00006194,0.00000003,0.00003192,-0.00007157
 ,0.00000121,0.00003205,-0.00007149,-0.00000121,0.00007636,0.00004287,-
 0.00000003,0.00451092,-0.00095015,-0.00000235,0.21915022,0.00115366,0.
 00117101,-0.00000117,0.00056841,-0.00285777,0.00000142,-0.00307598,0.0
 0558896,0.00000177,-0.02225827,-0.03386437,-0.00001285,0.00624662,-0.0
 0122435,-0.00000095,-0.00303952,-0.00054762,0.00000129,0.00090304,0.00
 042489,-0.00000014,-0.00080821,-0.00048282,0.00000114,0.00007801,0.000
 41330,-0.00000093,0.00305590,0.00269308,-0.00000056,-0.20167596,-0.322
 95321,-0.00013870,-0.00123184,0.00061634,-0.00000025,0.00009457,0.0000
 6371,0.,0.00150620,0.00021507,-0.00000118,-0.00007276,-0.00029044,0.00
 000004,0.00006236,-0.00002409,-0.00004296,0.00006259,-0.00002405,0.000
 04295,-0.00001577,0.00002077,-0.00000006,-0.00568505,-0.00146223,0.000
 00158,0.22374003,0.35243734,0.00000028,0.00000008,-0.00007810,-0.00000
 029,0.00000028,-0.00084083,-0.00000036,0.00000093,-0.00172798,-0.00000
 284,0.00000393,-0.00288601,-0.00000050,0.00000125,0.00304320,0.0000006
 5,-0.00000041,0.00132027,0.00000006,0.00000079,0.00000452,-0.00000052,
 -0.00000137,-0.00070856,0.00000008,0.00000020,-0.00047162,0.00000328,0
 .00000189,0.00097618,-0.00010763,-0.00015659,-0.00315375,-0.00000024,0
 .00000051,0.00013607,0.,0.00000017,0.00005295,0.00000064,-0.00000066,0
 .00092570,0.00000006,-0.00000001,0.00003050,-0.00004637,-0.00009151,0.
 00003461,0.00004627,0.00009152,0.00003459,0.,0.,0.00003280,-0.00000426
 ,0.00000003,-0.00101783,0.00011190,0.00014941,0.00416925,-0.00428819,0
 .00398978,-0.00000055,-0.02771469,-0.04353911,-0.00000362,0.00417762,-
 0.00101168,-0.00000012,-0.00204029,-0.00015661,-0.00000237,0.00178113,
 0.00036376,0.00000176,-0.00084887,-0.00219504,0.00000123,-0.00017526,0
 .00073294,-0.00000025,-0.00164777,0.00053931,0.00000139,0.00009602,0.0
 0023091,-0.00000150,0.00060620,-0.00064302,0.00000016,0.00108979,-0.00
 093747,0.00000019,-0.13518281,-0.15884471,-0.00001471,0.00008716,0.000
 03452,0.00000007,-0.00069766,0.00193733,0.00000020,0.00001381,-0.00010
 242,0.00000014,0.00005851,-0.00003785,-0.00002541,0.00005883,-0.000037
 75,0.00002544,0.00001889,0.00002398,-0.00000008,-0.00021895,0.00008982
 ,-0.00000018,-0.00013811,0.00039197,-0.00000020,0.16496466,0.00318365,
 0.00227272,-0.00000251,0.00533804,0.00478808,0.00000209,0.00545305,0.0
 0221408,0.00000058,-0.00089072,-0.00086997,-0.00000308,0.00180356,-0.0
 0016069,0.00000220,-0.00185007,0.00062003,0.00000167,0.00027557,0.0001
 3707,-0.00000028,-0.00176800,0.00040015,0.00000169,0.00000616,0.000249
 28,-0.00000193,0.00048600,-0.00097492,0.00000022,0.00001112,-0.0003447
 0,0.00000037,-0.21212879,-0.41391552,-0.00004333,0.00023285,0.00035825
 ,0.00000027,-0.00001043,-0.00082658,-0.00000005,0.00001765,-0.00009712
 ,0.00000016,0.00007254,-0.00003598,-0.00002575,0.00007295,-0.00003588,
 0.00002584,0.00000144,-0.00000283,-0.00000011,0.00028713,0.00029718,-0
 .00000026,0.00023499,0.00008649,-0.00000044,0.19917133,0.40584087,0.00
 000045,-0.00000087,0.00446847,0.00000239,0.00000369,-0.00424890,0.0000
 0020,0.00000082,-0.00204024,-0.00000010,-0.00000072,-0.00099200,-0.000
 00064,-0.00000035,-0.00010286,0.00000012,0.00000016,0.00280159,-0.0000
 0007,-0.00000005,-0.00096117,0.00000062,0.00000048,0.00003949,-0.00000
 015,-0.00000019,-0.00013576,0.00000011,-0.00000007,0.00003560,-0.00000
 014,0.00000012,0.00014805,-0.00002168,-0.00004600,-0.00695026,-0.00000
 005,0.00000011,-0.00074887,0.00000015,-0.00000003,0.00083242,0.0000000
 4,0.00000003,0.00018161,-0.00003170,0.00001073,0.00002787,0.00003174,-
 0.00001070,0.00002790,0.00000004,0.,0.00001612,0.00000016,0.,0.0000549
 6,0.00000012,0.00000015,0.00012402,0.00001840,0.00004268,0.00742197\\0
 .00000344,0.00001778,0.00000015,-0.00000233,0.00001004,0.,-0.00001014,
 -0.00002062,-0.00000033,0.00002358,-0.00001053,0.00000111,0.00000520,-
 0.00002571,0.00000045,0.00000441,0.00000144,-0.00000014,-0.00002313,0.
 00002382,-0.00000022,0.00000239,-0.00001927,-0.00000005,0.00000939,-0.
 00000710,0.00000090,0.00000894,0.00001181,-0.00000029,-0.00001425,-0.0
 0002446,-0.00000299,-0.00001062,-0.00001175,-0.00000001,-0.00000485,-0
 .00000466,-0.00000003,0.00000288,0.00000244,-0.00000030,0.00000563,0.0
 0000465,0.00000006,0.00000471,0.00000180,-0.00000280,0.00000483,0.0000
 0154,0.00000234,0.00000525,0.00000605,0.,-0.00001177,0.00003315,0.0000
 0012,0.00000194,0.00000556,0.00000198,-0.00000551,0.00000402,0.0000000
 6\\\@


 HE THAT WALD REACHE THE SWEITE ROSE
 SULD NOW AND THEN BE SCRATCHED WT THE SCHARPE BREERES.
 -- PROVERBS AND REASONS OF THE YEAR 1585
           AS REPRINTED IN PAISLEY MAGAZINE 1828.
 Job cpu time:       0 days  0 hours 18 minutes 26.3 seconds.
 File lengths (MBytes):  RWF=    168 Int=      0 D2E=      0 Chk=      7 Scr=      1
 Normal termination of Gaussian 09 at Tue Dec 17 20:15:43 2024.
