 Entering Gaussian System, Link 0=g09
 Input=B3PW91D3THAP.gjf
 Output=B3PW91D3THAP.log
 Initial command:
 /home/c612/g09E/g09/l1.exe "/mnt/ja_sm883/scratch/Gau-1969405.inp" -scrdir="/mnt/ja_sm883/scratch/"
 Default is to use a total of  18 processors:
                               18 via shared-memory
                                1 via Linda
 Entering Link 1 = /home/c612/g09E/g09/l1.exe PID=   1969407.
  
 Copyright (c) 1988,1990,1992,1993,1995,1998,2003,2009,2015,
            Gaussian, Inc.  All Rights Reserved.
  
 This is part of the Gaussian(R) 09 program.  It is based on
 the Gaussian(R) 03 system (copyright 2003, Gaussian, Inc.),
 the Gaussian(R) 98 system (copyright 1998, Gaussian, Inc.),
 the Gaussian(R) 94 system (copyright 1995, Gaussian, Inc.),
 the Gaussian 92(TM) system (copyright 1992, Gaussian, Inc.),
 the Gaussian 90(TM) system (copyright 1990, Gaussian, Inc.),
 the Gaussian 88(TM) system (copyright 1988, Gaussian, Inc.),
 the Gaussian 86(TM) system (copyright 1986, Carnegie Mellon
 University), and the Gaussian 82(TM) system (copyright 1983,
 Carnegie Mellon University). Gaussian is a federally registered
 trademark of Gaussian, Inc.
  
 This software contains proprietary and confidential information,
 including trade secrets, belonging to Gaussian, Inc.
  
 This software is provided under written license and may be
 used, copied, transmitted, or stored only in accord with that
 written license.
  
 The following legend is applicable only to US Government
 contracts under FAR:
  
                    RESTRICTED RIGHTS LEGEND
  
 Use, reproduction and disclosure by the US Government is
 subject to restrictions as set forth in subparagraphs (a)
 and (c) of the Commercial Computer Software - Restricted
 Rights clause in FAR 52.227-19.
  
 Gaussian, Inc.
 340 Quinnipiac St., Bldg. 40, Wallingford CT 06492
  
  
 ---------------------------------------------------------------
 Warning -- This program may not be used in any manner that
 competes with the business of Gaussian, Inc. or will provide
 assistance to any competitor of Gaussian, Inc.  The licensee
 of this program is prohibited from giving any competitor of
 Gaussian, Inc. access to this program.  By using this program,
 the user acknowledges that Gaussian, Inc. is engaged in the
 business of creating and licensing software in the field of
 computational chemistry and represents and warrants to the
 licensee that it is not a competitor of Gaussian, Inc. and that
 it will not use this program in any manner prohibited above.
 ---------------------------------------------------------------
  

 Cite this work as:
 Gaussian 09, Revision E.01,
 M. J. Frisch, G. W. Trucks, H. B. Schlegel, G. E. Scuseria, 
 M. A. Robb, J. R. Cheeseman, G. Scalmani, V. Barone, B. Mennucci, 
 G. A. Petersson, H. Nakatsuji, M. Caricato, X. Li, H. P. Hratchian, 
 A. F. Izmaylov, J. Bloino, G. Zheng, J. L. Sonnenberg, M. Hada, 
 M. Ehara, K. Toyota, R. Fukuda, J. Hasegawa, M. Ishida, T. Nakajima, 
 Y. Honda, O. Kitao, H. Nakai, T. Vreven, J. A. Montgomery, Jr., 
 J. E. Peralta, F. Ogliaro, M. Bearpark, J. J. Heyd, E. Brothers, 
 K. N. Kudin, V. N. Staroverov, T. Keith, R. Kobayashi, J. Normand, 
 K. Raghavachari, A. Rendell, J. C. Burant, S. S. Iyengar, J. Tomasi, 
 M. Cossi, N. Rega, J. M. Millam, M. Klene, J. E. Knox, J. B. Cross, 
 V. Bakken, C. Adamo, J. Jaramillo, R. Gomperts, R. E. Stratmann, 
 O. Yazyev, A. J. Austin, R. Cammi, C. Pomelli, J. W. Ochterski, 
 R. L. Martin, K. Morokuma, V. G. Zakrzewski, G. A. Voth, 
 P. Salvador, J. J. Dannenberg, S. Dapprich, A. D. Daniels, 
 O. Farkas, J. B. Foresman, J. V. Ortiz, J. Cioslowski, 
 and D. J. Fox, Gaussian, Inc., Wallingford CT, 2013.
 
 ******************************************
 Gaussian 09:  ES64L-G09RevE.01 30-Nov-2015
                19-Dec-2024 
 ******************************************
 %chk=B3PW91D3THAP.chk
 -----------------------------------------------------
 # opt freq b3pw91/6-31+g(d,p) EmpiricalDispersion=GD3
 -----------------------------------------------------
 1/14=-1,18=20,19=15,26=3,38=1/1,3;
 2/9=110,12=2,17=6,18=5,40=1/2;
 3/5=1,6=6,7=111,11=2,16=1,25=1,30=1,71=1,74=-6,124=31/1,2,3;
 4//1;
 5/5=2,38=5/2;
 6/7=2,8=2,9=2,10=2,28=1/1;
 7//1,2,3,16;
 1/14=-1,18=20,19=15,26=3/3(2);
 2/9=110/2;
 99//99;
 2/9=110/2;
 3/5=1,6=6,7=111,11=2,16=1,25=1,30=1,71=1,74=-6,124=31/1,2,3;
 4/5=5,16=3,69=1/1;
 5/5=2,38=5/2;
 7//1,2,3,16;
 1/14=-1,18=20,19=15,26=3/3(-5);
 2/9=110/2;
 6/7=2,8=2,9=2,10=2,19=2,28=1/1;
 99/9=1/99;
 ----------
 [No Title]
 ----------
 Symbolic Z-matrix:
 Charge =  0 Multiplicity = 1
 C                    -1.52928   1.24718   0.00006 
 C                    -2.26011   0.05263   0.00004 
 C                    -1.62212  -1.18033  -0.00002 
 C                    -0.22481  -1.22934  -0.00006 
 C                     0.56718  -0.03309  -0.00003 
 C                    -0.14383   1.19776   0.00003 
 O                     0.57233   2.35363   0.00006 
 C                     2.02366  -0.16437  -0.00006 
 C                     2.95347   1.01873   0.00002 
 O                     2.54326  -1.30079  0. 
 O                     0.34614  -2.42788  -0.00013 
 O                    -3.60987   0.17257   0.00007 
 H                    -2.06093   2.19409   0.0001 
 H                    -2.17348  -2.11563  -0.00005 
 H                    -0.03668   3.10186   0.00012 
 H                     2.78452   1.65076   0.87612 
 H                     3.9761    0.63933   0.00005 
 H                     2.78459   1.65081  -0.87606 
 H                     1.34179  -2.25356  -0.00016 
 H                    -4.01572  -0.70287   0.00005 
 

 GradGradGradGradGradGradGradGradGradGradGradGradGradGradGradGradGradGrad
 Berny optimization.
 Initialization pass.
                           ----------------------------
                           !    Initial Parameters    !
                           ! (Angstroms and Degrees)  !
 --------------------------                            --------------------------
 ! Name  Definition              Value          Derivative Info.                !
 --------------------------------------------------------------------------------
 ! R1    R(1,2)                  1.4004         estimate D2E/DX2                !
 ! R2    R(1,6)                  1.3863         estimate D2E/DX2                !
 ! R3    R(1,13)                 1.086          estimate D2E/DX2                !
 ! R4    R(2,3)                  1.3882         estimate D2E/DX2                !
 ! R5    R(2,12)                 1.3551         estimate D2E/DX2                !
 ! R6    R(3,4)                  1.3982         estimate D2E/DX2                !
 ! R7    R(3,14)                 1.0857         estimate D2E/DX2                !
 ! R8    R(4,5)                  1.4347         estimate D2E/DX2                !
 ! R9    R(4,11)                 1.3276         estimate D2E/DX2                !
 ! R10   R(5,6)                  1.4215         estimate D2E/DX2                !
 ! R11   R(5,8)                  1.4624         estimate D2E/DX2                !
 ! R12   R(6,7)                  1.3597         estimate D2E/DX2                !
 ! R13   R(7,15)                 0.9648         estimate D2E/DX2                !
 ! R14   R(8,9)                  1.5048         estimate D2E/DX2                !
 ! R15   R(8,10)                 1.2496         estimate D2E/DX2                !
 ! R16   R(9,16)                 1.0934         estimate D2E/DX2                !
 ! R17   R(9,17)                 1.0907         estimate D2E/DX2                !
 ! R18   R(9,18)                 1.0934         estimate D2E/DX2                !
 ! R19   R(11,19)                1.0108         estimate D2E/DX2                !
 ! R20   R(12,20)                0.9649         estimate D2E/DX2                !
 ! A1    A(2,1,6)              119.4162         estimate D2E/DX2                !
 ! A2    A(2,1,13)             119.2289         estimate D2E/DX2                !
 ! A3    A(6,1,13)             121.3549         estimate D2E/DX2                !
 ! A4    A(1,2,3)              121.1818         estimate D2E/DX2                !
 ! A5    A(1,2,12)             116.3808         estimate D2E/DX2                !
 ! A6    A(3,2,12)             122.4374         estimate D2E/DX2                !
 ! A7    A(2,3,4)              119.3685         estimate D2E/DX2                !
 ! A8    A(2,3,14)             122.1211         estimate D2E/DX2                !
 ! A9    A(4,3,14)             118.5104         estimate D2E/DX2                !
 ! A10   A(3,4,5)              121.498          estimate D2E/DX2                !
 ! A11   A(3,4,11)             117.4807         estimate D2E/DX2                !
 ! A12   A(5,4,11)             121.0214         estimate D2E/DX2                !
 ! A13   A(4,5,6)              116.4799         estimate D2E/DX2                !
 ! A14   A(4,5,8)              118.3568         estimate D2E/DX2                !
 ! A15   A(6,5,8)              125.1634         estimate D2E/DX2                !
 ! A16   A(1,6,5)              122.0557         estimate D2E/DX2                !
 ! A17   A(1,6,7)              119.7396         estimate D2E/DX2                !
 ! A18   A(5,6,7)              118.2047         estimate D2E/DX2                !
 ! A19   A(6,7,15)             109.0748         estimate D2E/DX2                !
 ! A20   A(5,8,9)              123.014          estimate D2E/DX2                !
 ! A21   A(5,8,10)             119.721          estimate D2E/DX2                !
 ! A22   A(9,8,10)             117.2649         estimate D2E/DX2                !
 ! A23   A(8,9,16)             111.0408         estimate D2E/DX2                !
 ! A24   A(8,9,17)             107.8091         estimate D2E/DX2                !
 ! A25   A(8,9,18)             111.0404         estimate D2E/DX2                !
 ! A26   A(16,9,17)            110.2373         estimate D2E/DX2                !
 ! A27   A(16,9,18)            106.4977         estimate D2E/DX2                !
 ! A28   A(17,9,18)            110.2373         estimate D2E/DX2                !
 ! A29   A(4,11,19)            105.5409         estimate D2E/DX2                !
 ! A30   A(2,12,20)            109.7942         estimate D2E/DX2                !
 ! D1    D(6,1,2,3)             -0.0003         estimate D2E/DX2                !
 ! D2    D(6,1,2,12)           179.9998         estimate D2E/DX2                !
 ! D3    D(13,1,2,3)           179.9998         estimate D2E/DX2                !
 ! D4    D(13,1,2,12)           -0.0001         estimate D2E/DX2                !
 ! D5    D(2,1,6,5)              0.0003         estimate D2E/DX2                !
 ! D6    D(2,1,6,7)           -179.9998         estimate D2E/DX2                !
 ! D7    D(13,1,6,5)          -179.9998         estimate D2E/DX2                !
 ! D8    D(13,1,6,7)             0.0002         estimate D2E/DX2                !
 ! D9    D(1,2,3,4)              0.0            estimate D2E/DX2                !
 ! D10   D(1,2,3,14)          -179.9998         estimate D2E/DX2                !
 ! D11   D(12,2,3,4)           179.9998         estimate D2E/DX2                !
 ! D12   D(12,2,3,14)            0.0            estimate D2E/DX2                !
 ! D13   D(1,2,12,20)          179.9998         estimate D2E/DX2                !
 ! D14   D(3,2,12,20)           -0.0001         estimate D2E/DX2                !
 ! D15   D(2,3,4,5)              0.0003         estimate D2E/DX2                !
 ! D16   D(2,3,4,11)          -179.9996         estimate D2E/DX2                !
 ! D17   D(14,3,4,5)          -179.9999         estimate D2E/DX2                !
 ! D18   D(14,3,4,11)            0.0002         estimate D2E/DX2                !
 ! D19   D(3,4,5,6)             -0.0003         estimate D2E/DX2                !
 ! D20   D(3,4,5,8)            179.9992         estimate D2E/DX2                !
 ! D21   D(11,4,5,6)           179.9996         estimate D2E/DX2                !
 ! D22   D(11,4,5,8)            -0.0009         estimate D2E/DX2                !
 ! D23   D(3,4,11,19)          179.9988         estimate D2E/DX2                !
 ! D24   D(5,4,11,19)           -0.0011         estimate D2E/DX2                !
 ! D25   D(4,5,6,1)              0.0            estimate D2E/DX2                !
 ! D26   D(4,5,6,7)           -180.0            estimate D2E/DX2                !
 ! D27   D(8,5,6,1)           -179.9994         estimate D2E/DX2                !
 ! D28   D(8,5,6,7)              0.0006         estimate D2E/DX2                !
 ! D29   D(4,5,8,9)           -179.9978         estimate D2E/DX2                !
 ! D30   D(4,5,8,10)            -0.0051         estimate D2E/DX2                !
 ! D31   D(6,5,8,9)              0.0017         estimate D2E/DX2                !
 ! D32   D(6,5,8,10)           179.9944         estimate D2E/DX2                !
 ! D33   D(1,6,7,15)             0.0015         estimate D2E/DX2                !
 ! D34   D(5,6,7,15)          -179.9985         estimate D2E/DX2                !
 ! D35   D(5,8,9,16)            59.1425         estimate D2E/DX2                !
 ! D36   D(5,8,9,17)           179.9963         estimate D2E/DX2                !
 ! D37   D(5,8,9,18)           -59.1501         estimate D2E/DX2                !
 ! D38   D(10,8,9,16)         -120.8503         estimate D2E/DX2                !
 ! D39   D(10,8,9,17)            0.0034         estimate D2E/DX2                !
 ! D40   D(10,8,9,18)          120.857          estimate D2E/DX2                !
 --------------------------------------------------------------------------------
 Trust Radius=3.00D-01 FncErr=1.00D-07 GrdErr=1.00D-06
 Number of steps in this run=    100 maximum allowed number of steps=    120.
 GradGradGradGradGradGradGradGradGradGradGradGradGradGradGradGradGradGrad

                          Input orientation:                          
 ---------------------------------------------------------------------
 Center     Atomic      Atomic             Coordinates (Angstroms)
 Number     Number       Type             X           Y           Z
 ---------------------------------------------------------------------
      1          6           0       -1.529278    1.247175    0.000059
      2          6           0       -2.260114    0.052631    0.000035
      3          6           0       -1.622116   -1.180327   -0.000024
      4          6           0       -0.224810   -1.229342   -0.000061
      5          6           0        0.567179   -0.033094   -0.000032
      6          6           0       -0.143834    1.197764    0.000029
      7          8           0        0.572333    2.353627    0.000057
      8          6           0        2.023660   -0.164368   -0.000055
      9          6           0        2.953472    1.018731    0.000021
     10          8           0        2.543255   -1.300790   -0.000003
     11          8           0        0.346137   -2.427883   -0.000126
     12          8           0       -3.609869    0.172570    0.000070
     13          1           0       -2.060929    2.194087    0.000102
     14          1           0       -2.173479   -2.115631   -0.000046
     15          1           0       -0.036675    3.101863    0.000121
     16          1           0        2.784518    1.650757    0.876121
     17          1           0        3.976098    0.639331    0.000052
     18          1           0        2.784589    1.650806   -0.876055
     19          1           0        1.341787   -2.253564   -0.000164
     20          1           0       -4.015716   -0.702868    0.000046
 ---------------------------------------------------------------------
                    Distance matrix (angstroms):
                    1          2          3          4          5
     1  C    0.000000
     2  C    1.400377   0.000000
     3  C    2.429277   1.388246   0.000000
     4  C    2.799066   2.405393   1.398165   0.000000
     5  C    2.456465   2.828592   2.471671   1.434662   0.000000
     6  C    1.386325   2.406236   2.800113   2.428456   1.421461
     7  O    2.375080   3.649293   4.159860   3.670573   2.386727
     8  C    3.823064   4.289267   3.784687   2.487928   1.462385
     9  C    4.488567   5.302342   5.076599   3.892982   2.607821
    10  O    4.803920   4.990401   4.167113   2.768987   2.347750
    11  O    4.125922   3.597985   2.330325   1.327585   2.404969
    12  O    2.341716   1.355073   2.404473   3.663875   4.182108
    13  H    1.085954   2.150700   3.402826   3.884739   3.444893
    14  H    3.423954   2.169992   1.085723   2.140752   3.442117
    15  H    2.380700   3.773791   4.566265   4.335289   3.192584
    16  H    4.420317   5.363753   5.310470   4.256609   2.918834
    17  H    5.538830   6.263749   5.886523   4.597778   3.474606
    18  H    4.420401   5.363835   5.310536   4.256654   2.918877
    19  H    4.527492   4.276941   3.152231   1.871699   2.351702
    20  H    3.159912   1.911261   2.440756   3.827289   4.631579
                    6          7          8          9         10
     6  C    0.000000
     7  O    1.359748   0.000000
     8  C    2.559968   2.906312   0.000000
     9  C    3.102476   2.729793   1.504750   0.000000
    10  O    3.669226   4.152023   1.249573   2.355516   0.000000
    11  O    3.658605   4.786857   2.817372   4.321729   2.469345
    12  O    3.614474   4.716760   5.643596   6.617661   6.327063
    13  H    2.160535   2.638091   4.716585   5.150309   5.780370
    14  H    3.885620   5.245355   4.628542   6.009147   4.786601
    15  H    1.907112   0.964753   3.861767   3.644231   5.102881
    16  H    3.089981   2.480983   2.154360   1.093414   3.088273
    17  H    4.157606   3.811093   2.111385   1.090738   2.411868
    18  H    3.090054   2.481049   2.154355   1.093412   3.088305
    19  H    3.757490   4.671003   2.197656   3.647663   1.533396
    20  H    4.313221   5.512926   6.063336   7.178683   6.586168
                   11         12         13         14         15
    11  O    0.000000
    12  O    4.734167   0.000000
    13  H    5.211197   2.546713   0.000000
    14  H    2.538891   2.701681   4.311187   0.000000
    15  H    5.542981   4.620441   2.218482   5.638100   0.000000
    16  H    4.832061   6.621230   4.953885   6.287693   3.291233
    17  H    4.752307   7.600313   6.234016   6.738480   4.708122
    18  H    4.832081   6.621319   4.953973   6.287756   3.291319
    19  H    1.010795   5.514075   5.600007   3.517971   5.529987
    20  H    4.690569   0.964937   3.494788   2.321581   5.505338
                   16         17         18         19         20
    16  H    0.000000
    17  H    1.791743   0.000000
    18  H    1.752176   1.791742   0.000000
    19  H    4.253595   3.912600   4.253583   0.000000
    20  H    7.249154   8.103739   7.249240   5.577409   0.000000
 Stoichiometry    C8H8O4
 Framework group  C1[X(C8H8O4)]
 Deg. of freedom    54
 Full point group                 C1      NOp   1
 Largest Abelian subgroup         C1      NOp   1
 Largest concise Abelian subgroup C1      NOp   1
                         Standard orientation:                         
 ---------------------------------------------------------------------
 Center     Atomic      Atomic             Coordinates (Angstroms)
 Number     Number       Type             X           Y           Z
 ---------------------------------------------------------------------
      1          6           0       -1.529278    1.247175    0.000059
      2          6           0       -2.260114    0.052631    0.000035
      3          6           0       -1.622116   -1.180327   -0.000024
      4          6           0       -0.224810   -1.229342   -0.000061
      5          6           0        0.567179   -0.033094   -0.000032
      6          6           0       -0.143834    1.197764    0.000029
      7          8           0        0.572333    2.353627    0.000057
      8          6           0        2.023660   -0.164368   -0.000055
      9          6           0        2.953472    1.018732    0.000021
     10          8           0        2.543255   -1.300790   -0.000003
     11          8           0        0.346137   -2.427883   -0.000126
     12          8           0       -3.609869    0.172569    0.000070
     13          1           0       -2.060929    2.194087    0.000102
     14          1           0       -2.173479   -2.115631   -0.000046
     15          1           0       -0.036675    3.101863    0.000121
     16          1           0        2.784518    1.650758    0.876121
     17          1           0        3.976098    0.639332    0.000052
     18          1           0        2.784589    1.650807   -0.876055
     19          1           0        1.341787   -2.253564   -0.000164
     20          1           0       -4.015716   -0.702869    0.000046
 ---------------------------------------------------------------------
 Rotational constants (GHZ):      1.5520496      0.7667849      0.5148446
 Standard basis: 6-31+G(d,p) (6D, 7F)
 There are   268 symmetry adapted cartesian basis functions of A   symmetry.
 There are   268 symmetry adapted basis functions of A   symmetry.
   268 basis functions,   440 primitive gaussians,   268 cartesian basis functions
    44 alpha electrons       44 beta electrons
       nuclear repulsion energy       698.6002325153 Hartrees.
 NAtoms=   20 NActive=   20 NUniq=   20 SFac= 1.00D+00 NAtFMM=   60 NAOKFM=F Big=F
 Integral buffers will be    131072 words long.
 Raffenetti 2 integral format.
 Two-electron integral symmetry is turned on.
 Nuclear repulsion after empirical dispersion term =      698.5819264067 Hartrees.
 One-electron integrals computed using PRISM.
 NBasis=   268 RedAO= T EigKep=  1.53D-06  NBF=   268
 NBsUse=   268 1.00D-06 EigRej= -1.00D+00 NBFU=   268
 ExpMin= 4.38D-02 ExpMax= 5.48D+03 ExpMxC= 8.25D+02 IAcc=2 IRadAn=         4 AccDes= 0.00D+00
 Harris functional with IExCor=  408 and IRadAn=       4 diagonalized for initial guess.
 HarFok:  IExCor=  408 AccDes= 0.00D+00 IRadAn=         4 IDoV= 1 UseB2=F ITyADJ=14
 ICtDFT=  3500011 ScaDFX=  1.000000  1.000000  1.000000  1.000000
 FoFCou: FMM=F IPFlag=           0 FMFlag=      100000 FMFlg1=           0
         NFxFlg=           0 DoJE=T BraDBF=F KetDBF=T FulRan=T
         wScrn=  0.000000 ICntrl=     500 IOpCl=  0 I1Cent=   200000004 NGrid=           0
         NMat0=    1 NMatS0=      1 NMatT0=    0 NMatD0=    1 NMtDS0=    0 NMtDT0=    0
 Petite list used in FoFCou.
 Keep R1 ints in memory in canonical form, NReq=659648347.
 Requested convergence on RMS density matrix=1.00D-08 within 128 cycles.
 Requested convergence on MAX density matrix=1.00D-06.
 Requested convergence on             energy=1.00D-06.
 No special actions if energy rises.
 SCF Done:  E(RB3PW91) =  -610.397616079     A.U. after   15 cycles
            NFock= 15  Conv=0.49D-08     -V/T= 2.0090

 **********************************************************************

            Population analysis using the SCF density.

 **********************************************************************

 Orbital symmetries:
       Occupied  (A) (A) (A) (A) (A) (A) (A) (A) (A) (A) (A) (A)
                 (A) (A) (A) (A) (A) (A) (A) (A) (A) (A) (A) (A)
                 (A) (A) (A) (A) (A) (A) (A) (A) (A) (A) (A) (A)
                 (A) (A) (A) (A) (A) (A) (A) (A)
       Virtual   (A) (A) (A) (A) (A) (A) (A) (A) (A) (A) (A) (A)
                 (A) (A) (A) (A) (A) (A) (A) (A) (A) (A) (A) (A)
                 (A) (A) (A) (A) (A) (A) (A) (A) (A) (A) (A) (A)
                 (A) (A) (A) (A) (A) (A) (A) (A) (A) (A) (A) (A)
                 (A) (A) (A) (A) (A) (A) (A) (A) (A) (A) (A) (A)
                 (A) (A) (A) (A) (A) (A) (A) (A) (A) (A) (A) (A)
                 (A) (A) (A) (A) (A) (A) (A) (A) (A) (A) (A) (A)
                 (A) (A) (A) (A) (A) (A) (A) (A) (A) (A) (A) (A)
                 (A) (A) (A) (A) (A) (A) (A) (A) (A) (A) (A) (A)
                 (A) (A) (A) (A) (A) (A) (A) (A) (A) (A) (A) (A)
                 (A) (A) (A) (A) (A) (A) (A) (A) (A) (A) (A) (A)
                 (A) (A) (A) (A) (A) (A) (A) (A) (A) (A) (A) (A)
                 (A) (A) (A) (A) (A) (A) (A) (A) (A) (A) (A) (A)
                 (A) (A) (A) (A) (A) (A) (A) (A) (A) (A) (A) (A)
                 (A) (A) (A) (A) (A) (A) (A) (A) (A) (A) (A) (A)
                 (A) (A) (A) (A) (A) (A) (A) (A) (A) (A) (A) (A)
                 (A) (A) (A) (A) (A) (A) (A) (A) (A) (A) (A) (A)
                 (A) (A) (A) (A) (A) (A) (A) (A) (A) (A) (A) (A)
                 (A) (A) (A) (A) (A) (A) (A) (A)
 The electronic state is 1-A.
 Alpha  occ. eigenvalues --  -19.20544 -19.20294 -19.16532 -19.14667 -10.28157
 Alpha  occ. eigenvalues --  -10.27520 -10.27097 -10.26618 -10.19891 -10.18952
 Alpha  occ. eigenvalues --  -10.18401 -10.17632  -1.10292  -1.09845  -1.08367
 Alpha  occ. eigenvalues --   -1.04588  -0.87068  -0.79028  -0.76356  -0.74218
 Alpha  occ. eigenvalues --   -0.66851  -0.64867  -0.60765  -0.58687  -0.53241
 Alpha  occ. eigenvalues --   -0.52760  -0.51312  -0.48798  -0.46718  -0.45355
 Alpha  occ. eigenvalues --   -0.44178  -0.43888  -0.42446  -0.41982  -0.41840
 Alpha  occ. eigenvalues --   -0.40822  -0.39028  -0.37434  -0.37170  -0.36641
 Alpha  occ. eigenvalues --   -0.31002  -0.27083  -0.24988  -0.23687
 Alpha virt. eigenvalues --   -0.06224  -0.00768  -0.00486   0.00161   0.02452
 Alpha virt. eigenvalues --    0.02740   0.04414   0.04782   0.05257   0.05847
 Alpha virt. eigenvalues --    0.07083   0.07523   0.08450   0.08683   0.10041
 Alpha virt. eigenvalues --    0.11259   0.11389   0.11752   0.13039   0.13557
 Alpha virt. eigenvalues --    0.14110   0.14765   0.15023   0.15546   0.16295
 Alpha virt. eigenvalues --    0.16411   0.16517   0.17243   0.18370   0.18722
 Alpha virt. eigenvalues --    0.19184   0.20249   0.21355   0.21741   0.22022
 Alpha virt. eigenvalues --    0.22204   0.22233   0.23330   0.24394   0.24811
 Alpha virt. eigenvalues --    0.25434   0.25650   0.27116   0.27301   0.27449
 Alpha virt. eigenvalues --    0.28320   0.29117   0.29709   0.30301   0.30521
 Alpha virt. eigenvalues --    0.31083   0.31734   0.32406   0.32915   0.33280
 Alpha virt. eigenvalues --    0.33674   0.34706   0.35146   0.36230   0.37858
 Alpha virt. eigenvalues --    0.38918   0.39641   0.40710   0.42308   0.43135
 Alpha virt. eigenvalues --    0.44563   0.45576   0.46609   0.48627   0.51324
 Alpha virt. eigenvalues --    0.59773   0.62474   0.64664   0.66457   0.68621
 Alpha virt. eigenvalues --    0.70236   0.70941   0.71363   0.73253   0.73553
 Alpha virt. eigenvalues --    0.74438   0.75154   0.76072   0.77820   0.80676
 Alpha virt. eigenvalues --    0.83195   0.86765   0.87449   0.89210   0.91428
 Alpha virt. eigenvalues --    0.93074   0.94159   0.99284   1.00073   1.04298
 Alpha virt. eigenvalues --    1.05302   1.06964   1.07889   1.10299   1.10704
 Alpha virt. eigenvalues --    1.13620   1.16685   1.16862   1.17295   1.18589
 Alpha virt. eigenvalues --    1.19478   1.20488   1.21833   1.22050   1.23797
 Alpha virt. eigenvalues --    1.24083   1.24956   1.27599   1.28087   1.28108
 Alpha virt. eigenvalues --    1.29285   1.31528   1.34266   1.34462   1.36413
 Alpha virt. eigenvalues --    1.37769   1.37843   1.38420   1.38453   1.39671
 Alpha virt. eigenvalues --    1.41369   1.44347   1.46165   1.48473   1.56095
 Alpha virt. eigenvalues --    1.56868   1.57284   1.60306   1.62188   1.68381
 Alpha virt. eigenvalues --    1.70362   1.70896   1.72767   1.75377   1.79278
 Alpha virt. eigenvalues --    1.82306   1.83380   1.85033   1.86365   1.88451
 Alpha virt. eigenvalues --    1.89417   1.89593   1.89863   1.91243   1.93155
 Alpha virt. eigenvalues --    1.96648   1.98632   2.01478   2.02654   2.02696
 Alpha virt. eigenvalues --    2.03180   2.05608   2.07537   2.13550   2.17081
 Alpha virt. eigenvalues --    2.19948   2.20849   2.21258   2.25765   2.31050
 Alpha virt. eigenvalues --    2.32862   2.33477   2.37038   2.38454   2.40666
 Alpha virt. eigenvalues --    2.41988   2.43897   2.44789   2.49156   2.49330
 Alpha virt. eigenvalues --    2.50554   2.52699   2.53905   2.54312   2.55164
 Alpha virt. eigenvalues --    2.57946   2.63255   2.64959   2.65643   2.70471
 Alpha virt. eigenvalues --    2.71258   2.71362   2.73108   2.73797   2.75133
 Alpha virt. eigenvalues --    2.78787   2.83138   2.86003   2.87932   2.92609
 Alpha virt. eigenvalues --    2.98266   3.02490   3.07112   3.09850   3.14451
 Alpha virt. eigenvalues --    3.19723   3.20987   3.25219   3.31284   3.41680
 Alpha virt. eigenvalues --    3.43546   3.43815   3.48400   3.50796   3.53399
 Alpha virt. eigenvalues --    3.67021   3.77367   4.24000   4.25314   4.27550
 Alpha virt. eigenvalues --    4.35210   4.40047   4.45878   4.46899   4.52405
 Alpha virt. eigenvalues --    4.68274   4.76394   4.81472   4.91851
          Condensed to atoms (all electrons):
               1          2          3          4          5          6
     1  C   13.968323  -2.536092   0.831500  -3.728008  -0.443431  -4.781553
     2  C   -2.536092   7.549846  -1.296878   2.446160  -1.944715   3.206989
     3  C    0.831500  -1.296878  14.050652  -4.831081  -0.988810  -2.860240
     4  C   -3.728008   2.446160  -4.831081  16.352209  -3.106142   2.511244
     5  C   -0.443431  -1.944715  -0.988810  -3.106142  16.580452  -4.657216
     6  C   -4.781553   3.206989  -2.860240   2.511244  -4.657216  16.931602
     7  O    0.274824  -0.010252   0.001254   0.009698  -0.398894   0.118020
     8  C    1.652943  -0.757008   0.465629  -2.203268  -1.700077  -1.487787
     9  C   -0.279980   0.014707  -0.374532  -0.243669  -0.064006  -0.401822
    10  O    0.010800  -0.004960  -0.051937  -0.213029  -0.101617  -0.084385
    11  O    0.046838  -0.030802  -0.401175   0.137627   0.405248   0.005697
    12  O   -0.235048   0.112806   0.071739  -0.007093  -0.019387   0.060983
    13  H    0.096520   0.160769   0.041632  -0.024510   0.006593   0.043826
    14  H   -0.023598   0.016356   0.057781   0.248440   0.018524   0.004389
    15  H   -0.165420   0.003845   0.001279   0.004803   0.173390  -0.017109
    16  H    0.007753   0.000270  -0.001567  -0.016954   0.004391   0.033419
    17  H    0.001141   0.000271  -0.003435  -0.019578   0.047814   0.021823
    18  H    0.007743   0.000270  -0.001566  -0.016917   0.004463   0.033369
    19  H    0.004239  -0.001023   0.206517   0.119623  -0.302297  -0.078008
    20  H    0.123696   0.000758  -0.095673  -0.003993   0.019608  -0.038455
               7          8          9         10         11         12
     1  C    0.274824   1.652943  -0.279980   0.010800   0.046838  -0.235048
     2  C   -0.010252  -0.757008   0.014707  -0.004960  -0.030802   0.112806
     3  C    0.001254   0.465629  -0.374532  -0.051937  -0.401175   0.071739
     4  C    0.009698  -2.203268  -0.243669  -0.213029   0.137627  -0.007093
     5  C   -0.398894  -1.700077  -0.064006  -0.101617   0.405248  -0.019387
     6  C    0.118020  -1.487787  -0.401822  -0.084385   0.005697   0.060983
     7  O    8.436250  -0.004307  -0.085382   0.001316  -0.000424  -0.000741
     8  C   -0.004307  10.606572  -1.268173   0.570910  -0.183986  -0.001890
     9  C   -0.085382  -1.268173   7.967499  -0.005474  -0.064024  -0.000798
    10  O    0.001316   0.570910  -0.005474   8.264744   0.008611  -0.000025
    11  O   -0.000424  -0.183986  -0.064024   0.008611   8.461009  -0.000601
    12  O   -0.000741  -0.001890  -0.000798  -0.000025  -0.000601   8.332805
    13  H   -0.018986   0.009027   0.000853   0.000021   0.000072  -0.009218
    14  H    0.000060   0.010106   0.000632   0.000084  -0.009514  -0.014436
    15  H    0.196458   0.001512   0.011138   0.000012   0.000025  -0.000098
    16  H   -0.003965  -0.074459   0.401379   0.003801   0.000155   0.000001
    17  H    0.000587  -0.110359   0.427007  -0.007405   0.000073  -0.000000
    18  H   -0.003964  -0.074481   0.401346   0.003805   0.000155   0.000001
    19  H    0.000003   0.042998   0.017255   0.079644   0.152791   0.000024
    20  H    0.000043   0.002434   0.000001   0.000001  -0.000022   0.208915
              13         14         15         16         17         18
     1  C    0.096520  -0.023598  -0.165420   0.007753   0.001141   0.007743
     2  C    0.160769   0.016356   0.003845   0.000270   0.000271   0.000270
     3  C    0.041632   0.057781   0.001279  -0.001567  -0.003435  -0.001566
     4  C   -0.024510   0.248440   0.004803  -0.016954  -0.019578  -0.016917
     5  C    0.006593   0.018524   0.173390   0.004391   0.047814   0.004463
     6  C    0.043826   0.004389  -0.017109   0.033419   0.021823   0.033369
     7  O   -0.018986   0.000060   0.196458  -0.003965   0.000587  -0.003964
     8  C    0.009027   0.010106   0.001512  -0.074459  -0.110359  -0.074481
     9  C    0.000853   0.000632   0.011138   0.401379   0.427007   0.401346
    10  O    0.000021   0.000084   0.000012   0.003801  -0.007405   0.003805
    11  O    0.000072  -0.009514   0.000025   0.000155   0.000073   0.000155
    12  O   -0.009218  -0.014436  -0.000098   0.000001  -0.000000   0.000001
    13  H    0.544534  -0.000122   0.008748  -0.000001  -0.000000  -0.000001
    14  H   -0.000122   0.538818  -0.000001   0.000000  -0.000000   0.000000
    15  H    0.008748  -0.000001   0.393794   0.000263  -0.000024   0.000263
    16  H   -0.000001   0.000000   0.000263   0.496727  -0.022266  -0.022688
    17  H   -0.000000  -0.000000  -0.000024  -0.022266   0.497090  -0.022266
    18  H   -0.000001   0.000000   0.000263  -0.022688  -0.022266   0.496733
    19  H    0.000000   0.000040   0.000000  -0.000068   0.000005  -0.000068
    20  H   -0.000057   0.006103   0.000000   0.000000  -0.000000   0.000000
              19         20
     1  C    0.004239   0.123696
     2  C   -0.001023   0.000758
     3  C    0.206517  -0.095673
     4  C    0.119623  -0.003993
     5  C   -0.302297   0.019608
     6  C   -0.078008  -0.038455
     7  O    0.000003   0.000043
     8  C    0.042998   0.002434
     9  C    0.017255   0.000001
    10  O    0.079644   0.000001
    11  O    0.152791  -0.000022
    12  O    0.000024   0.208915
    13  H    0.000000  -0.000057
    14  H    0.000040   0.006103
    15  H    0.000000   0.000000
    16  H   -0.000068   0.000000
    17  H    0.000005  -0.000000
    18  H   -0.000068   0.000000
    19  H    0.315378   0.000000
    20  H    0.000000   0.408143
 Mulliken charges:
               1
     1  C    1.166811
     2  C   -0.931317
     3  C    1.178911
     4  C   -1.415562
     5  C    2.466109
     6  C   -2.564784
     7  O   -0.511597
     8  C    0.503664
     9  C   -0.453958
    10  O   -0.474919
    11  O   -0.527753
    12  O   -0.497939
    13  H    0.140299
    14  H    0.146338
    15  H    0.387121
    16  H    0.193809
    17  H    0.189520
    18  H    0.193805
    19  H    0.442944
    20  H    0.368498
 Sum of Mulliken charges =  -0.00000
 Mulliken charges with hydrogens summed into heavy atoms:
               1
     1  C    1.307111
     2  C   -0.931317
     3  C    1.325248
     4  C   -1.415562
     5  C    2.466109
     6  C   -2.564784
     7  O   -0.124476
     8  C    0.503664
     9  C    0.123176
    10  O   -0.474919
    11  O   -0.084809
    12  O   -0.129441
 Electronic spatial extent (au):  <R**2>=           2066.3827
 Charge=             -0.0000 electrons
 Dipole moment (field-independent basis, Debye):
    X=             -2.3562    Y=              3.1323    Z=              0.0000  Tot=              3.9196
 Quadrupole moment (field-independent basis, Debye-Ang):
   XX=            -66.1209   YY=            -65.2016   ZZ=            -71.4501
   XY=              8.8620   XZ=             -0.0003   YZ=              0.0006
 Traceless Quadrupole moment (field-independent basis, Debye-Ang):
   XX=              1.4699   YY=              2.3893   ZZ=             -3.8592
   XY=              8.8620   XZ=             -0.0003   YZ=              0.0006
 Octapole moment (field-independent basis, Debye-Ang**2):
  XXX=            -32.1651  YYY=             43.8665  ZZZ=              0.0001  XYY=            -19.2316
  XXY=            -15.9535  XXZ=             -0.0009  XZZ=              4.9429  YZZ=             -0.2333
  YYZ=              0.0021  XYZ=              0.0005
 Hexadecapole moment (field-independent basis, Debye-Ang**3):
 XXXX=          -1591.0741 YYYY=           -753.8013 ZZZZ=            -80.2139 XXXY=            162.1662
 XXXZ=              0.0096 YYYX=            -29.4604 YYYZ=             -0.0076 ZZZX=              0.0081
 ZZZY=             -0.0141 XXYY=           -401.7816 XXZZ=           -302.6473 YYZZ=           -158.2040
 XXYZ=             -0.0042 YYXZ=             -0.0001 ZZXY=              0.2977
 N-N= 6.985819264067D+02 E-N=-2.823057826630D+03  KE= 6.049491397082D+02
 Calling FoFJK, ICntrl=      2127 FMM=F ISym2X=0 I1Cent= 0 IOpClX= 0 NMat=1 NMatS=1 NMatT=0.
 ***** Axes restored to original set *****
 -------------------------------------------------------------------
 Center     Atomic                   Forces (Hartrees/Bohr)
 Number     Number              X              Y              Z
 -------------------------------------------------------------------
      1        6          -0.000217688   -0.000128267    0.000000541
      2        6           0.000036699    0.000050153   -0.000000081
      3        6           0.000447705   -0.000285418    0.000000055
      4        6          -0.000113106    0.000060224   -0.000000209
      5        6          -0.000050638    0.000684702   -0.000004139
      6        6           0.000400930   -0.000063512   -0.000001313
      7        8          -0.000229357    0.000154390   -0.000000144
      8        6          -0.000187039   -0.000056273    0.000017123
      9        6           0.000227755    0.000121670   -0.000003601
     10        8           0.000530758    0.000199099   -0.000009232
     11        8          -0.000406957   -0.000344892   -0.000002751
     12        8           0.000061159   -0.000018530   -0.000000013
     13        1          -0.000035748   -0.000225673    0.000000144
     14        1           0.000180292    0.000111550   -0.000000027
     15        1           0.000498174   -0.000080004   -0.000000212
     16        1          -0.000395908   -0.000110280   -0.000005055
     17        1           0.000058121    0.000041331   -0.000000246
     18        1          -0.000395161   -0.000107999    0.000004117
     19        1          -0.000256336   -0.000226010    0.000005020
     20        1          -0.000153654    0.000223736    0.000000026
 -------------------------------------------------------------------
 Cartesian Forces:  Max     0.000684702 RMS     0.000211263

 GradGradGradGradGradGradGradGradGradGradGradGradGradGradGradGradGradGrad
 Berny optimization.
 FormGI is forming the generalized inverse of G from B-inverse, IUseBI=4.
 Internal  Forces:  Max     0.001907163 RMS     0.000481636
 Search for a local minimum.
 Step number   1 out of a maximum of  100
 All quantities printed in internal units (Hartrees-Bohrs-Radians)
 Mixed Optimization -- En-DIIS/RFO-DIIS
 Second derivative matrix not updated -- first step.
 ITU=  0
     Eigenvalues ---    0.00703   0.00934   0.01264   0.01596   0.01779
     Eigenvalues ---    0.01985   0.02064   0.02104   0.02150   0.02184
     Eigenvalues ---    0.02185   0.02213   0.02224   0.02286   0.02650
     Eigenvalues ---    0.07307   0.07496   0.16000   0.16000   0.16000
     Eigenvalues ---    0.16000   0.16000   0.16000   0.16000   0.16000
     Eigenvalues ---    0.23478   0.23498   0.25000   0.25000   0.25000
     Eigenvalues ---    0.25000   0.25000   0.25000   0.25000   0.31884
     Eigenvalues ---    0.34421   0.34421   0.34728   0.35284   0.35312
     Eigenvalues ---    0.36667   0.38825   0.40618   0.43684   0.44924
     Eigenvalues ---    0.45840   0.46758   0.47509   0.52998   0.53956
     Eigenvalues ---    0.54425   0.54464   0.60080   0.83395
 RFO step:  Lambda=-8.66510676D-05 EMin= 7.03109463D-03
 Linear search not attempted -- first point.
 Iteration  1 RMS(Cart)=  0.01336607 RMS(Int)=  0.00005344
 Iteration  2 RMS(Cart)=  0.00007887 RMS(Int)=  0.00000247
 Iteration  3 RMS(Cart)=  0.00000000 RMS(Int)=  0.00000247
 Variable       Old X    -DE/DX   Delta X   Delta X   Delta X     New X
                                 (Linear)    (Quad)   (Total)
    R1        2.64633  -0.00031   0.00000  -0.00072  -0.00072   2.64561
    R2        2.61977   0.00001   0.00000  -0.00001  -0.00001   2.61977
    R3        2.05215  -0.00018   0.00000  -0.00051  -0.00051   2.05165
    R4        2.62340   0.00017   0.00000   0.00034   0.00034   2.62375
    R5        2.56072   0.00011   0.00000   0.00020   0.00020   2.56092
    R6        2.64215  -0.00034   0.00000  -0.00071  -0.00071   2.64144
    R7        2.05172  -0.00019   0.00000  -0.00053  -0.00053   2.05119
    R8        2.71112   0.00079   0.00000   0.00199   0.00199   2.71311
    R9        2.50877   0.00023   0.00000   0.00038   0.00038   2.50915
   R10        2.68617  -0.00044   0.00000  -0.00103  -0.00103   2.68515
   R11        2.76351  -0.00017   0.00000  -0.00046  -0.00046   2.76304
   R12        2.56955   0.00020   0.00000   0.00038   0.00038   2.56994
   R13        1.82312  -0.00038   0.00000  -0.00069  -0.00069   1.82243
   R14        2.84357  -0.00035   0.00000  -0.00111  -0.00111   2.84246
   R15        2.36135   0.00004   0.00000   0.00005   0.00005   2.36140
   R16        2.06625  -0.00001   0.00000  -0.00002  -0.00002   2.06624
   R17        2.06120   0.00004   0.00000   0.00011   0.00011   2.06131
   R18        2.06625  -0.00000   0.00000  -0.00001  -0.00001   2.06624
   R19        1.91013  -0.00029   0.00000  -0.00063  -0.00063   1.90949
   R20        1.82347  -0.00014   0.00000  -0.00025  -0.00025   1.82321
    A1        2.08421   0.00003   0.00000   0.00001   0.00001   2.08421
    A2        2.08094  -0.00016   0.00000  -0.00092  -0.00092   2.08002
    A3        2.11804   0.00013   0.00000   0.00091   0.00091   2.11895
    A4        2.11502  -0.00001   0.00000  -0.00015  -0.00015   2.11487
    A5        2.03123  -0.00045   0.00000  -0.00176  -0.00176   2.02946
    A6        2.13694   0.00047   0.00000   0.00191   0.00191   2.13885
    A7        2.08337   0.00019   0.00000   0.00085   0.00085   2.08422
    A8        2.13142   0.00001   0.00000   0.00022   0.00022   2.13163
    A9        2.06840  -0.00020   0.00000  -0.00106  -0.00106   2.06733
   A10        2.12054  -0.00034   0.00000  -0.00126  -0.00126   2.11928
   A11        2.05042  -0.00106   0.00000  -0.00428  -0.00428   2.04615
   A12        2.11222   0.00139   0.00000   0.00553   0.00553   2.11776
   A13        2.03296   0.00007   0.00000   0.00037   0.00037   2.03333
   A14        2.06572   0.00183   0.00000   0.00729   0.00729   2.07301
   A15        2.18451  -0.00191   0.00000  -0.00766  -0.00766   2.17685
   A16        2.13027   0.00005   0.00000   0.00018   0.00018   2.13046
   A17        2.08985   0.00052   0.00000   0.00209   0.00209   2.09194
   A18        2.06306  -0.00057   0.00000  -0.00228  -0.00228   2.06078
   A19        1.90372   0.00061   0.00000   0.00381   0.00381   1.90753
   A20        2.14700  -0.00190   0.00000  -0.00760  -0.00760   2.13940
   A21        2.08953   0.00162   0.00000   0.00648   0.00648   2.09600
   A22        2.04666   0.00028   0.00000   0.00113   0.00113   2.04779
   A23        1.93803  -0.00051   0.00000  -0.00368  -0.00368   1.93434
   A24        1.88162   0.00036   0.00000   0.00320   0.00320   1.88482
   A25        1.93802  -0.00051   0.00000  -0.00366  -0.00366   1.93436
   A26        1.92400   0.00022   0.00000   0.00233   0.00233   1.92633
   A27        1.85874   0.00021   0.00000  -0.00053  -0.00055   1.85819
   A28        1.92400   0.00022   0.00000   0.00233   0.00233   1.92633
   A29        1.84204   0.00034   0.00000   0.00213   0.00213   1.84416
   A30        1.91627   0.00042   0.00000   0.00265   0.00265   1.91892
    D1       -0.00000   0.00000   0.00000   0.00002   0.00002   0.00002
    D2        3.14159   0.00000   0.00000   0.00001   0.00001  -3.14158
    D3        3.14159   0.00000   0.00000   0.00000   0.00000   3.14159
    D4       -0.00000  -0.00000   0.00000  -0.00001  -0.00001  -0.00001
    D5        0.00001  -0.00000   0.00000  -0.00002  -0.00002  -0.00001
    D6       -3.14159  -0.00000   0.00000  -0.00004  -0.00004   3.14156
    D7       -3.14159   0.00000   0.00000   0.00000   0.00000  -3.14159
    D8        0.00000  -0.00000   0.00000  -0.00002  -0.00002  -0.00002
    D9       -0.00000   0.00000   0.00000   0.00000   0.00000   0.00000
   D10       -3.14159  -0.00000   0.00000  -0.00003  -0.00003   3.14157
   D11        3.14159   0.00000   0.00000   0.00002   0.00002  -3.14158
   D12        0.00000  -0.00000   0.00000  -0.00002  -0.00002  -0.00002
   D13        3.14159   0.00000   0.00000   0.00001   0.00001  -3.14159
   D14       -0.00000  -0.00000   0.00000  -0.00001  -0.00001  -0.00001
   D15        0.00001  -0.00000   0.00000  -0.00004  -0.00004  -0.00003
   D16       -3.14159  -0.00000   0.00000  -0.00009  -0.00009   3.14151
   D17       -3.14159  -0.00000   0.00000  -0.00000  -0.00000   3.14159
   D18        0.00000  -0.00000   0.00000  -0.00005  -0.00005  -0.00005
   D19       -0.00001   0.00000   0.00000   0.00004   0.00004   0.00003
   D20        3.14158   0.00000   0.00000   0.00009   0.00009  -3.14151
   D21        3.14159   0.00000   0.00000   0.00009   0.00009  -3.14151
   D22       -0.00002   0.00000   0.00000   0.00015   0.00015   0.00013
   D23        3.14157   0.00001   0.00000   0.00020   0.00020  -3.14142
   D24       -0.00002   0.00000   0.00000   0.00015   0.00015   0.00013
   D25       -0.00000  -0.00000   0.00000  -0.00001  -0.00001  -0.00001
   D26       -3.14159   0.00000   0.00000   0.00001   0.00001  -3.14158
   D27       -3.14158  -0.00000   0.00000  -0.00007  -0.00007   3.14153
   D28        0.00001  -0.00000   0.00000  -0.00005  -0.00005  -0.00004
   D29       -3.14155  -0.00000   0.00000  -0.00013  -0.00013   3.14150
   D30       -0.00009   0.00001   0.00000   0.00048   0.00048   0.00040
   D31        0.00003   0.00000   0.00000  -0.00007  -0.00008  -0.00005
   D32        3.14149   0.00001   0.00000   0.00054   0.00054  -3.14115
   D33        0.00003   0.00000   0.00000   0.00000   0.00000   0.00003
   D34       -3.14157  -0.00000   0.00000  -0.00002  -0.00002  -3.14159
   D35        1.03223  -0.00019   0.00000  -0.00237  -0.00236   1.02987
   D36        3.14153   0.00000   0.00000   0.00032   0.00032  -3.14134
   D37       -1.03236   0.00020   0.00000   0.00302   0.00301  -1.02935
   D38       -2.10924  -0.00020   0.00000  -0.00297  -0.00296  -2.11220
   D39        0.00006  -0.00000   0.00000  -0.00028  -0.00028  -0.00022
   D40        2.10935   0.00019   0.00000   0.00242   0.00241   2.11176
         Item               Value     Threshold  Converged?
 Maximum Force            0.001907     0.000450     NO 
 RMS     Force            0.000482     0.000300     NO 
 Maximum Displacement     0.048543     0.001800     NO 
 RMS     Displacement     0.013387     0.001200     NO 
 Predicted change in Energy=-4.333100D-05
 GradGradGradGradGradGradGradGradGradGradGradGradGradGradGradGradGradGrad

                          Input orientation:                          
 ---------------------------------------------------------------------
 Center     Atomic      Atomic             Coordinates (Angstroms)
 Number     Number       Type             X           Y           Z
 ---------------------------------------------------------------------
      1          6           0       -1.521943    1.245367    0.000068
      2          6           0       -2.256375    0.053477   -0.000029
      3          6           0       -1.622038   -1.181571   -0.000060
      4          6           0       -0.225308   -1.235992    0.000010
      5          6           0        0.570395   -0.040946    0.000076
      6          6           0       -0.136666    1.191560    0.000112
      7          8           0        0.585686    2.343809    0.000163
      8          6           0        2.027229   -0.165393    0.000045
      9          6           0        2.942091    1.028567   -0.000012
     10          8           0        2.559471   -1.295974   -0.000466
     11          8           0        0.335932   -2.439333    0.000069
     12          8           0       -3.605627    0.180097   -0.000077
     13          1           0       -2.051319    2.193244    0.000089
     14          1           0       -2.175890   -2.115077   -0.000110
     15          1           0       -0.016275    3.097258    0.000189
     16          1           0        2.760887    1.657275    0.876016
     17          1           0        3.970523    0.665019   -0.000291
     18          1           0        2.760496    1.657512   -0.875789
     19          1           0        1.332991   -2.275312    0.000286
     20          1           0       -4.018052   -0.692114   -0.000140
 ---------------------------------------------------------------------
                    Distance matrix (angstroms):
                    1          2          3          4          5
     1  C    0.000000
     2  C    1.399998   0.000000
     3  C    2.429002   1.388426   0.000000
     4  C    2.799715   2.405818   1.397790   0.000000
     5  C    2.456111   2.828347   2.471394   1.435715   0.000000
     6  C    1.386322   2.405909   2.799658   2.429170   1.420918
     7  O    2.376693   3.650059   4.159609   3.670515   2.384804
     8  C    3.819275   4.289192   3.788109   2.494014   1.462139
     9  C    4.469295   5.289125   5.071093   3.893667   2.601692
    10  O    4.807947   5.001339   4.183074   2.785425   2.351918
    11  O    4.126586   3.596409   2.327147   1.327788   2.409820
    12  O    2.340201   1.355181   2.405986   3.664951   4.181869
    13  H    1.085684   2.149570   3.402009   3.885097   3.444560
    14  H    3.423483   2.170047   1.085442   2.139523   3.441526
    15  H    2.386741   3.779240   4.570214   4.338289   3.192571
    16  H    4.390852   5.339713   5.294959   4.249205   2.906799
    17  H    5.523041   6.256855   5.889536   4.606391   3.472644
    18  H    4.390475   5.339370   5.294705   4.249049   2.906620
    19  H    4.532751   4.278645   3.150947   1.873094   2.360920
    20  H    3.159809   1.912959   2.445497   3.831542   4.634422
                    6          7          8          9         10
     6  C    0.000000
     7  O    1.359951   0.000000
     8  C    2.554166   2.893810   0.000000
     9  C    3.083068   2.698612   1.504165   0.000000
    10  O    3.668376   4.140513   1.249598   2.355820   0.000000
    11  O    3.661520   4.789657   2.833952   4.338017   2.500279
    12  O    3.613413   4.716858   5.643442   6.602463   6.339340
    13  H    2.160849   2.641300   4.711446   5.127438   5.782217
    14  H    3.884879   5.244804   4.633301   6.006349   4.805681
    15  H    1.909497   0.964388   3.849779   3.609905   5.092638
    16  H    3.062664   2.443347   2.151208   1.093405   3.087146
    17  H    4.140803   3.778288   2.113285   1.090798   2.415897
    18  H    3.062329   2.442968   2.151220   1.093406   3.087019
    19  H    3.765514   4.679181   2.221199   3.674890   1.569509
    20  H    4.314324   5.514638   6.068184   7.169682   6.605184
                   11         12         13         14         15
    11  O    0.000000
    12  O    4.732579   0.000000
    13  H    5.211501   2.543351   0.000000
    14  H    2.532665   2.704067   4.310122   0.000000
    15  H    5.547782   4.625287   2.226802   5.642019   0.000000
    16  H    4.840443   6.594096   4.920553   6.274552   3.248577
    17  H    4.779879   7.591654   6.212734   6.745912   4.670155
    18  H    4.840431   6.593720   4.920136   6.274325   3.248178
    19  H    1.010460   5.515341   5.605493   3.512537   5.539407
    20  H    4.691477   0.964804   3.491895   2.327743   5.511221
                   16         17         18         19         20
    16  H    0.000000
    17  H    1.793239   0.000000
    18  H    1.751805   1.793239   0.000000
    19  H    4.274463   3.949952   4.274621   0.000000
    20  H    7.227814   8.103033   7.227463   5.580339   0.000000
 Stoichiometry    C8H8O4
 Framework group  C1[X(C8H8O4)]
 Deg. of freedom    54
 Full point group                 C1      NOp   1
 Largest Abelian subgroup         C1      NOp   1
 Largest concise Abelian subgroup C1      NOp   1
                         Standard orientation:                         
 ---------------------------------------------------------------------
 Center     Atomic      Atomic             Coordinates (Angstroms)
 Number     Number       Type             X           Y           Z
 ---------------------------------------------------------------------
      1          6           0       -1.521861    1.250186    0.000079
      2          6           0       -2.258879    0.059893   -0.000018
      3          6           0       -1.627226   -1.176530   -0.000049
      4          6           0       -0.230617   -1.233983    0.000021
      5          6           0        0.567679   -0.040668    0.000088
      6          6           0       -0.136704    1.193371    0.000123
      7          8           0        0.588148    2.344048    0.000174
      8          6           0        2.024239   -0.168277    0.000056
      9          6           0        2.941692    1.023693   -0.000001
     10          8           0        2.554025   -1.300011   -0.000455
     11          8           0        0.328009   -2.438539    0.000080
     12          8           0       -3.607854    0.189443   -0.000066
     13          1           0       -2.049178    2.199210    0.000100
     14          1           0       -2.183103   -2.108831   -0.000098
     15          1           0       -0.012176    3.098803    0.000200
     16          1           0        2.761853    1.652794    0.876027
     17          1           0        3.969332    0.657913   -0.000280
     18          1           0        2.761462    1.653031   -0.875778
     19          1           0        1.325421   -2.276684    0.000297
     20          1           0       -4.022172   -0.681871   -0.000129
 ---------------------------------------------------------------------
 Rotational constants (GHZ):      1.5501120      0.7673578      0.5148886
 Standard basis: 6-31+G(d,p) (6D, 7F)
 There are   268 symmetry adapted cartesian basis functions of A   symmetry.
 There are   268 symmetry adapted basis functions of A   symmetry.
   268 basis functions,   440 primitive gaussians,   268 cartesian basis functions
    44 alpha electrons       44 beta electrons
       nuclear repulsion energy       698.5120239141 Hartrees.
 NAtoms=   20 NActive=   20 NUniq=   20 SFac= 1.00D+00 NAtFMM=   60 NAOKFM=F Big=F
 Integral buffers will be    131072 words long.
 Raffenetti 2 integral format.
 Two-electron integral symmetry is turned on.
 Nuclear repulsion after empirical dispersion term =      698.4936373024 Hartrees.
 One-electron integrals computed using PRISM.
 NBasis=   268 RedAO= T EigKep=  1.52D-06  NBF=   268
 NBsUse=   268 1.00D-06 EigRej= -1.00D+00 NBFU=   268
 Initial guess from the checkpoint file:  "B3PW91D3THAP.chk"
 B after Tr=    -0.000000   -0.000000    0.000000
         Rot=    0.999999   -0.000007   -0.000003    0.001380 Ang=  -0.16 deg.
 ExpMin= 4.38D-02 ExpMax= 5.48D+03 ExpMxC= 8.25D+02 IAcc=2 IRadAn=         4 AccDes= 0.00D+00
 Harris functional with IExCor=  408 and IRadAn=       4 diagonalized for initial guess.
 HarFok:  IExCor=  408 AccDes= 0.00D+00 IRadAn=         4 IDoV= 1 UseB2=F ITyADJ=14
 ICtDFT=  3500011 ScaDFX=  1.000000  1.000000  1.000000  1.000000
 FoFCou: FMM=F IPFlag=           0 FMFlag=      100000 FMFlg1=           0
         NFxFlg=           0 DoJE=T BraDBF=F KetDBF=T FulRan=T
         wScrn=  0.000000 ICntrl=     500 IOpCl=  0 I1Cent=   200000004 NGrid=           0
         NMat0=    1 NMatS0=      1 NMatT0=    0 NMatD0=    1 NMtDS0=    0 NMtDT0=    0
 Petite list used in FoFCou.
 Keep R1 ints in memory in canonical form, NReq=659648347.
 Requested convergence on RMS density matrix=1.00D-08 within 128 cycles.
 Requested convergence on MAX density matrix=1.00D-06.
 Requested convergence on             energy=1.00D-06.
 No special actions if energy rises.
 SCF Done:  E(RB3PW91) =  -610.397548056     A.U. after   12 cycles
            NFock= 12  Conv=0.57D-08     -V/T= 2.0090
 Calling FoFJK, ICntrl=      2127 FMM=F ISym2X=0 I1Cent= 0 IOpClX= 0 NMat=1 NMatS=1 NMatT=0.
 ***** Axes restored to original set *****
 -------------------------------------------------------------------
 Center     Atomic                   Forces (Hartrees/Bohr)
 Number     Number              X              Y              Z
 -------------------------------------------------------------------
      1        6          -0.000164093    0.000031145   -0.000001698
      2        6          -0.000038209    0.000278225   -0.000000035
      3        6           0.000272815   -0.000164085   -0.000001164
      4        6          -0.000362099    0.002029396    0.000005114
      5        6          -0.000790191   -0.000567131    0.000015590
      6        6           0.000130306    0.000005977    0.000002721
      7        8          -0.001208477    0.000389153    0.000002942
      8        6           0.001318555   -0.001462510   -0.000066517
      9        6           0.000743437    0.000095395    0.000014755
     10        8          -0.002668990   -0.000281331    0.000041662
     11        8           0.004586762    0.000205230    0.000013892
     12        8           0.000047405   -0.000055447   -0.000000007
     13        1          -0.000040438   -0.000028952   -0.000000411
     14        1          -0.000005979   -0.000022152    0.000000283
     15        1          -0.000085225   -0.000055532   -0.000000212
     16        1           0.000182288   -0.000047684   -0.000075509
     17        1          -0.000072758   -0.000095257    0.000001190
     18        1           0.000180579   -0.000054309    0.000076145
     19        1          -0.002022531   -0.000230619   -0.000028683
     20        1          -0.000003156    0.000030488   -0.000000058
 -------------------------------------------------------------------
 Cartesian Forces:  Max     0.004586762 RMS     0.000856574

 GradGradGradGradGradGradGradGradGradGradGradGradGradGradGradGradGradGrad
 Berny optimization.
 Using GEDIIS/GDIIS optimizer.
 FormGI is forming the generalized inverse of G from B-inverse, IUseBI=4.
 Internal  Forces:  Max     0.007336338 RMS     0.001462829
 Search for a local minimum.
 Step number   2 out of a maximum of  100
 All quantities printed in internal units (Hartrees-Bohrs-Radians)
 Mixed Optimization -- RFO/linear search
 Update second derivatives using D2CorX and points    2    1
 DE=  6.80D-05 DEPred=-4.33D-05 R=-1.57D+00
 Trust test=-1.57D+00 RLast= 1.99D-02 DXMaxT set to 1.50D-01
 ITU= -1  0
 Use linear search instead of GDIIS.
 Energy rises -- skip Quadratic/GDIIS search.
 Quartic linear search produced a step of -0.72216.
 Iteration  1 RMS(Cart)=  0.00966714 RMS(Int)=  0.00002802
 Iteration  2 RMS(Cart)=  0.00003972 RMS(Int)=  0.00000050
 Iteration  3 RMS(Cart)=  0.00000000 RMS(Int)=  0.00000050
 Variable       Old X    -DE/DX   Delta X   Delta X   Delta X     New X
                                 (Linear)    (Quad)   (Total)
    R1        2.64561   0.00013   0.00052   0.00000   0.00052   2.64613
    R2        2.61977   0.00043   0.00000   0.00000   0.00000   2.61977
    R3        2.05165  -0.00001   0.00037   0.00000   0.00037   2.05201
    R4        2.62375   0.00013  -0.00025   0.00000  -0.00025   2.62350
    R5        2.56092  -0.00005  -0.00015   0.00000  -0.00015   2.56077
    R6        2.64144  -0.00049   0.00051   0.00000   0.00051   2.64195
    R7        2.05119   0.00002   0.00038   0.00000   0.00038   2.05157
    R8        2.71311  -0.00323  -0.00144   0.00000  -0.00144   2.71167
    R9        2.50915   0.00111  -0.00028   0.00000  -0.00028   2.50888
   R10        2.68515   0.00108   0.00074   0.00000   0.00074   2.68589
   R11        2.76304  -0.00016   0.00034   0.00000   0.00034   2.76338
   R12        2.56994  -0.00040  -0.00028   0.00000  -0.00028   2.56966
   R13        1.82243   0.00001   0.00050   0.00000   0.00050   1.82293
   R14        2.84246   0.00055   0.00080   0.00000   0.00080   2.84326
   R15        2.36140  -0.00088  -0.00003   0.00000  -0.00003   2.36136
   R16        2.06624  -0.00012   0.00001   0.00000   0.00001   2.06625
   R17        2.06131  -0.00004  -0.00008   0.00000  -0.00008   2.06123
   R18        2.06624  -0.00012   0.00001   0.00000   0.00001   2.06625
   R19        1.90949  -0.00203   0.00046   0.00000   0.00046   1.90995
   R20        1.82321  -0.00003   0.00018   0.00000   0.00018   1.82340
    A1        2.08421   0.00020  -0.00000   0.00000  -0.00000   2.08421
    A2        2.08002  -0.00015   0.00066   0.00000   0.00066   2.08068
    A3        2.11895  -0.00005  -0.00066   0.00000  -0.00066   2.11830
    A4        2.11487  -0.00008   0.00011   0.00000   0.00011   2.11498
    A5        2.02946   0.00005   0.00127   0.00000   0.00127   2.03074
    A6        2.13885   0.00003  -0.00138   0.00000  -0.00138   2.13747
    A7        2.08422  -0.00064  -0.00061   0.00000  -0.00061   2.08361
    A8        2.13163   0.00033  -0.00016   0.00000  -0.00016   2.13148
    A9        2.06733   0.00031   0.00077   0.00000   0.00077   2.06810
   A10        2.11928   0.00118   0.00091   0.00000   0.00091   2.12019
   A11        2.04615   0.00241   0.00309   0.00000   0.00309   2.04924
   A12        2.11776  -0.00359  -0.00400   0.00000  -0.00400   2.11376
   A13        2.03333   0.00039  -0.00027   0.00000  -0.00027   2.03306
   A14        2.07301  -0.00734  -0.00527   0.00000  -0.00527   2.06774
   A15        2.17685   0.00695   0.00553   0.00000   0.00553   2.18238
   A16        2.13046  -0.00104  -0.00013   0.00000  -0.00013   2.13033
   A17        2.09194  -0.00121  -0.00151   0.00000  -0.00151   2.09043
   A18        2.06078   0.00225   0.00164   0.00000   0.00164   2.06243
   A19        1.90753  -0.00018  -0.00275   0.00000  -0.00275   1.90478
   A20        2.13940   0.00409   0.00549   0.00000   0.00549   2.14489
   A21        2.09600  -0.00504  -0.00468   0.00000  -0.00468   2.09133
   A22        2.04779   0.00095  -0.00081   0.00000  -0.00081   2.04697
   A23        1.93434   0.00021   0.00266   0.00000   0.00266   1.93700
   A24        1.88482  -0.00028  -0.00231   0.00000  -0.00231   1.88251
   A25        1.93436   0.00020   0.00265   0.00000   0.00265   1.93700
   A26        1.92633  -0.00004  -0.00168   0.00000  -0.00168   1.92465
   A27        1.85819  -0.00004   0.00040   0.00000   0.00040   1.85859
   A28        1.92633  -0.00004  -0.00168   0.00000  -0.00168   1.92465
   A29        1.84416  -0.00019  -0.00153   0.00000  -0.00153   1.84263
   A30        1.91892   0.00003  -0.00191   0.00000  -0.00191   1.91701
    D1        0.00002  -0.00000  -0.00002   0.00000  -0.00002   0.00000
    D2       -3.14158  -0.00000  -0.00001   0.00000  -0.00001  -3.14159
    D3        3.14159  -0.00000  -0.00000   0.00000  -0.00000   3.14159
    D4       -0.00001   0.00000   0.00001   0.00000   0.00001  -0.00000
    D5       -0.00001   0.00000   0.00001   0.00000   0.00001   0.00000
    D6        3.14156   0.00000   0.00003   0.00000   0.00003   3.14159
    D7       -3.14159  -0.00000  -0.00000   0.00000  -0.00000  -3.14159
    D8       -0.00002   0.00000   0.00001   0.00000   0.00001  -0.00000
    D9        0.00000  -0.00000  -0.00000   0.00000  -0.00000   0.00000
   D10        3.14157   0.00000   0.00002   0.00000   0.00002   3.14159
   D11       -3.14158  -0.00000  -0.00001   0.00000  -0.00001  -3.14159
   D12       -0.00002   0.00000   0.00001   0.00000   0.00001  -0.00000
   D13       -3.14159  -0.00000  -0.00000   0.00000  -0.00000   3.14159
   D14       -0.00001   0.00000   0.00000   0.00000   0.00000  -0.00000
   D15       -0.00003   0.00000   0.00003   0.00000   0.00003  -0.00000
   D16        3.14151   0.00001   0.00006   0.00000   0.00006   3.14158
   D17        3.14159  -0.00000   0.00000   0.00000   0.00000  -3.14159
   D18       -0.00005   0.00001   0.00004   0.00000   0.00004  -0.00001
   D19        0.00003  -0.00000  -0.00003   0.00000  -0.00003   0.00001
   D20       -3.14151  -0.00001  -0.00007   0.00000  -0.00007  -3.14158
   D21       -3.14151  -0.00001  -0.00007   0.00000  -0.00007  -3.14157
   D22        0.00013  -0.00002  -0.00011   0.00000  -0.00011   0.00002
   D23       -3.14142  -0.00003  -0.00014   0.00000  -0.00014  -3.14156
   D24        0.00013  -0.00002  -0.00011   0.00000  -0.00011   0.00002
   D25       -0.00001   0.00000   0.00001   0.00000   0.00001  -0.00000
   D26       -3.14158  -0.00000  -0.00001   0.00000  -0.00001  -3.14159
   D27        3.14153   0.00001   0.00005   0.00000   0.00005   3.14158
   D28       -0.00004   0.00000   0.00004   0.00000   0.00004  -0.00000
   D29        3.14150   0.00000   0.00010   0.00000   0.00010  -3.14159
   D30        0.00040  -0.00002  -0.00035   0.00000  -0.00035   0.00005
   D31       -0.00005  -0.00000   0.00005   0.00000   0.00005   0.00001
   D32       -3.14115  -0.00003  -0.00039   0.00000  -0.00039  -3.14154
   D33        0.00003  -0.00000  -0.00000   0.00000  -0.00000   0.00003
   D34       -3.14159   0.00000   0.00001   0.00000   0.00001  -3.14157
   D35        1.02987   0.00009   0.00171   0.00000   0.00170   1.03157
   D36       -3.14134  -0.00001  -0.00023   0.00000  -0.00023  -3.14157
   D37       -1.02935  -0.00012  -0.00218   0.00000  -0.00217  -1.03153
   D38       -2.11220   0.00012   0.00214   0.00000   0.00214  -2.11006
   D39       -0.00022   0.00001   0.00020   0.00000   0.00020  -0.00002
   D40        2.11176  -0.00010  -0.00174   0.00000  -0.00174   2.11002
         Item               Value     Threshold  Converged?
 Maximum Force            0.007336     0.000450     NO 
 RMS     Force            0.001463     0.000300     NO 
 Maximum Displacement     0.035061     0.001800     NO 
 RMS     Displacement     0.009667     0.001200     NO 
 Predicted change in Energy=-1.113787D-05
 GradGradGradGradGradGradGradGradGradGradGradGradGradGradGradGradGradGrad

                          Input orientation:                          
 ---------------------------------------------------------------------
 Center     Atomic      Atomic             Coordinates (Angstroms)
 Number     Number       Type             X           Y           Z
 ---------------------------------------------------------------------
      1          6           0       -1.527244    1.246672    0.000061
      2          6           0       -2.259082    0.052866    0.000017
      3          6           0       -1.622103   -1.180675   -0.000034
      4          6           0       -0.224955   -1.231195   -0.000041
      5          6           0        0.568068   -0.035281   -0.000002
      6          6           0       -0.141845    1.196037    0.000052
      7          8           0        0.576044    2.350898    0.000086
      8          6           0        2.024650   -0.164661   -0.000027
      9          6           0        2.950323    1.021473    0.000012
     10          8           0        2.547763   -1.299475   -0.000132
     11          8           0        0.343297   -2.431078   -0.000072
     12          8           0       -3.608701    0.174664    0.000029
     13          1           0       -2.058261    2.193854    0.000098
     14          1           0       -2.174160   -2.115479   -0.000064
     15          1           0       -0.031009    3.100590    0.000140
     16          1           0        2.777961    1.652600    0.876093
     17          1           0        3.974586    0.646465   -0.000043
     18          1           0        2.777905    1.652703   -0.875982
     19          1           0        1.339349   -2.259621   -0.000039
     20          1           0       -4.016380   -0.699882   -0.000006
 ---------------------------------------------------------------------
                    Distance matrix (angstroms):
                    1          2          3          4          5
     1  C    0.000000
     2  C    1.400272   0.000000
     3  C    2.429200   1.388296   0.000000
     4  C    2.799247   2.405511   1.398061   0.000000
     5  C    2.456367   2.828524   2.471594   1.434955   0.000000
     6  C    1.386324   2.406145   2.799987   2.428655   1.421310
     7  O    2.375528   3.649506   4.159791   3.670557   2.386193
     8  C    3.822017   4.289252   3.785643   2.489622   1.462317
     9  C    4.483227   5.298689   5.075090   3.893187   2.606121
    10  O    4.805055   4.993455   4.171558   2.773559   2.348910
    11  O    4.126109   3.597549   2.329443   1.327641   2.406318
    12  O    2.341295   1.355103   2.404894   3.664174   4.182042
    13  H    1.085879   2.150386   3.402599   3.884839   3.444800
    14  H    3.423823   2.170007   1.085645   2.140411   3.441953
    15  H    2.382379   3.775306   4.567364   4.336125   3.192583
    16  H    4.412143   5.357095   5.306186   4.254573   2.915496
    17  H    5.534472   6.261867   5.887391   4.600191   3.474067
    18  H    4.412099   5.357060   5.306165   4.254563   2.915477
    19  H    4.528957   4.277418   3.151876   1.872087   2.354265
    20  H    3.159884   1.911733   2.442073   3.828471   4.632370
                    6          7          8          9         10
     6  C    0.000000
     7  O    1.359804   0.000000
     8  C    2.558359   2.902843   0.000000
     9  C    3.097092   2.721135   1.504588   0.000000
    10  O    3.669002   4.148844   1.249580   2.355601   0.000000
    11  O    3.659417   4.787637   2.821984   4.326280   2.477942
    12  O    3.614179   4.716788   5.643561   6.613462   6.330493
    13  H    2.160623   2.638983   4.715163   5.143967   5.780901
    14  H    3.885414   5.245202   4.629870   6.008394   4.791912
    15  H    1.907775   0.964651   3.858445   3.634704   5.100063
    16  H    3.082396   2.470515   2.153486   1.093411   3.087962
    17  H    4.152955   3.801997   2.111913   1.090754   2.412988
    18  H    3.082356   2.470458   2.153486   1.093410   3.087950
    19  H    3.759722   4.673278   2.204200   3.655245   1.543420
    20  H    4.313528   5.513403   6.064693   7.176211   6.591471
                   11         12         13         14         15
    11  O    0.000000
    12  O    4.733728   0.000000
    13  H    5.211284   2.545779   0.000000
    14  H    2.537162   2.702344   4.310892   0.000000
    15  H    5.544318   4.621788   2.220793   5.639191   0.000000
    16  H    4.834427   6.613716   4.944631   6.284073   3.279372
    17  H    4.759993   7.597950   6.228135   6.740580   4.697608
    18  H    4.834439   6.613677   4.944579   6.284057   3.279324
    19  H    1.010702   5.514430   5.601536   3.516465   5.532608
    20  H    4.690823   0.964900   3.493985   2.323293   5.506974
                   16         17         18         19         20
    16  H    0.000000
    17  H    1.792158   0.000000
    18  H    1.752075   1.792158   0.000000
    19  H    4.259424   3.922985   4.259460   0.000000
    20  H    7.243258   8.103591   7.243223   5.578227   0.000000
 Stoichiometry    C8H8O4
 Framework group  C1[X(C8H8O4)]
 Deg. of freedom    54
 Full point group                 C1      NOp   1
 Largest Abelian subgroup         C1      NOp   1
 Largest concise Abelian subgroup C1      NOp   1
                         Standard orientation:                         
 ---------------------------------------------------------------------
 Center     Atomic      Atomic             Coordinates (Angstroms)
 Number     Number       Type             X           Y           Z
 ---------------------------------------------------------------------
      1          6           0       -1.527222    1.248015    0.000065
      2          6           0       -2.259778    0.054649    0.000020
      3          6           0       -1.623541   -1.179275   -0.000031
      4          6           0       -0.226424   -1.230635   -0.000038
      5          6           0        0.567319   -0.035199    0.000001
      6          6           0       -0.141854    1.196547    0.000055
      7          8           0        0.576730    2.350975    0.000090
      8          6           0        2.023823   -0.165455   -0.000024
      9          6           0        2.950209    1.020122    0.000015
     10          8           0        2.546253   -1.300584   -0.000129
     11          8           0        0.341106   -2.430860   -0.000069
     12          8           0       -3.609323    0.177259    0.000032
     13          1           0       -2.057669    2.195516    0.000102
     14          1           0       -2.176160   -2.113747   -0.000060
     15          1           0       -0.029872    3.101033    0.000143
     16          1           0        2.778227    1.651353    0.876096
     17          1           0        3.974246    0.644498   -0.000040
     18          1           0        2.778170    1.651455   -0.875979
     19          1           0        1.337261   -2.260003   -0.000036
     20          1           0       -4.017528   -0.697041   -0.000003
 ---------------------------------------------------------------------
 Rotational constants (GHZ):      1.5515051      0.7669429      0.5148557
 Standard basis: 6-31+G(d,p) (6D, 7F)
 There are   268 symmetry adapted cartesian basis functions of A   symmetry.
 There are   268 symmetry adapted basis functions of A   symmetry.
   268 basis functions,   440 primitive gaussians,   268 cartesian basis functions
    44 alpha electrons       44 beta electrons
       nuclear repulsion energy       698.5735207018 Hartrees.
 NAtoms=   20 NActive=   20 NUniq=   20 SFac= 1.00D+00 NAtFMM=   60 NAOKFM=F Big=F
 Integral buffers will be    131072 words long.
 Raffenetti 2 integral format.
 Two-electron integral symmetry is turned on.
 Nuclear repulsion after empirical dispersion term =      698.5551909402 Hartrees.
 One-electron integrals computed using PRISM.
 NBasis=   268 RedAO= T EigKep=  1.53D-06  NBF=   268
 NBsUse=   268 1.00D-06 EigRej= -1.00D+00 NBFU=   268
 Lowest energy guess from the checkpoint file:  "B3PW91D3THAP.chk"
 B after Tr=    -0.000000    0.000000   -0.000000
         Rot=    1.000000   -0.000002   -0.000001    0.000383 Ang=  -0.04 deg.
 B after Tr=    -0.000000    0.000000   -0.000000
         Rot=    1.000000    0.000005    0.000002   -0.000996 Ang=   0.11 deg.
 Keep R1 ints in memory in canonical form, NReq=659648347.
 Requested convergence on RMS density matrix=1.00D-08 within 128 cycles.
 Requested convergence on MAX density matrix=1.00D-06.
 Requested convergence on             energy=1.00D-06.
 No special actions if energy rises.
 SCF Done:  E(RB3PW91) =  -610.397628118     A.U. after    7 cycles
            NFock=  7  Conv=0.53D-08     -V/T= 2.0090
 Calling FoFJK, ICntrl=      2127 FMM=F ISym2X=0 I1Cent= 0 IOpClX= 0 NMat=1 NMatS=1 NMatT=0.
 ***** Axes restored to original set *****
 -------------------------------------------------------------------
 Center     Atomic                   Forces (Hartrees/Bohr)
 Number     Number              X              Y              Z
 -------------------------------------------------------------------
      1        6          -0.000204189   -0.000084315   -0.000000083
      2        6           0.000015894    0.000115628   -0.000000064
      3        6           0.000401295   -0.000254337   -0.000000276
      4        6          -0.000184593    0.000615890    0.000001322
      5        6          -0.000259900    0.000337083    0.000001349
      6        6           0.000328347   -0.000045490   -0.000000162
      7        8          -0.000485634    0.000214300    0.000000660
      8        6           0.000231153   -0.000455470   -0.000006022
      9        6           0.000363718    0.000118587    0.000001426
     10        8          -0.000395801    0.000047529    0.000004977
     11        8           0.001023305   -0.000178368    0.000001956
     12        8           0.000057747   -0.000029162   -0.000000014
     13        1          -0.000037226   -0.000171075   -0.000000015
     14        1           0.000128575    0.000074282    0.000000061
     15        1           0.000337298   -0.000074678   -0.000000213
     16        1          -0.000239783   -0.000092437   -0.000024847
     17        1           0.000021160    0.000004886    0.000000131
     18        1          -0.000239847   -0.000092533    0.000024390
     19        1          -0.000749883   -0.000220615   -0.000004579
     20        1          -0.000111637    0.000170294    0.000000002
 -------------------------------------------------------------------
 Cartesian Forces:  Max     0.001023305 RMS     0.000254365

 GradGradGradGradGradGradGradGradGradGradGradGradGradGradGradGradGradGrad
 Berny optimization.
 Using GEDIIS/GDIIS optimizer.
 FormGI is forming the generalized inverse of G from B-inverse, IUseBI=4.
 Internal  Forces:  Max     0.000784712 RMS     0.000207532
 Search for a local minimum.
 Step number   3 out of a maximum of  100
 All quantities printed in internal units (Hartrees-Bohrs-Radians)
 Mixed Optimization -- En-DIIS/RFO-DIIS
 Update second derivatives using D2CorX and points    2    1    3
 ITU=  0 -1  0
 Use linear search instead of GDIIS.
     Eigenvalues ---    0.00703   0.00934   0.01264   0.01595   0.01779
     Eigenvalues ---    0.01985   0.02064   0.02104   0.02150   0.02184
     Eigenvalues ---    0.02185   0.02213   0.02224   0.02286   0.02650
     Eigenvalues ---    0.07103   0.07493   0.14796   0.16000   0.16000
     Eigenvalues ---    0.16000   0.16000   0.16000   0.16000   0.16005
     Eigenvalues ---    0.23255   0.23504   0.23806   0.25000   0.25000
     Eigenvalues ---    0.25000   0.25000   0.25000   0.31844   0.34417
     Eigenvalues ---    0.34421   0.34727   0.35241   0.35301   0.36580
     Eigenvalues ---    0.37690   0.40406   0.43630   0.44516   0.45108
     Eigenvalues ---    0.46692   0.47497   0.52961   0.53946   0.54341
     Eigenvalues ---    0.54432   0.59615   0.82877   1.15934
 RFO step:  Lambda=-1.49485450D-05 EMin= 7.03109819D-03
 Quartic linear search produced a step of -0.00207.
 Iteration  1 RMS(Cart)=  0.00241752 RMS(Int)=  0.00000406
 Iteration  2 RMS(Cart)=  0.00000399 RMS(Int)=  0.00000148
 Iteration  3 RMS(Cart)=  0.00000000 RMS(Int)=  0.00000148
 Variable       Old X    -DE/DX   Delta X   Delta X   Delta X     New X
                                 (Linear)    (Quad)   (Total)
    R1        2.64613  -0.00018   0.00000  -0.00048  -0.00048   2.64565
    R2        2.61977   0.00013   0.00000   0.00029   0.00029   2.62006
    R3        2.05201  -0.00013   0.00000  -0.00046  -0.00046   2.05155
    R4        2.62350   0.00017  -0.00000   0.00042   0.00042   2.62392
    R5        2.56077   0.00007  -0.00000   0.00016   0.00016   2.56093
    R6        2.64195  -0.00038   0.00000  -0.00098  -0.00098   2.64097
    R7        2.05157  -0.00013   0.00000  -0.00046  -0.00046   2.05111
    R8        2.71167  -0.00039  -0.00000  -0.00065  -0.00065   2.71102
    R9        2.50888   0.00048  -0.00000   0.00086   0.00086   2.50974
   R10        2.68589  -0.00005   0.00000  -0.00029  -0.00029   2.68560
   R11        2.76338  -0.00022   0.00000  -0.00067  -0.00067   2.76270
   R12        2.56966   0.00004  -0.00000   0.00014   0.00014   2.56980
   R13        1.82293  -0.00027   0.00000  -0.00061  -0.00061   1.82231
   R14        2.84326  -0.00010   0.00000  -0.00052  -0.00052   2.84274
   R15        2.36136  -0.00021  -0.00000  -0.00024  -0.00024   2.36112
   R16        2.06625  -0.00003   0.00000  -0.00010  -0.00010   2.06614
   R17        2.06123   0.00002  -0.00000   0.00007   0.00007   2.06130
[...]
 0000902,-0.11494163,0.63575147,-0.00000105,-0.00000114,0.01247798,-0.0
 0000020,-0.00000044,0.00946833,0.00000027,-0.00000036,-0.00155810,-0.0
 0000027,-0.00000055,0.00355051,0.00000037,-0.00000182,0.00461652,-0.00
 000562,-0.00000779,-0.04467432,-0.00000360,0.00002371,0.02903173,0.012
 84890,0.00524387,0.00000138,-0.00981161,-0.00651906,-0.00000069,0.0010
 2546,-0.00322815,0.00000119,-0.02581525,-0.04598234,-0.00000336,-0.208
 43618,-0.01014179,-0.00000342,-0.01872710,0.03976337,0.00000143,-0.007
 19716,-0.01543050,-0.00000021,0.59238740,-0.00249300,-0.00787315,-0.00
 000095,0.00276492,0.00061267,0.00000013,-0.00217910,-0.00713740,-0.000
 00101,-0.03434178,0.03555991,0.00000105,-0.02912086,-0.11198085,0.0000
 0027,0.03805726,-0.00124055,0.00000087,-0.00177655,0.00198156,0.000000
 04,-0.08165760,0.79871785,-0.00000086,-0.00000049,0.00540644,0.0000006
 1,0.00000028,-0.00103392,0.00000021,-0.00000079,0.00282157,-0.00000143
 ,0.00000491,0.00297003,-0.00000171,0.00000024,-0.06624976,0.00000264,-
 0.00000174,-0.00635677,0.00000005,0.00000123,-0.00240588,-0.00003629,0
 .00007963,0.21827333,-0.00061333,-0.00026300,-0.00000047,0.00066281,0.
 00008170,0.00000006,-0.00007494,-0.00157235,-0.00000058,-0.00516068,0.
 00395731,0.00000078,-0.01255398,-0.02336382,0.00000174,0.00004104,-0.0
 0042485,0.00000051,-0.00762956,0.00538561,0.00000018,-0.15200977,-0.06
 849015,-0.00000189,0.56396218,-0.00090748,-0.00024622,0.00000004,0.000
 75705,0.00000842,-0.00000008,-0.00022321,0.00187545,0.00000023,0.00478
 676,-0.00048688,-0.00000014,-0.00526152,0.00934130,0.00000072,0.000045
 74,-0.00316316,-0.00000061,0.00455203,0.00008502,0.00000002,-0.0534218
 9,-0.13928047,0.00000098,-0.06976687,0.53594312,0.00000032,-0.00000007
 ,-0.00020549,-0.00000008,-0.00000020,0.00006822,-0.00000034,0.00000044
 ,-0.00094640,0.00000023,-0.00000049,0.00221831,0.00000018,0.00000002,0
 .01271007,0.00000003,0.00000022,-0.00008004,0.00000097,-0.00000073,-0.
 00099473,0.00000222,0.00000821,-0.08587780,-0.00000472,0.00000891,0.53
 580547,-0.00224722,0.00189408,-0.00000060,0.00396880,-0.00052643,0.000
 00028,-0.00322229,0.00388838,0.00000003,0.00876814,-0.00287943,0.00000
 101,-0.03479922,0.05452025,0.00000981,-0.00612493,-0.01365351,0.000000
 83,0.00302117,0.00499564,0.00000010,-0.19027068,0.19013862,0.00003952,
 0.01891832,-0.01714927,-0.00000165,0.25169581,0.00866151,0.00472073,0.
 00000048,-0.00491701,-0.00878222,-0.00000051,-0.00454034,0.00476006,0.
 00000007,0.00443611,-0.04315773,0.00000006,0.06666436,-0.01356161,-0.0
 0000756,-0.00950470,0.01512747,0.00000088,0.00048779,-0.00288515,-0.00
 000043,0.15391771,-0.51164680,-0.00007906,0.01094923,-0.06191150,-0.00
 001477,-0.20712431,0.59629278,0.00000014,-0.00000031,-0.00140962,-0.00
 000078,0.00000053,0.00033386,0.00000120,-0.00000090,0.00029432,-0.0000
 0157,-0.00000072,-0.00211453,0.00000726,-0.00000747,0.01737780,0.00000
 041,0.00000211,0.00638843,-0.00000021,-0.00000078,0.00010306,0.0000413
 8,-0.00008780,-0.06855663,0.00000215,-0.00000622,0.02242010,-0.0000492
 9,0.00010274,0.03611040,0.01023051,0.00966678,0.00000067,-0.00431363,-
 0.02227224,-0.00000115,-0.04399012,0.06687291,0.00000064,-0.15622119,0
 .10468491,-0.00000145,0.03668273,-0.00747215,-0.00000053,-0.01600362,0
 .00415692,0.00000067,0.00339697,0.00000652,0.,-0.03582084,0.02832718,0
 .00000592,0.00228603,-0.00473298,-0.00000116,-0.03904174,-0.06454700,0
 .00000499,0.54260781,-0.00159099,-0.00699714,-0.00000030,-0.00502652,0
 .00974258,0.00000051,0.03214504,-0.01070197,0.00000105,0.07968808,-0.3
 2427935,-0.00000697,-0.00020335,-0.05173939,-0.00000135,-0.00276563,0.
 00021547,-0.00000080,0.00054715,-0.00267967,-0.00000011,0.02191353,-0.
 00895261,-0.00000208,-0.00053744,-0.00093231,0.00000049,-0.02022301,0.
 01339238,0.00000280,-0.05892751,0.45012213,0.00000060,0.00000004,-0.00
 173894,-0.00000044,-0.00000096,0.00524623,-0.00000083,0.00000185,0.008
 89519,-0.00000246,-0.00000405,-0.05207453,0.00000091,-0.00000177,0.010
 63619,-0.00000086,0.00000020,0.00657419,0.00000014,0.00000014,0.000184
 57,-0.00000039,0.00000051,-0.00249109,-0.00000011,0.00000040,-0.000717
 04,0.00000246,0.00000004,0.00875079,0.00002387,0.00001007,0.04558399,-
 0.04848558,-0.01274035,-0.00000142,-0.32505271,0.04885769,-0.00000136,
 -0.04701392,0.00974336,-0.00000021,0.01227105,0.00412575,0.00000032,-0
 .01357989,-0.00081198,0.00000004,0.00875279,-0.00220916,-0.00000020,-0
 .00230379,-0.00170023,-0.00000016,0.01146315,-0.00263295,-0.00000081,-
 0.00057572,-0.00102619,0.00000009,-0.00446272,0.00468189,0.00000084,-0
 .00291759,0.00133240,-0.00000028,0.52821084,-0.04856095,0.00736821,-0.
 00000023,-0.00399380,-0.11511564,-0.00000330,0.04672244,0.00227480,0.0
 0000048,-0.00836156,-0.00701183,-0.00000152,-0.00010065,0.00440146,0.0
 0000054,0.00640984,-0.00915760,-0.00000147,-0.00346628,-0.00058493,0.0
 0000038,0.00080041,-0.00001340,0.00000046,0.00006644,0.00006299,-0.000
 00012,0.00011454,0.00135537,-0.00000014,0.00451157,-0.00055822,0.00000
 032,0.15404569,0.55820025,-0.00000293,-0.00000023,0.00674597,-0.000003
 58,-0.00000245,-0.04587016,0.00000136,-0.00000025,0.01132030,-0.000000
 47,-0.00000032,0.00954314,-0.00000014,0.00000026,-0.00152963,0.0000002
 4,-0.00000057,0.00412382,-0.00000018,-0.00000009,-0.00013441,0.0000001
 2,-0.00000008,-0.00029839,-0.00000007,-0.00000002,0.00020149,-0.000000
 21,0.00000023,-0.00010615,0.00000034,-0.00000017,-0.00045708,0.0000130
 7,0.00002536,0.02991841,-0.12500239,0.12261843,0.00000399,0.01193447,-
 0.01519946,-0.00000047,-0.00188510,-0.00289974,-0.00000026,-0.00121443
 ,-0.00077457,0.00000015,-0.00485265,-0.00212799,-0.00000045,-0.0102445
 8,0.02769882,0.00000128,0.00257689,0.00131585,-0.00000003,0.00088215,0
 .00128770,-0.00000018,-0.00000096,-0.00003709,0.00000006,-0.00081370,0
 .00049768,0.00000016,0.00053512,0.00000226,-0.00000001,0.00083453,0.00
 052223,0.00000010,0.12847904,0.12104748,-0.27475875,-0.00000891,0.0176
 4161,-0.01941166,-0.00000067,-0.00436173,-0.00240318,-0.00000015,-0.00
 127302,0.00025970,-0.00000036,-0.00018657,0.00137593,0.00000003,-0.004
 05339,-0.00022892,-0.00000075,-0.00090809,0.00358158,0.00000060,-0.000
 65273,0.00004966,0.00000027,0.00002621,0.00004758,-0.00000004,0.000298
 40,-0.00000224,-0.00000007,0.00039330,-0.00001486,0.00000006,0.0003748
 0,0.00157572,0.00000008,-0.13054666,0.29021488,0.00000418,-0.00000889,
 -0.02377209,0.00000073,-0.00000146,0.00256262,-0.00000054,-0.00000014,
 0.00387112,0.00000015,-0.00000014,-0.00187788,-0.00000012,-0.00000008,
 0.00493631,-0.00000032,0.00000011,0.00193578,0.00000004,0.00000040,-0.
 00503132,-0.00000005,0.00000003,0.00149059,0.00000008,0.00000005,-0.00
 018310,-0.00000007,-0.00000001,-0.00058895,-0.00000017,0.00000012,0.00
 018982,0.00000015,0.00000021,-0.00296445,-0.00000424,0.00000987,0.0181
 1735,-0.00097449,0.00281336,0.00000003,0.00854787,0.01428419,0.0000005
 9,-0.13135210,-0.12485228,-0.00000595,-0.01110584,-0.03048485,-0.00000
 120,-0.00491372,0.00232444,-0.00000013,-0.00116996,0.00119526,0.000000
 19,0.00025034,-0.00025213,-0.00000008,0.00025617,-0.00219198,-0.000000
 23,-0.00051290,0.00032384,0.00000007,0.00028414,0.00080051,-0.00000005
 ,0.00279705,0.00059948,0.00000017,0.00349505,0.00032796,0.00000013,0.0
 0054313,0.00072227,0.00000004,0.13516187,0.00395711,-0.00231037,-0.000
 00032,-0.01799952,-0.01734194,-0.00000087,-0.12670761,-0.26988951,-0.0
 0001062,0.00223520,0.00345537,0.00000017,0.00044475,0.00070804,-0.0000
 0021,0.00092702,0.00015020,0.00000033,-0.00021494,0.00013083,-0.000000
 09,0.00056379,-0.00011137,-0.00000020,-0.00000744,-0.00000398,0.000000
 02,-0.00009926,0.00029268,0.00000009,0.00020111,0.00038012,0.00000013,
 -0.00048939,0.00273067,0.00000029,-0.00081372,-0.00093086,-0.00000010,
 0.13561794,0.28368789,0.00000034,-0.00000012,0.00474239,-0.00000059,-0
 .00000094,0.00142915,-0.00000627,-0.00001010,-0.02554566,0.00000035,-0
 .00000046,0.00385925,-0.00000031,-0.00000024,0.00462399,-0.00000013,0.
 00000017,-0.00135538,0.00000003,0.00000005,-0.00013471,0.00000003,-0.0
 0000002,0.00054498,0.00000001,0.00000001,-0.00014963,0.00000005,-0.000
 00003,-0.00008309,0.00000011,0.00000005,-0.00361487,0.00000004,0.00000
 030,-0.00434246,-0.00000006,-0.00000004,0.00090790,0.00000638,0.000011
 39,0.01902377,0.00083164,-0.00551151,-0.00000003,-0.00102287,0.0001937
 0,-0.00000004,-0.00009220,0.00004587,0.00000012,0.00083284,-0.00091519
 ,-0.00000025,-0.00163850,-0.00358908,-0.00000008,0.01433627,-0.0237747
 7,-0.00000118,-0.24439529,0.26406810,0.00000921,-0.00055650,-0.0004853
 3,0.00000017,-0.00134447,0.00010780,0.00000018,0.00014496,-0.00012106,
 -0.00000002,-0.00048762,0.00020101,0.00000003,0.00013404,0.00006944,0.
 ,-0.00147420,0.00143277,0.00000004,-0.00009559,0.00015826,0.,0.2347154
 8,0.00278882,0.00578386,0.00000032,-0.00037780,-0.00216686,-0.00000005
 ,-0.00076859,0.00112527,0.00000005,0.00298000,-0.00085154,-0.00000006,
 -0.00668433,-0.00196902,-0.00000022,0.02593392,-0.03944247,-0.00000140
 ,0.21012989,-0.31856380,-0.00001097,0.00079932,-0.00000290,0.00000002,
 -0.00017773,0.00007521,-0.00000001,-0.00048868,0.00045583,0.00000007,-
 0.00085972,0.00004090,0.,0.00092635,0.00052966,0.,-0.00151841,0.000272
 63,-0.00000007,-0.00006065,0.00007864,0.00000001,-0.23279250,0.3544844
 5,0.00000005,0.00000014,-0.00159516,0.00000004,0.00000010,-0.00112571,
 -0.00000006,0.00000010,0.00002005,0.00000010,-0.00000010,0.00167179,-0
 .00000002,-0.00000035,0.00270343,0.00000121,-0.00000125,-0.00219255,0.
 00000680,-0.00001097,-0.00535016,-0.00000022,0.00000017,-0.00064867,0.
 00000020,-0.00000013,0.00015935,-0.00000001,-0.00000002,-0.00011784,-0
 .00000007,0.00000004,-0.00023033,0.00000005,-0.00000008,-0.00004182,-0
 .00000001,-0.00000009,0.00110150,0.00000001,0.00000003,0.00001281,-0.0
 0000802,0.00001230,0.00520619,-0.00006575,0.00015839,0.00003804,0.0001
 6288,-0.00010375,0.00009613,-0.00010088,0.00040213,-0.00030777,0.00062
 565,0.00026842,0.00054780,-0.00266170,0.00068968,0.00160317,-0.0011281
 9,-0.00295901,-0.00025541,-0.00206169,0.00205728,-0.00096330,0.0074704
 5,-0.00752356,-0.02010794,-0.05470444,0.02311085,0.03656676,-0.0010069
 6,-0.00279334,0.00208149,-0.00039205,-0.00010153,-0.00003051,-0.000230
 25,0.00004849,0.00002127,-0.00004294,0.00002254,-0.00006541,0.00001862
 ,-0.00000017,-0.00002222,0.00003133,0.00022322,0.00016204,0.05525920,0
 .00005425,-0.00001385,-0.00019312,-0.00004263,-0.00012412,-0.00002723,
 -0.00016422,0.00005378,-0.00026744,0.00025537,-0.00054792,0.00057919,-
 0.00015641,0.00028075,0.00183496,-0.00031083,0.00051518,-0.00025548,0.
 00119180,-0.00085125,0.00090784,0.00736763,-0.01475605,-0.02154248,0.0
 2436650,-0.13134785,-0.13350892,-0.00379659,-0.00443599,0.00273257,-0.
 00094495,0.00015983,-0.00014602,0.00003090,-0.00000048,0.00005487,0.00
 001129,-0.00000162,0.00000229,0.00001286,-0.00000183,-0.00001848,0.000
 20799,0.00001794,0.00015759,-0.02688494,0.14503565,0.00043165,0.000401
 50,-0.00013971,-0.00003620,-0.00034351,-0.00005705,-0.00014868,0.00016
 394,0.00003002,0.00011067,-0.00006750,0.00013367,-0.00045576,-0.000279
 33,0.00026567,-0.00063363,-0.00173727,-0.00001737,0.00095039,0.0007864
 8,0.00033100,0.00034783,0.00249160,0.00148232,0.03616910,-0.12986918,-
 0.21917982,-0.00039183,0.00120461,-0.00090785,-0.00018801,0.00016597,-
 0.00004616,0.00003558,0.00006756,0.00000600,-0.00003701,0.00002500,0.0
 0003325,-0.00001105,0.00000607,-0.00000171,0.00043970,-0.00001246,0.00
 004183,-0.04013181,0.13989273,0.23700284,-0.00016809,-0.00005062,0.000
 00019,0.00027165,0.00006678,-0.00000002,-0.00010390,-0.00045496,0.0000
 0009,-0.00108191,0.00146874,-0.00000018,-0.00020277,-0.00412688,0.0000
 0020,0.00071086,-0.00013024,-0.00000034,-0.00015990,0.00056347,0.00000
 026,-0.02364915,0.00894354,0.00000260,-0.29386135,0.08929204,0.0000302
 1,0.00428512,0.00202970,-0.00000040,0.00111252,-0.00031072,0.00000004,
 -0.00024961,0.00000082,0.00000006,-0.00000836,0.00002461,-0.00000004,-
 0.00013897,-0.00000533,-0.00000003,-0.00007298,-0.00021930,-0.00000002
 ,-0.00160775,-0.00023931,-0.00050743,0.31748549,0.00027903,0.00035674,
 -0.00000001,0.00003646,-0.00026228,0.,-0.00015896,-0.00032672,-0.00000
 003,-0.00124170,0.00066662,-0.00000001,-0.00128965,-0.00450637,-0.0000
 0036,-0.00033575,-0.00162544,0.00000003,0.00170347,0.00011085,-0.00000
 016,-0.02942508,0.00813744,0.00000325,0.09535854,-0.08118677,-0.000011
 28,0.00076624,0.00149161,0.00000019,0.00053379,0.00012120,-0.00000001,
 -0.00000714,0.00006354,-0.00000002,-0.00004960,0.00002625,0.,-0.000149
 98,0.00001137,0.,0.00039677,0.00011808,0.,0.01527414,-0.00507173,0.002
 83022,-0.09623612,0.08712494,0.00000001,0.,-0.00016480,-0.00000003,0.,
 0.00000209,0.00000001,0.00000002,-0.00018382,0.,-0.00000014,0.00053730
 ,-0.00000008,-0.00000011,0.00154074,0.00000006,0.00000015,-0.00026519,
 -0.00000020,0.,0.00086809,0.00000047,-0.00000043,-0.00140283,0.0000309
 2,-0.00001081,-0.04941541,-0.00000060,0.00000006,-0.00111445,-0.000000
 02,0.00000005,-0.00006881,0.00000002,0.,0.00000799,0.,0.,0.00001812,0.
 ,0.,-0.00001105,-0.00000004,0.00000002,0.00014855,0.02436848,-0.006524
 92,0.00178344,-0.00003342,0.00001215,0.04590651,-0.00006587,0.00015842
 ,-0.00003802,0.00016295,-0.00010365,-0.00009616,-0.00010086,0.00040213
 ,0.00030783,0.00062588,0.00026859,-0.00054770,-0.00266194,0.00069018,-
 0.00160307,-0.00112867,-0.00295986,0.00025510,-0.00206333,0.00205822,0
 .00096434,0.00747425,-0.00752729,0.02010616,-0.05471788,0.02314132,-0.
 03659667,-0.00100743,-0.00279198,-0.00208239,-0.00039206,-0.00010168,0
 .00003058,-0.00023027,0.00004846,-0.00002127,-0.00004294,0.00002251,0.
 00006544,0.00001863,-0.00000015,0.00002221,0.00003120,0.00022342,-0.00
 016214,-0.00010716,-0.00204349,0.00388110,-0.00161304,0.01527639,-0.02
 436556,0.05527736,0.00005425,-0.00001386,0.00019324,-0.00004264,-0.000
 12404,0.00002722,-0.00016421,0.00005377,0.00026749,0.00025557,-0.00054
 787,-0.00057929,-0.00015651,0.00028109,-0.00183499,-0.00031098,0.00051
 502,0.00025550,0.00119282,-0.00085176,-0.00090826,0.00737118,-0.014759
 66,0.02153839,0.02439834,-0.13138341,0.13351731,-0.00379676,-0.0044329
 8,-0.00273259,-0.00094469,0.00015977,0.00014609,0.00003095,-0.00000053
 ,-0.00005486,0.00001129,-0.00000162,-0.00000231,0.00001286,-0.00000182
 ,0.00001847,0.00020817,0.00001790,-0.00015763,-0.00204649,0.01066431,-
 0.01584292,-0.00023789,-0.00507192,0.00652398,-0.02691919,0.14507264,-
 0.00043178,-0.00040153,-0.00013974,0.00003622,0.00034354,-0.00005702,0
 .00014874,-0.00016411,0.00003002,-0.00011082,0.00006749,0.00013359,0.0
 0045596,0.00027922,0.00026606,0.00063389,0.00173789,-0.00001735,-0.000
 94999,-0.00078684,0.00033075,-0.00034767,-0.00249333,0.00148122,-0.036
 19876,0.12987722,-0.21913016,0.00039122,-0.00120441,-0.00090839,0.0001
 8802,-0.00016605,-0.00004616,-0.00003562,-0.00006751,0.00000592,0.0000
 3701,-0.00002501,0.00003328,0.00001104,-0.00000607,-0.00000169,-0.0004
 3976,0.00001241,0.00004189,-0.00388582,0.01584725,-0.02067602,0.000508
 24,-0.00283412,0.00178893,0.04016540,-0.13989954,0.23694909,-0.0051842
 0,-0.00490882,-0.00000005,0.00003204,0.00899853,0.00000019,0.01038170,
 -0.00591042,-0.00000011,-0.03584707,0.04080019,-0.00000151,-0.01742066
 ,-0.00443110,0.,0.00349648,-0.00410404,-0.00000129,-0.00106340,-0.0012
 3122,0.00000013,0.03938668,-0.02940235,-0.00000616,-0.00222257,0.00631
 071,0.00000320,-0.00861460,0.04336161,-0.00000527,-0.30124657,-0.04595
 349,-0.00002286,-0.00034986,-0.00139264,-0.00000001,-0.00030391,-0.000
 15581,0.00000010,-0.00061133,0.00008126,0.00000001,0.00011663,-0.00005
 211,0.,0.00052811,0.00108347,0.00017071,-0.00099023,-0.00074537,0.,0.0
 0052763,0.00108258,-0.00017079,0.31982911,-0.00329519,-0.00226819,-0.0
 0000014,0.00242695,0.00535663,0.00000015,0.00539047,-0.00948548,-0.000
 00011,0.04305866,0.01416385,0.00000325,-0.00892026,-0.00226984,-0.0000
 0010,0.00323036,-0.00312100,-0.00000044,-0.00053778,0.00058524,-0.0000
 0002,0.00975965,-0.02752779,-0.00000231,0.00002489,0.00240743,0.000000
 85,0.01281527,0.01346567,-0.00000413,-0.05878451,-0.06733759,-0.000006
 95,-0.00066206,-0.00119642,-0.00000009,-0.00024147,-0.00005067,0.00000
 005,-0.00038764,0.00003937,0.00000003,0.00009895,0.00000610,0.00000003
 ,0.00012691,0.00043000,0.00011587,-0.00038338,-0.00017170,-0.00000001,
 0.00012686,0.00042970,-0.00011583,-0.00367093,0.07642385,0.00000034,0.
 00000036,0.00006990,-0.00000005,-0.00000063,0.00218930,-0.00000028,0.0
 0000007,0.00378999,0.00000102,-0.00000347,-0.00093440,0.00000189,0.,-0
 .00140295,-0.00000026,0.00000012,-0.00119023,0.00000008,0.,-0.00007560
 ,-0.00000367,0.00000092,0.00085726,0.00000074,-0.00000142,0.00337329,-
 0.00000114,-0.00000227,-0.01590004,-0.00003265,-0.00000337,-0.02457366
 ,0.00000019,0.00000010,-0.00059017,0.00000002,0.00000004,-0.00002476,0
 .00000009,0.00000003,-0.00075541,-0.00000002,0.,0.00008337,0.00030279,
 0.00047522,-0.00009582,0.00000011,0.00000013,0.00001546,-0.00030294,-0
 .00047570,-0.00009576,0.00003374,0.00000991,0.03515912,-0.00592381,0.0
 0369197,-0.00000028,-0.02627053,-0.04701666,-0.00000235,0.00391381,-0.
 00061324,-0.00000024,-0.00175239,-0.00001003,0.00000056,0.00109943,0.0
 0046011,-0.00000019,-0.00015629,-0.00246111,0.00000074,-0.00036244,0.0
 0062195,-0.00000033,-0.00090039,0.00030330,-0.00000038,0.00011216,0.00
 009837,0.00000011,0.00052503,-0.00014837,-0.00000005,0.00117827,-0.000
 68709,-0.00000002,-0.11970952,-0.14781245,-0.00000786,0.00010083,0.000
 13149,0.00000002,-0.00049798,0.00215108,0.00000005,0.00000585,-0.00000
 512,0.00000008,0.00001353,0.00000132,0.00000469,0.00004237,0.00001451,
 0.,0.00001356,0.00000135,-0.00000474,-0.00044398,-0.00017577,0.,0.1490
 1251,0.00158473,0.00192850,-0.00000049,0.00381017,0.00223021,0.0000003
 6,0.00593047,0.00324692,-0.00000017,-0.00078950,-0.00120016,0.00000079
 ,0.00109353,0.00013731,-0.00000032,-0.00045443,0.00024117,0.00000108,-
 0.00003803,-0.00013181,-0.00000047,-0.00104132,0.00022389,-0.00000052,
 -0.00001111,0.00009603,0.00000016,0.00030585,-0.00053834,0.00000002,0.
 00013074,-0.00014127,-0.00000007,-0.20187033,-0.44492360,-0.00002193,0
 .00024316,0.00040044,0.00000006,-0.00065546,-0.00107348,-0.00000007,0.
 00000059,-0.00000989,0.00000011,0.00003075,-0.00000476,0.00000061,0.00
 000507,-0.00000570,0.,0.00003079,-0.00000471,-0.00000069,0.00023996,0.
 00012085,-0.00000006,0.19145438,0.43940841,0.00000015,0.00000013,0.003
 14246,-0.00000017,-0.00000044,-0.00257928,0.00000027,0.00000032,-0.001
 55561,0.00000005,-0.00000026,-0.00111396,-0.00000003,-0.00000006,-0.00
 006519,-0.00000005,-0.00000022,0.00235652,0.00000001,0.00000003,-0.000
 60331,-0.00000011,0.00000016,-0.00000599,0.00000015,0.00000002,-0.0000
 7669,0.00000010,-0.00000010,0.00002880,-0.00000004,0.00000006,-0.00000
 229,-0.00001031,-0.00002134,-0.00553832,-0.00000003,0.00000013,-0.0007
 5510,-0.00000006,-0.00000006,0.00085140,-0.00000003,0.00000004,0.00011
 146,-0.00001779,-0.00000043,0.00001149,-0.00000009,0.00000003,0.000009
 15,0.00001778,0.00000040,0.00001155,-0.00000003,0.,0.00010109,0.000010
 22,0.00002160,0.00567183\\0.00002297,0.00000959,0.00000068,-0.00002562
 ,-0.00006060,0.00000006,-0.00004394,0.00000942,0.00000044,-0.00004864,
 0.00001327,-0.00000195,0.00002184,0.00012450,-0.00000674,0.00002372,0.
 00007108,-0.00000130,-0.00005225,-0.00005275,-0.00000106,0.00003727,-0
 .00001131,0.00002861,0.00011086,-0.00000220,-0.00000678,0.00001367,-0.
 00002737,-0.00001668,0.00000099,-0.00001262,-0.00000504,0.00002522,0.0
 0000326,-0.00000002,-0.00001523,-0.00001390,0.00000019,-0.00000108,0.0
 0000191,-0.00000008,0.00000347,-0.00005133,0.00000003,-0.00002679,0.00
 000310,-0.00000008,-0.00003872,0.00001376,-0.00000048,-0.00002569,0.00
 000592,-0.00000020,0.00000809,-0.00003754,0.00001038,0.00000988,0.0000
 1382,0.00000002\\\@


 SACRED COWS MAKE GREAT HAMBURGERS -- ROBERT REISNER
 Job cpu time:       0 days  0 hours 18 minutes 23.3 seconds.
 File lengths (MBytes):  RWF=    157 Int=      0 D2E=      0 Chk=      6 Scr=      1
 Normal termination of Gaussian 09 at Thu Dec 19 12:14:18 2024.
