 Entering Gaussian System, Link 0=g09
 Input=pbeD3THAP.gjf
 Output=pbeD3THAP.log
 Initial command:
 /home/c612/g09E/g09/l1.exe "/mnt/ja_sm883/scratch/Gau-1833079.inp" -scrdir="/mnt/ja_sm883/scratch/"
 Default is to use a total of  18 processors:
                               18 via shared-memory
                                1 via Linda
 Entering Link 1 = /home/c612/g09E/g09/l1.exe PID=   1833081.
  
 Copyright (c) 1988,1990,1992,1993,1995,1998,2003,2009,2015,
            Gaussian, Inc.  All Rights Reserved.
  
 This is part of the Gaussian(R) 09 program.  It is based on
 the Gaussian(R) 03 system (copyright 2003, Gaussian, Inc.),
 the Gaussian(R) 98 system (copyright 1998, Gaussian, Inc.),
 the Gaussian(R) 94 system (copyright 1995, Gaussian, Inc.),
 the Gaussian 92(TM) system (copyright 1992, Gaussian, Inc.),
 the Gaussian 90(TM) system (copyright 1990, Gaussian, Inc.),
 the Gaussian 88(TM) system (copyright 1988, Gaussian, Inc.),
 the Gaussian 86(TM) system (copyright 1986, Carnegie Mellon
 University), and the Gaussian 82(TM) system (copyright 1983,
 Carnegie Mellon University). Gaussian is a federally registered
 trademark of Gaussian, Inc.
  
 This software contains proprietary and confidential information,
 including trade secrets, belonging to Gaussian, Inc.
  
 This software is provided under written license and may be
 used, copied, transmitted, or stored only in accord with that
 written license.
  
 The following legend is applicable only to US Government
 contracts under FAR:
  
                    RESTRICTED RIGHTS LEGEND
  
 Use, reproduction and disclosure by the US Government is
 subject to restrictions as set forth in subparagraphs (a)
 and (c) of the Commercial Computer Software - Restricted
 Rights clause in FAR 52.227-19.
  
 Gaussian, Inc.
 340 Quinnipiac St., Bldg. 40, Wallingford CT 06492
  
  
 ---------------------------------------------------------------
 Warning -- This program may not be used in any manner that
 competes with the business of Gaussian, Inc. or will provide
 assistance to any competitor of Gaussian, Inc.  The licensee
 of this program is prohibited from giving any competitor of
 Gaussian, Inc. access to this program.  By using this program,
 the user acknowledges that Gaussian, Inc. is engaged in the
 business of creating and licensing software in the field of
 computational chemistry and represents and warrants to the
 licensee that it is not a competitor of Gaussian, Inc. and that
 it will not use this program in any manner prohibited above.
 ---------------------------------------------------------------
  

 Cite this work as:
 Gaussian 09, Revision E.01,
 M. J. Frisch, G. W. Trucks, H. B. Schlegel, G. E. Scuseria, 
 M. A. Robb, J. R. Cheeseman, G. Scalmani, V. Barone, B. Mennucci, 
 G. A. Petersson, H. Nakatsuji, M. Caricato, X. Li, H. P. Hratchian, 
 A. F. Izmaylov, J. Bloino, G. Zheng, J. L. Sonnenberg, M. Hada, 
 M. Ehara, K. Toyota, R. Fukuda, J. Hasegawa, M. Ishida, T. Nakajima, 
 Y. Honda, O. Kitao, H. Nakai, T. Vreven, J. A. Montgomery, Jr., 
 J. E. Peralta, F. Ogliaro, M. Bearpark, J. J. Heyd, E. Brothers, 
 K. N. Kudin, V. N. Staroverov, T. Keith, R. Kobayashi, J. Normand, 
 K. Raghavachari, A. Rendell, J. C. Burant, S. S. Iyengar, J. Tomasi, 
 M. Cossi, N. Rega, J. M. Millam, M. Klene, J. E. Knox, J. B. Cross, 
 V. Bakken, C. Adamo, J. Jaramillo, R. Gomperts, R. E. Stratmann, 
 O. Yazyev, A. J. Austin, R. Cammi, C. Pomelli, J. W. Ochterski, 
 R. L. Martin, K. Morokuma, V. G. Zakrzewski, G. A. Voth, 
 P. Salvador, J. J. Dannenberg, S. Dapprich, A. D. Daniels, 
 O. Farkas, J. B. Foresman, J. V. Ortiz, J. Cioslowski, 
 and D. J. Fox, Gaussian, Inc., Wallingford CT, 2013.
 
 ******************************************
 Gaussian 09:  ES64L-G09RevE.01 30-Nov-2015
                17-Dec-2024 
 ******************************************
 %chk=pbeD3THAP.chk
 -----------------------------------------------------
 # opt freq pbepbe/6-31+g(d,p) empiricaldispersion=gd3
 -----------------------------------------------------
 1/14=-1,18=20,19=15,26=3,38=1/1,3;
 2/9=110,12=2,17=6,18=5,40=1/2;
 3/5=1,6=6,7=111,11=2,16=1,25=1,30=1,71=1,74=1009,124=31/1,2,3;
 4//1;
 5/5=2,38=5/2;
 6/7=2,8=2,9=2,10=2,28=1/1;
 7//1,2,3,16;
 1/14=-1,18=20,19=15,26=3/3(2);
 2/9=110/2;
 99//99;
 2/9=110/2;
 3/5=1,6=6,7=111,11=2,16=1,25=1,30=1,71=1,74=1009,124=31/1,2,3;
 4/5=5,16=3,69=1/1;
 5/5=2,38=5/2;
 7//1,2,3,16;
 1/14=-1,18=20,19=15,26=3/3(-5);
 2/9=110/2;
 6/7=2,8=2,9=2,10=2,19=2,28=1/1;
 99/9=1/99;
 ----------
 [No Title]
 ----------
 Symbolic Z-matrix:
 Charge =  0 Multiplicity = 1
 C                    -1.52928   1.24718   0.00006 
 C                    -2.26011   0.05263   0.00004 
 C                    -1.62212  -1.18033  -0.00002 
 C                    -0.22481  -1.22934  -0.00006 
 C                     0.56718  -0.03309  -0.00003 
 C                    -0.14383   1.19776   0.00003 
 O                     0.57233   2.35363   0.00006 
 C                     2.02366  -0.16437  -0.00006 
 C                     2.95347   1.01873   0.00002 
 O                     2.54326  -1.30079  0. 
 O                     0.34614  -2.42788  -0.00013 
 O                    -3.60987   0.17257   0.00007 
 H                    -2.06093   2.19409   0.0001 
 H                    -2.17348  -2.11563  -0.00005 
 H                    -0.03668   3.10186   0.00012 
 H                     2.78452   1.65076   0.87612 
 H                     3.9761    0.63933   0.00005 
 H                     2.78459   1.65081  -0.87606 
 H                     1.34179  -2.25356  -0.00016 
 H                    -4.01572  -0.70287   0.00005 
 

 GradGradGradGradGradGradGradGradGradGradGradGradGradGradGradGradGradGrad
 Berny optimization.
 Initialization pass.
                           ----------------------------
                           !    Initial Parameters    !
                           ! (Angstroms and Degrees)  !
 --------------------------                            --------------------------
 ! Name  Definition              Value          Derivative Info.                !
 --------------------------------------------------------------------------------
 ! R1    R(1,2)                  1.4004         estimate D2E/DX2                !
 ! R2    R(1,6)                  1.3863         estimate D2E/DX2                !
 ! R3    R(1,13)                 1.086          estimate D2E/DX2                !
 ! R4    R(2,3)                  1.3882         estimate D2E/DX2                !
 ! R5    R(2,12)                 1.3551         estimate D2E/DX2                !
 ! R6    R(3,4)                  1.3982         estimate D2E/DX2                !
 ! R7    R(3,14)                 1.0857         estimate D2E/DX2                !
 ! R8    R(4,5)                  1.4347         estimate D2E/DX2                !
 ! R9    R(4,11)                 1.3276         estimate D2E/DX2                !
 ! R10   R(5,6)                  1.4215         estimate D2E/DX2                !
 ! R11   R(5,8)                  1.4624         estimate D2E/DX2                !
 ! R12   R(6,7)                  1.3597         estimate D2E/DX2                !
 ! R13   R(7,15)                 0.9648         estimate D2E/DX2                !
 ! R14   R(8,9)                  1.5048         estimate D2E/DX2                !
 ! R15   R(8,10)                 1.2496         estimate D2E/DX2                !
 ! R16   R(9,16)                 1.0934         estimate D2E/DX2                !
 ! R17   R(9,17)                 1.0907         estimate D2E/DX2                !
 ! R18   R(9,18)                 1.0934         estimate D2E/DX2                !
 ! R19   R(11,19)                1.0108         estimate D2E/DX2                !
 ! R20   R(12,20)                0.9649         estimate D2E/DX2                !
 ! A1    A(2,1,6)              119.4162         estimate D2E/DX2                !
 ! A2    A(2,1,13)             119.2289         estimate D2E/DX2                !
 ! A3    A(6,1,13)             121.3549         estimate D2E/DX2                !
 ! A4    A(1,2,3)              121.1818         estimate D2E/DX2                !
 ! A5    A(1,2,12)             116.3808         estimate D2E/DX2                !
 ! A6    A(3,2,12)             122.4374         estimate D2E/DX2                !
 ! A7    A(2,3,4)              119.3685         estimate D2E/DX2                !
 ! A8    A(2,3,14)             122.1211         estimate D2E/DX2                !
 ! A9    A(4,3,14)             118.5104         estimate D2E/DX2                !
 ! A10   A(3,4,5)              121.498          estimate D2E/DX2                !
 ! A11   A(3,4,11)             117.4807         estimate D2E/DX2                !
 ! A12   A(5,4,11)             121.0214         estimate D2E/DX2                !
 ! A13   A(4,5,6)              116.4799         estimate D2E/DX2                !
 ! A14   A(4,5,8)              118.3568         estimate D2E/DX2                !
 ! A15   A(6,5,8)              125.1634         estimate D2E/DX2                !
 ! A16   A(1,6,5)              122.0557         estimate D2E/DX2                !
 ! A17   A(1,6,7)              119.7396         estimate D2E/DX2                !
 ! A18   A(5,6,7)              118.2047         estimate D2E/DX2                !
 ! A19   A(6,7,15)             109.0748         estimate D2E/DX2                !
 ! A20   A(5,8,9)              123.014          estimate D2E/DX2                !
 ! A21   A(5,8,10)             119.721          estimate D2E/DX2                !
 ! A22   A(9,8,10)             117.2649         estimate D2E/DX2                !
 ! A23   A(8,9,16)             111.0408         estimate D2E/DX2                !
 ! A24   A(8,9,17)             107.8091         estimate D2E/DX2                !
 ! A25   A(8,9,18)             111.0404         estimate D2E/DX2                !
 ! A26   A(16,9,17)            110.2373         estimate D2E/DX2                !
 ! A27   A(16,9,18)            106.4977         estimate D2E/DX2                !
 ! A28   A(17,9,18)            110.2373         estimate D2E/DX2                !
 ! A29   A(4,11,19)            105.5409         estimate D2E/DX2                !
 ! A30   A(2,12,20)            109.7942         estimate D2E/DX2                !
 ! D1    D(6,1,2,3)             -0.0003         estimate D2E/DX2                !
 ! D2    D(6,1,2,12)           179.9998         estimate D2E/DX2                !
 ! D3    D(13,1,2,3)           179.9998         estimate D2E/DX2                !
 ! D4    D(13,1,2,12)           -0.0001         estimate D2E/DX2                !
 ! D5    D(2,1,6,5)              0.0003         estimate D2E/DX2                !
 ! D6    D(2,1,6,7)           -179.9998         estimate D2E/DX2                !
 ! D7    D(13,1,6,5)          -179.9998         estimate D2E/DX2                !
 ! D8    D(13,1,6,7)             0.0002         estimate D2E/DX2                !
 ! D9    D(1,2,3,4)              0.0            estimate D2E/DX2                !
 ! D10   D(1,2,3,14)          -179.9998         estimate D2E/DX2                !
 ! D11   D(12,2,3,4)           179.9998         estimate D2E/DX2                !
 ! D12   D(12,2,3,14)            0.0            estimate D2E/DX2                !
 ! D13   D(1,2,12,20)          179.9998         estimate D2E/DX2                !
 ! D14   D(3,2,12,20)           -0.0001         estimate D2E/DX2                !
 ! D15   D(2,3,4,5)              0.0003         estimate D2E/DX2                !
 ! D16   D(2,3,4,11)          -179.9996         estimate D2E/DX2                !
 ! D17   D(14,3,4,5)          -179.9999         estimate D2E/DX2                !
 ! D18   D(14,3,4,11)            0.0002         estimate D2E/DX2                !
 ! D19   D(3,4,5,6)             -0.0003         estimate D2E/DX2                !
 ! D20   D(3,4,5,8)            179.9992         estimate D2E/DX2                !
 ! D21   D(11,4,5,6)           179.9996         estimate D2E/DX2                !
 ! D22   D(11,4,5,8)            -0.0009         estimate D2E/DX2                !
 ! D23   D(3,4,11,19)          179.9988         estimate D2E/DX2                !
 ! D24   D(5,4,11,19)           -0.0011         estimate D2E/DX2                !
 ! D25   D(4,5,6,1)              0.0            estimate D2E/DX2                !
 ! D26   D(4,5,6,7)           -180.0            estimate D2E/DX2                !
 ! D27   D(8,5,6,1)           -179.9994         estimate D2E/DX2                !
 ! D28   D(8,5,6,7)              0.0006         estimate D2E/DX2                !
 ! D29   D(4,5,8,9)           -179.9978         estimate D2E/DX2                !
 ! D30   D(4,5,8,10)            -0.0051         estimate D2E/DX2                !
 ! D31   D(6,5,8,9)              0.0017         estimate D2E/DX2                !
 ! D32   D(6,5,8,10)           179.9944         estimate D2E/DX2                !
 ! D33   D(1,6,7,15)             0.0015         estimate D2E/DX2                !
 ! D34   D(5,6,7,15)          -179.9985         estimate D2E/DX2                !
 ! D35   D(5,8,9,16)            59.1425         estimate D2E/DX2                !
 ! D36   D(5,8,9,17)           179.9963         estimate D2E/DX2                !
 ! D37   D(5,8,9,18)           -59.1501         estimate D2E/DX2                !
 ! D38   D(10,8,9,16)         -120.8503         estimate D2E/DX2                !
 ! D39   D(10,8,9,17)            0.0034         estimate D2E/DX2                !
 ! D40   D(10,8,9,18)          120.857          estimate D2E/DX2                !
 --------------------------------------------------------------------------------
 Trust Radius=3.00D-01 FncErr=1.00D-07 GrdErr=1.00D-06
 Number of steps in this run=    100 maximum allowed number of steps=    120.
 GradGradGradGradGradGradGradGradGradGradGradGradGradGradGradGradGradGrad

                          Input orientation:                          
 ---------------------------------------------------------------------
 Center     Atomic      Atomic             Coordinates (Angstroms)
 Number     Number       Type             X           Y           Z
 ---------------------------------------------------------------------
      1          6           0       -1.529278    1.247175    0.000059
      2          6           0       -2.260114    0.052631    0.000035
      3          6           0       -1.622116   -1.180327   -0.000024
      4          6           0       -0.224810   -1.229342   -0.000061
      5          6           0        0.567179   -0.033094   -0.000032
      6          6           0       -0.143834    1.197764    0.000029
      7          8           0        0.572333    2.353627    0.000057
      8          6           0        2.023660   -0.164368   -0.000055
      9          6           0        2.953472    1.018731    0.000021
     10          8           0        2.543255   -1.300790   -0.000003
     11          8           0        0.346137   -2.427883   -0.000126
     12          8           0       -3.609869    0.172570    0.000070
     13          1           0       -2.060929    2.194087    0.000102
     14          1           0       -2.173479   -2.115631   -0.000046
     15          1           0       -0.036675    3.101863    0.000121
     16          1           0        2.784518    1.650757    0.876121
     17          1           0        3.976098    0.639331    0.000052
     18          1           0        2.784589    1.650806   -0.876055
     19          1           0        1.341787   -2.253564   -0.000164
     20          1           0       -4.015716   -0.702868    0.000046
 ---------------------------------------------------------------------
                    Distance matrix (angstroms):
                    1          2          3          4          5
     1  C    0.000000
     2  C    1.400377   0.000000
     3  C    2.429277   1.388246   0.000000
     4  C    2.799066   2.405393   1.398165   0.000000
     5  C    2.456465   2.828592   2.471671   1.434662   0.000000
     6  C    1.386325   2.406236   2.800113   2.428456   1.421461
     7  O    2.375080   3.649293   4.159860   3.670573   2.386727
     8  C    3.823064   4.289267   3.784687   2.487928   1.462385
     9  C    4.488567   5.302342   5.076599   3.892982   2.607821
    10  O    4.803920   4.990401   4.167113   2.768987   2.347750
    11  O    4.125922   3.597985   2.330325   1.327585   2.404969
    12  O    2.341716   1.355073   2.404473   3.663875   4.182108
    13  H    1.085954   2.150700   3.402826   3.884739   3.444893
    14  H    3.423954   2.169992   1.085723   2.140752   3.442117
    15  H    2.380700   3.773791   4.566265   4.335289   3.192584
    16  H    4.420317   5.363753   5.310470   4.256609   2.918834
    17  H    5.538830   6.263749   5.886523   4.597778   3.474606
    18  H    4.420401   5.363835   5.310536   4.256654   2.918877
    19  H    4.527492   4.276941   3.152231   1.871699   2.351702
    20  H    3.159912   1.911261   2.440756   3.827289   4.631579
                    6          7          8          9         10
     6  C    0.000000
     7  O    1.359748   0.000000
     8  C    2.559968   2.906312   0.000000
     9  C    3.102476   2.729793   1.504750   0.000000
    10  O    3.669226   4.152023   1.249573   2.355516   0.000000
    11  O    3.658605   4.786857   2.817372   4.321729   2.469345
    12  O    3.614474   4.716760   5.643596   6.617661   6.327063
    13  H    2.160535   2.638091   4.716585   5.150309   5.780370
    14  H    3.885620   5.245355   4.628542   6.009147   4.786601
    15  H    1.907112   0.964753   3.861767   3.644231   5.102881
    16  H    3.089981   2.480983   2.154360   1.093414   3.088273
    17  H    4.157606   3.811093   2.111385   1.090738   2.411868
    18  H    3.090054   2.481049   2.154355   1.093412   3.088305
    19  H    3.757490   4.671003   2.197656   3.647663   1.533396
    20  H    4.313221   5.512926   6.063336   7.178683   6.586168
                   11         12         13         14         15
    11  O    0.000000
    12  O    4.734167   0.000000
    13  H    5.211197   2.546713   0.000000
    14  H    2.538891   2.701681   4.311187   0.000000
    15  H    5.542981   4.620441   2.218482   5.638100   0.000000
    16  H    4.832061   6.621230   4.953885   6.287693   3.291233
    17  H    4.752307   7.600313   6.234016   6.738480   4.708122
    18  H    4.832081   6.621319   4.953973   6.287756   3.291319
    19  H    1.010795   5.514075   5.600007   3.517971   5.529987
    20  H    4.690569   0.964937   3.494788   2.321581   5.505338
                   16         17         18         19         20
    16  H    0.000000
    17  H    1.791743   0.000000
    18  H    1.752176   1.791742   0.000000
    19  H    4.253595   3.912600   4.253583   0.000000
    20  H    7.249154   8.103739   7.249240   5.577409   0.000000
 Stoichiometry    C8H8O4
 Framework group  C1[X(C8H8O4)]
 Deg. of freedom    54
 Full point group                 C1      NOp   1
 Largest Abelian subgroup         C1      NOp   1
 Largest concise Abelian subgroup C1      NOp   1
                         Standard orientation:                         
 ---------------------------------------------------------------------
 Center     Atomic      Atomic             Coordinates (Angstroms)
 Number     Number       Type             X           Y           Z
 ---------------------------------------------------------------------
      1          6           0       -1.529278    1.247175    0.000059
      2          6           0       -2.260114    0.052631    0.000035
      3          6           0       -1.622116   -1.180327   -0.000024
      4          6           0       -0.224810   -1.229342   -0.000061
      5          6           0        0.567179   -0.033094   -0.000032
      6          6           0       -0.143834    1.197764    0.000029
      7          8           0        0.572333    2.353627    0.000057
      8          6           0        2.023660   -0.164368   -0.000055
      9          6           0        2.953472    1.018732    0.000021
     10          8           0        2.543255   -1.300790   -0.000003
     11          8           0        0.346137   -2.427883   -0.000126
     12          8           0       -3.609869    0.172569    0.000070
     13          1           0       -2.060929    2.194087    0.000102
     14          1           0       -2.173479   -2.115631   -0.000046
     15          1           0       -0.036675    3.101863    0.000121
     16          1           0        2.784518    1.650758    0.876121
     17          1           0        3.976098    0.639332    0.000052
     18          1           0        2.784589    1.650807   -0.876055
     19          1           0        1.341787   -2.253564   -0.000164
     20          1           0       -4.015716   -0.702869    0.000046
 ---------------------------------------------------------------------
 Rotational constants (GHZ):      1.5520496      0.7667849      0.5148446
 Standard basis: 6-31+G(d,p) (6D, 7F)
 There are   268 symmetry adapted cartesian basis functions of A   symmetry.
 There are   268 symmetry adapted basis functions of A   symmetry.
   268 basis functions,   440 primitive gaussians,   268 cartesian basis functions
    44 alpha electrons       44 beta electrons
       nuclear repulsion energy       698.6002325153 Hartrees.
 NAtoms=   20 NActive=   20 NUniq=   20 SFac= 1.00D+00 NAtFMM=   60 NAOKFM=F Big=F
 Integral buffers will be    131072 words long.
 Raffenetti 2 integral format.
 Two-electron integral symmetry is turned on.
 Nuclear repulsion after empirical dispersion term =      698.5907247990 Hartrees.
 One-electron integrals computed using PRISM.
 NBasis=   268 RedAO= T EigKep=  1.53D-06  NBF=   268
 NBsUse=   268 1.00D-06 EigRej= -1.00D+00 NBFU=   268
 ExpMin= 4.38D-02 ExpMax= 5.48D+03 ExpMxC= 8.25D+02 IAcc=2 IRadAn=         4 AccDes= 0.00D+00
 Harris functional with IExCor= 1009 and IRadAn=       4 diagonalized for initial guess.
 HarFok:  IExCor= 1009 AccDes= 0.00D+00 IRadAn=         4 IDoV= 1 UseB2=F ITyADJ=14
 ICtDFT=  3500011 ScaDFX=  1.000000  1.000000  1.000000  1.000000
 FoFCou: FMM=F IPFlag=           0 FMFlag=      100000 FMFlg1=           0
         NFxFlg=           0 DoJE=T BraDBF=F KetDBF=T FulRan=T
         wScrn=  0.000000 ICntrl=     500 IOpCl=  0 I1Cent=   200000004 NGrid=           0
         NMat0=    1 NMatS0=      1 NMatT0=    0 NMatD0=    1 NMtDS0=    0 NMtDT0=    0
 Petite list used in FoFCou.
 Keep J ints in memory in canonical form, NReq=659648347.
 Requested convergence on RMS density matrix=1.00D-08 within 128 cycles.
 Requested convergence on MAX density matrix=1.00D-06.
 Requested convergence on             energy=1.00D-06.
 No special actions if energy rises.
 SCF Done:  E(RPBE-PBE) =  -609.935038948     A.U. after   16 cycles
            NFock= 16  Conv=0.98D-08     -V/T= 2.0088

 **********************************************************************

            Population analysis using the SCF density.

 **********************************************************************

 Orbital symmetries:
       Occupied  (A) (A) (A) (A) (A) (A) (A) (A) (A) (A) (A) (A)
                 (A) (A) (A) (A) (A) (A) (A) (A) (A) (A) (A) (A)
                 (A) (A) (A) (A) (A) (A) (A) (A) (A) (A) (A) (A)
                 (A) (A) (A) (A) (A) (A) (A) (A)
       Virtual   (A) (A) (A) (A) (A) (A) (A) (A) (A) (A) (A) (A)
                 (A) (A) (A) (A) (A) (A) (A) (A) (A) (A) (A) (A)
                 (A) (A) (A) (A) (A) (A) (A) (A) (A) (A) (A) (A)
                 (A) (A) (A) (A) (A) (A) (A) (A) (A) (A) (A) (A)
                 (A) (A) (A) (A) (A) (A) (A) (A) (A) (A) (A) (A)
                 (A) (A) (A) (A) (A) (A) (A) (A) (A) (A) (A) (A)
                 (A) (A) (A) (A) (A) (A) (A) (A) (A) (A) (A) (A)
                 (A) (A) (A) (A) (A) (A) (A) (A) (A) (A) (A) (A)
                 (A) (A) (A) (A) (A) (A) (A) (A) (A) (A) (A) (A)
                 (A) (A) (A) (A) (A) (A) (A) (A) (A) (A) (A) (A)
                 (A) (A) (A) (A) (A) (A) (A) (A) (A) (A) (A) (A)
                 (A) (A) (A) (A) (A) (A) (A) (A) (A) (A) (A) (A)
                 (A) (A) (A) (A) (A) (A) (A) (A) (A) (A) (A) (A)
                 (A) (A) (A) (A) (A) (A) (A) (A) (A) (A) (A) (A)
                 (A) (A) (A) (A) (A) (A) (A) (A) (A) (A) (A) (A)
                 (A) (A) (A) (A) (A) (A) (A) (A) (A) (A) (A) (A)
                 (A) (A) (A) (A) (A) (A) (A) (A) (A) (A) (A) (A)
                 (A) (A) (A) (A) (A) (A) (A) (A) (A) (A) (A) (A)
                 (A) (A) (A) (A) (A) (A) (A) (A)
 The electronic state is 1-A.
 Alpha  occ. eigenvalues --  -18.83795 -18.83623 -18.79919 -18.77854  -9.99598
 Alpha  occ. eigenvalues --   -9.99182  -9.98819  -9.98287  -9.92111  -9.91218
 Alpha  occ. eigenvalues --   -9.90675  -9.89894  -1.00806  -1.00438  -0.98862
 Alpha  occ. eigenvalues --   -0.95135  -0.78755  -0.71183  -0.68684  -0.66678
 Alpha  occ. eigenvalues --   -0.60199  -0.58383  -0.54800  -0.52344  -0.47414
 Alpha  occ. eigenvalues --   -0.47076  -0.45534  -0.43172  -0.41390  -0.39935
 Alpha  occ. eigenvalues --   -0.38711  -0.38638  -0.37098  -0.36591  -0.36426
 Alpha  occ. eigenvalues --   -0.35649  -0.33837  -0.32391  -0.31963  -0.31831
 Alpha  occ. eigenvalues --   -0.26391  -0.22084  -0.21618  -0.20334
 Alpha virt. eigenvalues --   -0.08465  -0.03311  -0.03054  -0.02457  -0.00482
 Alpha virt. eigenvalues --    0.00428   0.02153   0.02587   0.02919   0.03418
 Alpha virt. eigenvalues --    0.04849   0.05390   0.06098   0.06331   0.07645
 Alpha virt. eigenvalues --    0.09029   0.09107   0.09651   0.10454   0.11249
 Alpha virt. eigenvalues --    0.11393   0.12315   0.12758   0.13142   0.13461
 Alpha virt. eigenvalues --    0.13906   0.14166   0.14890   0.15963   0.16531
 Alpha virt. eigenvalues --    0.16618   0.17728   0.18789   0.18867   0.18898
 Alpha virt. eigenvalues --    0.19311   0.19826   0.20815   0.21661   0.22116
 Alpha virt. eigenvalues --    0.22332   0.23032   0.23763   0.24529   0.24583
 Alpha virt. eigenvalues --    0.25740   0.26373   0.26947   0.27252   0.27776
 Alpha virt. eigenvalues --    0.28279   0.28915   0.29489   0.30127   0.30465
 Alpha virt. eigenvalues --    0.30524   0.31798   0.32123   0.33181   0.34525
 Alpha virt. eigenvalues --    0.35835   0.36503   0.37639   0.38732   0.39454
 Alpha virt. eigenvalues --    0.40838   0.41377   0.42442   0.44205   0.48046
 Alpha virt. eigenvalues --    0.54972   0.57303   0.60309   0.62205   0.63797
 Alpha virt. eigenvalues --    0.65305   0.66472   0.66706   0.68641   0.68888
 Alpha virt. eigenvalues --    0.69849   0.70624   0.71232   0.73194   0.75704
 Alpha virt. eigenvalues --    0.78301   0.82042   0.82642   0.84474   0.86451
 Alpha virt. eigenvalues --    0.88266   0.88893   0.94149   0.94755   0.99370
 Alpha virt. eigenvalues --    1.00338   1.02085   1.03154   1.05699   1.05828
 Alpha virt. eigenvalues --    1.08577   1.10872   1.11575   1.12031   1.12640
 Alpha virt. eigenvalues --    1.13927   1.15489   1.15631   1.16856   1.17825
 Alpha virt. eigenvalues --    1.18730   1.20065   1.22139   1.22432   1.23064
 Alpha virt. eigenvalues --    1.23986   1.25821   1.28467   1.28772   1.31056
 Alpha virt. eigenvalues --    1.32012   1.32486   1.32651   1.33002   1.33943
 Alpha virt. eigenvalues --    1.35728   1.38420   1.40536   1.42645   1.49971
 Alpha virt. eigenvalues --    1.50786   1.51158   1.54489   1.56297   1.62583
 Alpha virt. eigenvalues --    1.64088   1.64647   1.66440   1.68972   1.73083
 Alpha virt. eigenvalues --    1.75986   1.76981   1.78452   1.79908   1.81993
 Alpha virt. eigenvalues --    1.82828   1.82901   1.83236   1.84864   1.86223
 Alpha virt. eigenvalues --    1.90100   1.92164   1.95049   1.96150   1.96156
 Alpha virt. eigenvalues --    1.96471   1.98976   2.00604   2.06682   2.10208
 Alpha virt. eigenvalues --    2.12931   2.13763   2.14209   2.18686   2.23978
 Alpha virt. eigenvalues --    2.26051   2.26326   2.29876   2.31332   2.33324
 Alpha virt. eigenvalues --    2.34878   2.36775   2.37575   2.41828   2.42158
 Alpha virt. eigenvalues --    2.43478   2.45580   2.46836   2.47017   2.47842
 Alpha virt. eigenvalues --    2.50700   2.56158   2.58001   2.58429   2.63294
 Alpha virt. eigenvalues --    2.63836   2.64090   2.65696   2.66560   2.67662
 Alpha virt. eigenvalues --    2.71448   2.75746   2.78671   2.80354   2.84928
 Alpha virt. eigenvalues --    2.90453   2.94799   2.99336   3.01972   3.06532
 Alpha virt. eigenvalues --    3.11993   3.13025   3.17376   3.23297   3.33549
 Alpha virt. eigenvalues --    3.35369   3.35871   3.40173   3.42598   3.45103
 Alpha virt. eigenvalues --    3.58612   3.68819   4.14907   4.16210   4.18559
 Alpha virt. eigenvalues --    4.26018   4.30714   4.36587   4.37591   4.43199
 Alpha virt. eigenvalues --    4.59083   4.66989   4.71957   4.82490
          Condensed to atoms (all electrons):
               1          2          3          4          5          6
     1  C   14.799831  -2.651912   0.562862  -3.642029  -0.600977  -5.314384
     2  C   -2.651912   7.980546  -1.495758   2.542668  -2.261649   3.425309
     3  C    0.562862  -1.495758  14.702723  -4.518706  -1.588279  -3.140228
     4  C   -3.642029   2.542668  -4.518706  17.482639  -4.359056   1.796942
     5  C   -0.600977  -2.261649  -1.588279  -4.359056  19.964162  -4.682366
     6  C   -5.314384   3.425309  -3.140228   1.796942  -4.682366  19.465816
     7  O    0.300187  -0.012885  -0.006108   0.004847  -0.456599   0.118273
     8  C    1.902065  -0.876767   0.952641  -1.636569  -3.065758  -2.757850
     9  C   -0.362934   0.037883  -0.418729  -0.383265   0.153373  -0.224859
    10  O    0.006468  -0.001762  -0.039919  -0.182086  -0.121127  -0.118265
    11  O    0.032809  -0.018240  -0.441630   0.056129   0.511487   0.033408
    12  O   -0.260023   0.106931   0.072395  -0.006744  -0.041713   0.086755
    13  H    0.172564   0.119238   0.060234  -0.038721   0.023432  -0.023080
    14  H   -0.004357  -0.031233   0.142859   0.172256   0.035187  -0.000566
    15  H   -0.170391   0.010825  -0.000482   0.012127   0.200089  -0.046584
    16  H    0.001630   0.001787  -0.005905  -0.022863   0.049050   0.033352
    17  H    0.001829   0.000041  -0.002108  -0.023320   0.041940   0.033571
    18  H    0.001621   0.001786  -0.005902  -0.022825   0.049111   0.033307
    19  H    0.006751  -0.001015   0.226416   0.158588  -0.386576  -0.095221
    20  H    0.135652  -0.012722  -0.104654   0.013661   0.022524  -0.045371
               7          8          9         10         11         12
     1  C    0.300187   1.902065  -0.362934   0.006468   0.032809  -0.260023
     2  C   -0.012885  -0.876767   0.037883  -0.001762  -0.018240   0.106931
     3  C   -0.006108   0.952641  -0.418729  -0.039919  -0.441630   0.072395
     4  C    0.004847  -1.636569  -0.383265  -0.182086   0.056129  -0.006744
     5  C   -0.456599  -3.065758   0.153373  -0.121127   0.511487  -0.041713
     6  C    0.118273  -2.757850  -0.224859  -0.118265   0.033408   0.086755
     7  O    8.464764   0.019157  -0.090483   0.001413  -0.000645  -0.001083
     8  C    0.019157  12.701321  -1.858332   0.536870  -0.234340  -0.001876
     9  C   -0.090483  -1.858332   8.417333   0.001247  -0.066222  -0.000968
    10  O    0.001413   0.536870   0.001247   8.269807   0.000775  -0.000030
    11  O   -0.000645  -0.234340  -0.066222   0.000775   8.495511  -0.000912
    12  O   -0.001083  -0.001876  -0.000968  -0.000030  -0.000912   8.352806
    13  H   -0.020734   0.009295   0.000781   0.000025   0.000078  -0.009230
    14  H    0.000067   0.007421   0.000601   0.000101  -0.009547  -0.016487
    15  H    0.179459  -0.000600   0.013076   0.000056   0.000033  -0.000119
    16  H   -0.001447  -0.162142   0.453392   0.004144   0.000197   0.000001
    17  H   -0.000533  -0.124982   0.432230  -0.005449   0.000074  -0.000000
    18  H   -0.001446  -0.162125   0.453321   0.004148   0.000197   0.000001
    19  H   -0.000016   0.088917   0.016211   0.086535   0.132743   0.000033
    20  H    0.000056   0.003002   0.000020   0.000001  -0.000042   0.195457
              13         14         15         16         17         18
     1  C    0.172564  -0.004357  -0.170391   0.001630   0.001829   0.001621
     2  C    0.119238  -0.031233   0.010825   0.001787   0.000041   0.001786
     3  C    0.060234   0.142859  -0.000482  -0.005905  -0.002108  -0.005902
     4  C   -0.038721   0.172256   0.012127  -0.022863  -0.023320  -0.022825
     5  C    0.023432   0.035187   0.200089   0.049050   0.041940   0.049111
     6  C   -0.023080  -0.000566  -0.046584   0.033352   0.033571   0.033307
     7  O   -0.020734   0.000067   0.179459  -0.001447  -0.000533  -0.001446
     8  C    0.009295   0.007421  -0.000600  -0.162142  -0.124982  -0.162125
     9  C    0.000781   0.000601   0.013076   0.453392   0.432230   0.453321
    10  O    0.000025   0.000101   0.000056   0.004144  -0.005449   0.004148
    11  O    0.000078  -0.009547   0.000033   0.000197   0.000074   0.000197
    12  O   -0.009230  -0.016487  -0.000119   0.000001  -0.000000   0.000001
    13  H    0.569138  -0.000136   0.009981  -0.000002  -0.000000  -0.000002
    14  H   -0.000136   0.563182  -0.000001   0.000000  -0.000000   0.000000
    15  H    0.009981  -0.000001   0.410807   0.000389  -0.000034   0.000389
    16  H   -0.000002   0.000000   0.000389   0.494553  -0.023015  -0.023822
    17  H   -0.000000  -0.000000  -0.000034  -0.023015   0.502834  -0.023014
    18  H   -0.000002   0.000000   0.000389  -0.023822  -0.023014   0.494558
    19  H    0.000000   0.000093   0.000000  -0.000080   0.000014  -0.000080
    20  H   -0.000037   0.007251   0.000000   0.000000  -0.000000   0.000000
              19         20
     1  C    0.006751   0.135652
     2  C   -0.001015  -0.012722
     3  C    0.226416  -0.104654
     4  C    0.158588   0.013661
     5  C   -0.386576   0.022524
     6  C   -0.095221  -0.045371
     7  O   -0.000016   0.000056
     8  C    0.088917   0.003002
     9  C    0.016211   0.000020
    10  O    0.086535   0.000001
    11  O    0.132743  -0.000042
    12  O    0.000033   0.195457
    13  H    0.000000  -0.000037
    14  H    0.000093   0.007251
    15  H    0.000000   0.000000
    16  H   -0.000080   0.000000
    17  H    0.000014  -0.000000
    18  H   -0.000080   0.000000
    19  H    0.342279   0.000000
    20  H    0.000000   0.423335
 Mulliken charges:
               1
     1  C    1.082739
     2  C   -0.863070
     3  C    1.048278
     4  C   -1.403670
     5  C    2.513746
     6  C   -2.577958
     7  O   -0.496245
     8  C    0.660651
     9  C   -0.573675
    10  O   -0.442953
    11  O   -0.491863
    12  O   -0.475195
    13  H    0.127176
    14  H    0.133308
    15  H    0.380979
    16  H    0.200780
    17  H    0.189921
    18  H    0.200776
    19  H    0.424409
    20  H    0.361868
 Sum of Mulliken charges =  -0.00000
 Mulliken charges with hydrogens summed into heavy atoms:
               1
     1  C    1.209915
     2  C   -0.863070
     3  C    1.181586
     4  C   -1.403670
     5  C    2.513746
     6  C   -2.577958
     7  O   -0.115266
     8  C    0.660651
     9  C    0.017802
    10  O   -0.442953
    11  O   -0.067455
    12  O   -0.113327
 Electronic spatial extent (au):  <R**2>=           2067.4253
 Charge=             -0.0000 electrons
 Dipole moment (field-independent basis, Debye):
    X=             -2.4056    Y=              3.0088    Z=              0.0000  Tot=              3.8522
 Quadrupole moment (field-independent basis, Debye-Ang):
   XX=            -66.6514   YY=            -65.6164   ZZ=            -71.9070
   XY=              8.5147   XZ=             -0.0002   YZ=              0.0006
 Traceless Quadrupole moment (field-independent basis, Debye-Ang):
   XX=              1.4069   YY=              2.4419   ZZ=             -3.8487
   XY=              8.5147   XZ=             -0.0002   YZ=              0.0006
 Octapole moment (field-independent basis, Debye-Ang**2):
  XXX=            -34.3278  YYY=             42.4191  ZZZ=              0.0001  XYY=            -18.4049
  XXY=            -16.0855  XXZ=             -0.0008  XZZ=              4.7437  YZZ=             -0.4008
  YYZ=              0.0020  XYZ=              0.0005
 Hexadecapole moment (field-independent basis, Debye-Ang**3):
 XXXX=          -1610.3319 YYYY=           -766.2336 ZZZZ=            -83.2839 XXXY=            156.5641
 XXXZ=              0.0095 YYYX=            -30.0945 YYYZ=             -0.0078 ZZZX=              0.0082
 ZZZY=             -0.0142 XXYY=           -409.0368 XXZZ=           -306.4698 YYZZ=           -160.6614
 XXYZ=             -0.0043 YYXZ=             -0.0000 ZZXY=             -0.1012
 N-N= 6.985907247990D+02 E-N=-2.822548575702D+03  KE= 6.046364448550D+02
 Calling FoFJK, ICntrl=      2527 FMM=F ISym2X=0 I1Cent= 0 IOpClX= 0 NMat=1 NMatS=1 NMatT=0.
 ***** Axes restored to original set *****
 -------------------------------------------------------------------
 Center     Atomic                   Forces (Hartrees/Bohr)
 Number     Number              X              Y              Z
 -------------------------------------------------------------------
      1        6          -0.002181204    0.001684273    0.000000637
      2        6           0.000719314   -0.000319171   -0.000000082
      3        6          -0.000462396   -0.002459689    0.000000069
      4        6          -0.001617294    0.001982128   -0.000000135
      5        6           0.004604427    0.001752035   -0.000004080
      6        6          -0.000771239   -0.001030970   -0.000001332
      7        8           0.012571022    0.001009418   -0.000000591
      8        6          -0.007035900    0.012986484    0.000015148
      9        6          -0.000481636   -0.000821678   -0.000003304
     10        8           0.009749135   -0.018396935   -0.000008081
     11        8          -0.006149036   -0.013053289   -0.000002855
     12        8          -0.006426843    0.010874735    0.000000538
     13        1          -0.002737307    0.004754741    0.000000366
     14        1          -0.002739815   -0.004703684   -0.000000140
     15        1          -0.006589270    0.007488293    0.000000452
     16        1          -0.000805433    0.003388382    0.004034191
     17        1           0.004938791   -0.001614021   -0.000000095
     18        1          -0.000804387    0.003390732   -0.004035011
     19        1           0.010103390    0.002394764    0.000004556
     20        1          -0.003884321   -0.009306548   -0.000000251
 -------------------------------------------------------------------
 Cartesian Forces:  Max     0.018396935 RMS     0.005289739

 GradGradGradGradGradGradGradGradGradGradGradGradGradGradGradGradGradGrad
 Berny optimization.
 FormGI is forming the generalized inverse of G from B-inverse, IUseBI=4.
 Internal  Forces:  Max     0.020784019 RMS     0.004453524
 Search for a local minimum.
 Step number   1 out of a maximum of  100
 All quantities printed in internal units (Hartrees-Bohrs-Radians)
 Mixed Optimization -- RFO/linear search
 Second derivative matrix not updated -- first step.
 ITU=  0
     Eigenvalues ---    0.00703   0.00934   0.01264   0.01596   0.01779
     Eigenvalues ---    0.01985   0.02064   0.02104   0.02150   0.02184
     Eigenvalues ---    0.02185   0.02213   0.02224   0.02286   0.02650
     Eigenvalues ---    0.07307   0.07496   0.16000   0.16000   0.16000
     Eigenvalues ---    0.16000   0.16000   0.16000   0.16000   0.16000
     Eigenvalues ---    0.23478   0.23498   0.25000   0.25000   0.25000
     Eigenvalues ---    0.25000   0.25000   0.25000   0.25000   0.31884
     Eigenvalues ---    0.34421   0.34421   0.34728   0.35284   0.35312
     Eigenvalues ---    0.36667   0.38825   0.40618   0.43684   0.44924
     Eigenvalues ---    0.45840   0.46758   0.47509   0.52998   0.53956
     Eigenvalues ---    0.54425   0.54464   0.60080   0.83395
 RFO step:  Lambda=-3.45730807D-03 EMin= 7.03109463D-03
 Linear search not attempted -- first point.
 Iteration  1 RMS(Cart)=  0.01888686 RMS(Int)=  0.00003450
 Iteration  2 RMS(Cart)=  0.00009074 RMS(Int)=  0.00000139
 Iteration  3 RMS(Cart)=  0.00000001 RMS(Int)=  0.00000139
 Variable       Old X    -DE/DX   Delta X   Delta X   Delta X     New X
                                 (Linear)    (Quad)   (Total)
    R1        2.64633   0.00787   0.00000   0.01721   0.01721   2.66354
    R2        2.61977   0.00945   0.00000   0.01960   0.01960   2.63938
    R3        2.05215   0.00549   0.00000   0.01540   0.01540   2.06755
    R4        2.62340   0.00915   0.00000   0.01911   0.01911   2.64251
    R5        2.56072   0.01041   0.00000   0.01917   0.01917   2.57989
    R6        2.64215   0.00827   0.00000   0.01783   0.01783   2.65998
    R7        2.05172   0.00544   0.00000   0.01527   0.01527   2.06699
    R8        2.71112   0.01006   0.00000   0.02465   0.02466   2.73577
    R9        2.50877   0.01132   0.00000   0.01874   0.01874   2.52751
   R10        2.68617   0.00858   0.00000   0.02012   0.02012   2.70630
   R11        2.76351   0.00563   0.00000   0.01522   0.01522   2.77872
   R12        2.56955   0.01037   0.00000   0.01944   0.01944   2.58900
   R13        1.82312   0.00997   0.00000   0.01819   0.01819   1.84131
   R14        2.84357   0.00518   0.00000   0.01607   0.01607   2.85963
   R15        2.36135   0.02078   0.00000   0.02482   0.02482   2.38617
   R16        2.06625   0.00532   0.00000   0.01529   0.01529   2.08154
   R17        2.06120   0.00519   0.00000   0.01480   0.01480   2.07600
   R18        2.06625   0.00532   0.00000   0.01530   0.01530   2.08155
   R19        1.91013   0.01037   0.00000   0.02245   0.02245   1.93257
   R20        1.82347   0.01008   0.00000   0.01840   0.01840   1.84187
    A1        2.08421   0.00048   0.00000   0.00226   0.00226   2.08647
    A2        2.08094  -0.00030   0.00000  -0.00151  -0.00151   2.07943
    A3        2.11804  -0.00018   0.00000  -0.00075  -0.00075   2.11729
    A4        2.11502  -0.00068   0.00000  -0.00261  -0.00262   2.11240
    A5        2.03123  -0.00013   0.00000  -0.00054  -0.00054   2.03069
    A6        2.13694   0.00081   0.00000   0.00316   0.00316   2.14009
    A7        2.08337   0.00069   0.00000   0.00296   0.00296   2.08633
    A8        2.13142  -0.00031   0.00000  -0.00129  -0.00129   2.13012
    A9        2.06840  -0.00038   0.00000  -0.00167  -0.00167   2.06673
   A10        2.12054  -0.00016   0.00000  -0.00092  -0.00092   2.11962
   A11        2.05042  -0.00060   0.00000  -0.00222  -0.00222   2.04820
   A12        2.11222   0.00076   0.00000   0.00314   0.00314   2.11536
   A13        2.03296  -0.00045   0.00000  -0.00207  -0.00206   2.03089
   A14        2.06572   0.00163   0.00000   0.00658   0.00658   2.07230
   A15        2.18451  -0.00118   0.00000  -0.00451  -0.00452   2.18000
   A16        2.13027   0.00012   0.00000   0.00037   0.00037   2.13065
   A17        2.08985   0.00037   0.00000   0.00150   0.00150   2.09135
   A18        2.06306  -0.00049   0.00000  -0.00188  -0.00188   2.06118
   A19        1.90372  -0.00070   0.00000  -0.00429  -0.00429   1.89942
   A20        2.14700  -0.00194   0.00000  -0.00765  -0.00765   2.13935
   A21        2.08953   0.00241   0.00000   0.00950   0.00950   2.09902
   A22        2.04666  -0.00047   0.00000  -0.00185  -0.00185   2.04481
   A23        1.93803   0.00025   0.00000   0.00122   0.00122   1.93925
   A24        1.88162   0.00027   0.00000   0.00225   0.00225   1.88387
   A25        1.93802   0.00025   0.00000   0.00124   0.00124   1.93926
   A26        1.92400  -0.00015   0.00000  -0.00034  -0.00034   1.92366
   A27        1.85874  -0.00048   0.00000  -0.00410  -0.00410   1.85464
   A28        1.92400  -0.00015   0.00000  -0.00034  -0.00034   1.92366
   A29        1.84204  -0.00118   0.00000  -0.00721  -0.00721   1.83483
   A30        1.91627  -0.00071   0.00000  -0.00437  -0.00437   1.91190
    D1       -0.00000   0.00000   0.00000   0.00002   0.00002   0.00001
    D2        3.14159   0.00000   0.00000   0.00001   0.00001  -3.14159
    D3        3.14159   0.00000   0.00000   0.00000   0.00000   3.14159
    D4       -0.00000  -0.00000   0.00000  -0.00001  -0.00001  -0.00001
    D5        0.00001  -0.00000   0.00000  -0.00001  -0.00001  -0.00001
    D6       -3.14159  -0.00000   0.00000  -0.00003  -0.00003   3.14156
    D7       -3.14159   0.00000   0.00000   0.00000   0.00000  -3.14159
    D8        0.00000  -0.00000   0.00000  -0.00002  -0.00002  -0.00001
    D9       -0.00000   0.00000   0.00000   0.00000   0.00000   0.00000
   D10       -3.14159  -0.00000   0.00000  -0.00003  -0.00003   3.14157
   D11        3.14159   0.00000   0.00000   0.00001   0.00001  -3.14158
   D12        0.00000  -0.00000   0.00000  -0.00002  -0.00002  -0.00001
   D13        3.14159   0.00000   0.00000   0.00001   0.00001  -3.14159
   D14       -0.00000  -0.00000   0.00000  -0.00000  -0.00000  -0.00001
   D15        0.00001  -0.00000   0.00000  -0.00003  -0.00003  -0.00002
   D16       -3.14159  -0.00000   0.00000  -0.00007  -0.00007   3.14153
   D17       -3.14159  -0.00000   0.00000  -0.00000  -0.00000  -3.14159
   D18        0.00000  -0.00000   0.00000  -0.00004  -0.00004  -0.00004
   D19       -0.00001   0.00000   0.00000   0.00003   0.00003   0.00003
   D20        3.14158   0.00000   0.00000   0.00008   0.00008  -3.14153
   D21        3.14159   0.00000   0.00000   0.00008   0.00008  -3.14152
   D22       -0.00002   0.00000   0.00000   0.00012   0.00012   0.00010
   D23        3.14157   0.00001   0.00000   0.00017   0.00017  -3.14144
   D24       -0.00002   0.00000   0.00000   0.00013   0.00013   0.00011
   D25       -0.00000  -0.00000   0.00000  -0.00001  -0.00001  -0.00001
   D26       -3.14159   0.00000   0.00000   0.00001   0.00001  -3.14158
   D27       -3.14158  -0.00000   0.00000  -0.00006  -0.00006   3.14155
   D28        0.00001  -0.00000   0.00000  -0.00004  -0.00004  -0.00003
   D29       -3.14155  -0.00000   0.00000  -0.00008  -0.00009   3.14155
   D30       -0.00009   0.00000   0.00000   0.00035   0.00035   0.00027
   D31        0.00003   0.00000   0.00000  -0.00004  -0.00004  -0.00001
   D32        3.14149   0.00001   0.00000   0.00040   0.00040  -3.14129
   D33        0.00003   0.00000   0.00000   0.00000   0.00000   0.00003
   D34       -3.14157  -0.00000   0.00000  -0.00002  -0.00002  -3.14158
   D35        1.03223  -0.00013   0.00000  -0.00154  -0.00154   1.03069
   D36        3.14153   0.00000   0.00000   0.00022   0.00022  -3.14143
   D37       -1.03236   0.00014   0.00000   0.00199   0.00200  -1.03037
   D38       -2.10924  -0.00014   0.00000  -0.00197  -0.00197  -2.11120
   D39        0.00006  -0.00000   0.00000  -0.00020  -0.00020  -0.00014
   D40        2.10935   0.00013   0.00000   0.00157   0.00157   2.11092
         Item               Value     Threshold  Converged?
 Maximum Force            0.020784     0.000450     NO 
 RMS     Force            0.004454     0.000300     NO 
 Maximum Displacement     0.068147     0.001800     NO 
 RMS     Displacement     0.018910     0.001200     NO 
 Predicted change in Energy=-1.741304D-03
 GradGradGradGradGradGradGradGradGradGradGradGradGradGradGradGradGradGrad

                          Input orientation:                          
 ---------------------------------------------------------------------
 Center     Atomic      Atomic             Coordinates (Angstroms)
 Number     Number       Type             X           Y           Z
 ---------------------------------------------------------------------
      1          6           0       -1.534578    1.252584    0.000067
      2          6           0       -2.275401    0.053489   -0.000012
      3          6           0       -1.634919   -1.189567   -0.000054
      4          6           0       -0.228433   -1.245529   -0.000013
      5          6           0        0.575325   -0.041438    0.000042
      6          6           0       -0.138875    1.199874    0.000089
      7          8           0        0.586902    2.361877    0.000132
      8          6           0        2.040188   -0.169345    0.000004
      9          6           0        2.962784    1.030135   -0.000002
     10          8           0        2.579317   -1.311172   -0.000365
     11          8           0        0.338404   -2.456977    0.000021
     12          8           0       -3.634651    0.180987   -0.000036
     13          1           0       -2.067499    2.208121    0.000098
     14          1           0       -2.193240   -2.130142   -0.000095
     15          1           0       -0.028702    3.117153    0.000169
     16          1           0        2.785842    1.666751    0.881319
     17          1           0        3.997518    0.661108   -0.000198
     18          1           0        2.785583    1.666958   -0.881123
     19          1           0        1.345704   -2.280322    0.000196
     20          1           0       -4.045062   -0.703069   -0.000091
 ---------------------------------------------------------------------
                    Distance matrix (angstroms):
                    1          2          3          4          5
     1  C    0.000000
     2  C    1.409484   0.000000
     3  C    2.444212   1.398358   0.000000
     4  C    2.818969   2.424361   1.407599   0.000000
     5  C    2.475113   2.852306   2.490659   1.447710   0.000000
     6  C    1.396698   2.424652   2.819145   2.447043   1.432110
     7  O    2.393995   3.677150   4.189182   3.698398   2.403343
     8  C    3.847186   4.321338   3.814088   2.510939   1.470437
     9  C    4.502860   5.328453   5.105482   3.919504   2.616912
    10  O    4.847368   5.042874   4.215990   2.808517   2.372384
    11  O    4.155587   3.624143   2.345279   1.337501   2.427130
    12  O    2.357674   1.365217   2.424324   3.692867   4.215848
    13  H    1.094101   2.164639   3.425115   3.912782   3.470596
    14  H    3.446254   2.185176   1.093802   2.154764   3.468089
    15  H    2.396724   3.799170   4.596496   4.367252   3.215828
    16  H    4.428789   5.384751   5.336525   4.282987   2.929324
    17  H    5.563626   6.302278   5.928688   4.636154   3.493561
    18  H    4.428544   5.384533   5.336371   4.282899   2.929216
    19  H    4.558229   4.308024   3.173934   1.883800   2.367718
    20  H    3.182311   1.924599   2.458754   3.854987   4.667519
                    6          7          8          9         10
     6  C    0.000000
     7  O    1.370038   0.000000
     8  C    2.573534   2.918754   0.000000
     9  C    3.106300   2.723665   1.513253   0.000000
    10  O    3.700530   4.178637   1.262707   2.372502   0.000000
    11  O    3.687866   4.825257   2.851198   4.364323   2.516854
    12  O    3.641233   4.751609   5.685643   6.651857   6.390613
    13  H    2.176270   2.658850   4.746097   5.166372   5.829093
    14  H    3.912726   5.282748   4.665473   6.047473   4.842314
    15  H    1.920442   0.974377   3.883475   3.647552   5.139244
    16  H    3.090067   2.468811   2.168862   1.101506   3.112562
    17  H    4.171333   3.811157   2.126215   1.098569   2.429235
    18  H    3.089848   2.468547   2.168872   1.101507   3.112481
    19  H    3.783615   4.703806   2.222282   3.684301   1.568774
    20  H    4.345053   5.554186   6.108612   7.218996   6.652231
                   11         12         13         14         15
    11  O    0.000000
    12  O    4.769069   0.000000
    13  H    5.248953   2.562272   0.000000
    14  H    2.552654   2.723781   4.340085   0.000000
    15  H    5.586206   4.650155   2.232271   5.676208   0.000000
    16  H    4.875630   6.648836   4.962313   6.323333   3.286602
    17  H    4.807448   7.647255   6.259207   6.790917   4.716206
    18  H    4.875647   6.648596   4.962037   6.323200   3.286327
    19  H    1.022672   5.555355   5.638801   3.542129   5.569716
    20  H    4.721331   0.974675   3.519344   2.337902   5.543036
                   16         17         18         19         20
    16  H    0.000000
    17  H    1.804591   0.000000
    18  H    1.762442   1.804590   0.000000
    19  H    4.292990   3.960319   4.293134   0.000000
    20  H    7.283830   8.157455   7.283609   5.616768   0.000000
 Stoichiometry    C8H8O4
 Framework group  C1[X(C8H8O4)]
 Deg. of freedom    54
 Full point group                 C1      NOp   1
 Largest Abelian subgroup         C1      NOp   1
 Largest concise Abelian subgroup C1      NOp   1
                         Standard orientation:                         
 ---------------------------------------------------------------------
 Center     Atomic      Atomic             Coordinates (Angstroms)
 Number     Number       Type             X           Y           Z
 ---------------------------------------------------------------------
      1          6           0       -1.535773    1.255911    0.000079
      2          6           0       -2.276935    0.057026   -0.000001
      3          6           0       -1.636806   -1.186211   -0.000043
      4          6           0       -0.230336   -1.242572   -0.000002
      5          6           0        0.573764   -0.038708    0.000054
      6          6           0       -0.140085    1.202806    0.000100
      7          8           0        0.586021    2.364603    0.000144
      8          6           0        2.038590   -0.167030    0.000015
      9          6           0        2.961526    1.032187    0.000009
     10          8           0        2.577395   -1.309011   -0.000354
     11          8           0        0.336158   -2.454180    0.000032
     12          8           0       -3.636149    0.184910   -0.000025
     13          1           0       -2.068423    2.211600    0.000109
     14          1           0       -2.195394   -2.126628   -0.000084
     15          1           0       -0.029368    3.120054    0.000181
     16          1           0        2.784765    1.668853    0.881330
     17          1           0        3.996155    0.662867   -0.000187
     18          1           0        2.784506    1.669061   -0.881111
     19          1           0        1.343507   -2.277811    0.000207
     20          1           0       -4.046811   -0.699030   -0.000080
 ---------------------------------------------------------------------
 Rotational constants (GHZ):      1.5280354      0.7556655      0.5072081
 Standard basis: 6-31+G(d,p) (6D, 7F)
 There are   268 symmetry adapted cartesian basis functions of A   symmetry.
 There are   268 symmetry adapted basis functions of A   symmetry.
   268 basis functions,   440 primitive gaussians,   268 cartesian basis functions
    44 alpha electrons       44 beta electrons
       nuclear repulsion energy       693.3136237291 Hartrees.
 NAtoms=   20 NActive=   20 NUniq=   20 SFac= 1.00D+00 NAtFMM=   60 NAOKFM=F Big=F
 Integral buffers will be    131072 words long.
 Raffenetti 2 integral format.
 Two-electron integral symmetry is turned on.
 Nuclear repulsion after empirical dispersion term =      693.3041077815 Hartrees.
 One-electron integrals computed using PRISM.
 NBasis=   268 RedAO= T EigKep=  1.61D-06  NBF=   268
 NBsUse=   268 1.00D-06 EigRej= -1.00D+00 NBFU=   268
 Initial guess from the checkpoint file:  "pbeD3THAP.chk"
 B after Tr=    -0.000000   -0.000000   -0.000000
         Rot=    1.000000   -0.000005   -0.000003    0.000546 Ang=  -0.06 deg.
 ExpMin= 4.38D-02 ExpMax= 5.48D+03 ExpMxC= 8.25D+02 IAcc=2 IRadAn=         4 AccDes= 0.00D+00
 Harris functional with IExCor= 1009 and IRadAn=       4 diagonalized for initial guess.
 HarFok:  IExCor= 1009 AccDes= 0.00D+00 IRadAn=         4 IDoV= 1 UseB2=F ITyADJ=14
 ICtDFT=  3500011 ScaDFX=  1.000000  1.000000  1.000000  1.000000
 FoFCou: FMM=F IPFlag=           0 FMFlag=      100000 FMFlg1=           0
         NFxFlg=           0 DoJE=T BraDBF=F KetDBF=T FulRan=T
         wScrn=  0.000000 ICntrl=     500 IOpCl=  0 I1Cent=   200000004 NGrid=           0
         NMat0=    1 NMatS0=      1 NMatT0=    0 NMatD0=    1 NMtDS0=    0 NMtDT0=    0
 Petite list used in FoFCou.
 Keep J ints in memory in canonical form, NReq=659648347.
 Requested convergence on RMS density matrix=1.00D-08 within 128 cycles.
 Requested convergence on MAX density matrix=1.00D-06.
 Requested convergence on             energy=1.00D-06.
 No special actions if energy rises.
 SCF Done:  E(RPBE-PBE) =  -609.936593821     A.U. after   13 cycles
            NFock= 13  Conv=0.54D-08     -V/T= 2.0095
 Calling FoFJK, ICntrl=      2527 FMM=F ISym2X=0 I1Cent= 0 IOpClX= 0 NMat=1 NMatS=1 NMatT=0.
 ***** Axes restored to original set *****
 -------------------------------------------------------------------
 Center     Atomic                   Forces (Hartrees/Bohr)
 Number     Number              X              Y              Z
 -------------------------------------------------------------------
      1        6           0.000015552   -0.000275595   -0.000001134
      2        6           0.002584264   -0.000648258   -0.000000154
      3        6           0.000734189    0.000005299   -0.000001125
      4        6          -0.001380146    0.003391097    0.000004273
      5        6           0.001253988   -0.000372980    0.000008960
      6        6          -0.001969617   -0.001935676    0.000001654
      7        8           0.001708123    0.000675240    0.000001871
      8        6          -0.002115943    0.002649025   -0.000038315
      9        6           0.000191940   -0.000693333    0.000007493
     10        8          -0.002721403   -0.003713369    0.000027148
     11        8           0.001440903   -0.001322209    0.000009619
     12        8          -0.001204298    0.001781050    0.000000098
     13        1           0.000072924   -0.000015754   -0.000000269
     14        1           0.000039716    0.000012949    0.000000272
     15        1          -0.001123897    0.000186295   -0.000000236
     16        1          -0.000057508    0.000025117    0.000064694
     17        1           0.000005665   -0.000141168    0.000000761
     18        1          -0.000058773    0.000021467   -0.000063972
     19        1           0.002276586    0.001379055   -0.000021552
     20        1           0.000307733   -0.001008251   -0.000000087
 -------------------------------------------------------------------
 Cartesian Forces:  Max     0.003713369 RMS     0.001190406

 GradGradGradGradGradGradGradGradGradGradGradGradGradGradGradGradGradGrad
 Berny optimization.
 Using GEDIIS/GDIIS optimizer.
 FormGI is forming the generalized inverse of G from B-inverse, IUseBI=4.
 Internal  Forces:  Max     0.009558700 RMS     0.002050740
 Search for a local minimum.
 Step number   2 out of a maximum of  100
 All quantities printed in internal units (Hartrees-Bohrs-Radians)
 Mixed Optimization -- RFO/linear search
 Update second derivatives using D2CorX and points    1    2
 DE= -1.55D-03 DEPred=-1.74D-03 R= 8.93D-01
 TightC=F SS=  1.41D+00  RLast= 8.55D-02 DXNew= 5.0454D-01 2.5661D-01
 Trust test= 8.93D-01 RLast= 8.55D-02 DXMaxT set to 3.00D-01
 ITU=  1  0
 Use linear search instead of GDIIS.
     Eigenvalues ---    0.00703   0.00935   0.01264   0.01595   0.01779
     Eigenvalues ---    0.01985   0.02064   0.02105   0.02150   0.02184
     Eigenvalues ---    0.02185   0.02213   0.02224   0.02286   0.02650
     Eigenvalues ---    0.07297   0.07470   0.15528   0.16000   0.16000
     Eigenvalues ---    0.16000   0.16000   0.16000   0.16000   0.16007
     Eigenvalues ---    0.21657   0.23525   0.23549   0.25000   0.25000
     Eigenvalues ---    0.25000   0.25000   0.25000   0.25130   0.32105
     Eigenvalues ---    0.34421   0.34521   0.34784   0.35294   0.35324
     Eigenvalues ---    0.37274   0.39697   0.40845   0.43746   0.45160
     Eigenvalues ---    0.46497   0.46777   0.50769   0.53350   0.54147
     Eigenvalues ---    0.54445   0.58912   0.62417   0.82243
 RFO step:  Lambda=-1.16000336D-03 EMin= 7.03109476D-03
 Quartic linear search produced a step of -0.08323.
 Iteration  1 RMS(Cart)=  0.03951336 RMS(Int)=  0.00040487
 Iteration  2 RMS(Cart)=  0.00101164 RMS(Int)=  0.00000200
 Iteration  3 RMS(Cart)=  0.00000049 RMS(Int)=  0.00000198
 Variable       Old X    -DE/DX   Delta X   Delta X   Delta X     New X
                                 (Linear)    (Quad)   (Total)
    R1        2.66354  -0.00018  -0.00143   0.00711   0.00567   2.66921
    R2        2.63938  -0.00070  -0.00163   0.00696   0.00532   2.64470
    R3        2.06755  -0.00005  -0.00128   0.00627   0.00499   2.07254
    R4        2.64251  -0.00026  -0.00159   0.00764   0.00605   2.64857
    R5        2.57989   0.00096  -0.00160   0.00963   0.00803   2.58792
    R6        2.65998  -0.00186  -0.00148   0.00361   0.00213   2.66211
    R7        2.06699  -0.00003  -0.00127   0.00626   0.00499   2.07198
    R8        2.73577  -0.00545  -0.00205  -0.00242  -0.00447   2.73130
    R9        2.52751   0.00152  -0.00156   0.01014   0.00858   2.53609
   R10        2.70630  -0.00097  -0.00167   0.00611   0.00443   2.71073
   R11        2.77872  -0.00458  -0.00127  -0.00508  -0.00634   2.77238
   R12        2.58900   0.00104  -0.00162   0.00990   0.00828   2.59728
   R13        1.84131   0.00086  -0.00151   0.00902   0.00751   1.84881
   R14        2.85963  -0.00057  -0.00134   0.00503   0.00369   2.86332
   R15        2.38617   0.00220  -0.00207   0.01279   0.01072   2.39689
   R16        2.08154   0.00008  -0.00127   0.00655   0.00528   2.08683
   R17        2.07600   0.00005  -0.00123   0.00629   0.00505   2.08105
   R18        2.08155   0.00007  -0.00127   0.00655   0.00528   2.08682
   R19        1.93257   0.00248  -0.00187   0.01430   0.01243   1.94500
   R20        1.84187   0.00079  -0.00153   0.00900   0.00746   1.84933
    A1        2.08647  -0.00033  -0.00019   0.00063   0.00044   2.08690
    A2        2.07943   0.00022   0.00013  -0.00014  -0.00002   2.07941
    A3        2.11729   0.00011   0.00006  -0.00048  -0.00042   2.11688
    A4        2.11240   0.00052   0.00022   0.00184   0.00205   2.11446
    A5        2.03069  -0.00049   0.00005  -0.00253  -0.00249   2.02820
    A6        2.14009  -0.00003  -0.00026   0.00070   0.00043   2.14053
    A7        2.08633  -0.00155  -0.00025  -0.00492  -0.00517   2.08117
    A8        2.13012   0.00080   0.00011   0.00271   0.00281   2.13294
    A9        2.06673   0.00074   0.00014   0.00221   0.00235   2.06908
   A10        2.11962   0.00130   0.00008   0.00372   0.00380   2.12342
   A11        2.04820   0.00457   0.00018   0.01608   0.01626   2.06446
   A12        2.11536  -0.00587  -0.00026  -0.01980  -0.02006   2.09530
   A13        2.03089   0.00151   0.00017   0.00387   0.00404   2.03493
   A14        2.07230  -0.00956  -0.00055  -0.03176  -0.03230   2.03999
   A15        2.18000   0.00805   0.00038   0.02789   0.02826   2.20826
   A16        2.13065  -0.00146  -0.00003  -0.00513  -0.00516   2.12549
   A17        2.09135   0.00008  -0.00013   0.00091   0.00078   2.09214
   A18        2.06118   0.00137   0.00016   0.00422   0.00438   2.06556
   A19        1.89942  -0.00139   0.00036  -0.00965  -0.00930   1.89013
   A20        2.13935   0.00435   0.00064   0.01269   0.01333   2.15268
   A21        2.09902  -0.00700  -0.00079  -0.02161  -0.02240   2.07663
   A22        2.04481   0.00265   0.00015   0.00891   0.00907   2.05388
   A23        1.93925  -0.00003  -0.00010   0.00037   0.00027   1.93952
   A24        1.88387  -0.00017  -0.00019  -0.00007  -0.00026   1.88362
   A25        1.93926  -0.00003  -0.00010   0.00035   0.00024   1.93950
   A26        1.92366   0.00010   0.00003   0.00038   0.00040   1.92407
   A27        1.85464   0.00004   0.00034  -0.00139  -0.00105   1.85359
   A28        1.92366   0.00010   0.00003   0.00038   0.00041   1.92407
   A29        1.83483  -0.00187   0.00060  -0.01356  -0.01296   1.82187
   A30        1.91190  -0.00130   0.00036  -0.00917  -0.00881   1.90310
    D1        0.00001  -0.00000  -0.00000  -0.00007  -0.00008  -0.00006
    D2       -3.14159  -0.00000  -0.00000  -0.00003  -0.00003   3.14157
    D3        3.14159  -0.00000  -0.00000  -0.00001  -0.00001   3.14158
    D4       -0.00001   0.00000   0.00000   0.00003   0.00003   0.00002
    D5       -0.00001   0.00000   0.00000   0.00003   0.00003   0.00002
    D6        3.14156   0.00000   0.00000   0.00013   0.00013  -3.14149
    D7       -3.14159  -0.00000  -0.00000  -0.00003  -0.00004   3.14156
    D8       -0.00001   0.00000   0.00000   0.00007   0.00007   0.00006
    D9        0.00000  -0.00000  -0.00000  -0.00000  -0.00000   0.00000
   D10        3.14157   0.00000   0.00000   0.00012   0.00012  -3.14149
   D11       -3.14158  -0.00000  -0.00000  -0.00005  -0.00005   3.14155
   D12       -0.00001   0.00000   0.00000   0.00007   0.00007   0.00006
   D13       -3.14159  -0.00000  -0.00000  -0.00002  -0.00002   3.14157
   D14       -0.00001   0.00000   0.00000   0.00002   0.00002   0.00002
   D15       -0.00002   0.00000   0.00000   0.00012   0.00013   0.00010
   D16        3.14153   0.00001   0.00001   0.00034   0.00035  -3.14130
   D17       -3.14159   0.00000   0.00000   0.00001   0.00001  -3.14159
   D18       -0.00004   0.00001   0.00000   0.00023   0.00023   0.00019
   D19        0.00003  -0.00000  -0.00000  -0.00016  -0.00017  -0.00014
   D20       -3.14153  -0.00001  -0.00001  -0.00033  -0.00033   3.14132
   D21       -3.14152  -0.00001  -0.00001  -0.00039  -0.00040   3.14126
   D22        0.00010  -0.00001  -0.00001  -0.00056  -0.00056  -0.00046
   D23       -3.14144  -0.00002  -0.00001  -0.00074  -0.00075   3.14099
   D24        0.00011  -0.00002  -0.00001  -0.00052  -0.00053  -0.00042
   D25       -0.00001   0.00000   0.00000   0.00009   0.00009   0.00008
   D26       -3.14158  -0.00000  -0.00000  -0.00001  -0.00001   3.14159
   D27        3.14155   0.00000   0.00000   0.00026   0.00027  -3.14137
   D28       -0.00003   0.00000   0.00000   0.00016   0.00017   0.00014
   D29        3.14155  -0.00000   0.00001   0.00006   0.00006  -3.14158
   D30        0.00027  -0.00002  -0.00003  -0.00120  -0.00122  -0.00095
   D31       -0.00001  -0.00000   0.00000  -0.00012  -0.00012  -0.00013
   D32       -3.14129  -0.00002  -0.00003  -0.00137  -0.00140   3.14049
   D33        0.00003  -0.00000  -0.00000  -0.00006  -0.00006  -0.00003
   D34       -3.14158   0.00000   0.00000   0.00004   0.00004  -3.14154
   D35        1.03069  -0.00000   0.00013  -0.00130  -0.00117   1.02952
   D36       -3.14143  -0.00001  -0.00002  -0.00065  -0.00068   3.14107
   D37       -1.03037  -0.00001  -0.00017  -0.00002  -0.00019  -1.03056
   D38       -2.11120   0.00001   0.00016  -0.00009   0.00008  -2.11112
   D39       -0.00014   0.00001   0.00002   0.00056   0.00058   0.00043
   D40        2.11092   0.00000  -0.00013   0.00119   0.00107   2.11199
         Item               Value     Threshold  Converged?
 Maximum Force            0.009559     0.000450     NO 
 RMS     Force            0.002051     0.000300     NO 
 Maximum Displacement     0.150548     0.001800     NO 
 RMS     Displacement     0.040295     0.001200     NO 
 Predicted change in Energy=-5.977591D-04
 GradGradGradGradGradGradGradGradGradGradGradGradGradGradGradGradGradGrad

                          Input orientation:                          
 ---------------------------------------------------------------------
 Center     Atomic      Atomic             Coordinates (Angstroms)
 Number     Number       Type             X           Y           Z
 ---------------------------------------------------------------------
      1          6           0       -1.555916    1.259623    0.000058
      2          6           0       -2.284276    0.049413    0.000159
      3          6           0       -1.630410   -1.190278    0.000054
      4          6           0       -0.222125   -1.225507   -0.000153
      5          6           0        0.567096   -0.014661   -0.000135
      6          6           0       -0.156862    1.223703   -0.000075
      7          8           0        0.558024    2.397574   -0.000049
      8          6           0        2.025558   -0.173437   -0.000012
      9          6           0        2.990423    0.994846    0.000034
     10          8           0        2.516440   -1.342977    0.001130
     11          8           0        0.384060   -2.422845   -0.000592
     12          8           0       -3.648873    0.164818    0.000314
     13          1           0       -2.101255    2.211171    0.000131
     14          1           0       -2.178343   -2.139993    0.000036
     15          1           0       -0.075575    3.143041    0.000038
     16          1           0        2.834588    1.639719    0.882833
     17          1           0        4.014125    0.588925    0.000672
     18          1           0        2.835430    1.639075   -0.883382
     19          1           0        1.389040   -2.200656   -0.001263
     20          1           0       -4.044939   -0.730078    0.000350
 ---------------------------------------------------------------------
                    Distance matrix (angstroms):
                    1          2          3          4          5
     1  C    0.000000
     2  C    1.412486   0.000000
     3  C    2.451033   1.401561   0.000000
     4  C    2.820438   2.424435   1.408725   0.000000
     5  C    2.476081   2.852092   2.492209   1.445344   0.000000
     6  C    1.399515   2.429990   2.828188   2.450080   1.434455
     7  O    2.400765   3.686805   4.202609   3.706124   2.412252
     8  C    3.857540   4.315592   3.794742   2.481720   1.467080
     9  C    4.554042   5.358759   5.111444   3.905181   2.625189
    10  O    4.832971   4.998562   4.149661   2.741084   2.358891
    11  O    4.162220   3.637592   2.361633   1.342043   2.415131
    12  O    2.362005   1.369468   2.431147   3.698054   4.219787
    13  H    1.096740   2.169492   3.433882   3.916872   3.474827
    14  H    3.456126   2.191967   1.096444   2.159415   3.471955
    15  H    2.395553   3.801171   4.603821   4.371006   3.222438
    16  H    4.494474   5.432400   5.359514   4.281669   2.942470
    17  H    5.610275   6.321466   5.918306   4.608469   3.499475
    18  H    4.495372   5.433145   5.359984   4.281889   2.942840
    19  H    4.543820   4.307675   3.184014   1.883287   2.335416
    20  H    3.186557   1.925497   2.457994   3.854783   4.667192
                    6          7          8          9         10
     6  C    0.000000
     7  O    1.374421   0.000000
     8  C    2.591324   2.960364   0.000000
     9  C    3.155594   2.807884   1.515206   0.000000
    10  O    3.705994   4.222217   1.268381   2.385389   0.000000
    11  O    3.686450   4.823558   2.784664   4.298110   2.390223
    12  O    3.649025   4.762686   5.684504   6.690979   6.347009
    13  H    2.180770   2.665804   4.766230   5.234943   5.827098
    14  H    3.924391   5.298794   4.641134   6.045110   4.761956
    15  H    1.921058   0.978350   3.926040   3.743673   5.181014
    16  H    3.146644   2.556672   2.172897   1.104301   3.126515
    17  H    4.219013   3.900749   2.129694   1.101244   2.444444
    18  H    3.147472   2.557768   2.172886   1.104299   3.126780
    19  H    3.757133   4.672720   2.124799   3.574306   1.416562
    20  H    4.351368   5.565023   6.095965   7.243734   6.589942
                   11         12         13         14         15
    11  O    0.000000
    12  O    4.791716   0.000000
    13  H    5.258412   2.565674   0.000000
    14  H    2.577967   2.733974   4.351847   0.000000
    15  H    5.584833   4.651696   2.229745   5.686131   0.000000
    16  H    4.825968   6.707417   5.046610   6.339956   3.392397
    17  H    4.716793   7.674725   6.326891   6.767101   4.821738
    18  H    4.825737   6.708244   5.047648   6.340324   3.393567
    19  H    1.029250   5.565612   5.625512   3.567899   5.540776
    20  H    4.741465   0.978625   3.525458   2.339239   5.545891
                   16         17         18         19         20
    16  H    0.000000
    17  H    1.809332   0.000000
    18  H    1.766215   1.809333   0.000000
    19  H    4.197585   3.830514   4.196869   0.000000
    20  H    7.329571   8.166289   7.330304   5.629452   0.000000
 Stoichiometry    C8H8O4
 Framework group  C1[X(C8H8O4)]
 Deg. of freedom    54
 Full point group                 C1      NOp   1
 Largest Abelian subgroup         C1      NOp   1
 Largest concise Abelian subgroup C1      NOp   1
                         Standard orientation:                         
 ---------------------------------------------------------------------
 Center     Atomic      Atomic             Coordinates (Angstroms)
 Number     Number       Type             X           Y           Z
 ---------------------------------------------------------------------
      1          6           0       -1.563636    1.242913   -0.000004
      2          6           0       -2.279555    0.025302    0.000097
      3          6           0       -1.613018   -1.207622   -0.000007
      4          6           0       -0.204447   -1.228417   -0.000215
      5          6           0        0.572324   -0.009545   -0.000197
      6          6           0       -0.164287    1.221334   -0.000136
      7          8           0        0.538530    2.402470   -0.000111
      8          6           0        2.032337   -0.153366   -0.000074
      9          6           0        2.985177    1.024744   -0.000027
     10          8           0        2.535179   -1.317814    0.001069
     11          8           0        0.413978   -2.419479   -0.000653
     12          8           0       -3.645263    0.126716    0.000252
     13          1           0       -2.118699    2.188823    0.000069
     14          1           0       -2.151189   -2.162903   -0.000026
     15          1           0       -0.102676    3.141404   -0.000024
     16          1           0        2.822742    1.667987    0.882772
     17          1           0        4.012986    0.629336    0.000610
     18          1           0        2.823591    1.667351   -0.883443
     19          1           0        1.416628   -2.187002   -0.001325
     20          1           0       -4.032137   -0.772192    0.000289
 ---------------------------------------------------------------------
 Rotational constants (GHZ):      1.5272331      0.7557339      0.5071573
 Standard basis: 6-31+G(d,p) (6D, 7F)
 There are   268 symmetry adapted cartesian basis functions of A   symmetry.
 There are   268 symmetry adapted basis functions of A   symmetry.
   268 basis functions,   440 primitive gaussians,   268 cartesian basis functions
    44 alpha electrons       44 beta electrons
       nuclear repulsion energy       693.3334143984 Hartrees.
 NAtoms=   20 NActive=   20 NUniq=   20 SFac= 1.00D+00 NAtFMM=   60 NAOKFM=F Big=F
 Integral buffers will be    131072 words long.
 Raffenetti 2 integral format.
 Two-electron integral symmetry is turned on.
 Nuclear repulsion after empirical dispersion term =      693.3240037689 Hartrees.
 One-electron integrals computed using PRISM.
 NBasis=   268 RedAO= T EigKep=  1.66D-06  NBF=   268
 NBsUse=   268 1.00D-06 EigRej= -1.00D+00 NBFU=   268
 Initial guess from the checkpoint file:  "pbeD3THAP.chk"
 B after Tr=     0.000000    0.000000    0.000000
         Rot=    0.999984    0.000017    0.000018   -0.005629 Ang=   0.65 deg.
 ExpMin= 4.38D-02 ExpMax= 5.48D+03 ExpMxC= 8.25D+02 IAcc=2 IRadAn=         4 AccDes= 0.00D+00
 Harris functional with IExCor= 1009 and IRadAn=       4 diagonalized for initial guess.
 HarFok:  IExCor= 1009 AccDes= 0.00D+00 IRadAn=         4 IDoV= 1 UseB2=F ITyADJ=14
 ICtDFT=  3500011 ScaDFX=  1.000000  1.000000  1.000000  1.000000
 FoFCou: FMM=F IPFlag=           0 FMFlag=      100000 FMFlg1=           0
         NFxFlg=           0 DoJE=T BraDBF=F KetDBF=T FulRan=T
         wScrn=  0.000000 ICntrl=     500 IOpCl=  0 I1Cent=   200000004 NGrid=           0
         NMat0=    1 NMatS0=      1 NMatT0=    0 NMatD0=    1 NMtDS0=    0 NMtDT0=    0
 Petite list used in FoFCou.
 Keep J ints in memory in canonical form, NReq=659648347.
 Requested convergence on RMS density matrix=1.00D-08 within 128 cycles.
 Requested convergence on MAX density matrix=1.00D-06.
 Requested convergence on             energy=1.00D-06.
 No special actions if energy rises.
 SCF Done:  E(RPBE-PBE) =  -609.935689120     A.U. after   14 cycles
            NFock= 14  Conv=0.47D-08     -V/T= 2.0095
 Calling FoFJK, ICntrl=      2527 FMM=F ISym2X=0 I1Cent= 0 IOpClX= 0 NMat=1 NMatS=1 NMatT=0.
 ***** Axes restored to original set *****
 -------------------------------------------------------------------
 Center     Atomic                   Forces (Hartrees/Bohr)
 Number     Number              X              Y              Z
 -------------------------------------------------------------------
      1        6           0.001788798   -0.000232508    0.000003666
      2        6           0.001915816   -0.001875361    0.000000034
      3        6          -0.001235301    0.001474088    0.000005240
      4        6           0.000997532   -0.007277197   -0.000023321
      5        6           0.002709173    0.001900394   -0.000029228
      6        6          -0.001731082   -0.000697076   -0.000005276
      7        8          -0.000619195   -0.000628561   -0.000004943
      8        6          -0.003796981    0.004125867    0.000121079
      9        6          -0.000839570   -0.001354732   -0.000013015
     10        8           0.010430731    0.006533037   -0.000105660
     11        8          -0.020517545    0.000693309   -0.000040527
     12        8           0.000900352   -0.002205341   -0.000000169
     13        1           0.000909506   -0.001536020    0.000000952
     14        1           0.000885472    0.001660450   -0.000001317
     15        1           0.001788107   -0.002120644    0.000000342
     16        1          -0.000256600   -0.001124625   -0.001073131
     17        1          -0.001444856    0.000922210   -0.000003516
     18        1          -0.000255007   -0.001117352    0.001071459
     19        1           0.007055650    0.000500045    0.000097206
     20        1           0.001314999    0.002360017    0.000000125
 -------------------------------------------------------------------
 Cartesian Forces:  Max     0.020517545 RMS     0.003595284

 GradGradGradGradGradGradGradGradGradGradGradGradGradGradGradGradGradGrad
 Berny optimization.
 Using GEDIIS/GDIIS optimizer.
 FormGI is forming the generalized inverse of G from B-inverse, IUseBI=4.
 Internal  Forces:  Max     0.030247564 RMS     0.005998945
 Search for a local minimum.
 Step number   3 out of a maximum of  100
 All quantities printed in internal units (Hartrees-Bohrs-Radians)
 Mixed Optimization -- RFO/linear search
 Update second derivatives using D2CorX and points    1    3    2
 DE=  9.05D-04 DEPred=-5.98D-04 R=-1.51D+00
 Trust test=-1.51D+00 RLast= 6.82D-02 DXMaxT set to 1.50D-01
 ITU= -1  1  0
 Use linear search instead of GDIIS.
 Energy rises -- skip Quadratic/GDIIS search.
 Quartic linear search produced a step of -0.68520.
 Iteration  1 RMS(Cart)=  0.02764743 RMS(Int)=  0.00020490
 Iteration  2 RMS(Cart)=  0.00030478 RMS(Int)=  0.00000043
 Iteration  3 RMS(Cart)=  0.00000002 RMS(Int)=  0.00000043
 Variable       Old X    -DE/DX   Delta X   Delta X   Delta X     New X
                                 (Linear)    (Quad)   (Total)
    R1        2.66921  -0.00456  -0.00389   0.00000  -0.00389   2.66533
    R2        2.64470  -0.00552  -0.00365   0.00000  -0.00365   2.64105
    R3        2.07254  -0.00179  -0.00342   0.00000  -0.00342   2.06912
    R4        2.64857  -0.00529  -0.00415   0.00000  -0.00415   2.64442
    R5        2.58792  -0.00220  -0.00550   0.00000  -0.00550   2.58241
    R6        2.66211  -0.00097  -0.00146   0.00000  -0.00146   2.66065
    R7        2.07198  -0.00188  -0.00342   0.00000  -0.00342   2.06856
[...]
 0596,-0.05120632,-0.00000354,0.00001809,0.14551037,-0.03472221,-0.0520
 0194,-0.00000178,-0.00138767,0.01357093,0.00000053,0.00400654,-0.00500
 822,-0.00000019,-0.01125108,0.00147978,0.00000034,0.02210460,0.0110943
 7,0.00000031,-0.15919216,-0.05711502,-0.00000169,0.42232163,-0.0193284
 0,-0.01498697,-0.00000092,0.00310538,0.00516190,-0.00000028,-0.0008151
 1,-0.00356098,0.00000001,0.00312050,0.00024217,0.00000009,-0.00951116,
 -0.04671200,-0.00000185,-0.11236305,-0.22933043,-0.00000670,-0.1076803
 0,0.57790736,-0.00000020,-0.00000058,0.01122337,0.00000024,-0.00000031
 ,0.00893530,-0.00000009,-0.00000005,-0.00141556,0.00000013,-0.00000012
 ,0.00298648,-0.00000047,-0.00000200,0.00375975,-0.00000409,-0.00000704
 ,-0.04039775,-0.00000668,0.00002249,0.02723496,0.01136422,0.00402157,-
 0.00000003,-0.00821358,-0.00586909,-0.00000010,0.00095687,-0.00244360,
 0.00000003,-0.02578320,-0.04346517,-0.00000250,-0.20661805,-0.00781812
 ,-0.00000153,-0.01854492,0.03675798,0.00000069,-0.00599938,-0.01405444
 ,-0.00000049,0.56360561,-0.00245250,-0.00720144,-0.00000038,0.00228498
 ,0.00075783,0.00000004,-0.00196527,-0.00690425,-0.00000036,-0.03104057
 ,0.03187656,0.00000145,-0.02541293,-0.10318445,-0.00000205,0.03608723,
 -0.00175706,0.00000033,-0.00151648,0.00183004,0.00000013,-0.06282093,0
 .72013874,0.00000014,-0.00000044,0.00492766,0.00000001,-0.00000017,-0.
 00090921,-0.00000015,-0.00000007,0.00201978,-0.00000027,-0.00000006,0.
 00346031,-0.00000172,-0.00000169,-0.06110690,0.00000107,0.00000045,-0.
 00647336,0.00000002,0.00000019,-0.00200774,0.00000347,0.00000359,0.200
 11342,-0.00060000,-0.00021134,0.00000003,0.00059902,0.00002962,0.00000
 001,-0.00006356,-0.00152120,-0.00000014,-0.00491153,0.00386855,0.00000
 036,-0.01319245,-0.02224131,0.00000001,0.00018149,-0.00061077,-0.00000
 014,-0.00653554,0.00482528,0.00000028,-0.14280416,-0.06322369,-0.00000
 048,0.52948662,-0.00093957,-0.00020560,-0.00000001,0.00079318,-0.00002
 743,0.,-0.00031570,0.00193136,0.00000018,0.00461236,-0.00032959,-0.000
 00013,-0.00625897,0.00869614,0.00000027,0.00015949,-0.00363758,0.00000
 002,0.00441503,0.00029853,-0.00000019,-0.05044591,-0.12870277,-0.00000
 014,-0.06714121,0.50536443,-0.00000009,0.00000003,-0.00018138,-0.00000
 004,0.00000014,0.00009982,0.00000011,-0.00000011,-0.00083288,-0.000000
 11,-0.00000015,0.00213774,-0.00000015,0.00000002,0.01093348,0.,0.00000
 008,-0.00007349,-0.00000010,-0.00000004,-0.00092457,0.00000099,0.00000
 045,-0.07837545,0.00000065,0.00000014,0.50450952,-0.00153239,0.0020011
 3,0.00000020,0.00331026,-0.00088300,-0.00000013,-0.00332997,0.00391676
 ,0.00000007,0.00860095,-0.00466950,-0.00000084,-0.03152902,0.05078621,
 0.00000019,-0.00586869,-0.01196376,-0.00000070,0.00257733,0.00444233,0
 .00000017,-0.17221379,0.16314708,-0.00000174,0.01772055,-0.01611633,0.
 00000057,0.23622362,0.00798479,0.00408258,0.00000013,-0.00430179,-0.00
 858390,-0.00000026,-0.00450546,0.00489064,0.00000038,0.00282282,-0.041
 38664,-0.00000268,0.06316764,-0.01447863,0.00000039,-0.00883894,0.0139
 4838,-0.00000004,0.00057540,-0.00243073,-0.00000013,0.13165243,-0.4480
 1172,-0.00000050,0.00833724,-0.05898868,0.00000073,-0.17778459,0.53215
 119,0.00000069,0.00000053,-0.00132883,-0.00000008,-0.00000110,0.000310
 60,-0.00000107,0.00000094,0.00026612,0.00000098,-0.00000380,-0.0019434
 9,0.00000219,0.00000059,0.01594222,-0.00000079,0.00000015,0.00660788,0
 .00000009,0.00000005,0.00006882,-0.00000482,0.00000142,-0.06239896,0.0
 0000055,-0.00000065,0.01911922,0.00000240,-0.00000264,0.03590979,0.009
 30744,0.00853915,0.00000016,-0.00380297,-0.02080285,-0.00000059,-0.041
 78992,0.06258131,0.00000450,-0.14655913,0.09862894,0.00000984,0.034514
 95,-0.00556992,0.00000022,-0.01442373,0.00381950,0.,0.00325562,0.00041
 908,0.00000001,-0.03707014,0.02913444,-0.00000082,0.00215410,-0.005195
 61,0.00000058,-0.04340356,-0.06768079,-0.00000925,0.45752248,-0.001121
 21,-0.00543714,-0.00000004,-0.00463843,0.00798406,-0.00000021,0.029347
 43,-0.00937635,-0.00000233,0.07980815,-0.30411577,-0.00001575,0.001619
 02,-0.05030445,-0.00000385,-0.00338922,0.00076334,-0.00000024,0.000457
 97,-0.00297896,-0.00000010,0.01924369,-0.00677976,0.00000029,-0.000509
 80,-0.00112684,0.00000007,-0.02079188,0.01141657,-0.00000081,-0.057715
 08,0.42415959,-0.00000059,-0.00000038,-0.00157947,-0.00000003,0.000001
 01,0.00487444,0.00000306,-0.00000300,0.00783393,0.00000892,-0.00001858
 ,-0.04845382,-0.00000032,-0.00000330,0.01023474,0.00000032,-0.00000047
 ,0.00590251,-0.00000012,-0.00000036,0.00025746,0.00000263,-0.00000117,
 -0.00190779,-0.00000014,-0.00000011,-0.00081274,-0.00000210,0.00000157
 ,0.00894015,-0.00002470,0.00002290,0.04398096,-0.04529340,-0.01203539,
 0.00000008,-0.29736645,0.04660709,0.00000406,-0.04472154,0.00813492,0.
 00000065,0.01095178,0.00375556,0.00000009,-0.01076239,-0.00072743,0.00
 000006,0.00745628,-0.00152279,-0.00000007,-0.00226867,-0.00181149,-0.0
 0000004,0.00948492,-0.00199844,-0.00000004,-0.00050576,-0.00110939,0.0
 0000009,-0.00384578,0.00386030,0.,-0.00317976,0.00136017,0.00000029,0.
 48157167,-0.04521201,0.00635469,0.00000048,-0.00475222,-0.10620097,-0.
 00000223,0.04343270,0.00153359,-0.00000071,-0.00756601,-0.00619119,-0.
 00000049,-0.00011110,0.00353978,0.00000014,0.00569208,-0.00822224,-0.0
 0000047,-0.00328181,-0.00067062,0.00000001,0.00085090,-0.00004771,0.00
 000001,0.00007540,0.00006220,-0.00000002,0.00015664,0.00144757,0.00000
 019,0.00446621,-0.00057784,-0.00000023,0.13762449,0.52086132,-0.000001
 04,0.00000025,0.00556133,0.00000212,-0.00000278,-0.04142602,0.00000215
 ,-0.00000064,0.01021599,-0.00000023,-0.00000074,0.00917892,0.00000016,
 0.00000021,-0.00152929,0.00000008,-0.00000038,0.00356181,-0.00000008,0
 .,-0.00001578,-0.00000012,0.00000003,-0.00025941,0.,0.,0.00023499,0.00
 000011,-0.00000002,-0.00012530,0.00000005,0.00000011,-0.00040333,0.000
 00102,0.00001730,0.02788109,-0.11748395,0.11716005,0.00000537,0.010898
 15,-0.01414003,-0.00000060,-0.00180563,-0.00269696,-0.00000006,-0.0011
 2717,-0.00074371,-0.00000002,-0.00460267,-0.00203172,0.,-0.01035308,0.
 02589641,0.00000107,0.00252449,0.00162358,0.,0.00084779,0.00126958,0.0
 0000011,-0.00000973,-0.00004239,-0.00000002,-0.00076705,0.00048010,0.,
 0.00053441,0.00003015,-0.00000001,0.00095630,0.00054738,-0.00000002,0.
 12146522,0.11559910,-0.25966594,-0.00000986,0.01656000,-0.01890612,-0.
 00000095,-0.00425028,-0.00220241,-0.00000015,-0.00115226,0.00023769,0.
 00000009,-0.00013190,0.00138027,-0.00000012,-0.00378115,-0.00098459,-0
 .00000004,-0.00096671,0.00361270,0.00000032,-0.00062608,-0.00002022,-0
 .00000006,0.00002284,0.00005410,0.,0.00032002,0.00001553,0.00000004,0.
 00038551,0.00000021,-0.00000004,0.00064778,0.00162698,0.00000014,-0.12
 498847,0.27519690,0.00000525,-0.00000989,-0.02134289,0.00000050,-0.000
 00041,0.00211787,0.00000010,-0.00000029,0.00344804,-0.00000011,0.00000
 011,-0.00177245,-0.00000005,-0.00000008,0.00454501,-0.00000008,-0.0000
 0038,0.00160558,-0.00000003,0.00000034,-0.00459116,0.00000003,-0.00000
 010,0.00152818,0.,-0.00000001,-0.00021952,0.00000003,0.00000004,-0.000
 61530,0.00000008,-0.00000006,0.00016238,0.,0.00000012,-0.00259221,-0.0
 0000573,0.00001070,0.01642645,-0.00086187,0.00261439,0.00000015,0.0071
 5590,0.01343092,0.00000061,-0.12337740,-0.11929144,-0.00000459,-0.0109
 5663,-0.02872306,-0.00000123,-0.00465609,0.00225090,0.00000014,-0.0011
 0005,0.00111044,0.00000003,0.00023161,-0.00024073,-0.00000001,0.000240
 25,-0.00209527,-0.00000002,-0.00052041,0.00032835,-0.00000001,0.000336
 17,0.00074121,0.00000012,0.00315043,0.00046246,-0.00000013,0.00362070,
 0.00059793,-0.00000004,0.00050889,0.00069332,0.,0.12744888,0.00385542,
 -0.00214999,-0.00000031,-0.01689899,-0.01697724,-0.00000070,-0.1208677
 8,-0.25527684,-0.00000966,0.00184912,0.00287587,0.,0.00039651,0.000633
 27,-0.00000018,0.00079253,0.00017657,0.00000005,-0.00021499,0.00012302
 ,0.00000001,0.00051680,-0.00015600,0.,-0.00001861,0.00000481,0.0000000
 1,-0.00007313,0.00029001,0.,0.00014171,0.00031837,0.00000017,-0.000648
 97,0.00254271,0.00000032,-0.00079937,-0.00091117,-0.00000006,0.1297033
 6,0.26934794,-0.00000001,-0.00000035,0.00418670,-0.00000090,-0.0000005
 4,0.00111999,-0.00000430,-0.00000998,-0.02315189,-0.00000025,0.0000002
 5,0.00351153,0.00000018,-0.00000014,0.00428358,0.00000024,-0.00000004,
 -0.00121531,-0.00000007,-0.00000004,-0.00014890,0.00000004,0.,0.000548
 97,0.,0.,-0.00015048,-0.00000001,0.00000005,-0.00006958,-0.00000009,0.
 00000023,-0.00331289,0.,0.00000027,-0.00398100,-0.00000002,-0.00000007
 ,0.00098574,0.00000510,0.00001043,0.01734691,0.00083659,-0.00571961,-0
 .00000025,-0.00107762,0.00026289,0.,0.00007268,0.00004296,0.00000002,0
 .00062398,-0.00082634,-0.00000005,-0.00131508,-0.00341194,-0.00000011,
 0.01257319,-0.02229451,-0.00000099,-0.23124706,0.24503317,0.00001132,-
 0.00064145,-0.00054957,0.,-0.00141134,0.00017819,-0.00000006,0.0001874
 5,-0.00007729,-0.00000001,-0.00036063,0.00012397,0.,0.00006427,0.00001
 361,0.,-0.00123935,0.00161956,0.00000008,-0.00009036,0.00016644,0.,0.2
 2292200,0.00250405,0.00556060,0.00000024,-0.00029342,-0.00204675,0.,-0
 .00072399,0.00100360,0.00000004,0.00306433,-0.00068685,-0.00000014,-0.
 00665884,-0.00214272,-0.00000018,0.02519083,-0.03860183,-0.00000156,0.
 19372058,-0.28738717,-0.00001261,0.00067148,0.00009261,0.00000002,-0.0
 0004335,0.00008217,0.00000003,-0.00043347,0.00040466,0.00000001,-0.000
 86094,-0.00014953,0.,0.00080270,0.00051855,0.,-0.00154428,0.00017052,-
 0.00000006,-0.00006912,0.00007094,0.,-0.21547407,0.32298677,0.00000008
 ,0.00000035,-0.00155598,0.,-0.00000004,-0.00117378,-0.00000005,0.00000
 003,0.00002774,0.00000012,-0.00000003,0.00166521,-0.00000033,-0.000000
 18,0.00274910,0.00000088,-0.00000145,-0.00214927,0.00000930,-0.0000129
 5,-0.00562651,0.00000005,0.,-0.00061946,-0.00000001,0.00000006,0.00024
 185,0.,0.00000007,-0.00015788,-0.00000001,0.,-0.00021933,0.00000003,0.
 00000002,-0.00003233,-0.00000002,-0.00000005,0.00100655,0.,0.,0.000005
 53,-0.00001007,0.00001421,0.00542975,-0.00008742,0.00016227,0.00002326
 ,0.00016593,-0.00009364,0.00010630,-0.00011181,0.00040548,-0.00031401,
 0.00063345,0.00027560,0.00056595,-0.00254265,0.00069699,0.00145744,-0.
 00104333,-0.00300504,-0.00018220,-0.00131861,0.00180770,-0.00073817,0.
 00663855,-0.00780061,-0.01878004,-0.04988430,0.02128219,0.03326128,-0.
 00098324,-0.00225159,0.00167048,-0.00032218,-0.00010601,-0.00002873,-0
 .00024435,0.00004183,0.00002669,-0.00004314,0.00002288,-0.00007412,0.0
 0001929,0.00000058,-0.00002384,0.00003930,0.00023005,0.00021233,0.0505
 1413,0.00007908,-0.00000946,-0.00018620,-0.00004855,-0.00014512,-0.000
 04623,-0.00017226,0.00006067,-0.00025408,0.00024162,-0.00063567,0.0005
 8057,0.00017089,0.00031948,0.00165734,-0.00028490,0.00060611,-0.000255
 96,0.00083245,-0.00073817,0.00076051,0.00611008,-0.01467404,-0.0197796
 7,0.02283724,-0.12426094,-0.12740299,-0.00368547,-0.00412482,0.0021579
 1,-0.00109038,0.00016261,-0.00018899,0.00003260,0.00000403,0.00005893,
 0.00001025,-0.00000265,0.00000551,0.00001522,-0.00000144,-0.00001785,0
 .00019138,0.00000495,0.00013302,-0.02443561,0.13847926,0.00041394,0.00
 038644,-0.00014072,-0.00003030,-0.00033306,-0.00007145,-0.00014969,0.0
 0016382,0.00003257,0.00013768,-0.00008276,0.00016014,-0.00037241,-0.00
 019270,0.00038100,-0.00054932,-0.00162947,-0.00000447,0.00086294,0.000
 72385,0.00031229,0.00042232,0.00216519,0.00122746,0.03316833,-0.124156
 08,-0.20702403,-0.00047024,0.00117683,-0.00079212,-0.00023180,0.000147
 65,-0.00007037,0.00002400,0.00006742,0.00000509,-0.00003619,0.00002976
 ,0.00003996,-0.00000967,0.00000541,-0.00000208,0.00047793,-0.00005778,
 0.00002471,-0.03687509,0.13376231,0.22472040,-0.00015104,-0.00005167,0
 .,0.00024172,0.00006866,0.,-0.00008450,-0.00047108,-0.00000002,-0.0010
 4629,0.00149997,0.00000008,-0.00029462,-0.00402022,-0.00000002,0.00063
 278,-0.00010541,-0.00000002,-0.00018075,0.00056537,0.00000002,-0.02286
 560,0.00824618,-0.00000006,-0.27784772,0.08728486,-0.00000041,0.004084
 18,0.00241334,0.00000016,0.00126033,-0.00026266,-0.00000004,-0.0002143
 4,0.00000229,0.,-0.00000490,0.00002691,0.,-0.00014393,-0.00000873,0.,-
 0.00006760,-0.00022583,0.,-0.00168362,-0.00023851,-0.00057321,0.301165
 53,0.00027492,0.00034619,0.00000001,0.00001989,-0.00024901,-0.00000001
 ,-0.00013827,-0.00033088,-0.00000001,-0.00118662,0.00060075,0.00000001
 ,-0.00124055,-0.00422125,0.00000002,-0.00027697,-0.00152006,-0.0000000
 7,0.00146574,0.00009302,0.,-0.02720480,0.00769597,-0.00000007,0.092490
 96,-0.07754196,0.00000021,0.00088056,0.00171350,0.00000008,0.00056664,
 0.00017199,0.,0.00001368,0.00006266,0.,-0.00004665,0.00002570,0.,-0.00
 015232,0.00000977,0.,0.00043106,0.00008212,0.,0.01447090,-0.00512248,0
 .00260578,-0.09402246,0.08353369,0.,0.00000002,-0.00017707,0.,0.,-0.00
 000393,0.,0.00000002,-0.00018410,0.,-0.00000002,0.00059246,-0.00000006
 ,0.00000003,0.00150677,-0.00000003,-0.00000010,-0.00022217,0.00000016,
 -0.00000008,0.00076372,0.00000014,-0.00000003,-0.00149590,-0.00000041,
 0.00000018,-0.04553568,0.00000001,-0.00000001,-0.00109533,-0.00000001,
 -0.00000001,-0.00007563,0.,0.,0.00000725,0.,0.,0.00002302,0.,0.,-0.000
 01266,0.00000005,0.,0.00015307,0.02293868,-0.00652232,0.00129272,0.000
 00036,-0.00000021,0.04316868,-0.00008747,0.00016219,-0.00002325,0.0001
 6596,-0.00009363,-0.00010630,-0.00011182,0.00040545,0.00031406,0.00063
 343,0.00027572,-0.00056597,-0.00254250,0.00069679,-0.00145744,-0.00104
 322,-0.00300472,0.00018214,-0.00131792,0.00180736,0.00073808,0.0066380
 4,-0.00780068,0.01877999,-0.04988417,0.02128220,-0.03326161,-0.0009834
 1,-0.00225155,-0.00167044,-0.00032218,-0.00010603,0.00002871,-0.000244
 39,0.00004183,-0.00002669,-0.00004313,0.00002288,0.00007411,0.00001929
 ,0.00000057,0.00002385,0.00003931,0.00023000,-0.00021227,-0.00021843,-
 0.00180185,0.00357259,-0.00168373,0.01447064,-0.02293891,0.05051366,0.
 00007913,-0.00000947,0.00018619,-0.00004855,-0.00014519,0.00004620,-0.
 00017231,0.00006068,0.00025411,0.00024163,-0.00063561,-0.00058066,0.00
 017094,0.00031939,-0.00165744,-0.00028487,0.00060610,0.00025597,0.0008
 3198,-0.00073787,-0.00076039,0.00611000,-0.01467347,0.01977975,0.02283
 729,-0.12425817,0.12740238,-0.00368554,-0.00412502,-0.00215846,-0.0010
 9054,0.00016258,0.00018903,0.00003259,0.00000404,-0.00005893,0.0000102
 6,-0.00000265,-0.00000551,0.00001522,-0.00000144,0.00001785,0.00019130
 ,0.00000499,-0.00013304,-0.00180197,0.00964205,-0.01493970,-0.00023846
 ,-0.00512248,0.00652251,-0.02443529,0.13847561,-0.00041391,-0.00038641
 ,-0.00014076,0.00003031,0.00033303,-0.00007142,0.00014967,-0.00016380,
 0.00003254,-0.00013766,0.00008280,0.00016022,0.00037236,0.00019265,0.0
 0038104,0.00054934,0.00162942,-0.00000434,-0.00086289,-0.00072389,0.00
 031231,-0.00042263,-0.00216536,0.00122718,-0.03316886,0.12415557,-0.20
 702649,0.00047022,-0.00117674,-0.00079205,0.00023178,-0.00014765,-0.00
 007041,-0.00002402,-0.00006741,0.00000509,0.00003619,-0.00002976,0.000
 03995,0.00000967,-0.00000541,-0.00000208,-0.00047787,0.00005776,0.0000
 2470,-0.00357264,0.01493926,-0.02001484,0.00057327,-0.00260568,0.00129
 262,0.03687573,-0.13376131,0.22472305,-0.00540850,-0.00480741,-0.00000
 014,0.00000860,0.00958306,0.00000050,0.01074316,-0.00651731,-0.0000002
 7,-0.03689370,0.04342732,0.00000457,-0.01856863,-0.00411195,-0.0000003
 5,0.00348360,-0.00409349,0.00000016,-0.00113725,-0.00145660,-0.0000000
 2,0.04174732,-0.03176891,0.00000053,-0.00207691,0.00711360,-0.00000164
 ,-0.00905534,0.04575792,0.00000876,-0.22158028,-0.04322711,0.00001304,
 -0.00012113,-0.00158279,-0.00000009,-0.00034226,-0.00015574,-0.0000000
 6,-0.00067550,0.00008344,-0.00000004,0.00008042,-0.00011608,-0.0000000
 3,0.00045177,0.00123588,0.00020906,-0.00115305,-0.00083143,0.00000003,
 0.00045202,0.00123634,-0.00020895,0.24050257,-0.00326357,-0.00222955,-
 0.00000012,0.00215293,0.00562804,0.00000016,0.00576168,-0.00938583,-0.
 00000101,0.03816743,0.01559051,-0.00000161,-0.00900738,-0.00284238,-0.
 00000005,0.00302126,-0.00307892,0.00000026,-0.00056794,0.00035046,0.00
 000003,0.00974434,-0.03045620,-0.00000145,0.00021999,0.00246583,-0.000
 00095,0.01415982,0.01226612,0.00000557,-0.04885109,-0.06416116,0.00000
 196,-0.00038409,-0.00129185,0.00000005,-0.00026433,-0.00005303,-0.0000
 0003,-0.00040675,0.00003200,0.00000001,0.00007299,0.00002338,-0.000000
 01,0.00005862,0.00044190,0.00015358,-0.00046150,-0.00022017,0.00000002
 ,0.00005872,0.00044221,-0.00015356,-0.01000170,0.07636989,-0.00000032,
 -0.00000028,0.00008982,0.00000014,0.00000051,0.00217175,0.00000042,-0.
 00000086,0.00391355,0.00000288,0.00000290,-0.00105592,-0.00000159,-0.0
 0000008,-0.00168587,0.00000032,-0.00000012,-0.00125046,-0.00000008,0.0
 0000007,-0.00008345,0.00000184,-0.00000316,0.00051591,-0.00000003,0.00
 000091,0.00397777,0.00000179,0.00000283,-0.01789553,0.00002003,-0.0000
 0015,-0.02529514,-0.00000015,-0.00000007,-0.00063220,-0.00000004,0.,-0
 .00001703,-0.00000008,0.00000002,-0.00073876,0.00000001,0.00000002,0.0
 0008482,0.00034742,0.00059757,-0.00009057,-0.00000011,-0.00000006,-0.0
 0000893,-0.00034737,-0.00059721,-0.00009061,-0.00002508,-0.00000285,0.
 03798451,-0.00598662,0.00358465,0.00000020,-0.02577631,-0.04526261,-0.
 00000143,0.00361933,-0.00058621,-0.00000009,-0.00161818,0.00001668,0.0
 0000006,0.00097934,0.00036046,0.,-0.00003356,-0.00240916,-0.00000008,-
 0.00046350,0.00051155,0.00000002,-0.00076929,0.00027635,0.,0.00010579,
 0.00011563,0.,0.00047173,-0.00010119,0.00000004,0.00111472,-0.00058560
 ,-0.00000009,-0.10533794,-0.13103734,-0.00000409,0.00008683,0.00013177
 ,0.,-0.00034917,0.00202409,0.00000011,0.00001130,0.00002936,0.,0.00002
 066,0.00000085,0.00000911,0.00003714,0.00001509,0.,0.00002067,0.000000
 85,-0.00000911,-0.00045690,-0.00020942,-0.00000002,0.13432396,0.001087
 76,0.00200156,-0.00000007,0.00358043,0.00061533,0.00000009,0.00596557,
 0.00347724,0.00000022,-0.00070617,-0.00126261,-0.00000004,0.00087143,0
 .00019669,0.,-0.00031664,0.00004660,-0.00000008,-0.00009084,-0.0000853
 2,0.00000002,-0.00093113,0.00017734,0.00000003,-0.00002311,0.00012001,
 -0.00000001,0.00027612,-0.00049664,-0.00000002,0.00017472,-0.00013150,
 -0.00000002,-0.18263390,-0.41535570,-0.00001385,0.00027015,0.00042818,
 0.00000004,-0.00098503,-0.00095116,-0.00000009,0.00002581,0.00000897,0
 .,0.00003939,-0.00000626,0.00000349,-0.00000107,-0.00000707,0.,0.00003
 939,-0.00000626,-0.00000349,0.00023295,0.00010876,0.00000002,0.1731241
 8,0.41112184,0.00000014,-0.00000008,0.00321859,0.00000038,0.00000048,-
 0.00255222,0.00000017,0.00000027,-0.00153535,-0.00000002,0.00000003,-0
 .00119300,0.,0.,-0.00006527,0.00000003,-0.00000005,0.00241228,0.,0.000
 00002,-0.00064306,-0.00000001,0.,-0.00001470,0.,0.,-0.00009769,-0.0000
 0001,-0.00000001,0.00004955,0.00000001,-0.00000003,0.00001434,-0.00000
 604,-0.00001433,-0.00565469,0.,0.00000004,-0.00077818,-0.00000003,-0.0
 0000011,0.00079667,0.,0.,0.00012151,-0.00002099,0.00000135,0.00001431,
 0.,0.,0.00001109,0.00002100,-0.00000135,0.00001431,0.00000003,0.,0.000
 10634,0.00000536,0.00001378,0.00577517\\-0.00002007,0.00004149,0.00000
 006,-0.00001247,-0.00000341,-0.00000005,-0.00003551,-0.00001259,-0.000
 00078,0.00003408,-0.00004550,0.00000261,-0.00000005,-0.00001697,-0.000
 00042,-0.00000764,-0.00000654,-0.00000082,-0.00003393,0.00003895,0.000
 00036,0.00003011,-0.00000453,0.00000159,0.00000334,-0.00000733,-0.0000
 0222,0.00002358,0.00000445,0.00000453,-0.00004702,0.00000855,0.0000030
 9,-0.00000875,-0.00003450,0.,-0.00000521,-0.00000139,0.,0.00000605,-0.
 00000619,0.00000019,0.00002324,-0.00002466,-0.00000004,0.00000341,0.00
 000944,-0.00000214,0.00000210,0.00000244,0.00000008,0.00000418,0.00001
 001,0.00000220,0.00002407,0.00001559,-0.00000819,0.00001648,0.00003269
 ,-0.00000006\\\@


 HE THAT FOLLOWS NATURE IS NEVER LOST.

                             -- BACON
 Job cpu time:       0 days  0 hours 16 minutes 39.7 seconds.
 File lengths (MBytes):  RWF=    157 Int=      0 D2E=      0 Chk=      6 Scr=      1
 Normal termination of Gaussian 09 at Tue Dec 17 20:10:15 2024.
