 Entering Gaussian System, Link 0=g09
 Input=pvdzSAYang.gjf
 Output=pvdzSAYang.log
 Initial command:
 /home/phzd/g09E/g09/l1.exe "/home/phzd/g09E/scratch/Gau-1283125.inp" -scrdir="/home/phzd/g09E/scratch/"
 Default is to use a total of  18 processors:
                               18 via shared-memory
                                1 via Linda
 Entering Link 1 = /home/phzd/g09E/g09/l1.exe PID=   1283127.
  
 Copyright (c) 1988,1990,1992,1993,1995,1998,2003,2009,2015,
            Gaussian, Inc.  All Rights Reserved.
  
 This is part of the Gaussian(R) 09 program.  It is based on
 the Gaussian(R) 03 system (copyright 2003, Gaussian, Inc.),
 the Gaussian(R) 98 system (copyright 1998, Gaussian, Inc.),
 the Gaussian(R) 94 system (copyright 1995, Gaussian, Inc.),
 the Gaussian 92(TM) system (copyright 1992, Gaussian, Inc.),
 the Gaussian 90(TM) system (copyright 1990, Gaussian, Inc.),
 the Gaussian 88(TM) system (copyright 1988, Gaussian, Inc.),
 the Gaussian 86(TM) system (copyright 1986, Carnegie Mellon
 University), and the Gaussian 82(TM) system (copyright 1983,
 Carnegie Mellon University). Gaussian is a federally registered
 trademark of Gaussian, Inc.
  
 This software contains proprietary and confidential information,
 including trade secrets, belonging to Gaussian, Inc.
  
 This software is provided under written license and may be
 used, copied, transmitted, or stored only in accord with that
 written license.
  
 The following legend is applicable only to US Government
 contracts under FAR:
  
                    RESTRICTED RIGHTS LEGEND
  
 Use, reproduction and disclosure by the US Government is
 subject to restrictions as set forth in subparagraphs (a)
 and (c) of the Commercial Computer Software - Restricted
 Rights clause in FAR 52.227-19.
  
 Gaussian, Inc.
 340 Quinnipiac St., Bldg. 40, Wallingford CT 06492
  
  
 ---------------------------------------------------------------
 Warning -- This program may not be used in any manner that
 competes with the business of Gaussian, Inc. or will provide
 assistance to any competitor of Gaussian, Inc.  The licensee
 of this program is prohibited from giving any competitor of
 Gaussian, Inc. access to this program.  By using this program,
 the user acknowledges that Gaussian, Inc. is engaged in the
 business of creating and licensing software in the field of
 computational chemistry and represents and warrants to the
 licensee that it is not a competitor of Gaussian, Inc. and that
 it will not use this program in any manner prohibited above.
 ---------------------------------------------------------------
  

 Cite this work as:
 Gaussian 09, Revision E.01,
 M. J. Frisch, G. W. Trucks, H. B. Schlegel, G. E. Scuseria, 
 M. A. Robb, J. R. Cheeseman, G. Scalmani, V. Barone, B. Mennucci, 
 G. A. Petersson, H. Nakatsuji, M. Caricato, X. Li, H. P. Hratchian, 
 A. F. Izmaylov, J. Bloino, G. Zheng, J. L. Sonnenberg, M. Hada, 
 M. Ehara, K. Toyota, R. Fukuda, J. Hasegawa, M. Ishida, T. Nakajima, 
 Y. Honda, O. Kitao, H. Nakai, T. Vreven, J. A. Montgomery, Jr., 
 J. E. Peralta, F. Ogliaro, M. Bearpark, J. J. Heyd, E. Brothers, 
 K. N. Kudin, V. N. Staroverov, T. Keith, R. Kobayashi, J. Normand, 
 K. Raghavachari, A. Rendell, J. C. Burant, S. S. Iyengar, J. Tomasi, 
 M. Cossi, N. Rega, J. M. Millam, M. Klene, J. E. Knox, J. B. Cross, 
 V. Bakken, C. Adamo, J. Jaramillo, R. Gomperts, R. E. Stratmann, 
 O. Yazyev, A. J. Austin, R. Cammi, C. Pomelli, J. W. Ochterski, 
 R. L. Martin, K. Morokuma, V. G. Zakrzewski, G. A. Voth, 
 P. Salvador, J. J. Dannenberg, S. Dapprich, A. D. Daniels, 
 O. Farkas, J. B. Foresman, J. V. Ortiz, J. Cioslowski, 
 and D. J. Fox, Gaussian, Inc., Wallingford CT, 2013.
 
 ******************************************
 Gaussian 09:  ES64L-G09RevE.01 30-Nov-2015
                14-Dec-2024 
 ******************************************
 %chk=pvdzSAYang.chk
 ----------------------------
 # opt freq m062x/aug-cc-pvdz
 ----------------------------
 1/14=-1,18=20,19=15,26=3,38=1/1,3;
 2/9=110,12=2,17=6,18=5,40=1/2;
 3/5=16,7=10,11=2,16=1,25=1,30=1,71=1,74=-55/1,2,3;
 4//1;
 5/5=2,38=5/2;
 6/7=2,8=2,9=2,10=2,28=1/1;
 7//1,2,3,16;
 1/14=-1,18=20,19=15,26=3/3(2);
 2/9=110/2;
 99//99;
 2/9=110/2;
 3/5=16,7=10,11=2,16=1,25=1,30=1,71=1,74=-55/1,2,3;
 4/5=5,16=3,69=1/1;
 5/5=2,38=5/2;
 7//1,2,3,16;
 1/14=-1,18=20,19=15,26=3/3(-5);
 2/9=110/2;
 6/7=2,8=2,9=2,10=2,19=2,28=1/1;
 99/9=1/99;
 ----------
 [No Title]
 ----------
 Symbolic Z-matrix:
 Charge =  1 Multiplicity = 1
 C                     2.39471   0.1985   -0.00194 
 C                     1.92026  -1.13397   0.00605 
 C                     0.55416  -1.34838   0.01341 
 C                    -0.35499  -0.2577    0.01248 
 C                     0.13117   1.07581   0.00096 
 C                     1.4898    1.2919   -0.00417 
 O                     3.69797   0.40617  -0.00834 
 O                     2.8758   -2.07338   0.00551 
 C                     2.46758  -3.43358   0.01341 
 O                     2.12297   2.48561  -0.01349 
 C                     1.32952   3.66757  -0.01477 
 C                    -1.73394  -0.55838   0.01567 
 C                    -2.79159   0.34074   0.01803 
 C                    -4.10237  -0.11141  -0.00182 
 O                    -5.07379   0.77044   0.08406 
 O                    -4.37436  -1.39642  -0.11609 
 H                     0.16035  -2.35838   0.01999 
 H                    -0.55403   1.91398  -0.00316 
 H                     3.87923   1.36113  -0.01435 
 H                     3.38569  -4.01701   0.01111 
 H                     1.88985  -3.66029   0.9163 
 H                     1.8805   -3.66798  -0.88143 
 H                     2.03132   4.49872  -0.02021 
 H                     0.70377   3.70496  -0.91221 
 H                     0.71023   3.71112   0.88689 
 H                    -1.99331  -1.61622   0.01434 
 H                    -2.66437   1.41506   0.03536 
 H                    -5.96033   0.43501  -0.11562 
 H                    -5.28347  -1.64595   0.10595 
 

 GradGradGradGradGradGradGradGradGradGradGradGradGradGradGradGradGradGrad
 Berny optimization.
 Initialization pass.
                           ----------------------------
                           !    Initial Parameters    !
                           ! (Angstroms and Degrees)  !
 --------------------------                            --------------------------
 ! Name  Definition              Value          Derivative Info.                !
 --------------------------------------------------------------------------------
 ! R1    R(1,2)                  1.4144         estimate D2E/DX2                !
 ! R2    R(1,6)                  1.4193         estimate D2E/DX2                !
 ! R3    R(1,7)                  1.3197         estimate D2E/DX2                !
 ! R4    R(2,3)                  1.3828         estimate D2E/DX2                !
 ! R5    R(2,8)                  1.34           estimate D2E/DX2                !
 ! R6    R(3,4)                  1.4199         estimate D2E/DX2                !
 ! R7    R(3,17)                 1.0841         estimate D2E/DX2                !
 ! R8    R(4,5)                  1.4194         estimate D2E/DX2                !
 ! R9    R(4,12)                 1.4114         estimate D2E/DX2                !
 ! R10   R(5,6)                  1.3757         estimate D2E/DX2                !
 ! R11   R(5,18)                 1.0826         estimate D2E/DX2                !
 ! R12   R(6,10)                 1.3513         estimate D2E/DX2                !
 ! R13   R(7,19)                 0.972          estimate D2E/DX2                !
 ! R14   R(8,9)                  1.4202         estimate D2E/DX2                !
 ! R15   R(9,20)                 1.0878         estimate D2E/DX2                !
 ! R16   R(9,21)                 1.0956         estimate D2E/DX2                !
 ! R17   R(9,22)                 1.0956         estimate D2E/DX2                !
 ! R18   R(10,11)                1.4236         estimate D2E/DX2                !
 ! R19   R(11,23)                1.0878         estimate D2E/DX2                !
 ! R20   R(11,24)                1.0947         estimate D2E/DX2                !
 ! R21   R(11,25)                1.0947         estimate D2E/DX2                !
 ! R22   R(12,13)                1.3882         estimate D2E/DX2                !
 ! R23   R(12,26)                1.0892         estimate D2E/DX2                !
 ! R24   R(13,14)                1.3867         estimate D2E/DX2                !
 ! R25   R(13,27)                1.082          estimate D2E/DX2                !
 ! R26   R(14,15)                1.3148         estimate D2E/DX2                !
 ! R27   R(14,16)                1.3184         estimate D2E/DX2                !
 ! R28   R(15,28)                0.9687         estimate D2E/DX2                !
 ! R29   R(16,29)                0.9685         estimate D2E/DX2                !
 ! A1    A(2,1,6)              120.7891         estimate D2E/DX2                !
 ! A2    A(2,1,7)              118.6541         estimate D2E/DX2                !
 ! A3    A(6,1,7)              120.5568         estimate D2E/DX2                !
 ! A4    A(1,2,3)              118.5201         estimate D2E/DX2                !
 ! A5    A(1,2,8)              114.9122         estimate D2E/DX2                !
 ! A6    A(3,2,8)              126.5677         estimate D2E/DX2                !
 ! A7    A(2,3,4)              120.8928         estimate D2E/DX2                !
 ! A8    A(2,3,17)             120.2223         estimate D2E/DX2                !
 ! A9    A(4,3,17)             118.885          estimate D2E/DX2                !
 ! A10   A(3,4,5)              120.1558         estimate D2E/DX2                !
 ! A11   A(3,4,12)             117.5124         estimate D2E/DX2                !
 ! A12   A(5,4,12)             122.3309         estimate D2E/DX2                !
 ! A13   A(4,5,6)              119.068          estimate D2E/DX2                !
 ! A14   A(4,5,18)             120.7045         estimate D2E/DX2                !
 ! A15   A(6,5,18)             120.2275         estimate D2E/DX2                !
 ! A16   A(1,6,5)              120.5739         estimate D2E/DX2                !
 ! A17   A(1,6,10)             112.4458         estimate D2E/DX2                !
 ! A18   A(5,6,10)             126.9803         estimate D2E/DX2                !
 ! A19   A(1,7,19)             109.8029         estimate D2E/DX2                !
 ! A20   A(2,8,9)              117.8059         estimate D2E/DX2                !
 ! A21   A(8,9,20)             105.7286         estimate D2E/DX2                !
 ! A22   A(8,9,21)             110.7535         estimate D2E/DX2                !
 ! A23   A(8,9,22)             110.7567         estimate D2E/DX2                !
 ! A24   A(20,9,21)            109.6213         estimate D2E/DX2                !
 ! A25   A(20,9,22)            109.6203         estimate D2E/DX2                !
 ! A26   A(21,9,22)            110.2582         estimate D2E/DX2                !
 ! A27   A(6,10,11)            118.1834         estimate D2E/DX2                !
 ! A28   A(10,11,23)           105.9493         estimate D2E/DX2                !
 ! A29   A(10,11,24)           110.3463         estimate D2E/DX2                !
 ! A30   A(10,11,25)           110.3401         estimate D2E/DX2                !
 ! A31   A(23,11,24)           109.7903         estimate D2E/DX2                !
 ! A32   A(23,11,25)           109.7972         estimate D2E/DX2                !
 ! A33   A(24,11,25)           110.5181         estimate D2E/DX2                !
 ! A34   A(4,12,13)            127.331          estimate D2E/DX2                !
 ! A35   A(4,12,26)            116.0769         estimate D2E/DX2                !
 ! A36   A(13,12,26)           116.592          estimate D2E/DX2                !
 ! A37   A(12,13,14)           120.5947         estimate D2E/DX2                !
 ! A38   A(12,13,27)           123.6118         estimate D2E/DX2                !
 ! A39   A(14,13,27)           115.7934         estimate D2E/DX2                !
 ! A40   A(13,14,15)           118.6038         estimate D2E/DX2                !
 ! A41   A(13,14,16)           120.9327         estimate D2E/DX2                !
 ! A42   A(15,14,16)           120.4609         estimate D2E/DX2                !
 ! A43   A(14,15,28)           115.4973         estimate D2E/DX2                !
 ! A44   A(14,16,29)           115.1429         estimate D2E/DX2                !
 ! D1    D(6,1,2,3)             -0.0826         estimate D2E/DX2                !
 ! D2    D(6,1,2,8)            179.9124         estimate D2E/DX2                !
 ! D3    D(7,1,2,3)            179.9691         estimate D2E/DX2                !
 ! D4    D(7,1,2,8)             -0.036          estimate D2E/DX2                !
 ! D5    D(2,1,6,5)             -0.0224         estimate D2E/DX2                !
 ! D6    D(2,1,6,10)          -179.9326         estimate D2E/DX2                !
 ! D7    D(7,1,6,5)            179.925          estimate D2E/DX2                !
 ! D8    D(7,1,6,10)             0.0148         estimate D2E/DX2                !
 ! D9    D(2,1,7,19)           179.941          estimate D2E/DX2                !
 ! D10   D(6,1,7,19)            -0.0075         estimate D2E/DX2                !
 ! D11   D(1,2,3,4)              0.023          estimate D2E/DX2                !
 ! D12   D(1,2,3,17)          -179.9782         estimate D2E/DX2                !
 ! D13   D(8,2,3,4)           -179.9713         estimate D2E/DX2                !
 ! D14   D(8,2,3,17)             0.0275         estimate D2E/DX2                !
 ! D15   D(1,2,8,9)            179.9954         estimate D2E/DX2                !
 ! D16   D(3,2,8,9)             -0.0101         estimate D2E/DX2                !
 ! D17   D(2,3,4,5)              0.1387         estimate D2E/DX2                !
 ! D18   D(2,3,4,12)           179.7877         estimate D2E/DX2                !
 ! D19   D(17,3,4,5)          -179.8601         estimate D2E/DX2                !
 ! D20   D(17,3,4,12)           -0.2111         estimate D2E/DX2                !
 ! D21   D(3,4,5,6)             -0.2413         estimate D2E/DX2                !
 ! D22   D(3,4,5,18)           179.7958         estimate D2E/DX2                !
 ! D23   D(12,4,5,6)          -179.8729         estimate D2E/DX2                !
 ! D24   D(12,4,5,18)            0.1642         estimate D2E/DX2                !
 ! D25   D(3,4,12,13)          179.8664         estimate D2E/DX2                !
 ! D26   D(3,4,12,26)           -0.2503         estimate D2E/DX2                !
 ! D27   D(5,4,12,13)           -0.4927         estimate D2E/DX2                !
 ! D28   D(5,4,12,26)          179.3906         estimate D2E/DX2                !
 ! D29   D(4,5,6,1)              0.183          estimate D2E/DX2                !
 ! D30   D(4,5,6,10)          -179.9208         estimate D2E/DX2                !
 ! D31   D(18,5,6,1)          -179.8539         estimate D2E/DX2                !
 ! D32   D(18,5,6,10)            0.0423         estimate D2E/DX2                !
 ! D33   D(1,6,10,11)         -179.9125         estimate D2E/DX2                !
 ! D34   D(5,6,10,11)            0.1842         estimate D2E/DX2                !
 ! D35   D(2,8,9,20)           179.9788         estimate D2E/DX2                !
 ! D36   D(2,8,9,21)           -61.3496         estimate D2E/DX2                !
 ! D37   D(2,8,9,22)            61.3066         estimate D2E/DX2                !
 ! D38   D(6,10,11,23)         179.8623         estimate D2E/DX2                !
 ! D39   D(6,10,11,24)         -61.3513         estimate D2E/DX2                !
 ! D40   D(6,10,11,25)          61.071          estimate D2E/DX2                !
 ! D41   D(4,12,13,14)         178.9012         estimate D2E/DX2                !
 ! D42   D(4,12,13,27)          -1.1252         estimate D2E/DX2                !
 ! D43   D(26,12,13,14)         -0.9815         estimate D2E/DX2                !
 ! D44   D(26,12,13,27)        178.992          estimate D2E/DX2                !
 ! D45   D(12,13,14,15)        175.8825         estimate D2E/DX2                !
 ! D46   D(12,13,14,16)         -4.7074         estimate D2E/DX2                !
 ! D47   D(27,13,14,15)         -4.0931         estimate D2E/DX2                !
 ! D48   D(27,13,14,16)        175.3171         estimate D2E/DX2                !
 ! D49   D(13,14,15,28)        167.9075         estimate D2E/DX2                !
 ! D50   D(16,14,15,28)        -11.5055         estimate D2E/DX2                !
 ! D51   D(13,14,16,29)        164.8678         estimate D2E/DX2                !
 ! D52   D(15,14,16,29)        -15.733          estimate D2E/DX2                !
 --------------------------------------------------------------------------------
 Trust Radius=3.00D-01 FncErr=1.00D-07 GrdErr=1.00D-06
 Number of steps in this run=    135 maximum allowed number of steps=    174.
 GradGradGradGradGradGradGradGradGradGradGradGradGradGradGradGradGradGrad

                          Input orientation:                          
 ---------------------------------------------------------------------
 Center     Atomic      Atomic             Coordinates (Angstroms)
 Number     Number       Type             X           Y           Z
 ---------------------------------------------------------------------
      1          6           0        2.394712    0.198495   -0.001939
      2          6           0        1.920259   -1.133975    0.006054
      3          6           0        0.554162   -1.348383    0.013409
      4          6           0       -0.354985   -0.257704    0.012482
      5          6           0        0.131171    1.075810    0.000960
      6          6           0        1.489798    1.291897   -0.004165
      7          8           0        3.697965    0.406167   -0.008344
      8          8           0        2.875801   -2.073378    0.005512
      9          6           0        2.467579   -3.433578    0.013408
     10          8           0        2.122974    2.485609   -0.013491
     11          6           0        1.329518    3.667573   -0.014767
     12          6           0       -1.733940   -0.558382    0.015666
     13          6           0       -2.791590    0.340743    0.018029
     14          6           0       -4.102374   -0.111408   -0.001823
     15          8           0       -5.073789    0.770441    0.084059
     16          8           0       -4.374363   -1.396422   -0.116092
     17          1           0        0.160352   -2.358379    0.019985
     18          1           0       -0.554031    1.913977   -0.003157
     19          1           0        3.879232    1.361128   -0.014348
     20          1           0        3.385686   -4.017015    0.011111
     21          1           0        1.889851   -3.660294    0.916299
     22          1           0        1.880498   -3.667976   -0.881432
     23          1           0        2.031324    4.498719   -0.020209
     24          1           0        0.703770    3.704964   -0.912206
     25          1           0        0.710228    3.711119    0.886892
     26          1           0       -1.993310   -1.616223    0.014342
     27          1           0       -2.664370    1.415056    0.035357
     28          1           0       -5.960326    0.435012   -0.115622
     29          1           0       -5.283471   -1.645953    0.105948
 ---------------------------------------------------------------------
                    Distance matrix (angstroms):
                    1          2          3          4          5
     1  C    0.000000
     2  C    1.414442   0.000000
     3  C    2.404307   1.382840   0.000000
     4  C    2.787321   2.438161   1.419905   0.000000
     5  C    2.427614   2.843240   2.460851   1.419415   0.000000
     6  C    1.419296   2.463789   2.801214   2.409308   1.375713
     7  O    1.319711   2.352123   3.600336   4.107014   3.629122
     8  O    2.322264   1.339977   2.432219   3.706035   4.177368
     9  C    3.632836   2.363850   2.830053   4.248887   5.078734
    10  O    2.303229   3.625309   4.142631   3.696853   2.440291
    11  C    3.628954   4.837796   5.075607   4.271544   2.855437
    12  C    4.197492   3.699266   2.420644   1.411359   2.479806
    13  C    5.188291   4.937252   3.747963   2.509026   3.013826
    14  C    6.504473   6.108831   4.818056   3.750271   4.396862
    15  O    7.490863   7.249110   6.014004   4.830043   5.214572
    16  O    6.955370   6.301275   4.930460   4.179547   5.140571
    17  H    3.395652   2.143976   1.084076   2.162976   3.434366
    18  H    3.411446   3.925838   3.445484   2.180840   1.082609
    19  H    1.885648   3.172307   4.289325   4.533203   3.758936
    20  H    4.330442   3.234103   3.890904   5.303305   6.043909
    21  H    3.998537   2.685472   2.818547   4.175379   5.134343
    22  H    3.998440   2.685214   2.817875   4.174497   5.132472
    23  H    4.315589   5.633850   6.030899   5.321569   3.915014
    24  H    3.997899   5.073300   5.139597   4.204610   2.841512
    25  H    3.995752   5.070995   5.136720   4.201289   2.839901
    26  H    4.748495   3.943178   2.561514   2.128306   3.429379
    27  H    5.203434   5.245688   4.242172   2.851650   2.816260
    28  H    8.359158   8.036177   6.755420   5.649435   6.126218
    29  H    7.897349   7.222591   5.845945   5.121127   6.061136
                    6          7          8          9         10
     6  C    0.000000
     7  O    2.379188   0.000000
     8  O    3.639529   2.612334   0.000000
     9  C    4.825607   4.032117   1.420159   0.000000
    10  O    1.351276   2.608582   4.620765   5.929271   0.000000
    11  C    2.381100   4.030676   5.945580   7.191823   1.423592
    12  C    3.717043   5.516931   4.852322   5.091122   4.913504
    13  C    4.385826   6.489938   6.160151   6.473359   5.362311
    14  C    5.765558   7.817494   7.248745   7.362155   6.745338
    15  O    6.584859   8.779801   8.443308   8.634292   7.398967
    16  O    6.451974   8.271845   7.282715   7.139954   7.569417
    17  H    3.884910   4.489791   2.730403   2.545465   5.226588
    18  H    2.136404   4.511429   5.259546   6.142210   2.737376
    19  H    2.390458   0.972031   3.578142   4.998274   2.085402
    20  H    5.637302   4.434235   2.009413   1.087807   6.624135
    21  H    5.052870   4.545365   2.078445   1.095619   6.220207
    22  H    5.051988   4.545779   2.078471   1.095603   6.219222
    23  H    3.252263   4.418916   6.626180   7.944355   2.015206
    24  H    2.695417   4.545793   6.240926   7.411246   2.075730
    25  H    2.693390   4.544307   6.239146   7.409315   2.075672
    26  H    4.537570   6.039966   4.890533   4.816878   5.811161
    27  H    4.156181   6.441977   6.547027   7.060215   4.905826
    28  H    7.500068   9.658930   9.186067   9.274277   8.339971
    29  H    7.383784   9.213601   8.171077   7.955058   8.481715
                   11         12         13         14         15
    11  C    0.000000
    12  C    5.219617   0.000000
    13  C    5.296452   1.388184   0.000000
    14  C    6.617123   2.410305   1.386719   0.000000
    15  O    7.028903   3.595141   2.323238   1.314793   0.000000
    16  O    7.628143   2.773356   2.353912   1.318445   2.285728
    17  H    6.138424   2.613111   3.999903   4.818733   6.098348
    18  H    2.573517   2.739543   2.735358   4.085698   4.662992
    19  H    3.438129   5.932379   6.748489   8.116314   8.973025
    20  H    7.954960   6.178409   7.559685   8.445412   9.720482
    21  H    7.408002   4.854365   6.223430   7.024550   8.295560
    22  H    7.407089   4.851651   6.221516   7.015529   8.306252
    23  H    1.087826   6.304980   6.367945   7.673061   8.024560
    24  H    1.094694   4.997949   4.939723   6.204233   6.556230
    25  H    1.094717   4.996162   4.937316   6.209884   6.538118
    26  H    6.241837   1.089175   2.113523   2.590923   3.897483
    27  H    4.585574   2.181867   1.081958   2.097458   2.494634
    28  H    7.975052   4.343548   3.172954   1.939977   0.968676
    29  H    8.484088   3.713507   3.188128   1.939441   2.425573
                   16         17         18         19         20
    16  O    0.000000
    17  H    4.637620   0.000000
    18  H    5.056326   4.331732   0.000000
    19  H    8.702658   5.259846   4.467615   0.000000
    20  H    8.191584   3.626835   7.120270   5.400802   0.000000
    21  H    6.740276   2.342974   6.155522   5.480732   1.784415
    22  H    6.698432   2.342328   6.152763   5.480754   1.784391
    23  H    8.706016   7.107879   3.655850   3.641329   8.622819
    24  H    7.241918   6.158605   2.369824   4.047626   8.226430
    25  H    7.276401   6.155704   2.370708   4.046885   8.224909
    26  H    2.394731   2.277957   3.812367   6.584238   5.890451
    27  H    3.294150   4.713608   2.168856   6.544013   8.130877
    28  H    2.422691   6.729348   5.606069   9.883565  10.352997
    29  H    0.968527   5.490915   5.920524   9.644280   8.988059
                   21         22         23         24         25
    21  H    0.000000
    22  H    1.797772   0.000000
    23  H    8.213803   8.213365   0.000000
    24  H    7.680966   7.466316   1.785527   0.000000
    25  H    7.465260   7.677730   1.785621   1.799120   0.000000
    26  H    4.480033   4.474203   7.320614   6.037198   6.037469
    27  H    6.875767   6.879938   5.617972   4.181617   4.169524
    28  H    8.914128   8.882539   8.966007   7.465742   7.498947
    29  H    7.494717   7.509058   9.554011   8.094196   8.076665
                   26         27         28         29
    26  H    0.000000
    27  H    3.104741   0.000000
    28  H    4.467849   3.441890   0.000000
    29  H    3.291570   4.029200   2.199464   0.000000
 Stoichiometry    C11H13O5(1+)
 Framework group  C1[X(C11H13O5)]
 Deg. of freedom    81
 Full point group                 C1      NOp   1
 Largest Abelian subgroup         C1      NOp   1
 Largest concise Abelian subgroup C1      NOp   1
                         Standard orientation:                         
 ---------------------------------------------------------------------
 Center     Atomic      Atomic             Coordinates (Angstroms)
 Number     Number       Type             X           Y           Z
 ---------------------------------------------------------------------
      1          6           0        2.394712    0.198495   -0.001939
      2          6           0        1.920259   -1.133975    0.006054
      3          6           0        0.554162   -1.348383    0.013409
      4          6           0       -0.354985   -0.257704    0.012482
      5          6           0        0.131171    1.075810    0.000960
      6          6           0        1.489798    1.291897   -0.004165
      7          8           0        3.697965    0.406167   -0.008344
      8          8           0        2.875801   -2.073378    0.005512
      9          6           0        2.467579   -3.433578    0.013408
     10          8           0        2.122974    2.485609   -0.013491
     11          6           0        1.329518    3.667573   -0.014767
     12          6           0       -1.733940   -0.558382    0.015666
     13          6           0       -2.791590    0.340743    0.018029
     14          6           0       -4.102374   -0.111408   -0.001823
     15          8           0       -5.073789    0.770441    0.084059
     16          8           0       -4.374363   -1.396422   -0.116092
     17          1           0        0.160352   -2.358379    0.019985
     18          1           0       -0.554031    1.913977   -0.003157
     19          1           0        3.879232    1.361128   -0.014348
     20          1           0        3.385686   -4.017015    0.011111
     21          1           0        1.889851   -3.660294    0.916299
     22          1           0        1.880498   -3.667976   -0.881432
     23          1           0        2.031324    4.498719   -0.020209
     24          1           0        0.703770    3.704964   -0.912206
     25          1           0        0.710228    3.711119    0.886892
     26          1           0       -1.993310   -1.616223    0.014342
     27          1           0       -2.664370    1.415056    0.035357
     28          1           0       -5.960326    0.435012   -0.115622
     29          1           0       -5.283471   -1.645953    0.105948
 ---------------------------------------------------------------------
 Rotational constants (GHZ):      0.7165377      0.2761681      0.1999124
 Standard basis: Aug-CC-pVDZ (5D, 7F)
 There are   517 symmetry adapted cartesian basis functions of A   symmetry.
 There are   485 symmetry adapted basis functions of A   symmetry.
   485 basis functions,   831 primitive gaussians,   517 cartesian basis functions
    59 alpha electrons       59 beta electrons
       nuclear repulsion energy      1075.6586877033 Hartrees.
 NAtoms=   29 NActive=   29 NUniq=   29 SFac= 1.00D+00 NAtFMM=   60 NAOKFM=F Big=F
 Integral buffers will be    131072 words long.
 Raffenetti 2 integral format.
 Two-electron integral symmetry is turned on.
 One-electron integrals computed using PRISM.
 NBasis=   485 RedAO= T EigKep=  1.31D-06  NBF=   485
 NBsUse=   484 1.00D-06 EigRej=  4.80D-07 NBFU=   484
 ExpMin= 2.97D-02 ExpMax= 1.17D+04 ExpMxC= 4.01D+02 IAcc=3 IRadAn=         5 AccDes= 0.00D+00
 Harris functional with IExCor= 1009 and IRadAn=       5 diagonalized for initial guess.
 HarFok:  IExCor= 1009 AccDes= 0.00D+00 IRadAn=         5 IDoV= 1 UseB2=F ITyADJ=14
 ICtDFT=  3500011 ScaDFX=  1.000000  1.000000  1.000000  1.000000
 FoFCou: FMM=F IPFlag=           0 FMFlag=      100000 FMFlg1=           0
         NFxFlg=           0 DoJE=T BraDBF=F KetDBF=T FulRan=T
         wScrn=  0.000000 ICntrl=     500 IOpCl=  0 I1Cent=   200000004 NGrid=           0
         NMat0=    1 NMatS0=      1 NMatT0=    0 NMatD0=    1 NMtDS0=    0 NMtDT0=    0
 Petite list used in FoFCou.
 Requested convergence on RMS density matrix=1.00D-08 within 128 cycles.
 Requested convergence on MAX density matrix=1.00D-06.
 Requested convergence on             energy=1.00D-06.
 No special actions if energy rises.
 Restarting incremental Fock formation.
 SCF Done:  E(RM062X) =  -802.651990775     A.U. after   25 cycles
            NFock= 25  Conv=0.74D-08     -V/T= 2.0057

 **********************************************************************

            Population analysis using the SCF density.

 **********************************************************************

 Orbital symmetries:
       Occupied  (A) (A) (A) (A) (A) (A) (A) (A) (A) (A) (A) (A)
                 (A) (A) (A) (A) (A) (A) (A) (A) (A) (A) (A) (A)
                 (A) (A) (A) (A) (A) (A) (A) (A) (A) (A) (A) (A)
                 (A) (A) (A) (A) (A) (A) (A) (A) (A) (A) (A) (A)
                 (A) (A) (A) (A) (A) (A) (A) (A) (A) (A) (A)
       Virtual   (A) (A) (A) (A) (A) (A) (A) (A) (A) (A) (A) (A)
                 (A) (A) (A) (A) (A) (A) (A) (A) (A) (A) (A) (A)
                 (A) (A) (A) (A) (A) (A) (A) (A) (A) (A) (A) (A)
                 (A) (A) (A) (A) (A) (A) (A) (A) (A) (A) (A) (A)
                 (A) (A) (A) (A) (A) (A) (A) (A) (A) (A) (A) (A)
                 (A) (A) (A) (A) (A) (A) (A) (A) (A) (A) (A) (A)
                 (A) (A) (A) (A) (A) (A) (A) (A) (A) (A) (A) (A)
                 (A) (A) (A) (A) (A) (A) (A) (A) (A) (A) (A) (A)
                 (A) (A) (A) (A) (A) (A) (A) (A) (A) (A) (A) (A)
                 (A) (A) (A) (A) (A) (A) (A) (A) (A) (A) (A) (A)
                 (A) (A) (A) (A) (A) (A) (A) (A) (A) (A) (A) (A)
                 (A) (A) (A) (A) (A) (A) (A) (A) (A) (A) (A) (A)
                 (A) (A) (A) (A) (A) (A) (A) (A) (A) (A) (A) (A)
                 (A) (A) (A) (A) (A) (A) (A) (A) (A) (A) (A) (A)
                 (A) (A) (A) (A) (A) (A) (A) (A) (A) (A) (A) (A)
                 (A) (A) (A) (A) (A) (A) (A) (A) (A) (A) (A) (A)
                 (A) (A) (A) (A) (A) (A) (A) (A) (A) (A) (A) (A)
                 (A) (A) (A) (A) (A) (A) (A) (A) (A) (A) (A) (A)
                 (A) (A) (A) (A) (A) (A) (A) (A) (A) (A) (A) (A)
                 (A) (A) (A) (A) (A) (A) (A) (A) (A) (A) (A) (A)
                 (A) (A) (A) (A) (A) (A) (A) (A) (A) (A) (A) (A)
                 (A) (A) (A) (A) (A) (A) (A) (A) (A) (A) (A) (A)
                 (A) (A) (A) (A) (A) (A) (A) (A) (A) (A) (A) (A)
                 (A) (A) (A) (A) (A) (A) (A) (A) (A) (A) (A) (A)
                 (A) (A) (A) (A) (A) (A) (A) (A) (A) (A) (A) (A)
                 (A) (A) (A) (A) (A) (A) (A) (A) (A) (A) (A) (A)
                 (A) (A) (A) (A) (A) (A) (A) (A) (A) (A) (A) (A)
                 (A) (A) (A) (A) (A) (A) (A) (A) (A) (A) (A) (A)
                 (A) (A) (A) (A) (A) (A) (A) (A) (A) (A) (A) (A)
                 (A) (A) (A) (A) (A) (A) (A) (A) (A) (A) (A) (A)
                 (A) (A) (A) (A) (A) (A) (A) (A) (A) (A) (A) (A)
                 (A) (A) (A) (A) (A) (A) (A) (A) (A) (A) (A) (A)
                 (A) (A) (A) (A) (A) (A) (A) (A) (A) (A) (A) (A)
                 (A) (A) (A) (A) (A) (A) (A) (A) (A) (A) (A) (A)
                 (A) (A) (A) (A) (A) (A) (A) (A) (A) (A) (A) (A)
                 (A) (A) (A) (A) (A)
 The electronic state is 1-A.
 Alpha  occ. eigenvalues --  -19.87537 -19.87469 -19.81200 -19.80988 -19.79109
 Alpha  occ. eigenvalues --  -10.87808 -10.76491 -10.75027 -10.74389 -10.74099
 Alpha  occ. eigenvalues --  -10.71722 -10.70604 -10.70373 -10.70279 -10.69522
 Alpha  occ. eigenvalues --  -10.69375  -1.43978  -1.35741  -1.35218  -1.32362
 Alpha  occ. eigenvalues --   -1.30892  -1.10999  -1.06915  -1.00839  -0.99215
 Alpha  occ. eigenvalues --   -0.94193  -0.93341  -0.89812  -0.87894  -0.86251
 Alpha  occ. eigenvalues --   -0.81592  -0.79154  -0.77809  -0.75618  -0.73514
 Alpha  occ. eigenvalues --   -0.72571  -0.71404  -0.69895  -0.68495  -0.67911
 Alpha  occ. eigenvalues --   -0.66696  -0.66303  -0.64547  -0.63045  -0.62307
 Alpha  occ. eigenvalues --   -0.62074  -0.61466  -0.60734  -0.59227  -0.58085
 Alpha  occ. eigenvalues --   -0.57277  -0.55231  -0.54031  -0.53954  -0.52553
 Alpha  occ. eigenvalues --   -0.52037  -0.47653  -0.41383  -0.38639
 Alpha virt. eigenvalues --   -0.21602  -0.14010  -0.10469  -0.10082  -0.09686
 Alpha virt. eigenvalues --   -0.08884  -0.08554  -0.08278  -0.07047  -0.06843
 Alpha virt. eigenvalues --   -0.06304  -0.05915  -0.05644  -0.05607  -0.04501
 Alpha virt. eigenvalues --   -0.03952  -0.03471  -0.03359  -0.02974  -0.02380
 Alpha virt. eigenvalues --   -0.02224  -0.01809  -0.01108  -0.00730  -0.00133
 Alpha virt. eigenvalues --    0.00270   0.00371   0.00671   0.01129   0.01649
 Alpha virt. eigenvalues --    0.01919   0.02259   0.02590   0.02697   0.03160
 Alpha virt. eigenvalues --    0.03321   0.03583   0.03920   0.04300   0.04726
 Alpha virt. eigenvalues --    0.04791   0.05165   0.05809   0.06009   0.06212
 Alpha virt. eigenvalues --    0.06625   0.07019   0.07175   0.07425   0.07793
 Alpha virt. eigenvalues --    0.07959   0.08536   0.08770   0.09368   0.09555
 Alpha virt. eigenvalues --    0.09818   0.10215   0.10854   0.11088   0.11406
 Alpha virt. eigenvalues --    0.11821   0.11907   0.12593   0.13396   0.13721
 Alpha virt. eigenvalues --    0.14140   0.14259   0.14867   0.14991   0.15273
 Alpha virt. eigenvalues --    0.15579   0.15753   0.16003   0.16615   0.16992
 Alpha virt. eigenvalues --    0.17376   0.17557   0.17907   0.18417   0.18819
 Alpha virt. eigenvalues --    0.18923   0.19695   0.20082   0.20371   0.21009
 Alpha virt. eigenvalues --    0.21511   0.21999   0.22238   0.22588   0.22777
 Alpha virt. eigenvalues --    0.22893   0.23288   0.23618   0.23897   0.23958
 Alpha virt. eigenvalues --    0.24364   0.24784   0.25395   0.25954   0.26461
 Alpha virt. eigenvalues --    0.26621   0.27252   0.27912   0.29091   0.29299
 Alpha virt. eigenvalues --    0.29542   0.29871   0.30463   0.30896   0.31321
 Alpha virt. eigenvalues --    0.31403   0.32038   0.32515   0.33162   0.33547
 Alpha virt. eigenvalues --    0.34019   0.34315   0.34907   0.35193   0.35521
 Alpha virt. eigenvalues --    0.36111   0.36430   0.37671   0.37985   0.38543
 Alpha virt. eigenvalues --    0.38842   0.39608   0.39800   0.40107   0.41013
 Alpha virt. eigenvalues --    0.41152   0.41473   0.41758   0.42525   0.42929
 Alpha virt. eigenvalues --    0.43569   0.43830   0.44175   0.44434   0.44990
 Alpha virt. eigenvalues --    0.45507   0.45673   0.45976   0.46611   0.47421
 Alpha virt. eigenvalues --    0.47733   0.48376   0.48544   0.49057   0.49146
 Alpha virt. eigenvalues --    0.49385   0.49761   0.49834   0.50489   0.50607
 Alpha virt. eigenvalues --    0.51119   0.51594   0.52097   0.52501   0.53371
 Alpha virt. eigenvalues --    0.53608   0.54511   0.55112   0.57098   0.57876
 Alpha virt. eigenvalues --    0.58367   0.58804   0.58970   0.59265   0.59790
 Alpha virt. eigenvalues --    0.61005   0.61405   0.61793   0.62527   0.62676
 Alpha virt. eigenvalues --    0.62767   0.63574   0.64205   0.64287   0.64834
 Alpha virt. eigenvalues --    0.65171   0.65564   0.65715   0.66015   0.67415
 Alpha virt. eigenvalues --    0.67568   0.68450   0.68981   0.69589   0.70148
 Alpha virt. eigenvalues --    0.71045   0.71826   0.72958   0.73164   0.73500
 Alpha virt. eigenvalues --    0.75409   0.75517   0.76333   0.77073   0.77722
 Alpha virt. eigenvalues --    0.77959   0.79118   0.79479   0.80991   0.81765
 Alpha virt. eigenvalues --    0.82911   0.83504   0.83719   0.84860   0.85439
 Alpha virt. eigenvalues --    0.86326   0.86791   0.87767   0.89406   0.89577
 Alpha virt. eigenvalues --    0.90166   0.92037   0.93863   0.94531   0.94912
 Alpha virt. eigenvalues --    0.97126   0.97526   0.97958   0.98224   0.98991
 Alpha virt. eigenvalues --    1.00393   1.01413   1.03204   1.04586   1.05357
 Alpha virt. eigenvalues --    1.05476   1.06979   1.07808   1.08860   1.10019
 Alpha virt. eigenvalues --    1.10845   1.10985   1.12041   1.12888   1.13625
 Alpha virt. eigenvalues --    1.15227   1.16831   1.17752   1.18631   1.18921
 Alpha virt. eigenvalues --    1.21224   1.21640   1.22760   1.23029   1.23982
 Alpha virt. eigenvalues --    1.24670   1.26392   1.26882   1.27340   1.27609
 Alpha virt. eigenvalues --    1.27803   1.29873   1.30607   1.31856   1.33363
 Alpha virt. eigenvalues --    1.34361   1.34786   1.35996   1.36517   1.37094
 Alpha virt. eigenvalues --    1.38448   1.38840   1.39525   1.40129   1.40944
 Alpha virt. eigenvalues --    1.41674   1.42137   1.43062   1.44301   1.44848
 Alpha virt. eigenvalues --    1.46061   1.46834   1.47303   1.47960   1.49957
 Alpha virt. eigenvalues --    1.50583   1.51243   1.51797   1.52103   1.53837
 Alpha virt. eigenvalues --    1.54617   1.54774   1.56286   1.57047   1.58102
 Alpha virt. eigenvalues --    1.58493   1.59098   1.59644   1.60229   1.61154
 Alpha virt. eigenvalues --    1.61517   1.62887   1.63227   1.64511   1.65165
 Alpha virt. eigenvalues --    1.66085   1.67700   1.68128   1.68626   1.69860
 Alpha virt. eigenvalues --    1.70551   1.71831   1.74289   1.75351   1.77102
 Alpha virt. eigenvalues --    1.77877   1.78450   1.79290   1.81334   1.82206
 Alpha virt. eigenvalues --    1.82724   1.83163   1.83725   1.84484   1.84920
 Alpha virt. eigenvalues --    1.86014   1.87580   1.88289   1.88350   1.88882
 Alpha virt. eigenvalues --    1.89125   1.90098   1.91420   1.93353   1.93966
 Alpha virt. eigenvalues --    1.94782   1.95119   1.96127   1.96542   1.97198
 Alpha virt. eigenvalues --    1.98519   1.98898   1.99687   2.00871   2.01406
 Alpha virt. eigenvalues --    2.03361   2.04137   2.05829   2.06477   2.07311
 Alpha virt. eigenvalues --    2.08608   2.09600   2.10205   2.10993   2.12927
 Alpha virt. eigenvalues --    2.13806   2.16735   2.19078   2.20809   2.21623
 Alpha virt. eigenvalues --    2.22803   2.23392   2.25230   2.28906   2.29655
 Alpha virt. eigenvalues --    2.31023   2.32209   2.33843   2.35153   2.35700
 Alpha virt. eigenvalues --    2.38471   2.40268   2.41394   2.43230   2.46907
 Alpha virt. eigenvalues --    2.49240   2.52006   2.53153   2.54539   2.55125
 Alpha virt. eigenvalues --    2.56374   2.60345   2.62585   2.63330   2.65220
 Alpha virt. eigenvalues --    2.66743   2.68431   2.69454   2.71168   2.76942
 Alpha virt. eigenvalues --    2.78980   2.80985   2.86441   2.92003   2.99896
 Alpha virt. eigenvalues --    3.02096   3.05973   3.08517   3.19451   3.20646
 Alpha virt. eigenvalues --    3.21695   3.24183   3.26378   3.26856   3.30121
 Alpha virt. eigenvalues --    3.30826   3.31340   3.31794   3.34646   3.34892
 Alpha virt. eigenvalues --    3.37036   3.37600   3.37776   3.41758   3.44803
 Alpha virt. eigenvalues --    3.45630   3.48638   3.52571   3.55146   3.57689
 Alpha virt. eigenvalues --    3.58178   3.61966   3.70008   3.74375   3.80190
 Alpha virt. eigenvalues --    3.85787   3.90564   3.91568   4.00868   4.66725
          Condensed to atoms (all electrons):
               1          2          3          4          5          6
     1  C   16.744300  -3.181501   2.573397  -5.307429   0.902595  -3.508272
     2  C   -3.181501  18.844461  -9.138252   1.312442  -1.335355   0.281157
     3  C    2.573397  -9.138252  30.959546  -7.924474  -2.643523   0.119299
     4  C   -5.307429   1.312442  -7.924474  32.670940  -8.063394  -2.124311
     5  C    0.902595  -1.335355  -2.643523  -8.063394  26.868522  -4.744410
     6  C   -3.508272   0.281157   0.119299  -2.124311  -4.744410  17.480257
     7  O   -0.978542   0.217805  -0.267810   0.169673   0.102438   0.564671
     8  O    0.378137  -1.648594   1.307726  -0.308908   0.021258  -0.119730
     9  C   -0.112319   0.053527  -0.263076   0.021873   0.033155  -0.006259
    10  O    0.795905   0.060621  -0.101647  -0.225504   0.600597  -1.426672
    11  C   -0.419131   0.031039   0.002843   0.164276  -0.095925   0.074102
    12  C    0.127811  -1.579544  -3.691707 -12.470768  -1.188259  -0.359775
    13  C   -0.190526   0.048710  -1.410838   0.023652  -1.687374  -0.284094
    14  C   -0.106959   0.226640  -0.497977   0.618941  -0.498097  -0.104490
    15  O   -0.000792  -0.000146   0.006466  -0.024351   0.024452  -0.003185
    16  O    0.002119  -0.010335   0.035006  -0.131613   0.032090   0.000513
    17  H   -0.264361   1.123319  -3.996186   1.294249   0.250877  -0.106652
    18  H   -0.980846   0.230242   0.104321   2.430136  -3.945755   0.020174
    19  H    0.051565  -0.067906   0.061156  -0.031834   0.000583  -0.098282
    20  H   -0.221726   0.530848  -0.081887  -0.075879  -0.042580   0.104497
    21  H    0.074637  -0.095269  -0.054284   0.075739   0.045323  -0.067904
    22  H    0.081515  -0.108821  -0.039215   0.059647   0.043801  -0.066244
    23  H   -0.280976   0.095929  -0.044691  -0.007112   0.033422   0.370980
    24  H    0.082439  -0.066274   0.044852   0.009639  -0.035961  -0.045844
    25  H    0.078468  -0.064446   0.044628   0.010854  -0.034676  -0.048847
    26  H   -0.088011   0.333998  -0.639679   2.142073  -0.714254  -0.113788
    27  H   -0.031099   0.020329  -0.136374   0.036016   0.261776  -0.021651
    28  H    0.000035  -0.000129   0.000454  -0.002774  -0.000870   0.000482
    29  H   -0.000787   0.002118  -0.006979   0.007697   0.000425  -0.000105
               7          8          9         10         11         12
     1  C   -0.978542   0.378137  -0.112319   0.795905  -0.419131   0.127811
     2  C    0.217805  -1.648594   0.053527   0.060621   0.031039  -1.579544
     3  C   -0.267810   1.307726  -0.263076  -0.101647   0.002843  -3.691707
     4  C    0.169673  -0.308908   0.021873  -0.225504   0.164276 -12.470768
     5  C    0.102438   0.021258   0.033155   0.600597  -0.095925  -1.188259
     6  C    0.564671  -0.119730  -0.006259  -1.426672   0.074102  -0.359775
     7  O    8.657373  -0.087642   0.011508  -0.107585   0.033309  -0.027105
     8  O   -0.087642   9.393672   0.106859  -0.021625   0.000011   0.037733
     9  C    0.011508   0.106859   4.047132   0.002982   0.000482   0.036777
    10  O   -0.107585  -0.021625   0.002982   9.378885   0.087096  -0.017288
    11  C    0.033309   0.000011   0.000482   0.087096   4.113797   0.005859
    12  C   -0.027105   0.037733   0.036777  -0.017288   0.005859  35.348303
    13  C    0.010192  -0.016546   0.030863   0.009452  -0.016774  -7.139027
    14  C    0.001306  -0.001793  -0.004398   0.001457   0.012106  -1.276323
    15  O    0.000005  -0.000004   0.000018   0.000014  -0.000004   0.011673
    16  O   -0.000007   0.000008   0.000392  -0.000028   0.000030  -0.039817
    17  H   -0.004465  -0.217568   0.074847   0.001185  -0.009167  -0.144365
    18  H    0.022077  -0.001525  -0.005960  -0.211405   0.071014  -0.281798
    19  H    0.258691   0.009258  -0.004171   0.069974  -0.006098   0.004851
    20  H   -0.004141  -0.513372   0.212361  -0.000912   0.000760   0.022834
    21  H    0.004374   0.163562   0.281988   0.001399  -0.000118  -0.033830
    22  H    0.004179   0.162794   0.287329   0.001348  -0.000153  -0.030459
    23  H    0.005640  -0.000868   0.000835  -0.522547   0.260880   0.000393
    24  H    0.000690   0.001017  -0.000293   0.166671   0.256236  -0.009251
    25  H    0.001012   0.000966  -0.000330   0.164648   0.262482  -0.005452
    26  H    0.003109  -0.007980   0.001622   0.004172   0.006273  -3.316058
    27  H    0.000180   0.000453  -0.000630   0.001341   0.025214   1.556308
    28  H   -0.000000   0.000001  -0.000009  -0.000007   0.000020   0.001102
    29  H    0.000008  -0.000005  -0.000134   0.000013   0.000016   0.010497
              13         14         15         16         17         18
     1  C   -0.190526  -0.106959  -0.000792   0.002119  -0.264361  -0.980846
     2  C    0.048710   0.226640  -0.000146  -0.010335   1.123319   0.230242
     3  C   -1.410838  -0.497977   0.006466   0.035006  -3.996186   0.104321
     4  C    0.023652   0.618941  -0.024351  -0.131613   1.294249   2.430136
     5  C   -1.687374  -0.498097   0.024452   0.032090   0.250877  -3.945755
     6  C   -0.284094  -0.104490  -0.003185   0.000513  -0.106652   0.020174
     7  O    0.010192   0.001306   0.000005  -0.000007  -0.004465   0.022077
     8  O   -0.016546  -0.001793  -0.000004   0.000008  -0.217568  -0.001525
     9  C    0.030863  -0.004398   0.000018   0.000392   0.074847  -0.005960
    10  O    0.009452   0.001457   0.000014  -0.000028   0.001185  -0.211405
    11  C   -0.016774   0.012106  -0.000004   0.000030  -0.009167   0.071014
    12  C   -7.139027  -1.276323   0.011673  -0.039817  -0.144365  -0.281798
    13  C   22.925252  -5.926350   0.418026   0.509257   0.045259   0.233137
    14  C   -5.926350  13.348517  -0.500413  -0.392791  -0.013332  -0.042356
    15  O    0.418026  -0.500413   8.310533   0.037739   0.000640   0.004018
    16  O    0.509257  -0.392791   0.037739   8.340820  -0.006334   0.002551
    17  H    0.045259  -0.013332   0.000640  -0.006334   4.742610  -0.013615
    18  H    0.233137  -0.042356   0.004018   0.002551  -0.013615   5.261102
    19  H   -0.002086  -0.000790  -0.000006   0.000015  -0.003502  -0.004311
    20  H    0.004234  -0.000444  -0.000003  -0.000002   0.046234  -0.002604
    21  H   -0.007615   0.001755   0.000020   0.000126  -0.077347   0.002729
    22  H   -0.008055   0.001597   0.000018   0.000111  -0.074339   0.003130
    23  H    0.009199   0.002224   0.000003  -0.000009  -0.003872   0.045605
    24  H   -0.003755  -0.006409  -0.000088   0.000091   0.003279  -0.080181
    25  H   -0.007601  -0.005531  -0.000096   0.000088   0.003522  -0.079387
    26  H    0.136724   0.775410  -0.022965  -0.105768  -0.228216  -0.027985
    27  H   -3.347138   0.324671  -0.027375  -0.050598  -0.014296  -0.360202
    28  H    0.034677  -0.037140   0.280399  -0.045246  -0.000050   0.000423
    29  H    0.016225  -0.066264  -0.040286   0.281298   0.001711   0.000952
              19         20         21         22         23         24
     1  C    0.051565  -0.221726   0.074637   0.081515  -0.280976   0.082439
     2  C   -0.067906   0.530848  -0.095269  -0.108821   0.095929  -0.066274
     3  C    0.061156  -0.081887  -0.054284  -0.039215  -0.044691   0.044852
     4  C   -0.031834  -0.075879   0.075739   0.059647  -0.007112   0.009639
     5  C    0.000583  -0.042580   0.045323   0.043801   0.033422  -0.035961
     6  C   -0.098282   0.104497  -0.067904  -0.066244   0.370980  -0.045844
     7  O    0.258691  -0.004141   0.004374   0.004179   0.005640   0.000690
     8  O    0.009258  -0.513372   0.163562   0.162794  -0.000868   0.001017
     9  C   -0.004171   0.212361   0.281988   0.287329   0.000835  -0.000293
    10  O    0.069974  -0.000912   0.001399   0.001348  -0.522547   0.166671
    11  C   -0.006098   0.000760  -0.000118  -0.000153   0.260880   0.256236
    12  C    0.004851   0.022834  -0.033830  -0.030459   0.000393  -0.009251
    13  C   -0.002086   0.004234  -0.007615  -0.008055   0.009199  -0.003755
    14  C   -0.000790  -0.000444   0.001755   0.001597   0.002224  -0.006409
    15  O   -0.000006  -0.000003   0.000020   0.000018   0.000003  -0.000088
    16  O    0.000015  -0.000002   0.000126   0.000111  -0.000009   0.000091
    17  H   -0.003502   0.046234  -0.077347  -0.074339  -0.003872   0.003279
    18  H   -0.004311  -0.002604   0.002729   0.003130   0.045605  -0.080181
    19  H    0.500282  -0.002932   0.000503   0.000524  -0.011672   0.002048
    20  H   -0.002932   2.718275  -0.571055  -0.568983  -0.000039   0.000220
    21  H    0.000503  -0.571055   1.478735  -0.092814   0.000280  -0.000335
    22  H    0.000524  -0.568983  -0.092814   1.473694   0.000280  -0.000414
    23  H   -0.011672  -0.000039   0.000280   0.000280   2.753051  -0.577127
    24  H    0.002048   0.000220  -0.000335  -0.000414  -0.577127   1.485084
    25  H    0.001983   0.000211  -0.000398  -0.000340  -0.575799  -0.122758
    26  H   -0.000611  -0.000527   0.004570   0.003717   0.001470  -0.002181
    27  H   -0.000483   0.000214  -0.000158  -0.000269   0.002202  -0.001604
    28  H    0.000000  -0.000002   0.000002   0.000004   0.000004  -0.000004
    29  H   -0.000006  -0.000010   0.000006   0.000000   0.000002  -0.000030
              25         26         27         28         29
     1  C    0.078468  -0.088011  -0.031099   0.000035  -0.000787
     2  C   -0.064446   0.333998   0.020329  -0.000129   0.002118
     3  C    0.044628  -0.639679  -0.136374   0.000454  -0.006979
     4  C    0.010854   2.142073   0.036016  -0.002774   0.007697
     5  C   -0.034676  -0.714254   0.261776  -0.000870   0.000425
     6  C   -0.048847  -0.113788  -0.021651   0.000482  -0.000105
     7  O    0.001012   0.003109   0.000180  -0.000000   0.000008
     8  O    0.000966  -0.007980   0.000453   0.000001  -0.000005
     9  C   -0.000330   0.001622  -0.000630  -0.000009  -0.000134
    10  O    0.164648   0.004172   0.001341  -0.000007   0.000013
    11  C    0.262482   0.006273   0.025214   0.000020   0.000016
    12  C   -0.005452  -3.316058   1.556308   0.001102   0.010497
    13  C   -0.007601   0.136724  -3.347138   0.034677   0.016225
    14  C   -0.005531   0.775410   0.324671  -0.037140  -0.066264
    15  O   -0.000096  -0.022965  -0.027375   0.280399  -0.040286
    16  O    0.000088  -0.105768  -0.050598  -0.045246   0.281298
    17  H    0.003522  -0.228216  -0.014296  -0.000050   0.001711
    18  H   -0.079387  -0.027985  -0.360202   0.000423   0.000952
    19  H    0.001983  -0.000611  -0.000483   0.000000  -0.000006
    20  H    0.000211  -0.000527   0.000214  -0.000002  -0.000010
    21  H   -0.000398   0.004570  -0.000158   0.000002   0.000006
    22  H   -0.000340   0.003717  -0.000269   0.000004   0.000000
    23  H   -0.575799   0.001470   0.002202   0.000004   0.000002
    24  H   -0.122758  -0.002181  -0.001604  -0.000004  -0.000030
    25  H    1.480010  -0.002527  -0.001188  -0.000012  -0.000015
    26  H   -0.002527   3.725675   0.154485   0.000059   0.001677
    27  H   -0.001188   0.154485   3.624725  -0.010653   0.006052
    28  H   -0.000012   0.000059  -0.010653   0.529811   0.011850
    29  H   -0.000015   0.001677   0.006052   0.011850   0.568958
 Mulliken charges:
               1
     1  C   -0.219644
     2  C   -0.116612
     3  C    1.678903
     4  C    1.650502
     5  C    1.809120
     6  C    0.234380
     7  O   -0.590943
     8  O   -0.637297
     9  C    1.193029
    10  O   -0.712540
    11  C    1.139527
    12  C    0.446683
    13  C    1.592921
    14  C    0.167232
    15  O   -0.474309
    16  O   -0.459706
    17  H   -1.410066
    18  H   -1.393680
    19  H    0.273256
    20  H   -0.553591
    21  H   -0.134618
    22  H   -0.133583
    23  H   -0.557691
    24  H   -0.099758
    25  H   -0.099467
    26  H   -1.024486
    27  H   -1.010249
    28  H    0.237571
    29  H    0.205113
 Sum of Mulliken charges =   1.00000
 Mulliken charges with hydrogens summed into heavy atoms:
               1
     1  C   -0.219644
     2  C   -0.116612
     3  C    0.268837
     4  C    1.650502
     5  C    0.415440
     6  C    0.234380
     7  O   -0.317686
     8  O   -0.637297
     9  C    0.371237
    10  O   -0.712540
    11  C    0.382612
    12  C   -0.577802
    13  C    0.582672
    14  C    0.167232
    15  O   -0.236738
    16  O   -0.254592
 Electronic spatial extent (au):  <R**2>=           5040.4259
 Charge=              1.0000 electrons
 Dipole moment (field-independent basis, Debye):
    X=            -10.2360    Y=             -0.1393    Z=              0.0340  Tot=             10.2370
 Quadrupole moment (field-independent basis, Debye-Ang):
   XX=             -8.7477   YY=            -56.4375   ZZ=            -94.3842
   XY=             11.2436   XZ=              0.1172   YZ=             -1.0401
 Traceless Quadrupole moment (field-independent basis, Debye-Ang):
   XX=             44.4421   YY=             -3.2477   ZZ=            -41.1944
   XY=             11.2436   XZ=              0.1172   YZ=             -1.0401
 Octapole moment (field-independent basis, Debye-Ang**2):
  XXX=           -442.6306  YYY=              8.0476  ZZZ=             -0.3353  XYY=             38.7849
  XXY=            -39.1117  XXZ=             -2.7078  XZZ=             -1.6344  YZZ=              0.4344
  YYZ=              0.9748  XYZ=              4.4466
 Hexadecapole moment (field-independent basis, Debye-Ang**3):
 XXXX=          -1346.1993 YYYY=          -1426.7086 ZZZZ=           -109.0968 XXXY=            377.7934
 XXXZ=             22.7116 YYYX=             14.1652 YYYZ=             -3.3304 ZZZX=              0.5579
 ZZZY=             -0.0492 XXYY=           -781.9826 XXZZ=           -730.3277 YYZZ=           -334.1344
 XXYZ=            -25.8343 YYXZ=             -5.2294 ZZXY=              5.0120
 N-N= 1.075658687703D+03 E-N=-4.010310884726D+03  KE= 7.981173473670D+02
 Calling FoFJK, ICntrl=      2127 FMM=F ISym2X=0 I1Cent= 0 IOpClX= 0 NMat=1 NMatS=1 NMatT=0.
 ***** Axes restored to original set *****
 -------------------------------------------------------------------
 Center     Atomic                   Forces (Hartrees/Bohr)
 Number     Number              X              Y              Z
 -------------------------------------------------------------------
      1        6          -0.000970698    0.000292586    0.000011207
      2        6           0.000328175   -0.000368880    0.000049012
      3        6          -0.000601719    0.001229052    0.000127213
      4        6           0.001278395   -0.000137393   -0.000454136
      5        6          -0.000102347   -0.001130705    0.000345899
      6        6           0.000500839    0.001422197   -0.000098220
      7        8           0.002217897    0.000305101   -0.000020340
      8        8           0.001831423    0.000718367   -0.000010514
      9        6          -0.000560310    0.000779177   -0.000005737
     10        8           0.001372190    0.000000361   -0.000001350
     11        6          -0.000248231   -0.001571915   -0.000002678
     12        6           0.000156628    0.001285326   -0.000068946
     13        6           0.000726416   -0.000719998    0.000027014
     14        6          -0.002305581   -0.001669634   -0.000186108
     15        8          -0.000712850    0.002469529    0.000040093
     16        8           0.000605897   -0.002079913    0.000315713
     17        1          -0.000704229   -0.002143334    0.000017409
     18        1          -0.001243405    0.001929590    0.000009428
     19        1          -0.001137326   -0.001082292    0.000016751
     20        1           0.001817915   -0.001028816   -0.000000690
     21        1          -0.001204463   -0.000097172    0.001796029
     22        1          -0.001221245   -0.000113750   -0.001777163
     23        1           0.001486625    0.001525924   -0.000015251
     24        1          -0.001244790   -0.000238686   -0.001814265
     25        1          -0.001233967   -0.000230862    0.001821374
     26        1          -0.000185550   -0.002099047   -0.000022956
     27        1           0.000331578    0.002363391    0.000024010
     28        1           0.001123625   -0.001665338    0.000363151
     29        1          -0.000100892    0.002057136   -0.000485950
 -------------------------------------------------------------------
 Cartesian Forces:  Max     0.002469529 RMS     0.001097806

 GradGradGradGradGradGradGradGradGradGradGradGradGradGradGradGradGradGrad
 Berny optimization.
 FormGI is forming the generalized inverse of G from B-inverse, IUseBI=4.
 Internal  Forces:  Max     0.003983700 RMS     0.000998513
 Search for a local minimum.
 Step number   1 out of a maximum of  135
 All quantities printed in internal units (Hartrees-Bohrs-Radians)
 Mixed Optimization -- En-DIIS/RFO-DIIS
 Second derivative matrix not updated -- first step.
 ITU=  0
     Eigenvalues ---    0.01380   0.01425   0.01841   0.01865   0.01938
     Eigenvalues ---    0.01957   0.02033   0.02072   0.02092   0.02141
     Eigenvalues ---    0.02163   0.02194   0.02245   0.02245   0.02254
     Eigenvalues ---    0.02264   0.02336   0.02486   0.02531   0.02754
     Eigenvalues ---    0.02771   0.02819   0.10158   0.10215   0.10714
     Eigenvalues ---    0.10725   0.16000   0.16000   0.16000   0.16000
     Eigenvalues ---    0.16000   0.16000   0.16000   0.16000   0.16000
     Eigenvalues ---    0.16000   0.16000   0.16000   0.16000   0.22000
     Eigenvalues ---    0.22000   0.23476   0.23485   0.24999   0.24999
     Eigenvalues ---    0.25000   0.25000   0.25000   0.25000   0.25000
     Eigenvalues ---    0.25000   0.25000   0.34171   0.34173   0.34273
     Eigenvalues ---    0.34276   0.34908   0.35065   0.35067   0.35506
     Eigenvalues ---    0.35681   0.35759   0.39424   0.41023   0.41924
     Eigenvalues ---    0.42436   0.42521   0.42979   0.43789   0.46763
     Eigenvalues ---    0.47636   0.47894   0.49384   0.52964   0.53648
     Eigenvalues ---    0.53679   0.54751   0.57210   0.62003   0.62320
     Eigenvalues ---    0.63247
 RFO step:  Lambda=-5.39397179D-04 EMin= 1.37970910D-02
 Linear search not attempted -- first point.
 Iteration  1 RMS(Cart)=  0.01945064 RMS(Int)=  0.00020112
 Iteration  2 RMS(Cart)=  0.00026537 RMS(Int)=  0.00000238
 Iteration  3 RMS(Cart)=  0.00000009 RMS(Int)=  0.00000238
 Variable       Old X    -DE/DX   Delta X   Delta X   Delta X     New X
                                 (Linear)    (Quad)   (Total)
    R1        2.67291   0.00065   0.00000   0.00154   0.00154   2.67445
    R2        2.68208   0.00110   0.00000   0.00263   0.00263   2.68471
    R3        2.49389   0.00094   0.00000   0.00152   0.00152   2.49541
    R4        2.61319   0.00094   0.00000   0.00193   0.00193   2.61512
    R5        2.53219   0.00029   0.00000   0.00051   0.00051   2.53270
    R6        2.68323  -0.00007   0.00000  -0.00022  -0.00022   2.68301
    R7        2.04861   0.00225   0.00000   0.00633   0.00633   2.05494
    R8        2.68231   0.00030   0.00000   0.00064   0.00065   2.68295
    R9        2.66708   0.00037   0.00000   0.00084   0.00084   2.66792
   R10        2.59972   0.00082   0.00000   0.00164   0.00164   2.60136
   R11        2.04583   0.00228   0.00000   0.00638   0.00638   2.05222
   R12        2.55354  -0.00039   0.00000  -0.00072  -0.00072   2.55282
   R13        1.83687  -0.00127   0.00000  -0.00240  -0.00240   1.83447
   R14        2.68371   0.00077   0.00000   0.00182   0.00182   2.68553
   R15        2.05566   0.00209   0.00000   0.00594   0.00594   2.06160
   R16        2.07042   0.00213   0.00000   0.00623   0.00623   2.07665
   R17        2.07039   0.00213   0.00000   0.00623   0.00623   2.07662
   R18        2.69020   0.00027   0.00000   0.00064   0.00064   2.69083
   R19        2.05569   0.00212   0.00000   0.00605   0.00605   2.06174
   R20        2.06867   0.00219   0.00000   0.00638   0.00638   2.07505
   R21        2.06872   0.00219   0.00000   0.00639   0.00639   2.07510
   R22        2.62329   0.00074   0.00000   0.00155   0.00155   2.62483
   R23        2.05824   0.00208   0.00000   0.00596   0.00596   2.06420
   R24        2.62052   0.00160   0.00000   0.00335   0.00335   2.62386
   R25        2.04460   0.00239   0.00000   0.00666   0.00666   2.05127
   R26        2.48460   0.00026   0.00000   0.00041   0.00041   2.48501
   R27        2.49150  -0.00006   0.00000  -0.00010  -0.00010   2.49140
   R28        1.83053  -0.00053   0.00000  -0.00098  -0.00098   1.82955
   R29        1.83025  -0.00055   0.00000  -0.00102  -0.00102   1.82923
    A1        2.10817  -0.00000   0.00000   0.00024   0.00024   2.10841
    A2        2.07091  -0.00032   0.00000  -0.00142  -0.00142   2.06949
    A3        2.10411   0.00033   0.00000   0.00118   0.00118   2.10529
    A4        2.06857   0.00007   0.00000   0.00041   0.00041   2.06897
    A5        2.00560   0.00076   0.00000   0.00296   0.00296   2.00855
    A6        2.20902  -0.00083   0.00000  -0.00337  -0.00337   2.20566
    A7        2.10998  -0.00033   0.00000  -0.00160  -0.00160   2.10838
    A8        2.09827   0.00004   0.00000   0.00001   0.00001   2.09829
    A9        2.07493   0.00029   0.00000   0.00158   0.00158   2.07652
   A10        2.09711   0.00065   0.00000   0.00244   0.00243   2.09955
   A11        2.05098  -0.00014   0.00000  -0.00048  -0.00049   2.05049
   A12        2.13508  -0.00050   0.00000  -0.00192  -0.00193   2.13315
   A13        2.07813  -0.00015   0.00000  -0.00071  -0.00071   2.07742
   A14        2.10669   0.00034   0.00000   0.00200   0.00200   2.10869
   A15        2.09837  -0.00019   0.00000  -0.00129  -0.00129   2.09708
   A16        2.10441  -0.00024   0.00000  -0.00077  -0.00077   2.10364
   A17        1.96255   0.00166   0.00000   0.00654   0.00654   1.96909
   A18        2.21622  -0.00142   0.00000  -0.00577  -0.00577   2.21046
   A19        1.91642  -0.00168   0.00000  -0.01048  -0.01048   1.90594
   A20        2.05610  -0.00324   0.00000  -0.01294  -0.01294   2.04316
   A21        1.84531   0.00007   0.00000   0.00085   0.00085   1.84616
   A22        1.93301  -0.00043   0.00000  -0.00291  -0.00291   1.93010
   A23        1.93307  -0.00044   0.00000  -0.00293  -0.00294   1.93013
   A24        1.91325   0.00030   0.00000   0.00228   0.00228   1.91553
   A25        1.91324   0.00030   0.00000   0.00227   0.00227   1.91550
   A26        1.92437   0.00021   0.00000   0.00056   0.00055   1.92492
   A27        2.06269  -0.00398   0.00000  -0.01590  -0.01590   2.04679
   A28        1.84916  -0.00002   0.00000   0.00023   0.00023   1.84939
   A29        1.92591  -0.00036   0.00000  -0.00244  -0.00245   1.92346
   A30        1.92580  -0.00037   0.00000  -0.00251  -0.00251   1.92329
   A31        1.91620   0.00030   0.00000   0.00220   0.00220   1.91840
   A32        1.91632   0.00030   0.00000   0.00222   0.00222   1.91854
   A33        1.92890   0.00016   0.00000   0.00034   0.00034   1.92924
   A34        2.22235  -0.00044   0.00000  -0.00201  -0.00201   2.22034
   A35        2.02592  -0.00011   0.00000  -0.00105  -0.00105   2.02488
   A36        2.03491   0.00055   0.00000   0.00306   0.00306   2.03797
   A37        2.10478   0.00000   0.00000   0.00002   0.00002   2.10479
   A38        2.15743  -0.00005   0.00000  -0.00033  -0.00033   2.15710
   A39        2.02098   0.00005   0.00000   0.00031   0.00031   2.02129
   A40        2.07003   0.00009   0.00000   0.00037   0.00037   2.07040
   A41        2.11067   0.00107   0.00000   0.00429   0.00429   2.11496
   A42        2.10244  -0.00116   0.00000  -0.00463  -0.00463   2.09781
   A43        2.01581  -0.00344   0.00000  -0.02144  -0.02144   1.99436
   A44        2.00962  -0.00345   0.00000  -0.02152  -0.02152   1.98811
    D1       -0.00144   0.00002   0.00000   0.00117   0.00117  -0.00027
    D2        3.14006   0.00001   0.00000   0.00065   0.00065   3.14071
    D3        3.14105   0.00001   0.00000   0.00054   0.00054   3.14159
    D4       -0.00063  -0.00000   0.00000   0.00002   0.00002  -0.00061
    D5       -0.00039  -0.00000   0.00000  -0.00019  -0.00019  -0.00058
    D6       -3.14042  -0.00002   0.00000  -0.00129  -0.00129   3.14148
    D7        3.14028   0.00001   0.00000   0.00045   0.00045   3.14074
    D8        0.00026  -0.00001   0.00000  -0.00065  -0.00065  -0.00039
    D9        3.14056   0.00001   0.00000   0.00050   0.00050   3.14107
   D10       -0.00013  -0.00000   0.00000  -0.00013  -0.00013  -0.00026
   D11        0.00040   0.00002   0.00000   0.00083   0.00083   0.00123
   D12       -3.14121  -0.00000   0.00000   0.00004   0.00004  -3.14118
   D13       -3.14109   0.00003   0.00000   0.00142   0.00141  -3.13968
   D14        0.00048   0.00001   0.00000   0.00062   0.00062   0.00110
   D15        3.14151   0.00002   0.00000   0.00097   0.00096  -3.14071
   D16       -0.00018   0.00001   0.00000   0.00039   0.00039   0.00022
   D17        0.00242  -0.00007   0.00000  -0.00378  -0.00379  -0.00137
   D18        3.13789   0.00006   0.00000   0.00290   0.00290   3.14079
   D19       -3.13915  -0.00006   0.00000  -0.00300  -0.00301   3.14103
   D20       -0.00368   0.00007   0.00000   0.00368   0.00368  -0.00000
   D21       -0.00421   0.00009   0.00000   0.00470   0.00471   0.00050
   D22        3.13803   0.00007   0.00000   0.00344   0.00344   3.14147
   D23       -3.13937  -0.00004   0.00000  -0.00232  -0.00231   3.14150
   D24        0.00287  -0.00007   0.00000  -0.00358  -0.00358  -0.00072
   D25        3.13926  -0.00000   0.00000  -0.00007  -0.00006   3.13920
   D26       -0.00437   0.00004   0.00000   0.00171   0.00171  -0.00265
   D27       -0.00860   0.00013   0.00000   0.00679   0.00678  -0.00182
   D28        3.13096   0.00017   0.00000   0.00856   0.00856   3.13952
   D29        0.00319  -0.00006   0.00000  -0.00274  -0.00274   0.00045
   D30       -3.14021  -0.00003   0.00000  -0.00146  -0.00146   3.14151
   D31       -3.13904  -0.00003   0.00000  -0.00148  -0.00148  -3.14052
   D32        0.00074  -0.00001   0.00000  -0.00020  -0.00020   0.00054
   D33       -3.14007   0.00001   0.00000   0.00035   0.00035  -3.13972
   D34        0.00321  -0.00002   0.00000  -0.00084  -0.00084   0.00238
   D35        3.14122  -0.00000   0.00000   0.00007   0.00007   3.14129
   D36       -1.07075   0.00017   0.00000   0.00175   0.00175  -1.06901
   D37        1.07000  -0.00017   0.00000  -0.00159  -0.00158   1.06842
   D38        3.13919  -0.00000   0.00000  -0.00008  -0.00008   3.13911
   D39       -1.07078   0.00015   0.00000   0.00137   0.00137  -1.06941
   D40        1.06589  -0.00015   0.00000  -0.00153  -0.00153   1.06436
   D41        3.12242   0.00016   0.00000   0.00716   0.00716   3.12958
   D42       -0.01964   0.00016   0.00000   0.00693   0.00693  -0.01271
   D43       -0.01713   0.00013   0.00000   0.00538   0.00538  -0.01175
   D44        3.12400   0.00012   0.00000   0.00514   0.00514   3.12914
   D45        3.06973   0.00009   0.00000   0.00414   0.00414   3.07387
   D46       -0.08216   0.00017   0.00000   0.00737   0.00738  -0.07478
   D47       -0.07144   0.00010   0.00000   0.00436   0.00436  -0.06708
   D48        3.05986   0.00018   0.00000   0.00759   0.00760   3.06746
   D49        2.93054   0.00054   0.00000   0.01889   0.01888   2.94942
   D50       -0.20081   0.00045   0.00000   0.01562   0.01562  -0.18519
   D51        2.87749   0.00060   0.00000   0.02127   0.02127   2.89875
   D52       -0.27459   0.00069   0.00000   0.02459   0.02459  -0.25001
         Item               Value     Threshold  Converged?
 Maximum Force            0.003984     0.000450     NO 
 RMS     Force            0.000999     0.000300     NO 
 Maximum Displacement     0.079380     0.001800     NO 
 RMS     Displacement     0.019452     0.001200     NO 
 Predicted change in Energy=-2.708623D-04
 GradGradGradGradGradGradGradGradGradGradGradGradGradGradGradGradGradGrad

                          Input orientation:                          
 ---------------------------------------------------------------------
 Center     Atomic      Atomic             Coordinates (Angstroms)
 Number     Number       Type             X           Y           Z
 ---------------------------------------------------------------------
      1          6           0        2.405917    0.199441   -0.000884
      2          6           0        1.931758   -1.134006    0.006071
      3          6           0        0.564818   -1.349732    0.009947
      4          6           0       -0.343435   -0.258468    0.005522
      5          6           0        0.140625    1.076204   -0.001310
      6          6           0        1.499908    1.293743   -0.004162
      7          8           0        3.710179    0.405962   -0.004585
      8          8           0        2.885121   -2.076004    0.007496
      9          6           0        2.455611   -3.430654    0.013300
     10          8           0        2.124872    2.491365   -0.010639
     11          6           0        1.304678    3.655345   -0.012006
     12          6           0       -1.722902   -0.558871    0.008900
     13          6           0       -2.779131    0.343185    0.008295
     14          6           0       -4.092683   -0.106669   -0.002385
     15          8           0       -5.062296    0.778222    0.075535
     16          8           0       -4.373409   -1.391386   -0.096451
     17          1           0        0.170622   -2.363180    0.015697
     18          1           0       -0.546434    1.917218   -0.004848
     19          1           0        3.882151    1.361353   -0.009693
     20          1           0        3.366709   -4.030715    0.013254
     21          1           0        1.869030   -3.646163    0.917232
     22          1           0        1.864767   -3.652567   -0.886277
     23          1           0        1.989318    4.504816   -0.014826
     24          1           0        0.678225    3.676832   -0.913588
     25          1           0        0.680788    3.680554    0.891288
     26          1           0       -1.982186   -1.619975    0.012111
     27          1           0       -2.648644    1.420765    0.016512
     28          1           0       -5.943472    0.419893   -0.104626
     29          1           0       -5.292172   -1.608868    0.117038
 ---------------------------------------------------------------------
                    Distance matrix (angstroms):
                    1          2          3          4          5
     1  C    0.000000
     2  C    1.415258   0.000000
     3  C    2.406179   1.383863   0.000000
     4  C    2.787231   2.437841   1.419789   0.000000
     5  C    2.429045   2.844861   2.462769   1.419757   0.000000
     6  C    1.420690   2.465880   2.804025   2.409847   1.376583
     7  O    1.320517   2.352529   3.602217   4.107719   3.631934
     8  O    2.325373   1.340248   2.431313   3.704999   4.179563
     9  C    3.630463   2.355646   2.811644   4.230541   5.066669
    10  O    2.309111   3.630549   4.145868   3.695183   2.437212
    11  C    3.627137   4.830263   5.059513   4.246707   2.829683
    12  C    4.197889   3.699638   2.420563   1.411801   2.479175
    13  C    5.187048   4.937061   3.748062   2.508906   3.010379
    14  C    6.505805   6.111414   4.820547   3.752328   4.395462
    15  O    7.490997   7.251085   6.016387   4.831902   5.212014
    16  O    6.964131   6.311250   4.939549   4.187433   5.145343
    17  H    3.400566   2.147688   1.087428   2.166603   3.439557
    18  H    3.415721   3.930842   3.450806   2.185160   1.085987
    19  H    1.878666   3.167191   4.284281   4.525442   3.752386
    20  H    4.337920   3.232656   3.877921   5.291037   6.040567
    21  H    3.989970   2.673029   2.792442   4.147613   5.111933
    22  H    3.989327   2.672812   2.792155   4.146248   5.110490
    23  H    4.325506   5.639155   6.025409   5.303869   3.895283
    24  H    3.988758   5.055816   5.111959   4.168349   2.807940
    25  H    3.986249   5.052576   5.108228   4.165274   2.805557
    26  H    4.750357   3.944002   2.561301   2.130552   3.431601
    27  H    5.200050   5.244716   4.242881   2.852005   2.810527
    28  H    8.352943   8.027833   6.745557   5.642049   6.120266
    29  H    7.908505   7.240371   5.863698   5.130889   6.061263
                    6          7          8          9         10
     6  C    0.000000
     7  O    2.381902   0.000000
     8  O    3.643371   2.615535   0.000000
     9  C    4.820125   4.036568   1.421122   0.000000
    10  O    1.350896   2.619568   4.630245   5.931295   0.000000
    11  C    2.369671   4.042893   5.945296   7.178904   1.423928
    12  C    3.717371   5.518102   4.851347   5.070219   4.910161
    13  C    4.383365   6.489626   6.159239   6.453248   5.353903
    14  C    5.765261   7.819683   7.250388   7.343655   6.738534
    15  O    6.582905   8.780735   8.444683   8.616115   7.389024
    16  O    6.458659   8.281503   7.291486   7.127845   7.570388
    17  H    3.891077   4.494110   2.729660   2.522039   5.233201
    18  H    2.139214   4.516929   5.265126   6.132890   2.732317
    19  H    2.383209   0.970759   3.579077   4.999887   2.089248
    20  H    5.642261   4.449988   2.013170   1.090951   6.639296
    21  H    5.038640   4.545249   2.079774   1.098915   6.212540
    22  H    5.037582   4.544731   2.079784   1.098900   6.211465
    23  H    3.248173   4.445456   6.641548   7.949208   2.018014
    24  H    2.679800   4.551661   6.230081   7.384753   2.076881
    25  H    2.677621   4.550028   6.227209   7.381743   2.076782
    26  H    4.540374   6.042161   4.888625   4.792973   5.811330
    27  H    4.150547   6.439324   6.545994   7.041995   4.892175
    28  H    7.495172   9.654179   9.175300   9.240412   8.330547
    29  H    7.387299   9.225869   8.191358   7.959762   8.475893
                   11         12         13         14         15
    11  C    0.000000
    12  C    5.189055   0.000000
    13  C    5.258166   1.389002   0.000000
    14  C    6.579085   2.412567   1.388489   0.000000
    15  O    6.987408   3.597751   2.325214   1.315011   0.000000
    16  O    7.597190   2.780174   2.358268   1.318390   2.282836
    17  H    6.124500   2.615532   4.003187   4.823685   6.103722
    18  H    2.539243   2.741401   2.731792   4.083137   4.657981
    19  H    3.450474   5.924882   6.738670   8.108830   8.963841
    20  H    7.957897   6.160995   7.543367   8.428577   9.704529
    21  H    7.382005   4.822698   6.192453   6.993979   8.266010
    22  H    7.381303   4.821168   6.191291   6.988982   8.278960
    23  H    1.091027   6.278700   6.329124   7.632607   7.976273
    24  H    1.098068   4.955560   4.890437   6.156845   6.506450
    25  H    1.098096   4.952682   4.887612   6.158550   6.486293
    26  H    6.215550   1.092328   2.118758   2.597018   3.904159
    27  H    4.541246   2.185410   1.085483   2.102061   2.498412
    28  H    7.938036   4.334060   3.167284   1.926951   0.968157
    29  H    8.440796   3.722080   3.183978   1.926042   2.398492
                   16         17         18         19         20
    16  O    0.000000
    17  H    4.648137   0.000000
    18  H    5.059742   4.340092   0.000000
    19  H    8.702837   5.258160   4.463337   0.000000
    20  H    8.178479   3.604949   7.119756   5.416697   0.000000
    21  H    6.714136   2.311580   6.134811   5.476045   1.791117
    22  H    6.682185   2.312186   6.132969   5.475183   1.791085
    23  H    8.675030   7.104785   3.622955   3.669361   8.645999
    24  H    7.202329   6.132126   2.328484   4.055072   8.215428
    25  H    7.228078   6.128103   2.327765   4.054527   8.212721
    26  H    2.404576   2.277487   3.817513   6.578696   5.867056
    27  H    3.300874   4.718739   2.160141   6.531118   8.118074
    28  H    2.397060   6.718788   5.601781   9.871081  10.319946
    29  H    0.967989   5.515557   5.913558   9.643987   8.991793
                   21         22         23         24         25
    21  H    0.000000
    22  H    1.803526   0.000000
    23  H    8.204979   8.204745   0.000000
    24  H    7.641739   7.424871   1.792288   0.000000
    25  H    7.422492   7.637814   1.792401   1.804881   0.000000
    26  H    4.444834   4.442699   7.299770   5.999239   5.996665
    27  H    6.847952   6.850154   5.569833   4.125892   4.117888
    28  H    8.866352   8.841069   8.923218   7.423540   7.450139
    29  H    7.488238   7.510334   9.508660   8.040302   8.015841
                   26         27         28         29
    26  H    0.000000
    27  H    3.112923   0.000000
    28  H    4.457183   3.445622   0.000000
    29  H    3.311668   4.022067   2.142241   0.000000
 Stoichiometry    C11H13O5(1+)
 Framework group  C1[X(C11H13O5)]
 Deg. of freedom    81
 Full point group                 C1      NOp   1
 Largest Abelian subgroup         C1      NOp   1
 Largest concise Abelian subgroup C1      NOp   1
                         Standard orientation:                         
 ---------------------------------------------------------------------
 Center     Atomic      Atomic             Coordinates (Angstroms)
 Number     Number       Type             X           Y           Z
 ---------------------------------------------------------------------
      1          6           0        2.400785    0.204116   -0.001161
      2          6           0        1.929702   -1.130423    0.005441
      3          6           0        0.563264   -1.349300    0.009406
      4          6           0       -0.347503   -0.260131    0.005416
      5          6           0        0.133479    1.075655   -0.001064
      6          6           0        1.492256    1.296328   -0.004003
      7          8           0        3.704567    0.413643   -0.004947
      8          8           0        2.885234   -2.070221    0.006472
      9          6           0        2.458848   -3.425859    0.011913
     10          8           0        2.114457    2.495388   -0.010186
     11          6           0        1.291582    3.657476   -0.011107
     12          6           0       -1.726273   -0.563714    0.008859
     13          6           0       -2.784579    0.335905    0.008648
     14          6           0       -4.097092   -0.116973   -0.002020
     15          8           0       -5.068733    0.765657    0.076279
     16          8           0       -4.374866   -1.402304   -0.096446
     17          1           0        0.171405   -2.363656    0.014892
     18          1           0       -0.555518    1.915084   -0.004268
     19          1           0        3.874337    1.369430   -0.009784
     20          1           0        3.371327   -4.023818    0.011581
     21          1           0        1.872869   -3.642995    0.915845
     22          1           0        1.868415   -3.648860   -0.887666
     23          1           0        1.974262    4.508524   -0.013745
     24          1           0        0.664979    3.677792   -0.912610
[...]
 0000640,0.00000135,-0.00004693,-0.00003357,0.00000074,0.00004373,-0.00
 002695,-0.00000097,0.00067703,-0.00041346,0.00000048,-0.00000693,0.000
 16634,-0.00000118,0.00000124,0.00001182,0.00000041,-0.00000298,0.00000
 164,-0.00000421,-0.00000237,0.00000142,0.00000428,0.17852541,-0.001144
 45,-0.00132747,0.00001036,0.00037630,0.00014556,-0.00000112,-0.0000191
 3,-0.00001953,0.00000165,-0.00050063,-0.00001752,-0.00000309,0.0006797
 0,0.00034928,0.00000220,0.00445076,-0.00146855,0.00001021,0.00021859,0
 .00021939,-0.00000159,0.00000033,-0.00027426,0.00000197,0.00004895,0.0
 0005268,-0.00000289,-0.01397212,-0.03347353,0.00013549,-0.13728999,-0.
 20837320,0.00066359,0.00037878,-0.00014919,0.00000864,-0.00031214,0.00
 003699,-0.00000130,0.00031310,0.00009999,-0.00000270,-0.00015449,0.000
 07922,0.00000120,-0.00006485,-0.00011382,0.00000109,-0.00001464,0.0000
 0662,-0.00000100,-0.00013046,0.00029661,-0.00000399,-0.00009964,-0.000
 25927,0.00000131,-0.00000790,-0.00001667,0.00000085,-0.00000640,-0.000
 00545,-0.00000279,-0.00000540,-0.00000586,0.00000356,0.14639345,0.2382
 1335,-0.00000420,0.00001133,0.00033174,0.00000030,-0.00000582,0.000051
 06,-0.00000890,0.00000458,-0.00001467,0.00000112,-0.00000448,0.0001846
 0,-0.00001125,-0.00000942,0.00028896,-0.00001513,0.00000953,0.00035884
 ,-0.00000041,-0.00000279,-0.00012349,-0.00000203,0.00000399,-0.0000384
 2,-0.00000762,-0.00000117,-0.00001140,0.00005688,0.00013754,0.00008142
 ,0.00056306,0.00066731,-0.04923654,0.00000732,-0.00000467,0.00004249,0
 .00000258,0.00001683,0.00003329,-0.00000241,-0.00001099,-0.00001143,0.
 00000260,0.00000115,0.00000089,-0.00000293,-0.00000107,-0.00000016,0.0
 0000336,0.00000205,-0.00004241,0.00000613,0.00000153,-0.00046187,0.000
 00247,0.00000267,0.00015259,0.00000325,-0.00000154,0.00000316,0.000001
 44,0.00000095,-0.00000312,0.00000180,0.00000017,0.00000218,-0.00060361
 ,-0.00080216,0.04523456,-0.00020896,0.00069462,0.00018604,-0.00002772,
 -0.00028469,0.00000909,0.00014040,0.00022041,-0.00002471,0.00028763,-0
 .00010928,-0.00013685,0.00010932,0.00043704,0.00028902,-0.00072081,-0.
 00348996,0.00031816,0.00005996,0.00025786,0.00011320,-0.00002427,0.000
 18307,-0.00000733,-0.00001435,-0.00007476,-0.00001294,-0.01708272,0.01
 335340,-0.01520437,-0.13001276,-0.00288009,-0.12108831,-0.00034840,0.0
 0022386,0.00001378,0.00035490,-0.00007114,-0.00001126,-0.00044263,-0.0
 0012028,-0.00000455,0.00022196,-0.00010809,-0.00000221,0.00011429,0.00
 018375,0.00000014,0.00001848,-0.00000596,0.00000917,-0.00000885,-0.000
 71605,0.00073567,0.00050213,-0.00034667,-0.00021226,-0.00000932,0.0000
 0969,-0.00000143,0.00000759,0.00000709,0.00000654,0.00000638,0.0000061
 7,-0.00000738,-0.00883111,0.00035105,-0.01666781,0.14494671,0.00126973
 ,-0.00118284,-0.00070220,0.00043344,0.00041383,-0.00007370,-0.00033285
 ,0.00023121,-0.00001082,-0.00049479,-0.00067524,-0.00059627,-0.0005830
 7,0.00082831,0.00008788,0.00312916,0.00641285,0.00169538,-0.00069878,-
 0.00055332,-0.00003348,0.00002555,-0.00012465,0.00003482,0.00000850,0.
 00002247,0.00003958,0.02516580,-0.01514182,0.02541896,-0.00735684,-0.0
 4918799,-0.00798620,0.00042300,-0.00013500,0.00008030,-0.00023932,-0.0
 0000748,-0.00006415,0.00019133,0.00013789,0.00001856,-0.00009992,0.000
 05266,0.00000116,-0.00002245,-0.00008793,-0.00000233,-0.00002637,0.000
 00339,0.00003378,-0.00087477,-0.00152829,0.00140791,-0.00052355,0.0003
 8741,0.00020479,-0.00000634,-0.00000136,-0.00000117,-0.00000066,-0.000
 02073,0.00000188,-0.00000484,-0.00000621,-0.00000996,-0.01158505,0.002
 91445,-0.02010251,-0.00648621,0.05625197,-0.00013786,0.00053252,-0.000
 11031,-0.00028287,-0.00006872,-0.00001097,0.00013316,-0.00008776,-0.00
 006443,0.00060123,-0.00003100,-0.00003404,-0.00186766,0.00011252,-0.00
 004187,-0.00024091,-0.00138513,0.00024206,0.00032322,-0.00002722,0.000
 01487,0.00014560,-0.00010183,0.00000245,0.00002051,0.00004041,0.000002
 05,0.00107803,0.00405446,0.00673047,-0.12536576,-0.00132204,-0.2392304
 7,-0.00017638,0.00011766,0.00002678,0.00006103,0.00004630,0.00000181,0
 .00002496,0.00002345,-0.00000503,0.00000377,-0.00003559,0.00000267,-0.
 00005304,-0.00005392,0.00000022,0.00004506,-0.00004764,-0.00000250,0.0
 0107162,0.00039072,-0.00024727,0.00008741,-0.00014737,0.00000367,-0.00
 000271,0.00000060,-0.00000144,-0.00000856,-0.00000517,-0.00000346,-0.0
 0001045,0.00000108,0.00000142,0.00204261,-0.00030018,0.00169355,0.1370
 4695,-0.00053433,0.24907706,-0.00021875,0.00069844,-0.00018918,-0.0000
 2953,-0.00029410,-0.00000964,0.00013543,0.00023025,0.00002400,0.000287
 17,-0.00012201,0.00013651,0.00009646,0.00042615,-0.00028869,-0.0007179
 2,-0.00348841,-0.00029206,0.00006031,0.00025557,-0.00011475,-0.0000264
 0,0.00018611,0.00000650,-0.00002540,-0.00007526,0.00001471,-0.01708350
 ,0.01348318,0.01509213,-0.13000393,-0.00188724,0.12110955,-0.00033802,
 0.00021900,-0.00001292,0.00035953,-0.00005103,0.00001151,-0.00044424,-
 0.00013323,0.00000556,0.00022420,-0.00010553,0.00000276,0.00011059,0.0
 0018176,-0.00000171,0.00002014,-0.00000242,-0.00000976,-0.00000186,-0.
 00071562,-0.00073171,0.00050510,-0.00034350,0.00021423,-0.00000379,0.0
 0000740,0.00000113,0.00000875,0.00000711,0.00000398,0.00000983,0.00000
 789,-0.00000422,-0.00882965,0.00048998,0.01666760,0.01104707,-0.001329
 44,-0.01461270,0.14493858,0.00125198,-0.00117180,0.00070700,0.00043313
 ,0.00039669,0.00007234,-0.00034403,0.00024885,0.00000596,-0.00050212,-
 0.00069359,0.00060635,-0.00059047,0.00080932,-0.00009982,0.00313672,0.
 00641603,-0.00173948,-0.00070083,-0.00055628,0.00003799,0.00002002,-0.
 00011910,-0.00003463,-0.00001200,0.00002104,-0.00003847,0.02516179,-0.
 01538692,-0.02524166,-0.00633380,-0.04911380,0.00641702,0.00044374,-0.
 00014553,-0.00008845,-0.00022966,0.00003000,0.00006577,0.00018698,0.00
 011232,-0.00001761,-0.00009663,0.00005797,-0.00000262,-0.00002780,-0.0
 0009098,0.00000268,-0.00002303,0.00000998,-0.00003284,-0.00087067,-0.0
 0153264,-0.00139662,-0.00051962,0.00039035,-0.00020685,0.00000425,-0.0
 0000567,0.00000064,-0.00000020,-0.00000463,0.00000461,0.00000326,-0.00
 001887,0.00000360,-0.01159821,0.00308721,0.02008882,-0.00120591,0.0009
 7709,-0.00120837,-0.00761419,0.05626738,0.00013129,-0.00052322,-0.0001
 1178,0.00028468,0.00007097,-0.00001313,-0.00013294,0.00007851,-0.00006
 370,-0.00059841,0.00004755,-0.00003855,0.00187922,-0.00011690,-0.00004
 396,0.00021259,0.00133196,0.00024691,-0.00031841,0.00003279,0.00001359
 ,-0.00014589,0.00010251,0.00000200,-0.00001511,-0.00004098,0.00000002,
 -0.00128932,-0.00387196,0.00697706,0.12542498,-0.00024944,-0.23930438,
 0.00017048,-0.00011573,0.00002300,-0.00006795,-0.00005557,-0.00000002,
 -0.00002382,-0.00001827,-0.00000288,-0.00000355,0.00003342,0.00000208,
 0.00005431,0.00005536,-0.00000054,-0.00004381,0.00004432,-0.00000155,-
 0.00106556,-0.00038477,-0.00023214,-0.00008414,0.00014297,0.00000453,-
 0.00000082,0.00000132,-0.00000070,0.00000917,-0.00000152,0.00000315,0.
 00000804,0.00000448,-0.00000357,-0.00194467,0.00028814,0.00151921,0.01
 462189,0.00105157,-0.01799383,-0.13698997,0.00212899,0.24906726,-0.000
 13179,-0.00009899,0.00000202,-0.00025148,0.00062690,-0.00000359,0.0001
 7161,-0.00257479,0.00000911,-0.00421787,-0.02857450,0.00010550,-0.0053
 1884,0.00066612,-0.00000244,0.00047892,-0.00182103,0.00000668,0.000242
 52,0.00024538,-0.00000131,0.00002775,0.00006916,-0.00000070,-0.0000509
 3,-0.00008767,0.00000010,-0.00053087,0.00016020,-0.00000119,-0.0000116
 7,0.00005232,-0.00000107,-0.07163095,-0.06655434,0.00024054,0.00739850
 ,0.02486185,-0.00009069,0.00131377,0.00287158,-0.00000924,0.00032008,-
 0.00065370,0.00000257,-0.00320518,-0.00145348,0.00000739,-0.00131552,0
 .00119978,-0.00000291,0.00009559,0.00004057,0.00000052,0.00003703,-0.0
 0008533,0.00000007,0.00001971,0.00002896,-0.00000016,0.00000714,-0.000
 00235,-0.00006807,0.00000733,-0.00000204,0.00006819,0.00000296,-0.0000
 0038,-0.00000061,-0.00000006,0.00000977,-0.00000681,-0.00000213,0.0000
 0656,0.00000907,0.08015057,-0.00031674,-0.00001574,0.00000384,0.000276
 21,0.00049061,-0.00000334,0.00141735,0.00162547,-0.00001838,0.00117315
 ,-0.00491008,0.00003855,-0.00097856,0.00077869,0.00003944,0.00055474,-
 0.00050737,-0.00000686,0.00020623,0.00010910,0.00000121,-0.00000774,-0
 .00010142,0.00000351,0.00002152,0.00003224,0.00000621,-0.00012411,0.00
 011849,-0.00000167,0.00002011,-0.00001574,-0.00000296,-0.06616983,-0.3
 3070863,0.00105867,-0.00557677,-0.01657628,0.00009335,-0.00050094,-0.0
 0214593,-0.00001709,0.00018617,0.00022876,0.00000062,-0.00185741,0.001
 07987,-0.00000187,0.00002313,0.00037771,-0.00000689,0.00009940,0.00005
 282,-0.00000622,0.00001813,-0.00005067,-0.00000098,-0.00000331,-0.0000
 0535,-0.00000109,0.00000297,-0.00000824,0.00001866,0.00000187,-0.00000
 815,-0.00002360,-0.00000536,0.00000556,0.00000707,-0.00000467,-0.00000
 077,-0.00001715,0.00000490,0.00001636,0.00001092,0.06923305,0.34946395
 ,0.00002206,-0.00000920,0.00059690,0.00000051,0.00001969,0.00039556,0.
 00001069,-0.00003969,-0.00388122,0.00000399,0.00008532,0.00821367,0.00
 003064,0.00003764,0.00557496,-0.00001183,-0.00001115,-0.00025423,0.000
 00036,0.00000426,-0.00016169,0.00000498,-0.00000827,0.00018353,0.00002
 454,0.00000258,0.00002134,-0.00000001,0.00000076,-0.00089599,0.0000105
 0,-0.00000074,0.00010816,0.00021577,0.00104185,-0.04903963,0.00001391,
 0.00003382,0.00758260,0.00000211,0.00002169,-0.00440165,-0.00000662,-0
 .00000529,0.00012444,0.00001834,0.00000290,0.00061227,-0.00000650,-0.0
 0000893,0.00010522,-0.00001585,-0.00001601,-0.00001535,-0.00000604,-0.
 00000394,-0.00003562,-0.00001117,0.00000495,-0.00000458,-0.00001915,0.
 00001475,-0.00000983,0.00000863,-0.00001789,-0.00002372,-0.00000708,-0
 .00000657,-0.00001616,0.00000496,0.00003180,-0.00000849,-0.00000667,-0
 .00002568,-0.00000453,-0.00025738,-0.00119557,0.02852264,0.00050352,0.
 00037326,0.00000086,-0.00070424,-0.00056253,0.00000377,0.00077723,-0.0
 0045356,0.00000104,-0.00105901,-0.00058681,-0.00000658,0.00065256,0.00
 135052,0.00000585,-0.00027845,-0.00035627,-0.00000409,-0.00030934,-0.0
 0022757,0.00000236,0.00017252,-0.00015091,0.00000255,0.00004630,0.0001
 0346,0.00000128,0.00018387,0.00000009,0.00000288,-0.00009335,0.0000482
 5,-0.00000776,0.01135737,0.02345272,-0.00006253,-0.05999191,-0.0331099
 6,0.00012291,0.00001581,-0.03061046,0.00010077,0.00029298,0.00042703,0
 .00000004,-0.00682043,-0.00132670,0.00000600,0.00014956,-0.00016513,-0
 .00000273,-0.00431681,-0.00164756,0.00000618,-0.00006480,0.00008800,-0
 .00000154,-0.00001487,-0.00000333,-0.00000036,-0.00001248,0.00000045,0
 .00000931,-0.00001274,0.00000050,-0.00001173,0.00003365,-0.00002636,0.
 00000685,-0.00001093,-0.00001987,0.00006307,-0.00000416,-0.00000786,-0
 .00006392,-0.00352884,0.00246170,-0.00002344,0.06259720,0.00005095,-0.
 00014856,-0.00000139,0.00008863,-0.00016092,0.00000509,0.00022071,-0.0
 0006980,-0.00000259,-0.00128011,-0.00080828,0.00000364,-0.00075296,-0.
 00016785,-0.00002842,0.00001833,0.00076324,0.00000521,-0.00022970,-0.0
 0001509,-0.00000188,-0.00002676,0.00009280,-0.00000220,-0.00005415,-0.
 00006555,-0.00000889,0.00007585,-0.00031440,-0.00000028,-0.00012297,0.
 00017196,0.00000383,-0.00244546,-0.01203921,0.00002176,-0.04086749,-0.
 34888535,0.00110948,0.00117883,-0.00780138,0.00003819,0.00160114,0.000
 39891,-0.00001086,-0.00073559,0.00149162,0.00000730,-0.00004019,0.0000
 7922,0.00000696,-0.00110894,0.00088867,0.00000829,0.00002155,0.0000472
 9,0.00000089,0.00002062,0.00000402,0.00000172,0.00000760,0.00000761,-0
 .00000130,0.00000946,0.00000724,0.00000770,0.00000002,-0.00001390,-0.0
 0000829,-0.00000606,0.00000440,0.00004607,-0.00001674,-0.00001533,-0.0
 0003962,0.00208092,0.00008593,0.00004666,0.04213749,0.36628647,0.00000
 246,-0.00000317,-0.00030335,0.00000187,0.00000562,-0.00011123,-0.00000
 133,-0.00000434,-0.00009449,0.00000812,-0.00000018,-0.00333500,0.00000
 664,0.00000007,-0.00018907,-0.00000198,-0.00000598,-0.00042646,0.00000
 121,0.00000217,0.00023806,0.00000110,-0.00000062,0.00004835,0.00000569
 ,0.00000006,0.00002403,-0.00000092,0.00000215,0.00007561,0.00000145,-0
 .00000094,0.00017264,0.00000049,0.00004909,0.00300757,0.00014180,0.001
 10403,-0.03319535,-0.00000072,0.00004512,0.00034742,-0.00000621,-0.000
 01071,-0.00230714,0.00000632,0.00000584,0.00386975,-0.00000023,-0.0000
 0066,0.00017033,0.00000359,-0.00000228,0.00087061,-0.00000115,-0.00000
 118,0.00001600,-0.00000341,0.00000107,0.00000149,-0.00000154,-0.000003
 16,-0.00000667,-0.00000079,0.00000200,-0.00000872,-0.00000062,-0.00000
 055,-0.00001954,0.00002551,0.00001216,-0.00003774,-0.00002527,-0.00001
 171,-0.00003663,-0.00000442,0.00002046,0.00671633,-0.00015738,-0.00120
 908,0.02334587,-0.00194768,-0.00029787,0.00000258,0.00039450,0.0016459
 9,-0.00000798,-0.00132129,0.00065020,-0.00000112,0.00298277,0.00094911
 ,-0.00000401,-0.00079993,-0.00105609,0.00000242,0.00089414,-0.00137228
 ,0.00000558,0.00169420,0.00049209,-0.00000244,0.00034353,-0.00076738,0
 .00000239,0.00007179,0.00032096,-0.00000162,0.00007831,0.00089019,-0.0
 0000402,0.00019713,-0.00033111,0.00000178,-0.00511469,0.00085785,-0.00
 000541,0.00612421,0.00322301,-0.00001533,-0.03989022,-0.01422948,0.000
 05309,-0.43024469,-0.15064491,0.00049909,0.00631271,-0.00384481,0.0000
 1398,-0.00004426,0.00000329,0.00000096,-0.00003941,-0.00001741,0.00000
 002,-0.00010807,-0.00028537,0.00000104,0.00001458,-0.00002274,0.000000
 20,-0.00003051,-0.00003069,-0.00000839,-0.00003023,-0.00003080,0.00000
 898,0.00001086,0.00002583,-0.00000108,-0.00004085,0.00001674,0.0000093
 6,-0.00004265,0.00001372,-0.00000828,-0.00015971,0.00006894,0.00000361
 ,0.00041150,-0.00000986,0.00000047,0.45859052,-0.00008444,-0.00001329,
 0.00000082,0.00004767,0.00010009,-0.00000029,-0.00005539,0.00008358,-0
 .00000139,0.00034231,-0.00020132,-0.00000215,-0.00011026,-0.00012782,-
 0.00000101,0.00011242,-0.00000853,0.00000084,0.00006951,0.00001404,-0.
 00000056,0.00001590,-0.00007579,0.00000044,0.00002028,0.00004035,-0.00
 000167,-0.00001212,-0.00004488,0.00000003,-0.00001794,0.00002152,0.000
 00026,0.00066957,0.00093134,0.00000460,0.00238944,-0.00360800,0.000026
 34,0.03712417,0.01384750,-0.00006403,-0.20079226,-0.12267275,0.0003855
 5,-0.00105714,0.00012669,-0.00001359,0.00001376,-0.00001439,0.00000056
 ,0.00000297,0.00002640,0.00000019,0.00000008,-0.00000526,0.00000015,-0
 .00000183,-0.00000290,0.00000038,-0.00000019,-0.00000265,0.00000780,0.
 00000025,-0.00000295,-0.00000689,-0.00000281,0.00000098,-0.00000041,0.
 00000340,0.00000490,0.00000076,0.00000264,0.00000344,-0.00000036,0.000
 04172,-0.00002307,0.00000193,0.00006036,0.00017566,-0.00000397,0.16040
 011,0.11558371,0.00000118,0.00000006,-0.00001183,-0.00000212,-0.000002
 31,0.00012445,0.00000265,-0.00000034,-0.00040754,-0.00000299,-0.000005
 98,-0.00095859,0.00000019,0.00000130,0.00007251,-0.00000085,0.00000103
 ,0.00004318,-0.00000109,-0.00000026,-0.00001901,-0.00000011,0.00000080
 ,0.00004538,-0.00000119,-0.00000014,0.00001149,0.00000024,-0.00000037,
 -0.00000109,0.00000021,0.00000064,0.00002394,0.00000247,0.00000758,0.0
 0312760,-0.00000676,0.00002736,0.00431809,-0.00012075,-0.00006943,-0.0
 0517701,0.00066232,0.00039043,-0.00509069,0.00000472,-0.00001513,-0.00
 407474,-0.00000070,0.00000065,-0.00001546,0.00000009,0.00000032,-0.000
 01950,0.00000028,0.00000029,0.00001141,0.00000081,-0.00000020,0.000001
 19,0.00000278,-0.00000065,-0.00000349,-0.00000240,0.00000084,-0.000003
 47,-0.00000026,-0.00000036,0.00000131,0.00000050,0.00000004,-0.0000034
 4,-0.00000049,0.00000008,-0.00000333,-0.00000072,0.00000114,0.00010215
 ,-0.00000066,-0.00000441,-0.00095215,-0.00053427,-0.00035581,0.0063069
 0,-0.00152495,-0.00025695,0.00000267,0.00030163,0.00130947,-0.00000399
 ,-0.00095882,0.00056296,-0.00000188,0.00240011,0.00041549,-0.00000244,
 -0.00066695,-0.00079334,0.00000335,0.00070491,-0.00107558,0.00000373,0
 .00133609,0.00038379,-0.00000175,0.00028721,-0.00063446,0.00000351,0.0
 0005824,0.00027326,-0.00000371,0.00005540,0.00066240,-0.00000156,0.000
 14241,-0.00024226,-0.00000014,-0.00351416,0.00146515,-0.00000114,0.007
 62311,0.00042489,-0.00000645,-0.01145288,-0.00515979,0.00001907,0.0019
 9290,0.00528605,-0.00001622,-0.50235786,-0.10693579,0.00019258,-0.0000
 5144,-0.00000117,-0.00000059,-0.00003660,-0.00002243,0.00000019,-0.000
 08352,-0.00022005,0.00000066,0.00001515,-0.00001887,0.00000078,-0.0000
 2412,-0.00002422,-0.00000574,-0.00002332,-0.00002447,0.00000700,0.0000
 0863,0.00002216,0.00000127,-0.00003309,0.00001209,0.00000810,-0.000031
 24,0.00001488,-0.00000911,0.00008237,-0.00022415,-0.00000385,0.0000282
 7,0.00018488,-0.00000077,0.00169342,0.00081783,-0.00000310,0.50402909,
 -0.00106660,-0.00014949,-0.00000116,0.00011231,0.00093101,-0.00000476,
 -0.00061993,0.00042900,-0.00000156,0.00153166,0.00052136,-0.00000202,-
 0.00039141,-0.00062134,0.00000653,0.00050647,-0.00066615,0.00000081,0.
 00093359,0.00025750,-0.00000029,0.00024971,-0.00056159,0.00000125,0.00
 008632,0.00026769,0.00000298,0.00007132,0.00041386,-0.00000220,0.00007
 676,-0.00014316,0.00000143,-0.00134486,0.00072516,-0.00000625,0.004809
 25,-0.00614108,0.00003409,-0.05558785,-0.01596924,0.00002390,0.0023976
 6,0.00433314,-0.00002869,-0.05722370,-0.05564411,0.00017263,-0.0000290
 1,0.00002265,-0.00000040,-0.00001595,0.00002563,-0.00000080,-0.0000655
 7,-0.00014388,0.00000058,0.00000803,-0.00001564,-0.00000084,-0.0000209
 0,-0.00001725,0.00000756,-0.00002190,-0.00001695,-0.00000938,0.0000019
 5,0.00001033,-0.00000019,-0.00002157,0.00001080,0.00000690,-0.00002162
 ,0.00001110,-0.00000745,-0.00028622,0.00061189,-0.00000167,-0.00124894
 ,0.00000058,0.00000870,0.00338277,-0.00415662,0.00002284,0.10379824,0.
 07567480,0.00000424,-0.00000032,-0.00002859,-0.00000297,-0.00000615,-0
 .00001179,0.00000327,0.00000003,-0.00008227,-0.00000745,-0.00000444,0.
 00037234,0.00000145,0.00000153,0.00011709,-0.00000178,0.00000453,-0.00
 013662,-0.00000437,-0.00000129,0.00003189,-0.00000057,0.00000352,-0.00
 001004,-0.00000161,-0.00000137,0.00003378,-0.00000058,-0.00000263,-0.0
 0003468,-0.00000079,0.00000120,0.00003693,0.00001102,-0.00000969,-0.00
 123471,-0.00002032,0.00004267,0.00315764,0.00021289,0.00005039,-0.0048
 1080,-0.00000771,-0.00002685,-0.00406517,-0.00000135,0.00014016,-0.002
 83214,0.00000013,0.00000167,0.00003941,-0.00000014,0.00000165,0.000124
 21,0.00000065,0.00000084,0.00000517,0.00000051,-0.00000046,-0.00000034
 ,0.00000170,-0.00000032,-0.00000691,-0.00000118,0.00000041,-0.00000626
 ,0.00000016,0.00000004,-0.00000066,0.00000079,-0.00000346,-0.00000381,
 -0.00000043,0.00000295,-0.00000360,-0.00000046,0.,-0.00010708,0.000006
 99,0.00000644,0.00211949,-0.00001159,0.00002148,0.00255175,-0.00018049
 ,-0.00022253,0.00478576\\0.00005493,0.00000332,-0.00000243,-0.00000625
 ,-0.00001066,-0.00000144,0.00001029,0.00000652,0.00000231,-0.00003028,
 -0.00000399,0.00000049,0.00001501,0.00000598,0.00000074,-0.00002236,-0
 .00000488,-0.00000231,-0.00003511,-0.00000215,0.00000070,-0.00001530,-
 0.00001676,0.00000401,0.00001455,0.00003483,-0.00000145,-0.00000658,0.
 00001343,0.00000601,0.00001660,-0.00001686,-0.00000426,0.00003091,-0.0
 0001203,-0.00000693,-0.00002885,0.00000307,-0.00001115,0.00001449,0.00
 003783,0.00001339,-0.00000670,-0.00000687,0.00000630,-0.00001692,-0.00
 003476,0.00000592,0.00000214,-0.00000460,-0.00000059,0.00000052,0.0000
 0224,-0.00000070,0.00000307,0.00000277,-0.00000081,0.00000094,-0.00000
 306,-0.00000015,-0.00000317,-0.00000464,0.00000192,-0.00000420,-0.0000
 0381,-0.00000234,-0.00000037,0.00000294,-0.00000012,-0.00000470,0.0000
 0149,-0.00000114,-0.00000369,0.00000233,0.00000268,-0.00000137,0.00000
 054,0.00000211,0.00000439,-0.00000110,0.00000321,0.00000215,0.00000932
 ,-0.00000778,0.00001584,-0.00000048,-0.00000619\\\@


 The chemist is a guest at the physicist's table and
 frequently dines well.
                   -- Richard Bersohn
 Job cpu time:       0 days 20 hours 56 minutes  1.8 seconds.
 File lengths (MBytes):  RWF=   1394 Int=      0 D2E=      0 Chk=     18 Scr=      1
 Normal termination of Gaussian 09 at Sat Dec 14 20:50:41 2024.
