 Entering Gaussian System, Link 0=g09
 Input=B2PLYPD3BJFA.gjf
 Output=B2PLYPD3BJFA.log
 Initial command:
 /home/c612/g09E/g09/l1.exe "/mnt/ja_sm883/scratch/Gau-1892068.inp" -scrdir="/mnt/ja_sm883/scratch/"
 Default is to use a total of  18 processors:
                               18 via shared-memory
                                1 via Linda
 Entering Link 1 = /home/c612/g09E/g09/l1.exe PID=   1892070.
  
 Copyright (c) 1988,1990,1992,1993,1995,1998,2003,2009,2015,
            Gaussian, Inc.  All Rights Reserved.
  
 This is part of the Gaussian(R) 09 program.  It is based on
 the Gaussian(R) 03 system (copyright 2003, Gaussian, Inc.),
 the Gaussian(R) 98 system (copyright 1998, Gaussian, Inc.),
 the Gaussian(R) 94 system (copyright 1995, Gaussian, Inc.),
 the Gaussian 92(TM) system (copyright 1992, Gaussian, Inc.),
 the Gaussian 90(TM) system (copyright 1990, Gaussian, Inc.),
 the Gaussian 88(TM) system (copyright 1988, Gaussian, Inc.),
 the Gaussian 86(TM) system (copyright 1986, Carnegie Mellon
 University), and the Gaussian 82(TM) system (copyright 1983,
 Carnegie Mellon University). Gaussian is a federally registered
 trademark of Gaussian, Inc.
  
 This software contains proprietary and confidential information,
 including trade secrets, belonging to Gaussian, Inc.
  
 This software is provided under written license and may be
 used, copied, transmitted, or stored only in accord with that
 written license.
  
 The following legend is applicable only to US Government
 contracts under FAR:
  
                    RESTRICTED RIGHTS LEGEND
  
 Use, reproduction and disclosure by the US Government is
 subject to restrictions as set forth in subparagraphs (a)
 and (c) of the Commercial Computer Software - Restricted
 Rights clause in FAR 52.227-19.
  
 Gaussian, Inc.
 340 Quinnipiac St., Bldg. 40, Wallingford CT 06492
  
  
 ---------------------------------------------------------------
 Warning -- This program may not be used in any manner that
 competes with the business of Gaussian, Inc. or will provide
 assistance to any competitor of Gaussian, Inc.  The licensee
 of this program is prohibited from giving any competitor of
 Gaussian, Inc. access to this program.  By using this program,
 the user acknowledges that Gaussian, Inc. is engaged in the
 business of creating and licensing software in the field of
 computational chemistry and represents and warrants to the
 licensee that it is not a competitor of Gaussian, Inc. and that
 it will not use this program in any manner prohibited above.
 ---------------------------------------------------------------
  

 Cite this work as:
 Gaussian 09, Revision E.01,
 M. J. Frisch, G. W. Trucks, H. B. Schlegel, G. E. Scuseria, 
 M. A. Robb, J. R. Cheeseman, G. Scalmani, V. Barone, B. Mennucci, 
 G. A. Petersson, H. Nakatsuji, M. Caricato, X. Li, H. P. Hratchian, 
 A. F. Izmaylov, J. Bloino, G. Zheng, J. L. Sonnenberg, M. Hada, 
 M. Ehara, K. Toyota, R. Fukuda, J. Hasegawa, M. Ishida, T. Nakajima, 
 Y. Honda, O. Kitao, H. Nakai, T. Vreven, J. A. Montgomery, Jr., 
 J. E. Peralta, F. Ogliaro, M. Bearpark, J. J. Heyd, E. Brothers, 
 K. N. Kudin, V. N. Staroverov, T. Keith, R. Kobayashi, J. Normand, 
 K. Raghavachari, A. Rendell, J. C. Burant, S. S. Iyengar, J. Tomasi, 
 M. Cossi, N. Rega, J. M. Millam, M. Klene, J. E. Knox, J. B. Cross, 
 V. Bakken, C. Adamo, J. Jaramillo, R. Gomperts, R. E. Stratmann, 
 O. Yazyev, A. J. Austin, R. Cammi, C. Pomelli, J. W. Ochterski, 
 R. L. Martin, K. Morokuma, V. G. Zakrzewski, G. A. Voth, 
 P. Salvador, J. J. Dannenberg, S. Dapprich, A. D. Daniels, 
 O. Farkas, J. B. Foresman, J. V. Ortiz, J. Cioslowski, 
 and D. J. Fox, Gaussian, Inc., Wallingford CT, 2013.
 
 ******************************************
 Gaussian 09:  ES64L-G09RevE.01 30-Nov-2015
                18-Dec-2024 
 ******************************************
 %chk=B2PLYPD3BJFA.chk
 -------------------------------------------------------
 # opt freq B2PLYP/6-31+g(d,p) EmpiricalDispersion=GD3BJ
 -------------------------------------------------------
 1/18=20,19=15,38=1/1,3;
 2/9=110,12=2,17=6,18=5,40=1/2;
 3/5=1,6=6,7=111,11=9,16=1,25=1,30=1,71=1,74=-47,124=41/1,2,3;
 4//1;
 5/5=2,38=5/2;
 8/6=4,10=2/1;
 9/15=2,16=-3/6;
 10/5=1/2;
 6/7=2,8=2,9=2,10=2/1;
 7/12=2/1,2,3,16;
 1/18=20,19=15/3(2);
 2/9=110/2;
 99//99;
 2/9=110/2;
 3/5=1,6=6,7=111,11=9,16=1,25=1,30=1,71=1,74=-47,124=41/1,2,3;
 4/5=5,16=3,69=1/1;
 5/5=2,38=5/2;
 8/6=4,10=2/1;
 9/15=2,16=-3/6;
 10/5=1/2;
 7/12=2/1,2,3,16;
 1/18=20,19=15/3(-8);
 2/9=110/2;
 6/7=2,8=2,9=2,10=2/1;
 99//99;
 ----------
 [No Title]
 ----------
 Symbolic Z-matrix:
 Charge =  0 Multiplicity = 1
 C                     1.46084  -2.01376  -0.00042 
 C                     2.49406  -1.08065  -0.00028 
 C                     2.189     0.29467  -0.00008 
 C                     0.86662   0.7127   -0.00002 
 C                    -0.18631  -0.22683  -0.00015 
 C                     0.13646  -1.59271  -0.00036 
 O                     3.78085  -1.49428  -0.00034 
 C                    -1.55728   0.2719   -0.00007 
 C                    -2.69671  -0.44863   0.00012 
 O                     3.29155   1.10182   0.00004 
 C                     3.09949   2.50661   0.00039 
 C                    -4.07724   0.07802   0.00032 
 O                    -5.04131  -0.65548   0.0021 
 O                    -4.2698    1.42358  -0.00112 
 H                     1.71474  -3.06889  -0.00058 
 H                     0.63076   1.7723    0.00015 
 H                    -0.64961  -2.34028  -0.00048 
 H                     4.349    -0.70917  -0.00021 
 H                    -1.61709   1.36317  -0.00003 
 H                    -2.67665  -1.53362   0.00044 
 H                     4.09677   2.94732   0.00051 
 H                     2.55815   2.8303   -0.89674 
 H                     2.55814   2.82983   0.89769 
 H                    -3.42813   1.89597  -0.00297 
 

 GradGradGradGradGradGradGradGradGradGradGradGradGradGradGradGradGradGrad
 Berny optimization.
 Initialization pass.
                           ----------------------------
                           !    Initial Parameters    !
                           ! (Angstroms and Degrees)  !
 --------------------------                            --------------------------
 ! Name  Definition              Value          Derivative Info.                !
 --------------------------------------------------------------------------------
 ! R1    R(1,2)                  1.3922         estimate D2E/DX2                !
 ! R2    R(1,6)                  1.3897         estimate D2E/DX2                !
 ! R3    R(1,15)                 1.0852         estimate D2E/DX2                !
 ! R4    R(2,3)                  1.4087         estimate D2E/DX2                !
 ! R5    R(2,7)                  1.3516         estimate D2E/DX2                !
 ! R6    R(3,4)                  1.3869         estimate D2E/DX2                !
 ! R7    R(3,10)                 1.3664         estimate D2E/DX2                !
 ! R8    R(4,5)                  1.4112         estimate D2E/DX2                !
 ! R9    R(4,16)                 1.0855         estimate D2E/DX2                !
 ! R10   R(5,6)                  1.4035         estimate D2E/DX2                !
 ! R11   R(5,8)                  1.4589         estimate D2E/DX2                !
 ! R12   R(6,17)                 1.0848         estimate D2E/DX2                !
 ! R13   R(7,18)                 0.9691         estimate D2E/DX2                !
 ! R14   R(8,9)                  1.3481         estimate D2E/DX2                !
 ! R15   R(8,19)                 1.0929         estimate D2E/DX2                !
 ! R16   R(9,12)                 1.4776         estimate D2E/DX2                !
 ! R17   R(9,20)                 1.0852         estimate D2E/DX2                !
 ! R18   R(10,11)                1.4179         estimate D2E/DX2                !
 ! R19   R(11,21)                1.0903         estimate D2E/DX2                !
 ! R20   R(11,22)                1.0967         estimate D2E/DX2                !
 ! R21   R(11,23)                1.0967         estimate D2E/DX2                !
 ! R22   R(12,13)                1.2114         estimate D2E/DX2                !
 ! R23   R(12,14)                1.3593         estimate D2E/DX2                !
 ! R24   R(14,24)                0.9652         estimate D2E/DX2                !
 ! A1    A(2,1,6)              120.2778         estimate D2E/DX2                !
 ! A2    A(2,1,15)             118.555          estimate D2E/DX2                !
 ! A3    A(6,1,15)             121.1672         estimate D2E/DX2                !
 ! A4    A(1,2,3)              119.579          estimate D2E/DX2                !
 ! A5    A(1,2,7)              120.095          estimate D2E/DX2                !
 ! A6    A(3,2,7)              120.326          estimate D2E/DX2                !
 ! A7    A(2,3,4)              120.049          estimate D2E/DX2                !
 ! A8    A(2,3,10)             113.7007         estimate D2E/DX2                !
 ! A9    A(4,3,10)             126.2502         estimate D2E/DX2                !
 ! A10   A(3,4,5)              120.715          estimate D2E/DX2                !
 ! A11   A(3,4,16)             120.0919         estimate D2E/DX2                !
 ! A12   A(5,4,16)             119.1931         estimate D2E/DX2                !
 ! A13   A(4,5,6)              118.4464         estimate D2E/DX2                !
 ! A14   A(4,5,8)              118.2672         estimate D2E/DX2                !
 ! A15   A(6,5,8)              123.2864         estimate D2E/DX2                !
 ! A16   A(1,6,5)              120.9328         estimate D2E/DX2                !
 ! A17   A(1,6,17)             118.8012         estimate D2E/DX2                !
 ! A18   A(5,6,17)             120.266          estimate D2E/DX2                !
 ! A19   A(2,7,18)             108.072          estimate D2E/DX2                !
 ! A20   A(5,8,9)              127.7021         estimate D2E/DX2                !
 ! A21   A(5,8,19)             113.128          estimate D2E/DX2                !
 ! A22   A(9,8,19)             119.1699         estimate D2E/DX2                !
 ! A23   A(8,9,12)             126.8114         estimate D2E/DX2                !
 ! A24   A(8,9,20)             121.2478         estimate D2E/DX2                !
 ! A25   A(12,9,20)            111.9408         estimate D2E/DX2                !
 ! A26   A(3,10,11)            118.4218         estimate D2E/DX2                !
 ! A27   A(10,11,21)           106.0562         estimate D2E/DX2                !
 ! A28   A(10,11,22)           111.0448         estimate D2E/DX2                !
 ! A29   A(10,11,23)           111.0447         estimate D2E/DX2                !
 ! A30   A(21,11,22)           109.4074         estimate D2E/DX2                !
 ! A31   A(21,11,23)           109.4077         estimate D2E/DX2                !
 ! A32   A(22,11,23)           109.7962         estimate D2E/DX2                !
 ! A33   A(9,12,13)            121.8533         estimate D2E/DX2                !
 ! A34   A(9,12,14)            119.0254         estimate D2E/DX2                !
 ! A35   A(13,12,14)           119.1213         estimate D2E/DX2                !
 ! A36   A(12,14,24)           111.1593         estimate D2E/DX2                !
 ! D1    D(6,1,2,3)             -0.0003         estimate D2E/DX2                !
 ! D2    D(6,1,2,7)           -179.9999         estimate D2E/DX2                !
 ! D3    D(15,1,2,3)           179.9995         estimate D2E/DX2                !
 ! D4    D(15,1,2,7)            -0.0001         estimate D2E/DX2                !
 ! D5    D(2,1,6,5)             -0.0002         estimate D2E/DX2                !
 ! D6    D(2,1,6,17)           179.9994         estimate D2E/DX2                !
 ! D7    D(15,1,6,5)          -180.0            estimate D2E/DX2                !
 ! D8    D(15,1,6,17)           -0.0005         estimate D2E/DX2                !
 ! D9    D(1,2,3,4)              0.0004         estimate D2E/DX2                !
 ! D10   D(1,2,3,10)          -179.9996         estimate D2E/DX2                !
 ! D11   D(7,2,3,4)           -180.0            estimate D2E/DX2                !
 ! D12   D(7,2,3,10)             0.0            estimate D2E/DX2                !
 ! D13   D(1,2,7,18)          -179.9992         estimate D2E/DX2                !
 ! D14   D(3,2,7,18)             0.0012         estimate D2E/DX2                !
 ! D15   D(2,3,4,5)              0.0            estimate D2E/DX2                !
 ! D16   D(2,3,4,16)           179.9993         estimate D2E/DX2                !
 ! D17   D(10,3,4,5)          -180.0            estimate D2E/DX2                !
 ! D18   D(10,3,4,16)           -0.0007         estimate D2E/DX2                !
 ! D19   D(2,3,10,11)         -179.9928         estimate D2E/DX2                !
 ! D20   D(4,3,10,11)            0.0072         estimate D2E/DX2                !
 ! D21   D(3,4,5,6)             -0.0005         estimate D2E/DX2                !
 ! D22   D(3,4,5,8)            179.9996         estimate D2E/DX2                !
 ! D23   D(16,4,5,6)          -179.9998         estimate D2E/DX2                !
 ! D24   D(16,4,5,8)             0.0003         estimate D2E/DX2                !
 ! D25   D(4,5,6,1)              0.0006         estimate D2E/DX2                !
 ! D26   D(4,5,6,17)          -179.999          estimate D2E/DX2                !
 ! D27   D(8,5,6,1)           -179.9995         estimate D2E/DX2                !
 ! D28   D(8,5,6,17)             0.001          estimate D2E/DX2                !
 ! D29   D(4,5,8,9)           -179.9842         estimate D2E/DX2                !
 ! D30   D(4,5,8,19)             0.0071         estimate D2E/DX2                !
 ! D31   D(6,5,8,9)              0.0159         estimate D2E/DX2                !
 ! D32   D(6,5,8,19)          -179.9929         estimate D2E/DX2                !
 ! D33   D(5,8,9,12)           179.9945         estimate D2E/DX2                !
 ! D34   D(5,8,9,20)             0.0121         estimate D2E/DX2                !
 ! D35   D(19,8,9,12)            0.0038         estimate D2E/DX2                !
 ! D36   D(19,8,9,20)         -179.9787         estimate D2E/DX2                !
 ! D37   D(8,9,12,13)         -179.91           estimate D2E/DX2                !
 ! D38   D(8,9,12,14)            0.0686         estimate D2E/DX2                !
 ! D39   D(20,9,12,13)           0.0738         estimate D2E/DX2                !
 ! D40   D(20,9,12,14)        -179.9476         estimate D2E/DX2                !
 ! D41   D(3,10,11,21)         179.9953         estimate D2E/DX2                !
 ! D42   D(3,10,11,22)         -61.2397         estimate D2E/DX2                !
 ! D43   D(3,10,11,23)          61.23           estimate D2E/DX2                !
 ! D44   D(9,12,14,24)           0.0526         estimate D2E/DX2                !
 ! D45   D(13,12,14,24)       -179.9682         estimate D2E/DX2                !
 --------------------------------------------------------------------------------
 Trust Radius=3.00D-01 FncErr=1.00D-07 GrdErr=1.00D-07
 Number of steps in this run=    115 maximum allowed number of steps=    144.
 GradGradGradGradGradGradGradGradGradGradGradGradGradGradGradGradGradGrad

                          Input orientation:                          
 ---------------------------------------------------------------------
 Center     Atomic      Atomic             Coordinates (Angstroms)
 Number     Number       Type             X           Y           Z
 ---------------------------------------------------------------------
      1          6           0        1.460837   -2.013762   -0.000419
      2          6           0        2.494064   -1.080651   -0.000277
      3          6           0        2.189003    0.294670   -0.000079
      4          6           0        0.866621    0.712699   -0.000018
      5          6           0       -0.186313   -0.226828   -0.000152
      6          6           0        0.136464   -1.592707   -0.000359
      7          8           0        3.780849   -1.494280   -0.000337
      8          6           0       -1.557275    0.271903   -0.000070
      9          6           0       -2.696714   -0.448627    0.000124
     10          8           0        3.291549    1.101821    0.000036
     11          6           0        3.099486    2.506606    0.000394
     12          6           0       -4.077238    0.078024    0.000317
     13          8           0       -5.041308   -0.655484    0.002101
     14          8           0       -4.269800    1.423580   -0.001118
     15          1           0        1.714740   -3.068887   -0.000579
     16          1           0        0.630757    1.772301    0.000146
     17          1           0       -0.649609   -2.340279   -0.000483
     18          1           0        4.349001   -0.709169   -0.000205
     19          1           0       -1.617093    1.363173   -0.000031
     20          1           0       -2.676646   -1.533616    0.000438
     21          1           0        4.096772    2.947324    0.000513
     22          1           0        2.558151    2.830295   -0.896741
     23          1           0        2.558135    2.829834    0.897685
     24          1           0       -3.428134    1.895968   -0.002974
 ---------------------------------------------------------------------
                    Distance matrix (angstroms):
                    1          2          3          4          5
     1  C    0.000000
     2  C    1.392212   0.000000
     3  C    2.420555   1.408748   0.000000
     4  C    2.790463   2.421709   1.386882   0.000000
     5  C    2.430275   2.813083   2.431889   1.411163   0.000000
     6  C    1.389695   2.412567   2.788388   2.418269   1.403499
     7  O    2.377460   1.351630   2.394643   3.655610   4.164710
     8  C    3.785930   4.271153   3.746347   2.463650   1.458859
     9  C    4.442396   5.229114   4.941935   3.747804   2.520180
    10  O    3.613636   2.323611   1.366419   2.455950   3.723014
    11  C    4.808212   3.637987   2.391995   2.864226   4.274124
    12  C    5.919953   6.672671   6.269985   4.984431   3.902849
    13  O    6.642501   7.547357   7.292475   6.064285   4.873882
    14  O    6.682479   7.212561   6.556720   5.185381   4.404397
    15  H    1.085244   2.135516   3.396828   3.875526   3.419255
    16  H    3.875991   3.407528   2.147446   1.085536   2.159657
    17  H    2.135555   3.386642   3.873070   3.408758   2.163635
    18  H    3.169141   1.891769   2.381866   3.761473   4.560891
    19  H    4.569173   4.782665   3.953235   2.567480   2.138980
    20  H    4.165250   5.190512   5.197804   4.195316   2.812375
    21  H    5.617876   4.335119   3.267439   3.927776   5.331047
    22  H    5.047017   4.012886   2.714713   2.854750   4.204992
    23  H    5.046888   4.012771   2.714645   2.854707   4.204912
    24  H    6.260035   6.628174   5.840924   4.454779   3.875006
                    6          7          8          9         10
     6  C    0.000000
     7  O    3.645714   0.000000
     8  C    2.519032   5.622719   0.000000
     9  C    3.055457   6.561419   1.348141   0.000000
    10  O    4.149101   2.641809   4.919335   6.185724   0.000000
    11  C    5.058050   4.058490   5.165203   6.506100   1.417854
    12  C    4.532839   8.013842   2.527410   1.477568   7.439569
    13  O    5.261912   8.861943   3.605348   2.353702   8.516139
    14  O    5.339771   8.563110   2.946889   2.445355   7.568192
    15  H    2.161033   2.597729   4.676212   5.130954   4.458826
    16  H    3.401118   4.538021   2.653051   4.000573   2.743967
    17  H    1.084792   4.510507   2.765385   2.787290   5.232665
    18  H    4.304196   0.969121   5.987203   7.050531   2.097115
    19  H    3.436887   6.107603   1.092908   2.109076   4.915595
    20  H    2.813731   6.457615   2.124357   1.085175   6.524177
    21  H    6.024610   4.452825   6.255088   7.594994   2.013521
    22  H    5.121622   4.582628   4.928095   6.258538   2.080794
    23  H    5.121508   4.582514   4.928040   6.258383   2.080793
    24  H    4.987707   7.966381   2.477440   2.456036   6.766448
                   11         12         13         14         15
    11  C    0.000000
    12  C    7.576502   0.000000
    13  O    8.733347   1.211391   0.000000
    14  O    7.448444   1.359266   2.217598   0.000000
    15  H    5.744880   6.591666   7.174169   7.483113   0.000000
    16  H    2.575622   5.003578   6.169803   4.912949   4.961060
    17  H    6.127643   4.194858   4.703782   5.222300   2.474069
    18  H    3.450000   8.462930   9.390463   8.878758   3.536609
    19  H    4.853201   2.775594   3.974950   2.653395   5.544751
    20  H    7.048907   2.135191   2.522448   3.359040   4.652024
    21  H    1.090326   8.662986   9.822664   8.504195   6.470616
    22  H    1.096663   7.239344   8.408945   7.028649   6.026176
    23  H    1.096662   7.239192   8.408391   7.028947   6.026035
    24  H    6.556120   1.930354   3.018653   0.965171   7.148353
                   16         17         18         19         20
    16  H    0.000000
    17  H    4.307279   0.000000
    18  H    4.470238   5.258006   0.000000
    19  H    2.284779   3.827739   6.315764   0.000000
    20  H    4.676324   2.181647   7.073855   3.084484   0.000000
    21  H    3.659773   7.105412   3.665182   5.929400   8.121454
    22  H    2.374575   6.150434   4.066783   4.515440   6.873991
    23  H    2.374603   6.150317   4.066688   4.515475   6.873695
    24  H    4.060776   5.066162   8.201864   1.887789   3.510953
                   21         22         23         24
    21  H    0.000000
    22  H    1.784969   0.000000
    23  H    1.784972   1.794426   0.000000
    24  H    7.597998   6.124328   6.125252   0.000000
 Stoichiometry    C10H10O4
 Framework group  C1[X(C10H10O4)]
 Deg. of freedom    66
 Full point group                 C1      NOp   1
 Largest Abelian subgroup         C1      NOp   1
 Largest concise Abelian subgroup C1      NOp   1
                         Standard orientation:                         
 ---------------------------------------------------------------------
 Center     Atomic      Atomic             Coordinates (Angstroms)
 Number     Number       Type             X           Y           Z
 ---------------------------------------------------------------------
      1          6           0        1.460837   -2.013762   -0.000419
      2          6           0        2.494064   -1.080651   -0.000277
      3          6           0        2.189003    0.294670   -0.000079
      4          6           0        0.866621    0.712699   -0.000018
      5          6           0       -0.186313   -0.226828   -0.000152
      6          6           0        0.136464   -1.592707   -0.000359
      7          8           0        3.780849   -1.494280   -0.000337
      8          6           0       -1.557275    0.271903   -0.000070
      9          6           0       -2.696714   -0.448627    0.000124
     10          8           0        3.291549    1.101821    0.000036
     11          6           0        3.099486    2.506606    0.000394
     12          6           0       -4.077238    0.078024    0.000317
     13          8           0       -5.041308   -0.655484    0.002101
     14          8           0       -4.269800    1.423580   -0.001118
     15          1           0        1.714740   -3.068887   -0.000579
     16          1           0        0.630757    1.772301    0.000146
     17          1           0       -0.649609   -2.340279   -0.000483
     18          1           0        4.349001   -0.709169   -0.000205
     19          1           0       -1.617093    1.363173   -0.000031
     20          1           0       -2.676646   -1.533616    0.000438
     21          1           0        4.096772    2.947324    0.000513
     22          1           0        2.558151    2.830295   -0.896741
     23          1           0        2.558135    2.829834    0.897685
     24          1           0       -3.428134    1.895968   -0.002974
 ---------------------------------------------------------------------
 Rotational constants (GHZ):      1.5465928      0.2847573      0.2408522
 Standard basis: 6-31+G(d,p) (6D, 7F)
 There are   316 symmetry adapted cartesian basis functions of A   symmetry.
 There are   316 symmetry adapted basis functions of A   symmetry.
   316 basis functions,   518 primitive gaussians,   316 cartesian basis functions
    51 alpha electrons       51 beta electrons
       nuclear repulsion energy       823.0999281954 Hartrees.
 NAtoms=   24 NActive=   24 NUniq=   24 SFac= 1.00D+00 NAtFMM=   60 NAOKFM=F Big=F
 Integral buffers will be    131072 words long.
 Regular integral format.
 Two-electron integral symmetry is turned on.
 Nuclear repulsion after empirical dispersion term =      823.0734344594 Hartrees.
 One-electron integrals computed using PRISM.
 NBasis=   316 RedAO= T EigKep=  1.47D-06  NBF=   316
 NBsUse=   315 1.00D-06 EigRej=  6.80D-07 NBFU=   315
 ExpMin= 4.38D-02 ExpMax= 5.48D+03 ExpMxC= 8.25D+02 IAcc=2 IRadAn=         4 AccDes= 0.00D+00
 Harris functional with IExCor=  419 and IRadAn=       4 diagonalized for initial guess.
 HarFok:  IExCor=  419 AccDes= 0.00D+00 IRadAn=         4 IDoV= 1 UseB2=F ITyADJ=14
 ICtDFT=  3500011 ScaDFX=  1.000000  1.000000  1.000000  1.000000
 FoFCou: FMM=F IPFlag=           0 FMFlag=      100000 FMFlg1=           0
         NFxFlg=           0 DoJE=T BraDBF=F KetDBF=T FulRan=T
         wScrn=  0.000000 ICntrl=     500 IOpCl=  0 I1Cent=   200000004 NGrid=           0
         NMat0=    1 NMatS0=      1 NMatT0=    0 NMatD0=    1 NMtDS0=    0 NMtDT0=    0
 Petite list used in FoFCou.
 Requested convergence on RMS density matrix=1.00D-08 within 128 cycles.
 Requested convergence on MAX density matrix=1.00D-06.
 Requested convergence on             energy=1.00D-06.
 No special actions if energy rises.
 SCF Done:  E(RB2PLYP) =  -686.678468525     A.U. after   15 cycles
            NFock= 15  Conv=0.70D-08     -V/T= 2.0067
 DoSCS=T DFT=T ScalE2(SS,OS)=  0.270000  0.270000
 ExpMin= 4.38D-02 ExpMax= 5.48D+03 ExpMxC= 8.25D+02 IAcc=3 IRadAn=         5 AccDes= 0.00D+00
 HarFok:  IExCor=  205 AccDes= 0.00D+00 IRadAn=         5 IDoV=-2 UseB2=F ITyADJ=14
 ICtDFT= 12500011 ScaDFX=  1.000000  1.000000  1.000000  1.000000
 Range of M.O.s used for correlation:    15   315
 NBasis=   316 NAE=    51 NBE=    51 NFC=    14 NFV=     0
 NROrb=    301 NOA=    37 NOB=    37 NVA=   264 NVB=   264

 **** Warning!!: The largest alpha MO coefficient is  0.17984341D+03

 DoSCS=T DFT=T ScalE2(SS,OS)=  0.270000  0.270000
 Fully direct method using O(ONN) memory.
 JobTyp=1 Pass  1:  I=  15 to  16 NPSUse= 18 ParTrn=T ParDer=T DoDerP=T.
 JobTyp=1 Pass  2:  I=  17 to  18 NPSUse= 18 ParTrn=T ParDer=T DoDerP=T.
 JobTyp=1 Pass  3:  I=  19 to  20 NPSUse= 18 ParTrn=T ParDer=T DoDerP=T.
 JobTyp=1 Pass  4:  I=  21 to  22 NPSUse= 18 ParTrn=T ParDer=T DoDerP=T.
 JobTyp=1 Pass  5:  I=  23 to  24 NPSUse= 18 ParTrn=T ParDer=T DoDerP=T.
 JobTyp=1 Pass  6:  I=  25 to  26 NPSUse= 18 ParTrn=T ParDer=T DoDerP=T.
 JobTyp=1 Pass  7:  I=  27 to  28 NPSUse= 18 ParTrn=T ParDer=T DoDerP=T.
 JobTyp=1 Pass  8:  I=  29 to  30 NPSUse= 18 ParTrn=T ParDer=T DoDerP=T.
 JobTyp=1 Pass  9:  I=  31 to  32 NPSUse= 18 ParTrn=T ParDer=T DoDerP=T.
 JobTyp=1 Pass 10:  I=  33 to  34 NPSUse= 18 ParTrn=T ParDer=T DoDerP=T.
 JobTyp=1 Pass 11:  I=  35 to  36 NPSUse= 18 ParTrn=T ParDer=T DoDerP=T.
 JobTyp=1 Pass 12:  I=  37 to  38 NPSUse= 18 ParTrn=T ParDer=T DoDerP=T.
 JobTyp=1 Pass 13:  I=  39 to  40 NPSUse= 18 ParTrn=T ParDer=T DoDerP=T.
 JobTyp=1 Pass 14:  I=  41 to  42 NPSUse= 18 ParTrn=T ParDer=T DoDerP=T.
 JobTyp=1 Pass 15:  I=  43 to  44 NPSUse= 18 ParTrn=T ParDer=T DoDerP=T.
 JobTyp=1 Pass 16:  I=  45 to  46 NPSUse= 18 ParTrn=T ParDer=T DoDerP=T.
 JobTyp=1 Pass 17:  I=  47 to  48 NPSUse= 18 ParTrn=T ParDer=T DoDerP=T.
 JobTyp=1 Pass 18:  I=  49 to  50 NPSUse= 18 ParTrn=T ParDer=T DoDerP=T.
 JobTyp=1 Pass 19:  I=  51 to  51 NPSUse= 18 ParTrn=T ParDer=T DoDerP=T.
 Spin components of T(2) and E(2):
     alpha-alpha T2 =       0.1495299619D+00 E2=     -0.9264678373D-01
     alpha-beta  T2 =       0.7804154729D+00 E2=     -0.5008118876D+00
     beta-beta   T2 =       0.1495299619D+00 E2=     -0.9264678373D-01
 E2(B2PLYP) =    -0.6861054551D+00 E(B2PLYP) =    -0.68736457398020D+03
          IDoAtm=111111111111111111111111
          Differentiating once with respect to electric field.
                with respect to dipole field.
          Differentiating once with respect to nuclear coordinates.
          There are     1 degrees of freedom in the 1st order CPHF.  IDoFFX=0 NUNeed=     1.
 LinEq1:  Iter=  0 NonCon=     1 RMS=1.69D-03 Max=5.25D-02 NDo=     1
 AX will form     1 AO Fock derivatives at one time.
 LinEq1:  Iter=  1 NonCon=     1 RMS=7.70D-04 Max=1.76D-02 NDo=     1
 LinEq1:  Iter=  2 NonCon=     1 RMS=2.67D-04 Max=7.40D-03 NDo=     1
 LinEq1:  Iter=  3 NonCon=     1 RMS=1.93D-04 Max=7.24D-03 NDo=     1
 LinEq1:  Iter=  4 NonCon=     1 RMS=8.19D-05 Max=2.16D-03 NDo=     1
 LinEq1:  Iter=  5 NonCon=     1 RMS=3.14D-05 Max=1.02D-03 NDo=     1
 LinEq1:  Iter=  6 NonCon=     1 RMS=1.43D-05 Max=8.99D-04 NDo=     1
 LinEq1:  Iter=  7 NonCon=     1 RMS=7.10D-06 Max=2.99D-04 NDo=     1
 LinEq1:  Iter=  8 NonCon=     1 RMS=2.85D-06 Max=8.12D-05 NDo=     1
 LinEq1:  Iter=  9 NonCon=     1 RMS=1.81D-06 Max=7.44D-05 NDo=     1
 LinEq1:  Iter= 10 NonCon=     1 RMS=7.09D-07 Max=1.90D-05 NDo=     1
 LinEq1:  Iter= 11 NonCon=     1 RMS=3.03D-07 Max=7.10D-06 NDo=     1
 LinEq1:  Iter= 12 NonCon=     1 RMS=1.52D-07 Max=3.91D-06 NDo=     1
 LinEq1:  Iter= 13 NonCon=     1 RMS=7.61D-08 Max=1.86D-06 NDo=     1
 LinEq1:  Iter= 14 NonCon=     1 RMS=2.86D-08 Max=4.54D-07 NDo=     1
 LinEq1:  Iter= 15 NonCon=     1 RMS=1.04D-08 Max=2.90D-07 NDo=     1
 LinEq1:  Iter= 16 NonCon=     1 RMS=4.62D-09 Max=1.30D-07 NDo=     1
 LinEq1:  Iter= 17 NonCon=     1 RMS=1.26D-09 Max=2.66D-08 NDo=     1
 LinEq1:  Iter= 18 NonCon=     1 RMS=5.83D-10 Max=1.40D-08 NDo=     1
 LinEq1:  Iter= 19 NonCon=     1 RMS=2.38D-10 Max=2.85D-09 NDo=     1
 LinEq1:  Iter= 20 NonCon=     1 RMS=8.86D-11 Max=2.22D-09 NDo=     1
 LinEq1:  Iter= 21 NonCon=     0 RMS=4.22D-11 Max=7.41D-10 NDo=     1
 Linear equations converged to 1.000D-10 1.000D-09 after    21 iterations.
 End of Minotr F.D. properties file   721 does not exist.
 End of Minotr F.D. properties file   722 does not exist.
 End of Minotr F.D. properties file   788 does not exist.

 **********************************************************************

            Population analysis using the SCF density.

 **********************************************************************

 Orbital symmetries:
       Occupied  (A) (A) (A) (A) (A) (A) (A) (A) (A) (A) (A) (A)
                 (A) (A) (A) (A) (A) (A) (A) (A) (A) (A) (A) (A)
                 (A) (A) (A) (A) (A) (A) (A) (A) (A) (A) (A) (A)
                 (A) (A) (A) (A) (A) (A) (A) (A) (A) (A) (A) (A)
                 (A) (A) (A)
       Virtual   (A) (A) (A) (A) (A) (A) (A) (A) (A) (A) (A) (A)
                 (A) (A) (A) (A) (A) (A) (A) (A) (A) (A) (A) (A)
                 (A) (A) (A) (A) (A) (A) (A) (A) (A) (A) (A) (A)
                 (A) (A) (A) (A) (A) (A) (A) (A) (A) (A) (A) (A)
                 (A) (A) (A) (A) (A) (A) (A) (A) (A) (A) (A) (A)
                 (A) (A) (A) (A) (A) (A) (A) (A) (A) (A) (A) (A)
                 (A) (A) (A) (A) (A) (A) (A) (A) (A) (A) (A) (A)
                 (A) (A) (A) (A) (A) (A) (A) (A) (A) (A) (A) (A)
                 (A) (A) (A) (A) (A) (A) (A) (A) (A) (A) (A) (A)
                 (A) (A) (A) (A) (A) (A) (A) (A) (A) (A) (A) (A)
                 (A) (A) (A) (A) (A) (A) (A) (A) (A) (A) (A) (A)
                 (A) (A) (A) (A) (A) (A) (A) (A) (A) (A) (A) (A)
                 (A) (A) (A) (A) (A) (A) (A) (A) (A) (A) (A) (A)
                 (A) (A) (A) (A) (A) (A) (A) (A) (A) (A) (A) (A)
                 (A) (A) (A) (A) (A) (A) (A) (A) (A) (A) (A) (A)
                 (A) (A) (A) (A) (A) (A) (A) (A) (A) (A) (A) (A)
                 (A) (A) (A) (A) (A) (A) (A) (A) (A) (A) (A) (A)
                 (A) (A) (A) (A) (A) (A) (A) (A) (A) (A) (A) (A)
                 (A) (A) (A) (A) (A) (A) (A) (A) (A) (A) (A) (A)
                 (A) (A) (A) (A) (A) (A) (A) (A) (A) (A) (A) (A)
                 (A) (A) (A) (A) (A) (A) (A) (A) (A) (A) (A) (A)
                 (A) (A) (A) (A) (A) (A) (A) (A) (A) (A) (A) (A)
 The electronic state is 1-A.
 Alpha  occ. eigenvalues --  -19.81110 -19.79922 -19.79675 -19.73310 -10.77422
 Alpha  occ. eigenvalues --  -10.71771 -10.71695 -10.70890 -10.68294 -10.66576
 Alpha  occ. eigenvalues --  -10.66367 -10.65721 -10.65566 -10.65092  -1.25471
 Alpha  occ. eigenvalues --   -1.25330  -1.22115  -1.16270  -1.01108  -0.94466
 Alpha  occ. eigenvalues --   -0.89546  -0.87972  -0.83169  -0.77533  -0.73008
 Alpha  occ. eigenvalues --   -0.71607  -0.68926  -0.66392  -0.63563  -0.61091
 Alpha  occ. eigenvalues --   -0.59518  -0.57990  -0.56176  -0.54391  -0.53166
 Alpha  occ. eigenvalues --   -0.52321  -0.52281  -0.50865  -0.50775  -0.47876
 Alpha  occ. eigenvalues --   -0.47635  -0.45656  -0.44592  -0.44153  -0.43171
 Alpha  occ. eigenvalues --   -0.42650  -0.38994  -0.35248  -0.35234  -0.30624
 Alpha  occ. eigenvalues --   -0.26274
 Alpha virt. eigenvalues --   -0.03037   0.00899   0.02248   0.02432   0.03231
 Alpha virt. eigenvalues --    0.03867   0.05076   0.05709   0.06524   0.06814
 Alpha virt. eigenvalues --    0.07731   0.07806   0.08515   0.09653   0.09675
 Alpha virt. eigenvalues --    0.10281   0.11124   0.11501   0.11956   0.12079
 Alpha virt. eigenvalues --    0.13106   0.13717   0.14928   0.15850   0.16368
 Alpha virt. eigenvalues --    0.16460   0.16722   0.17145   0.17475   0.18704
 Alpha virt. eigenvalues --    0.19179   0.19553   0.20266   0.20814   0.20934
 Alpha virt. eigenvalues --    0.21486   0.22294   0.22913   0.23379   0.24269
 Alpha virt. eigenvalues --    0.25028   0.25343   0.25912   0.26269   0.27123
 Alpha virt. eigenvalues --    0.27296   0.28206   0.28367   0.29133   0.29947
 Alpha virt. eigenvalues --    0.30314   0.30690   0.30716   0.31978   0.32877
 Alpha virt. eigenvalues --    0.33190   0.34148   0.34430   0.34463   0.35249
 Alpha virt. eigenvalues --    0.35415   0.36166   0.36753   0.37137   0.37742
 Alpha virt. eigenvalues --    0.38239   0.38961   0.40320   0.40876   0.41383
 Alpha virt. eigenvalues --    0.42448   0.43329   0.44369   0.44777   0.47105
 Alpha virt. eigenvalues --    0.48217   0.48744   0.51613   0.52824   0.56417
 Alpha virt. eigenvalues --    0.56681   0.61163   0.66222   0.71184   0.72857
 Alpha virt. eigenvalues --    0.73199   0.74961   0.75775   0.76304   0.77311
 Alpha virt. eigenvalues --    0.78976   0.80096   0.80399   0.81573   0.81855
 Alpha virt. eigenvalues --    0.83132   0.84442   0.86107   0.86469   0.87771
 Alpha virt. eigenvalues --    0.91613   0.92132   0.92614   0.94495   0.95298
 Alpha virt. eigenvalues --    0.97959   0.99398   1.01220   1.03514   1.06069
 Alpha virt. eigenvalues --    1.08281   1.09773   1.11195   1.13242   1.13377
 Alpha virt. eigenvalues --    1.14186   1.17605   1.18162   1.19861   1.21160
 Alpha virt. eigenvalues --    1.22000   1.24592   1.24805   1.26458   1.26899
 Alpha virt. eigenvalues --    1.27537   1.29208   1.30492   1.30756   1.32376
 Alpha virt. eigenvalues --    1.32972   1.35319   1.35547   1.36201   1.36221
 Alpha virt. eigenvalues --    1.38684   1.39026   1.39763   1.42166   1.43246
 Alpha virt. eigenvalues --    1.44811   1.46076   1.47449   1.47632   1.48248
 Alpha virt. eigenvalues --    1.49839   1.50943   1.52567   1.52861   1.53971
 Alpha virt. eigenvalues --    1.54943   1.55637   1.62254   1.64380   1.65824
 Alpha virt. eigenvalues --    1.69013   1.69568   1.71255   1.77593   1.81855
 Alpha virt. eigenvalues --    1.84403   1.88455   1.88955   1.89570   1.91951
 Alpha virt. eigenvalues --    1.93533   1.94003   1.96688   1.96707   1.97934
 Alpha virt. eigenvalues --    2.00126   2.01094   2.01948   2.04024   2.06710
 Alpha virt. eigenvalues --    2.06848   2.07010   2.08640   2.11773   2.11816
 Alpha virt. eigenvalues --    2.12975   2.15310   2.15826   2.16695   2.17686
 Alpha virt. eigenvalues --    2.20543   2.21215   2.24911   2.27033   2.29651
 Alpha virt. eigenvalues --    2.32674   2.34643   2.35712   2.39180   2.40326
 Alpha virt. eigenvalues --    2.43592   2.48034   2.49070   2.51142   2.54649
 Alpha virt. eigenvalues --    2.56873   2.58773   2.59227   2.59430   2.61628
 Alpha virt. eigenvalues --    2.63728   2.64077   2.64428   2.66561   2.67085
 Alpha virt. eigenvalues --    2.67529   2.70750   2.73289   2.75067   2.75482
 Alpha virt. eigenvalues --    2.77831   2.78455   2.80543   2.82937   2.84441
 Alpha virt. eigenvalues --    2.84861   2.86404   2.87100   2.89940   2.93240
 Alpha virt. eigenvalues --    2.96409   2.97001   2.97838   3.02074   3.07331
 Alpha virt. eigenvalues --    3.07628   3.15782   3.21451   3.23017   3.26811
 Alpha virt. eigenvalues --    3.29935   3.31655   3.34859   3.37609   3.38528
 Alpha virt. eigenvalues --    3.47226   3.49893   3.53958   3.59383   3.62638
 Alpha virt. eigenvalues --    3.64736   3.68047   3.71564   3.74320   3.95962
 Alpha virt. eigenvalues --    4.36312   4.40760   4.43466   4.47980   4.51473
 Alpha virt. eigenvalues --    4.56386   4.59609   4.63650   4.68101   4.70691
 Alpha virt. eigenvalues --    4.75777   4.83208   4.94873   5.24685
          Condensed to atoms (all electrons):
               1          2          3          4          5          6
     1  C   10.348889  -0.644547  -1.480588  -1.810334  -0.067553  -1.011695
     2  C   -0.644547  14.881088  -3.350024  -3.560180  -0.685088   0.708712
     3  C   -1.480588  -3.350024  12.921591  -0.115259  -0.939394  -1.488572
     4  C   -1.810334  -3.560180  -0.115259  14.218417   1.821037  -0.713752
     5  C   -0.067553  -0.685088  -0.939394   1.821037   7.716605  -0.123031
     6  C   -1.011695   0.708712  -1.488572  -0.713752  -0.123031   8.180531
     7  O   -0.507185   0.161209   0.264453   0.120466  -0.046598  -0.026509
     8  C    0.530153  -0.760675   0.443536  -3.082995  -0.785081   0.040835
     9  C    0.016259  -0.014898  -0.401434  -1.323787  -1.159372   0.673331
    10  O    0.067782  -0.790633   0.531777   0.174245  -0.011481  -0.041774
    11  C    0.036782  -0.029780  -0.034518  -0.031582  -0.006045  -0.006071
    12  C   -0.077835   0.050109  -0.019160   0.051586  -0.345900  -0.045528
    13  O   -0.002043   0.000073   0.000309   0.012522   0.056205  -0.009927
    14  O    0.000702  -0.001443   0.004773  -0.005753   0.011786  -0.000548
    15  H    0.181522   0.100556   0.022782   0.005190  -0.013330   0.040253
    16  H   -0.001822  -0.000275  -0.113150   0.252092   0.025422  -0.013615
    17  H   -0.050388  -0.022372  -0.001369   0.035815   0.128127   0.217126
    18  H    0.189496   0.164684  -0.308418  -0.068168   0.005292   0.004415
    19  H    0.007945   0.003401   0.052415   0.252696   0.057922  -0.094794
    20  H    0.043837  -0.004885   0.006029  -0.000509   0.053429  -0.011938
    21  H    0.002225   0.063598   0.028821  -0.066483  -0.003936  -0.000118
    22  H   -0.001420  -0.042917  -0.046555   0.071126   0.008773   0.001627
    23  H   -0.001414  -0.042971  -0.046597   0.071188   0.008800   0.001619
    24  H   -0.000928   0.001159  -0.002979   0.053116   0.069909  -0.006986
               7          8          9         10         11         12
     1  C   -0.507185   0.530153   0.016259   0.067782   0.036782  -0.077835
     2  C    0.161209  -0.760675  -0.014898  -0.790633  -0.029780   0.050109
     3  C    0.264453   0.443536  -0.401434   0.531777  -0.034518  -0.019160
     4  C    0.120466  -3.082995  -1.323787   0.174245  -0.031582   0.051586
     5  C   -0.046598  -0.785081  -1.159372  -0.011481  -0.006045  -0.345900
     6  C   -0.026509   0.040835   0.673331  -0.041774  -0.006071  -0.045528
     7  O    8.385924   0.000440   0.000036  -0.000237   0.001595   0.000084
     8  C    0.000440   9.290638  -0.243865  -0.017194  -0.043548   0.174483
     9  C    0.000036  -0.243865   9.855586  -0.002414  -0.007181  -1.200332
    10  O   -0.000237  -0.017194  -0.002414   8.660292   0.065642   0.000166
    11  C    0.001595  -0.043548  -0.007181   0.065642   4.881290  -0.001046
    12  C    0.000084   0.174483  -1.200332   0.000166  -0.001046   6.493854
    13  O    0.000000   0.048615  -0.273744   0.000000   0.000008   0.508703
    14  O    0.000000   0.088896  -0.028072  -0.000005  -0.000029  -0.021229
    15  H   -0.005093  -0.002608   0.001085  -0.000618   0.000066   0.000033
    16  H   -0.000383   0.147913   0.027449  -0.010973  -0.001587   0.000057
    17  H   -0.000501   0.002517  -0.006854   0.000128   0.000039   0.017291
    18  H    0.214146   0.000637   0.000105   0.031270   0.004157   0.000009
    19  H   -0.000007   0.234291  -0.195822   0.000086   0.000908  -0.032734
    20  H   -0.000002  -0.018117   0.354925   0.000001   0.000022  -0.091812
    21  H   -0.000240   0.000631   0.000156  -0.070511   0.417930   0.000005
    22  H   -0.000033  -0.003174  -0.000589  -0.044155   0.421003  -0.000045
    23  H   -0.000033  -0.003161  -0.000589  -0.044154   0.421000  -0.000045
    24  H   -0.000000   0.078742  -0.280903   0.000002   0.000113   0.114637
              13         14         15         16         17         18
     1  C   -0.002043   0.000702   0.181522  -0.001822  -0.050388   0.189496
     2  C    0.000073  -0.001443   0.100556  -0.000275  -0.022372   0.164684
     3  C    0.000309   0.004773   0.022782  -0.113150  -0.001369  -0.308418
     4  C    0.012522  -0.005753   0.005190   0.252092   0.035815  -0.068168
     5  C    0.056205   0.011786  -0.013330   0.025422   0.128127   0.005292
     6  C   -0.009927  -0.000548   0.040253  -0.013615   0.217126   0.004415
     7  O    0.000000   0.000000  -0.005093  -0.000383  -0.000501   0.214146
     8  C    0.048615   0.088896  -0.002608   0.147913   0.002517   0.000637
     9  C   -0.273744  -0.028072   0.001085   0.027449  -0.006854   0.000105
    10  O    0.000000  -0.000005  -0.000618  -0.010973   0.000128   0.031270
    11  C    0.000008  -0.000029   0.000066  -0.001587   0.000039   0.004157
    12  C    0.508703  -0.021229   0.000033   0.000057   0.017291   0.000009
    13  O    8.263136  -0.117160   0.000000  -0.000001   0.000130   0.000000
    14  O   -0.117160   8.356282  -0.000000   0.000029  -0.000007   0.000000
    15  H    0.000000  -0.000000   0.506551   0.000012  -0.003253  -0.000059
    16  H   -0.000001   0.000029   0.000012   0.548108  -0.000132  -0.000019
    17  H    0.000130  -0.000007  -0.003253  -0.000132   0.536522   0.000004
    18  H    0.000000   0.000000  -0.000059  -0.000019   0.000004   0.359372
    19  H   -0.000082  -0.009200   0.000002   0.002969   0.000026   0.000000
    20  H   -0.011719   0.005720   0.000003   0.000002   0.000194  -0.000000
    21  H   -0.000000   0.000000  -0.000000   0.000135  -0.000000  -0.000043
    22  H    0.000000  -0.000000   0.000000  -0.001280   0.000000   0.000018
    23  H    0.000000  -0.000000   0.000000  -0.001279   0.000000   0.000018
    24  H    0.012859   0.189899   0.000000   0.000008   0.000003  -0.000000
              19         20         21         22         23         24
     1  C    0.007945   0.043837   0.002225  -0.001420  -0.001414  -0.000928
     2  C    0.003401  -0.004885   0.063598  -0.042917  -0.042971   0.001159
     3  C    0.052415   0.006029   0.028821  -0.046555  -0.046597  -0.002979
     4  C    0.252696  -0.000509  -0.066483   0.071126   0.071188   0.053116
     5  C    0.057922   0.053429  -0.003936   0.008773   0.008800   0.069909
     6  C   -0.094794  -0.011938  -0.000118   0.001627   0.001619  -0.006986
     7  O   -0.000007  -0.000002  -0.000240  -0.000033  -0.000033  -0.000000
     8  C    0.234291  -0.018117   0.000631  -0.003174  -0.003161   0.078742
     9  C   -0.195822   0.354925   0.000156  -0.000589  -0.000589  -0.280903
    10  O    0.000086   0.000001  -0.070511  -0.044155  -0.044154   0.000002
    11  C    0.000908   0.000022   0.417930   0.421003   0.421000   0.000113
    12  C   -0.032734  -0.091812   0.000005  -0.000045  -0.000045   0.114637
    13  O   -0.000082  -0.011719  -0.000000   0.000000   0.000000   0.012859
    14  O   -0.009200   0.005720   0.000000  -0.000000  -0.000000   0.189899
    15  H    0.000002   0.000003  -0.000000   0.000000   0.000000   0.000000
    16  H    0.002969   0.000002   0.000135  -0.001280  -0.001279   0.000008
    17  H    0.000026   0.000194  -0.000000   0.000000   0.000000   0.000003
    18  H    0.000000  -0.000000  -0.000043   0.000018   0.000018  -0.000000
    19  H    0.611353   0.003510   0.000000  -0.000001  -0.000001   0.010228
    20  H    0.003510   0.513163  -0.000000   0.000000   0.000000   0.000145
    21  H    0.000000  -0.000000   0.530049  -0.027051  -0.027049  -0.000000
    22  H   -0.000001   0.000000  -0.027051   0.564517  -0.041999   0.000000
    23  H   -0.000001   0.000000  -0.027049  -0.041999   0.564502   0.000000
    24  H    0.010228   0.000145  -0.000000   0.000000   0.000000   0.419527
 Mulliken charges:
               1
     1  C    0.232159
     2  C   -0.183901
     3  C    0.071530
     4  C   -0.360696
     5  C    0.223499
     6  C   -0.273594
     7  O   -0.561533
     8  C   -0.121907
     9  C    0.210924
    10  O   -0.497243
    11  C   -0.089168
    12  C    0.424650
    13  O   -0.487884
    14  O   -0.474642
    15  H    0.166909
    16  H    0.140319
    17  H    0.146957
    18  H    0.403081
    19  H    0.094891
    20  H    0.158001
    21  H    0.151881
    22  H    0.142155
    23  H    0.142164
    24  H    0.341448
 Sum of Mulliken charges =  -0.00000
 Mulliken charges with hydrogens summed into heavy atoms:
               1
     1  C    0.399068
     2  C   -0.183901
     3  C    0.071530
     4  C   -0.220377
     5  C    0.223499
     6  C   -0.126637
     7  O   -0.158451
     8  C   -0.027016
     9  C    0.368925
    10  O   -0.497243
    11  C    0.347032
    12  C    0.424650
    13  O   -0.487884
    14  O   -0.133195
 Electronic spatial extent (au):  <R**2>=           4179.9475
 Charge=             -0.0000 electrons
 Dipole moment (field-independent basis, Debye):
    X=              6.6855    Y=              3.9126    Z=             -0.0054  Tot=              7.7463
 Quadrupole moment (field-independent basis, Debye-Ang):
   XX=           -118.4603   YY=            -71.1419   ZZ=            -85.3765
   XY=              5.8310   XZ=              0.0286   YZ=             -0.0014
 Traceless Quadrupole moment (field-independent basis, Debye-Ang):
   XX=            -26.8007   YY=             20.5177   ZZ=              6.2831
   XY=              5.8310   XZ=              0.0286   YZ=             -0.0014
 Octapole moment (field-independent basis, Debye-Ang**2):
  XXX=            271.3355  YYY=             23.9135  ZZZ=              0.0055  XYY=             11.5801
  XXY=             51.9919  XXZ=             -0.1090  XZZ=             -2.1588  YZZ=              5.5281
  YYZ=             -0.0174  XYZ=              0.0033
 Hexadecapole moment (field-independent basis, Debye-Ang**3):
 XXXX=          -5440.9406 YYYY=           -850.7929 ZZZZ=            -99.5058 XXXY=             66.7071
 XXXZ=              0.7046 YYYX=             49.8395 YYYZ=             -0.0243 ZZZX=              0.1236
 ZZZY=             -0.0054 XXYY=           -887.7972 XXZZ=           -732.0205 YYZZ=           -183.5858
 XXYZ=              0.0528 YYXZ=              0.1179 ZZXY=              1.3602
 N-N= 8.230734344594D+02 E-N=-3.249775276191D+03  KE= 6.820824770809D+02
 Calling FoFJK, ICntrl=  10002127 FMM=F ISym2X=0 I1Cent= 0 IOpClX= 0 NMat=1 NMatS=1 NMatT=0.
 ***** Axes restored to original set *****
 -------------------------------------------------------------------
 Center     Atomic                   Forces (Hartrees/Bohr)
 Number     Number              X              Y              Z
 -------------------------------------------------------------------
      1        6           0.002035141   -0.003164964    0.000000222
      2        6          -0.004862153    0.002036475    0.000000686
      3        6          -0.002360693   -0.003153667   -0.000001463
      4        6          -0.002055008    0.004058820    0.000002721
      5        6           0.001150637   -0.000728052    0.000000581
      6        6          -0.003925455   -0.001620534   -0.000001799
      7        8           0.005352323   -0.002211495   -0.000000561
      8        6          -0.000362334    0.004463684    0.000000584
      9        6           0.000459506   -0.004214193   -0.000012473
     10        8           0.004975863   -0.001491157   -0.000000232
     11        6          -0.000808615    0.007086405    0.000001481
     12        6           0.005432244    0.000452847    0.000040909
     13        8          -0.006415321   -0.005166053   -0.000005478
     14        8          -0.000621153    0.004950938   -0.000012923
     15        1          -0.000346560    0.001669009    0.000000305
     16        1           0.000214175   -0.001762234   -0.000000208
     17        1           0.001074022    0.001215097   -0.000000161
     18        1           0.000631354    0.000287532    0.000000122
     19        1           0.000025172   -0.001894963   -0.000000248
     20        1           0.000339823    0.001777757   -0.000002118
     21        1          -0.001807785   -0.001250359   -0.000000431
     22        1           0.000712066   -0.000976762    0.001706928
     23        1           0.000712223   -0.000975941   -0.001707250
     24        1           0.000450530    0.000611811   -0.000009196
 -------------------------------------------------------------------
 Cartesian Forces:  Max     0.007086405 RMS     0.002357381

 GradGradGradGradGradGradGradGradGradGradGradGradGradGradGradGradGradGrad
 Berny optimization.
 FormGI is forming the generalized inverse of G from B-inverse, IUseBI=4.
 GSVD:  received Info=                   1 from GESDD.
 Internal  Forces:  Max     0.008233482 RMS     0.001497379
 Search for a local minimum.
 Step number   1 out of a maximum of  115
 All quantities printed in internal units (Hartrees-Bohrs-Radians)
 Mixed Optimization -- RFO/linear search
 Second derivative matrix not updated -- first step.
 ITU=  0
     Eigenvalues ---    0.01063   0.01310   0.01438   0.01456   0.01789
     Eigenvalues ---    0.01988   0.02004   0.02065   0.02080   0.02112
     Eigenvalues ---    0.02126   0.02134   0.02136   0.02162   0.02195
     Eigenvalues ---    0.02209   0.02231   0.02332   0.02775   0.10122
     Eigenvalues ---    0.10680   0.16000   0.16000   0.16000   0.16000
     Eigenvalues ---    0.16000   0.16000   0.16000   0.16000   0.16000
     Eigenvalues ---    0.16000   0.22000   0.22000   0.22372   0.23481
     Eigenvalues ---    0.24605   0.25000   0.25000   0.25000   0.25000
     Eigenvalues ---    0.25000   0.25000   0.34054   0.34054   0.34479
     Eigenvalues ---    0.34775   0.34849   0.35334   0.35368   0.35376
     Eigenvalues ---    0.35421   0.37108   0.41128   0.41904   0.42785
     Eigenvalues ---    0.44631   0.45297   0.46743   0.47651   0.51671
     Eigenvalues ---    0.53096   0.53557   0.54376   0.54676   0.55419
     Eigenvalues ---    0.99302
 RFO step:  Lambda=-4.62497453D-04 EMin= 1.06267696D-02
 Linear search not attempted -- first point.
 Iteration  1 RMS(Cart)=  0.00674262 RMS(Int)=  0.00002165
 Iteration  2 RMS(Cart)=  0.00002932 RMS(Int)=  0.00000153
 Iteration  3 RMS(Cart)=  0.00000000 RMS(Int)=  0.00000153
 Variable       Old X    -DE/DX   Delta X   Delta X   Delta X     New X
                                 (Linear)    (Quad)   (Total)
    R1        2.63090   0.00115   0.00000   0.00248   0.00248   2.63338
    R2        2.62614   0.00252   0.00000   0.00536   0.00536   2.63150
    R3        2.05081  -0.00170   0.00000  -0.00481  -0.00481   2.04600
    R4        2.66215   0.00082   0.00000   0.00184   0.00184   2.66399
    R5        2.55421   0.00629   0.00000   0.01149   0.01149   2.56570
    R6        2.62083   0.00216   0.00000   0.00447   0.00447   2.62530
    R7        2.58216   0.00447   0.00000   0.00864   0.00864   2.59079
    R8        2.66671   0.00047   0.00000   0.00104   0.00104   2.66776
    R9        2.05137  -0.00177   0.00000  -0.00499  -0.00499   2.04637
   R10        2.65223   0.00091   0.00000   0.00203   0.00203   2.65426
   R11        2.75684   0.00099   0.00000   0.00265   0.00265   2.75950
   R12        2.04996  -0.00162   0.00000  -0.00456  -0.00456   2.04541
   R13        1.83137   0.00060   0.00000   0.00112   0.00112   1.83250
   R14        2.54762   0.00115   0.00000   0.00207   0.00207   2.54969
   R15        2.06530  -0.00189   0.00000  -0.00548  -0.00548   2.05981
   R16        2.79220   0.00138   0.00000   0.00396   0.00396   2.79616
   R17        2.05068  -0.00177   0.00000  -0.00500  -0.00500   2.04568
   R18        2.67936   0.00401   0.00000   0.00936   0.00936   2.68871
   R19        2.06042  -0.00216   0.00000  -0.00620  -0.00620   2.05422
   R20        2.07239  -0.00204   0.00000  -0.00597  -0.00597   2.06642
   R21        2.07239  -0.00204   0.00000  -0.00597  -0.00597   2.06642
   R22        2.28920   0.00823   0.00000   0.00829   0.00829   2.29748
   R23        2.56864   0.00553   0.00000   0.01041   0.01041   2.57905
   R24        1.82391   0.00069   0.00000   0.00127   0.00127   1.82518
    A1        2.09924  -0.00015   0.00000  -0.00041  -0.00041   2.09883
    A2        2.06918   0.00002   0.00000  -0.00014  -0.00014   2.06904
    A3        2.11477   0.00013   0.00000   0.00055   0.00055   2.11531
    A4        2.08705  -0.00008   0.00000  -0.00018  -0.00019   2.08686
    A5        2.09605  -0.00028   0.00000  -0.00117  -0.00117   2.09489
    A6        2.10009   0.00036   0.00000   0.00135   0.00135   2.10144
    A7        2.09525   0.00045   0.00000   0.00181   0.00181   2.09706
    A8        1.98445   0.00039   0.00000   0.00157   0.00157   1.98602
    A9        2.20348  -0.00085   0.00000  -0.00338  -0.00338   2.20010
   A10        2.10687  -0.00061   0.00000  -0.00282  -0.00282   2.10405
   A11        2.09600   0.00048   0.00000   0.00252   0.00252   2.09852
   A12        2.08031   0.00013   0.00000   0.00030   0.00030   2.08061
   A13        2.06728   0.00073   0.00000   0.00297   0.00297   2.07025
   A14        2.06415  -0.00017   0.00000  -0.00071  -0.00071   2.06344
   A15        2.15175  -0.00056   0.00000  -0.00226  -0.00226   2.14949
   A16        2.11068  -0.00035   0.00000  -0.00136  -0.00136   2.10931
   A17        2.07347   0.00032   0.00000   0.00158   0.00158   2.07505
   A18        2.09904   0.00003   0.00000  -0.00022  -0.00022   2.09882
   A19        1.88621   0.00063   0.00000   0.00391   0.00391   1.89013
   A20        2.22882  -0.00147   0.00000  -0.00666  -0.00666   2.22216
   A21        1.97446   0.00082   0.00000   0.00384   0.00384   1.97829
   A22        2.07991   0.00065   0.00000   0.00283   0.00283   2.08273
   A23        2.21328  -0.00079   0.00000  -0.00360  -0.00360   2.20968
   A24        2.11617   0.00001   0.00000  -0.00058  -0.00058   2.11559
   A25        1.95374   0.00078   0.00000   0.00418   0.00418   1.95792
   A26        2.06685  -0.00203   0.00000  -0.00810  -0.00810   2.05875
   A27        1.85103  -0.00031   0.00000  -0.00134  -0.00134   1.84969
   A28        1.93810  -0.00044   0.00000  -0.00302  -0.00302   1.93507
   A29        1.93810  -0.00044   0.00000  -0.00302  -0.00303   1.93507
   A30        1.90952   0.00055   0.00000   0.00399   0.00399   1.91351
   A31        1.90952   0.00055   0.00000   0.00399   0.00399   1.91351
   A32        1.91630   0.00010   0.00000  -0.00038  -0.00039   1.91591
   A33        2.12674  -0.00001   0.00000  -0.00002  -0.00002   2.12672
   A34        2.07739  -0.00051   0.00000  -0.00202  -0.00202   2.07536
   A35        2.07906   0.00051   0.00000   0.00205   0.00205   2.08111
   A36        1.94010   0.00057   0.00000   0.00356   0.00356   1.94365
    D1       -0.00001   0.00000   0.00000   0.00001   0.00001   0.00000
    D2       -3.14159   0.00000   0.00000   0.00001   0.00001  -3.14158
    D3        3.14158  -0.00000   0.00000  -0.00000  -0.00000   3.14158
    D4       -0.00000   0.00000   0.00000   0.00000   0.00000   0.00000
    D5       -0.00000  -0.00000   0.00000  -0.00002  -0.00002  -0.00002
    D6        3.14158  -0.00000   0.00000  -0.00001  -0.00001   3.14157
    D7       -3.14159  -0.00000   0.00000  -0.00001  -0.00001   3.14159
    D8       -0.00001  -0.00000   0.00000  -0.00000  -0.00000  -0.00001
    D9        0.00001   0.00000   0.00000   0.00001   0.00001   0.00002
   D10       -3.14159   0.00000   0.00000   0.00000   0.00000  -3.14158
   D11       -3.14159   0.00000   0.00000   0.00001   0.00001  -3.14159
   D12        0.00000  -0.00000   0.00000  -0.00000  -0.00000  -0.00000
   D13       -3.14158  -0.00000   0.00000  -0.00000  -0.00000  -3.14158
   D14        0.00002   0.00000   0.00000   0.00001   0.00001   0.00003
   D15        0.00000  -0.00000   0.00000  -0.00002  -0.00002  -0.00002
   D16        3.14158  -0.00000   0.00000  -0.00001  -0.00001   3.14157
   D17       -3.14159  -0.00000   0.00000  -0.00001  -0.00001   3.14158
   D18       -0.00001  -0.00000   0.00000  -0.00000  -0.00000  -0.00002
   D19       -3.14147  -0.00000   0.00000  -0.00001  -0.00001  -3.14147
   D20        0.00013  -0.00000   0.00000  -0.00001  -0.00001   0.00011
   D21       -0.00001   0.00000   0.00000   0.00001   0.00001   0.00000
   D22        3.14159  -0.00000   0.00000  -0.00000  -0.00000   3.14158
   D23       -3.14159   0.00000   0.00000   0.00000   0.00000  -3.14159
   D24        0.00001  -0.00000   0.00000  -0.00001  -0.00001  -0.00001
   D25        0.00001   0.00000   0.00000   0.00001   0.00001   0.00002
   D26       -3.14157   0.00000   0.00000   0.00000   0.00000  -3.14157
   D27       -3.14158   0.00000   0.00000   0.00002   0.00002  -3.14156
   D28        0.00002   0.00000   0.00000   0.00002   0.00002   0.00003
   D29       -3.14132   0.00000   0.00000   0.00014   0.00014  -3.14118
   D30        0.00012   0.00000   0.00000   0.00009   0.00009   0.00021
   D31        0.00028   0.00000   0.00000   0.00013   0.00013   0.00041
   D32       -3.14147   0.00000   0.00000   0.00008   0.00008  -3.14139
   D33        3.14150  -0.00000   0.00000  -0.00005  -0.00005   3.14144
   D34        0.00021   0.00000   0.00000   0.00001   0.00001   0.00022
   D35        0.00007   0.00000   0.00000   0.00000   0.00000   0.00007
   D36       -3.14122   0.00000   0.00000   0.00006   0.00006  -3.14116
   D37       -3.14002  -0.00001   0.00000  -0.00048  -0.00048  -3.14051
   D38        0.00120   0.00001   0.00000   0.00106   0.00106   0.00225
   D39        0.00129  -0.00001   0.00000  -0.00054  -0.00054   0.00075
   D40       -3.14068   0.00001   0.00000   0.00100   0.00100  -3.13968
   D41        3.14151   0.00000   0.00000   0.00001   0.00001   3.14152
   D42       -1.06883   0.00024   0.00000   0.00237   0.00237  -1.06647
   D43        1.06866  -0.00024   0.00000  -0.00235  -0.00234   1.06632
   D44        0.00092  -0.00000   0.00000  -0.00046  -0.00046   0.00046
   D45       -3.14104   0.00002   0.00000   0.00104   0.00104  -3.14000
         Item               Value     Threshold  Converged?
 Maximum Force            0.008233     0.000450     NO 
 RMS     Force            0.001497     0.000300     NO 
 Maximum Displacement     0.023656     0.001800     NO 
 RMS     Displacement     0.006745     0.001200     NO 
 Predicted change in Energy=-2.315039D-04
 GradGradGradGradGradGradGradGradGradGradGradGradGradGradGradGradGradGrad

                          Input orientation:                          
 ---------------------------------------------------------------------
 Center     Atomic      Atomic             Coordinates (Angstroms)
 Number     Number       Type             X           Y           Z
 ---------------------------------------------------------------------
      1          6           0        1.459266   -2.016154   -0.000551
      2          6           0        2.495146   -1.084028   -0.000394
      3          6           0        2.192096    0.292737   -0.000080
      4          6           0        0.868903    0.716017    0.000092
      5          6           0       -0.185013   -0.223239   -0.000066
      6          6           0        0.133125   -1.591307   -0.000400
      7          8           0        3.786479   -1.503350   -0.000557
      8          6           0       -1.556638    0.277773    0.000141
      9          6           0       -2.693126   -0.449435    0.000486
     10          8           0        3.298368    1.102536    0.000033
     11          6           0        3.094284    2.510629    0.000499
     12          6           0       -4.076529    0.075538    0.000870
     13          8           0       -5.042780   -0.662343    0.002289
     14          8           0       -4.269505    1.426597   -0.001802
     15          1           0        1.710821   -3.069224   -0.000804
     16          1           0        0.634571    1.773253    0.000355
     17          1           0       -0.654021   -2.334240   -0.000548
     18          1           0        4.360373   -0.721687   -0.000396
     19          1           0       -1.619045    1.365991    0.000194
     20          1           0       -2.666686   -1.531640    0.000848
     21          1           0        4.085594    2.956691    0.000586
     22          1           0        2.549666    2.825646   -0.893876
     23          1           0        2.549763    2.825066    0.895135
     24          1           0       -3.428811    1.902080   -0.004143
 ---------------------------------------------------------------------
                    Distance matrix (angstroms):
                    1          2          3          4          5
     1  C    0.000000
     2  C    1.393523   0.000000
     3  C    2.422400   1.409724   0.000000
     4  C    2.795226   2.425867   1.389247   0.000000
     5  C    2.432734   2.814997   2.432464   1.411715   0.000000
     6  C    1.392531   2.415879   2.790875   2.421799   1.404571
     7  O    2.383042   1.357708   2.401663   3.665766   4.172701
     8  C    3.789166   4.274512   3.748764   2.464814   1.460263
     9  C    4.438127   5.226937   4.941277   3.747843   2.518292
    10  O    3.620570   2.329426   1.370989   2.460020   3.727146
    11  C    4.813008   3.644245   2.394365   2.858838   4.269405
    12  C    5.917787   6.673193   6.272387   4.986733   3.902969
    13  O    6.641492   7.549713   7.297645   6.070245   4.877574
    14  O    6.683663   7.215521   6.560331   5.187308   4.405115
    15  H    1.082699   2.134519   3.396235   3.877741   3.419622
    16  H    3.878109   3.409662   2.148909   1.082893   2.158170
    17  H    2.137092   3.388257   3.873164   3.409306   2.162474
    18  H    3.176801   1.900095   2.393842   3.775891   4.572634
    19  H    4.573282   4.788440   3.959378   2.571449   2.140584
    20  H    4.154303   5.181203   5.190002   4.189553   2.805462
    21  H    5.623770   4.342457   3.268330   3.920169   5.324476
    22  H    5.042819   4.010839   2.709677   2.841597   4.192024
    23  H    5.042703   4.010732   2.709617   2.841563   4.191963
    24  H    6.264653   6.634013   5.846760   4.458375   3.878044
                    6          7          8          9         10
     6  C    0.000000
     7  O    3.654412   0.000000
     8  C    2.519675   5.632167   0.000000
     9  C    3.048208   6.564756   1.349235   0.000000
    10  O    4.156386   2.651206   4.924562   6.189234   0.000000
    11  C    5.059084   4.073225   5.159139   6.500468   1.422806
    12  C    4.527645   8.019962   2.527993   1.479662   7.446061
    13  O    5.258610   8.869224   3.610680   2.359281   8.525817
    14  O    5.337687   8.572250   2.946091   2.450403   7.574808
    15  H    2.161796   2.600062   4.677465   5.124260   4.463618
    16  H    3.401721   4.546499   2.652896   4.001738   2.746939
    17  H    1.082382   4.517569   2.763572   2.776768   5.237634
    18  H    4.315768   0.969716   6.000828   7.058751   2.110840
    19  H    3.437399   6.119870   1.090006   2.109365   4.924465
    20  H    2.800447   6.453227   2.122777   1.082528   6.520794
    21  H    6.025470   4.470059   6.245910   7.586352   2.014352
    22  H    5.113456   4.589981   4.914535   6.246031   2.080561
    23  H    5.113362   4.589871   4.914494   6.245850   2.080559
    24  H    4.989104   7.978558   2.478593   2.463915   6.774528
                   11         12         13         14         15
    11  C    0.000000
    12  C    7.572993   0.000000
    13  O    8.733817   1.215777   0.000000
    14  O    7.443152   1.364774   2.227474   0.000000
    15  H    5.748803   6.586573   7.169673   7.481758   0.000000
    16  H    2.567861   5.007664   6.177738   4.916313   4.960635
    17  H    6.125566   4.185761   4.696430   5.216860   2.476425
    18  H    3.471434   8.474484   9.403341   8.893251   3.539923
    19  H    4.850326   2.775697   3.979461   2.651154   5.546092
    20  H    7.037664   2.137915   2.530120   3.364552   4.639690
    21  H    1.087046   8.655709   9.819605   8.494050   6.476975
    22  H    1.093503   7.229808   8.403238   7.018136   6.020858
    23  H    1.093503   7.229617   8.402733   7.018735   6.020730
    24  H    6.551421   1.937993   3.030050   0.965845   7.150503
                   16         17         18         19         20
    16  H    0.000000
    17  H    4.304878   0.000000
    18  H    4.484008   5.267303   0.000000
    19  H    2.290119   3.824001   6.333391   0.000000
    20  H    4.671254   2.166792   7.073583   3.081204   0.000000
    21  H    3.648300   7.103373   3.688627   5.922266   8.107922
    22  H    2.361095   6.138898   4.081732   4.506451   6.855421
    23  H    2.361124   6.138805   4.081635   4.506527   6.855070
    24  H    4.065426   5.064177   8.219219   1.887502   3.517286
                   21         22         23         24
    21  H    0.000000
    22  H    1.782221   0.000000
    23  H    1.782224   1.789011   0.000000
    24  H    7.588051   6.114474   6.115877   0.000000
 Stoichiometry    C10H10O4
 Framework group  C1[X(C10H10O4)]
 Deg. of freedom    66
 Full point group                 C1      NOp   1
 Largest Abelian subgroup         C1      NOp   1
 Largest concise Abelian subgroup C1      NOp   1
                         Standard orientation:                         
 ---------------------------------------------------------------------
 Center     Atomic      Atomic             Coordinates (Angstroms)
 Number     Number       Type             X           Y           Z
 ---------------------------------------------------------------------
      1          6           0        1.459052   -2.015174   -0.000558
      2          6           0        2.494614   -1.082695   -0.000400
      3          6           0        2.191097    0.293967   -0.000086
      4          6           0        0.867759    0.716796    0.000086
      5          6           0       -0.185837   -0.222819   -0.000072
      6          6           0        0.132767   -1.590778   -0.000406
      7          8           0        3.786090   -1.501578   -0.000563
      8          6           0       -1.557633    0.277727    0.000135
      9          6           0       -2.693873   -0.449868    0.000480
     10          8           0        3.297092    1.104141    0.000027
     11          6           0        3.092529    2.512165    0.000492
     12          6           0       -4.077455    0.074635    0.000864
     13          8           0       -5.043455   -0.663575    0.002282
     14          8           0       -4.270890    1.425628   -0.001809
     15          1           0        1.710964   -3.068159   -0.000810
     16          1           0        0.633067    1.773952    0.000348
     17          1           0       -0.654127   -2.333979   -0.000554
     18          1           0        4.359718   -0.719720   -0.000403
     19          1           0       -1.620410    1.365924    0.000188
     20          1           0       -2.667065   -1.532064    0.000842
     21          1           0        4.083688    2.958564    0.000580
     22          1           0        2.547804    2.826996   -0.893882
     23          1           0        2.547902    2.826417    0.895129
     24          1           0       -3.430358    1.901397   -0.004149
 ---------------------------------------------------------------------
 Rotational constants (GHZ):      1.5409377      0.2846006      0.2406004
 Standard basis: 6-31+G(d,p) (6D, 7F)
 There are   316 symmetry adapted cartesian basis functions of A   symmetry.
 There are   316 symmetry adapted basis functions of A   symmetry.
   316 basis functions,   518 primitive gaussians,   316 cartesian basis functions
    51 alpha electrons       51 beta electrons
       nuclear repulsion energy       822.1514039571 Hartrees.
 NAtoms=   24 NActive=   24 NUniq=   24 SFac= 1.00D+00 NAtFMM=   60 NAOKFM=F Big=F
 Integral buffers will be    131072 words long.
 Regular integral format.
 Two-electron integral symmetry is turned on.
 Nuclear repulsion after empirical dispersion term =      822.1249178155 Hartrees.
 One-electron integrals computed using PRISM.
 NBasis=   316 RedAO= T EigKep=  1.48D-06  NBF=   316
 NBsUse=   315 1.00D-06 EigRej=  6.86D-07 NBFU=   315
 Initial guess from the checkpoint file:  "B2PLYPD3BJFA.chk"
 B after Tr=    -0.000000    0.000000   -0.000000
         Rot=    1.000000    0.000005   -0.000006   -0.000152 Ang=   0.02 deg.
 ExpMin= 4.38D-02 ExpMax= 5.48D+03 ExpMxC= 8.25D+02 IAcc=2 IRadAn=         4 AccDes= 0.00D+00
 Harris functional with IExCor=  419 and IRadAn=       4 diagonalized for initial guess.
 HarFok:  IExCor=  419 AccDes= 0.00D+00 IRadAn=         4 IDoV= 1 UseB2=F ITyADJ=14
 ICtDFT=  3500011 ScaDFX=  1.000000  1.000000  1.000000  1.000000
 FoFCou: FMM=F IPFlag=           0 FMFlag=      100000 FMFlg1=           0
         NFxFlg=           0 DoJE=T BraDBF=F KetDBF=T FulRan=T
         wScrn=  0.000000 ICntrl=     500 IOpCl=  0 I1Cent=   200000004 NGrid=           0
         NMat0=    1 NMatS0=      1 NMatT0=    0 NMatD0=    1 NMtDS0=    0 NMtDT0=    0
 Petite list used in FoFCou.
 Requested convergence on RMS density matrix=1.00D-08 within 128 cycles.
 Requested convergence on MAX density matrix=1.00D-06.
 Requested convergence on             energy=1.00D-06.
 No special actions if energy rises.
 SCF Done:  E(RB2PLYP) =  -686.677975431     A.U. after   12 cycles
            NFock= 12  Conv=0.44D-08     -V/T= 2.0068
 DoSCS=T DFT=T ScalE2(SS,OS)=  0.270000  0.270000
 ExpMin= 4.38D-02 ExpMax= 5.48D+03 ExpMxC= 8.25D+02 IAcc=3 IRadAn=         5 AccDes= 0.00D+00
 HarFok:  IExCor=  205 AccDes= 0.00D+00 IRadAn=         5 IDoV=-2 UseB2=F ITyADJ=14
 ICtDFT= 12500011 ScaDFX=  1.000000  1.000000  1.000000  1.000000
 Range of M.O.s used for correlation:    15   315
 NBasis=   316 NAE=    51 NBE=    51 NFC=    14 NFV=     0
 NROrb=    301 NOA=    37 NOB=    37 NVA=   264 NVB=   264

 **** Warning!!: The largest alpha MO coefficient is  0.18117985D+03

 DoSCS=T DFT=T ScalE2(SS,OS)=  0.270000  0.270000
 Fully direct method using O(ONN) memory.
 JobTyp=1 Pass  1:  I=  15 to  16 NPSUse= 18 ParTrn=T ParDer=T DoDerP=T.
 JobTyp=1 Pass  2:  I=  17 to  18 NPSUse= 18 ParTrn=T ParDer=T DoDerP=T.
 JobTyp=1 Pass  3:  I=  19 to  20 NPSUse= 18 ParTrn=T ParDer=T DoDerP=T.
 JobTyp=1 Pass  4:  I=  21 to  22 NPSUse= 18 ParTrn=T ParDer=T DoDerP=T.
 JobTyp=1 Pass  5:  I=  23 to  24 NPSUse= 18 ParTrn=T ParDer=T DoDerP=T.
 JobTyp=1 Pass  6:  I=  25 to  26 NPSUse= 18 ParTrn=T ParDer=T DoDerP=T.
 JobTyp=1 Pass  7:  I=  27 to  28 NPSUse= 18 ParTrn=T ParDer=T DoDerP=T.
 JobTyp=1 Pass  8:  I=  29 to  30 NPSUse= 18 ParTrn=T ParDer=T DoDerP=T.
 JobTyp=1 Pass  9:  I=  31 to  32 NPSUse= 18 ParTrn=T ParDer=T DoDerP=T.
 JobTyp=1 Pass 10:  I=  33 to  34 NPSUse= 18 ParTrn=T ParDer=T DoDerP=T.
 JobTyp=1 Pass 11:  I=  35 to  36 NPSUse= 18 ParTrn=T ParDer=T DoDerP=T.
 JobTyp=1 Pass 12:  I=  37 to  38 NPSUse= 18 ParTrn=T ParDer=T DoDerP=T.
 JobTyp=1 Pass 13:  I=  39 to  40 NPSUse= 18 ParTrn=T ParDer=T DoDerP=T.
 JobTyp=1 Pass 14:  I=  41 to  42 NPSUse= 18 ParTrn=T ParDer=T DoDerP=T.
 JobTyp=1 Pass 15:  I=  43 to  44 NPSUse= 18 ParTrn=T ParDer=T DoDerP=T.
 JobTyp=1 Pass 16:  I=  45 to  46 NPSUse= 18 ParTrn=T ParDer=T DoDerP=T.
 JobTyp=1 Pass 17:  I=  47 to  48 NPSUse= 18 ParTrn=T ParDer=T DoDerP=T.
 JobTyp=1 Pass 18:  I=  49 to  50 NPSUse= 18 ParTrn=T ParDer=T DoDerP=T.
 JobTyp=1 Pass 19:  I=  51 to  51 NPSUse= 18 ParTrn=T ParDer=T DoDerP=T.
 Spin components of T(2) and E(2):
     alpha-alpha T2 =       0.1499764095D+00 E2=     -0.9273018851D-01
     alpha-beta  T2 =       0.7828485985D+00 E2=     -0.5013928596D+00
     beta-beta   T2 =       0.1499764095D+00 E2=     -0.9273018851D-01
 E2(B2PLYP) =    -0.6868532366D+00 E(B2PLYP) =    -0.68736482866720D+03
          IDoAtm=111111111111111111111111
          Differentiating once with respect to electric field.
                with respect to dipole field.
          Differentiating once with respect to nuclear coordinates.
          There are     1 degrees of freedom in the 1st order CPHF.  IDoFFX=0 NUNeed=     1.
 LinEq1:  Iter=  0 NonCon=     1 RMS=1.69D-03 Max=5.30D-02 NDo=     1
 AX will form     1 AO Fock derivatives at one time.
 LinEq1:  Iter=  1 NonCon=     1 RMS=7.78D-04 Max=1.80D-02 NDo=     1
 LinEq1:  Iter=  2 NonCon=     1 RMS=2.71D-04 Max=7.38D-03 NDo=     1
 LinEq1:  Iter=  3 NonCon=     1 RMS=1.97D-04 Max=7.49D-03 NDo=     1
 LinEq1:  Iter=  4 NonCon=     1 RMS=8.38D-05 Max=2.17D-03 NDo=     1
 LinEq1:  Iter=  5 NonCon=     1 RMS=3.19D-05 Max=1.05D-03 NDo=     1
 LinEq1:  Iter=  6 NonCon=     1 RMS=1.47D-05 Max=9.09D-04 NDo=     1
 LinEq1:  Iter=  7 NonCon=     1 RMS=7.38D-06 Max=3.18D-04 NDo=     1
 LinEq1:  Iter=  8 NonCon=     1 RMS=3.00D-06 Max=8.75D-05 NDo=     1
 LinEq1:  Iter=  9 NonCon=     1 RMS=1.96D-06 Max=8.39D-05 NDo=     1
 LinEq1:  Iter= 10 NonCon=     1 RMS=7.30D-07 Max=1.94D-05 NDo=     1
 LinEq1:  Iter= 11 NonCon=     1 RMS=3.15D-07 Max=7.93D-06 NDo=     1
 LinEq1:  Iter= 12 NonCon=     1 RMS=1.57D-07 Max=4.12D-06 NDo=     1
 LinEq1:  Iter= 13 NonCon=     1 RMS=7.85D-08 Max=1.98D-06 NDo=     1
 LinEq1:  Iter= 14 NonCon=     1 RMS=2.95D-08 Max=4.82D-07 NDo=     1
 LinEq1:  Iter= 15 NonCon=     1 RMS=1.08D-08 Max=3.02D-07 NDo=     1
 LinEq1:  Iter= 16 NonCon=     1 RMS=4.81D-09 Max=1.34D-07 NDo=     1
 LinEq1:  Iter= 17 NonCon=     1 RMS=1.39D-09 Max=2.85D-08 NDo=     1
 LinEq1:  Iter= 18 NonCon=     1 RMS=7.30D-10 Max=1.66D-08 NDo=     1
 LinEq1:  Iter= 19 NonCon=     1 RMS=2.59D-10 Max=3.78D-09 NDo=     1
 LinEq1:  Iter= 20 NonCon=     1 RMS=9.12D-11 Max=2.14D-09 NDo=     1
 LinEq1:  Iter= 21 NonCon=     0 RMS=4.40D-11 Max=9.18D-10 NDo=     1
 Linear equations converged to 1.000D-10 1.000D-09 after    21 iterations.
 End of Minotr F.D. properties file   721 does not exist.
 End of Minotr F.D. properties file   722 does not exist.
 End of Minotr F.D. properties file   788 does not exist.
 Calling FoFJK, ICntrl=  10002127 FMM=F ISym2X=0 I1Cent= 0 IOpClX= 0 NMat=1 NMatS=1 NMatT=0.
 ***** Axes restored to original set *****
 -------------------------------------------------------------------
 Center     Atomic                   Forces (Hartrees/Bohr)
 Number     Number              X              Y              Z
 -------------------------------------------------------------------
      1        6           0.000585174    0.000008227    0.000000410
      2        6          -0.001792951    0.001605856    0.000000584
      3        6          -0.000684347   -0.001382542   -0.000000168
      4        6          -0.000287171    0.000364689   -0.000000256
      5        6           0.000828333   -0.000586794   -0.000006175
      6        6          -0.000244739    0.000104328   -0.000001114
      7        8           0.001164158   -0.000759765   -0.000000318
      8        6          -0.000330919    0.000984412    0.000008054
      9        6          -0.000490687   -0.000444109    0.000041112
     10        8           0.001631772   -0.001171302    0.000000096
     11        6          -0.000708549    0.002364771    0.000000641
     12        6           0.001573824   -0.000839617   -0.000154424
     13        8          -0.000367035    0.000323125    0.000061876
     14        8          -0.000772566    0.000805612    0.000041837
     15        1          -0.000025015   -0.000049863   -0.000000003
     16        1          -0.000051381   -0.000156645   -0.000000043
     17        1           0.000115745   -0.000017417   -0.000000550
     18        1          -0.000433228    0.000120341    0.000000177
     19        1           0.000034580   -0.000224047    0.000005409
     20        1           0.000016488    0.000095061    0.000002183
     21        1           0.000079650   -0.000337132   -0.000000177
     22        1           0.000057672   -0.000246084    0.000026209
     23        1           0.000057831   -0.000245950   -0.000026317
     24        1           0.000043362   -0.000315155    0.000000955
 -------------------------------------------------------------------
 Cartesian Forces:  Max     0.002364771 RMS     0.000632078

 GradGradGradGradGradGradGradGradGradGradGradGradGradGradGradGradGradGrad
 Berny optimization.
 Using GEDIIS/GDIIS optimizer.
 FormGI is forming the generalized inverse of G from B-inverse, IUseBI=4.
 GSVD:  received Info=                   1 from GESDD.
 Internal  Forces:  Max     0.001592607 RMS     0.000314112
 Search for a local minimum.
 Step number   2 out of a maximum of  115
 All quantities printed in internal units (Hartrees-Bohrs-Radians)
 Mixed Optimization -- En-DIIS/RFO-DIIS
 Update second derivatives using D2CorX and points    1    2
 DE= -2.55D-04 DEPred=-2.32D-04 R= 1.10D+00
 TightC=F SS=  1.41D+00  RLast= 3.35D-02 DXNew= 5.0454D-01 1.0036D-01
 Trust test= 1.10D+00 RLast= 3.35D-02 DXMaxT set to 3.00D-01
 ITU=  1  0
 Use linear search instead of GDIIS.
     Eigenvalues ---    0.01063   0.01310   0.01439   0.01456   0.01790
     Eigenvalues ---    0.01987   0.02004   0.02065   0.02080   0.02112
     Eigenvalues ---    0.02126   0.02134   0.02136   0.02162   0.02195
     Eigenvalues ---    0.02209   0.02231   0.02332   0.02775   0.10179
     Eigenvalues ---    0.10693   0.15449   0.16000   0.16000   0.16000
     Eigenvalues ---    0.16000   0.16000   0.16000   0.16000   0.16000
     Eigenvalues ---    0.16351   0.21298   0.22002   0.22374   0.23159
     Eigenvalues ---    0.24336   0.24718   0.25000   0.25000   0.25000
     Eigenvalues ---    0.25000   0.25608   0.33592   0.34054   0.34314
     Eigenvalues ---    0.34689   0.35051   0.35303   0.35365   0.35410
     Eigenvalues ---    0.35652   0.37003   0.40043   0.41357   0.41968
     Eigenvalues ---    0.44927   0.45529   0.46748   0.48377   0.50266
     Eigenvalues ---    0.53183   0.53712   0.54231   0.54657   0.55403
     Eigenvalues ---    1.01074
 RFO step:  Lambda=-3.50245030D-05 EMin= 1.06264583D-02
 Quartic linear search produced a step of  0.11624.
 Iteration  1 RMS(Cart)=  0.00151634 RMS(Int)=  0.00000307
 Iteration  2 RMS(Cart)=  0.00000385 RMS(Int)=  0.00000135
 Iteration  3 RMS(Cart)=  0.00000000 RMS(Int)=  0.00000135
 Variable       Old X    -DE/DX   Delta X   Delta X   Delta X     New X
                                 (Linear)    (Quad)   (Total)
    R1        2.63338  -0.00047   0.00029  -0.00127  -0.00098   2.63240
    R2        2.63150  -0.00009   0.00062  -0.00041   0.00021   2.63171
[...]
 0656,-0.00220977,0.00032929,0.00007717,0.00028539,-0.00007399,0.002114
 24,-0.00190312,-0.00007547,-0.00180240,0.00061961,0.00002065,-0.000266
 07,-0.00003495,0.00006657,0.00019125,0.00005443,-0.00006215,0.00011041
 ,0.00004083,0.00003108,0.00008817,0.00003786,0.00000897,0.07473466,-0.
 00021405,0.00064599,0.00012233,0.00096761,0.00144593,-0.00038487,0.000
 11560,-0.00609751,-0.00067294,0.06300433,-0.33182972,-0.01808517,0.006
 64963,-0.01686272,-0.00089598,-0.00402539,-0.00079498,-0.00039338,0.00
 028134,-0.00044796,0.00006959,0.00249313,0.00060494,0.00033226,-0.0004
 8374,0.00042317,0.00002605,-0.00016734,-0.00050609,0.00015306,-0.00194
 008,-0.00105966,-0.00005171,0.00003301,-0.00019010,-0.00002780,-0.0000
 0916,0.00002790,0.00002238,0.00001017,0.00013136,-0.00000304,0.0000644
 9,-0.00006048,0.00001145,-0.06385603,0.35490658,-0.00004884,0.00006959
 ,-0.00158192,-0.00030226,-0.00030717,0.00700635,-0.00007572,0.00028130
 ,0.00200616,0.00301782,-0.01860827,-0.02895773,0.00039916,-0.00158810,
 -0.00000151,-0.00030591,-0.00064755,0.00559025,-0.00003265,0.00008911,
 -0.00055651,0.00044791,-0.00007651,-0.00340818,0.00018300,0.00016019,-
 0.00006242,0.00018911,0.00016640,-0.00295515,-0.00015866,-0.00005582,-
 0.00016688,0.00010331,-0.00004234,0.00040218,-0.00003643,0.00001794,-0
 .00013820,-0.00003698,0.00007410,-0.00009912,0.00001000,0.00001988,-0.
 00033285,-0.00307159,0.02016694,0.02248749,-0.01742098,-0.02200314,-0.
 00191743,-0.00322508,0.00330810,0.00001431,-0.00036854,0.00109570,0.00
 006268,0.00060574,0.00201614,-0.00003665,0.00902710,0.00496840,0.00060
 177,-0.21380621,-0.14324088,-0.01782143,-0.00129838,-0.00139109,-0.000
 16580,-0.00027238,-0.00036516,0.00023998,-0.00062396,0.00088216,0.0003
 1068,0.00003712,-0.00032286,-0.00000492,-0.00001687,0.00013453,0.00001
 644,-0.00020269,0.00004995,-0.00003586,0.00016727,0.00001777,-0.000058
 75,0.00007690,-0.00009234,0.00002994,0.00118060,0.00013025,0.00012813,
 0.00033146,0.00042074,0.00004895,0.22741186,0.00995003,0.01031602,0.00
 102538,0.00262703,-0.00009864,-0.00062734,0.00098682,-0.00041504,0.000
 09673,0.00289769,-0.00477894,-0.00085277,-0.02406278,-0.01535897,-0.00
 178511,-0.14404992,-0.19289232,-0.01745419,0.00040488,0.00056891,0.000
 02814,-0.00172153,0.00098534,0.00030558,0.00019436,-0.00040525,0.00027
 530,-0.00013130,0.00020368,0.00004529,-0.00000016,-0.00007939,0.000010
 57,0.00055296,0.00033025,0.00005628,-0.00015037,0.00000662,0.00003270,
 -0.00030568,0.00025597,-0.00016464,-0.00035053,0.00074824,0.00038496,-
 0.00122881,-0.00087914,-0.00008560,0.15315920,0.20095160,0.00059412,0.
 00016629,0.00143350,-0.00012333,-0.00064233,0.00788954,0.00006383,0.00
 013796,-0.00131806,0.00029815,-0.00049649,0.00634353,-0.00275256,-0.00
 021128,0.00061778,-0.01787596,-0.01829512,-0.03391467,0.00005635,-0.00
 000169,0.00018882,0.00106485,0.00061427,-0.00334333,0.00016730,-0.0012
 0351,0.00007098,-0.00004217,-0.00001140,-0.00045104,-0.00000348,0.0000
 2775,-0.00019129,-0.00019389,0.00011506,-0.00014023,0.00004121,0.00007
 022,-0.00011734,-0.00014828,0.00016967,-0.00001957,0.00008651,0.000352
 18,-0.00396142,-0.00002950,-0.00014832,0.00081077,0.01801757,0.0192728
 1,0.02544006,-0.00482919,0.00501199,0.00020662,-0.03605248,-0.03638948
 ,-0.00308236,-0.00173277,-0.00141964,-0.00017276,-0.00107450,-0.001161
 45,-0.00005318,0.00088498,0.00000380,0.00006838,-0.00054189,-0.0017786
 1,-0.00019373,-0.19337368,-0.18546155,-0.01622825,-0.00070826,0.000245
 51,0.00004432,0.00065632,-0.00004587,0.00002724,-0.00004659,-0.0014759
 8,-0.00009072,0.00118617,0.00139340,0.00014661,-0.00074033,0.00033458,
 0.00001675,0.00039675,0.00003081,-0.00008951,0.00016293,-0.00023324,0.
 00007762,0.00016703,0.00013861,0.00003479,0.00033675,-0.00015443,-0.00
 000042,-0.00036320,0.00023674,0.00001176,0.23556448,0.00556912,0.00001
 597,-0.00001014,0.00671286,0.01152500,0.00104248,0.01011983,0.00214585
 ,0.00029299,-0.00189017,-0.00058946,-0.00003382,0.00128825,-0.00093070
 ,0.00007163,-0.00123909,0.00107904,-0.00010720,-0.23854637,-0.34932356
 ,-0.02770498,-0.00105447,0.00011241,0.00001069,0.00069431,0.00001946,0
 .00001394,-0.00170253,-0.00002220,0.00005803,-0.00184207,-0.00277311,-
 0.00015710,-0.00061474,0.00039054,-0.00001881,0.00027577,-0.00000543,-
 0.00005095,0.00010395,-0.00028360,0.00007554,0.00010547,0.00015105,0.0
 0007743,0.00030539,-0.00009773,-0.00000602,0.00022390,-0.00003460,0.00
 000540,0.22180830,0.33712759,0.00015154,-0.00004205,0.00163647,-0.0000
 7772,0.00029117,-0.00294034,0.00049144,-0.00001102,0.00145630,-0.00009
 958,-0.00001669,-0.00051750,0.00005211,-0.00001855,-0.00016223,-0.0000
 6913,-0.00012777,0.00196018,-0.01981564,-0.02661535,-0.00837004,-0.000
 04011,0.00003447,-0.00011376,0.00007932,-0.00006581,-0.00001497,-0.000
 06016,0.00002811,-0.00098889,-0.00005177,-0.00006604,-0.00130541,-0.00
 009923,0.00001488,0.00000816,0.00004748,0.00001534,-0.00002918,0.00000
 429,-0.00000275,-0.00000970,0.00002440,0.00007372,-0.00061907,0.000033
 02,-0.00003226,0.00018238,-0.00000959,0.00000745,-0.00016095,0.0194670
 2,0.02646197,0.00976302,0.00052769,0.00154257,0.00041384,0.00020898,-0
 .00017105,-0.00013250,-0.00003178,-0.00007711,-0.00004484,0.00103192,0
 .00213166,0.00036641,-0.00169938,0.02980164,-0.00343322,-0.00575934,0.
 00002833,-0.00045022,-0.00013937,-0.00010082,0.00005204,-0.06056265,0.
 02159205,-0.00343830,0.00630865,-0.02797683,0.00526161,-0.00005330,-0.
 00025579,-0.00001331,-0.00006204,0.00017242,0.00000077,0.00049868,-0.0
 0165342,-0.00018899,0.00050578,0.00054198,-0.00042758,-0.00127126,0.00
 139385,0.00004593,-0.00042136,0.00009562,0.00005734,-0.00062031,-0.000
 96365,-0.00016805,0.00016246,0.00001325,-0.00008905,-0.00002006,0.0000
 4022,-0.00001569,0.06770649,-0.00008854,-0.00051381,-0.00022094,-0.000
 58347,0.00030800,-0.00000472,0.00014880,-0.00026258,-0.00033853,-0.002
 20090,0.00093621,-0.00039560,-0.00032292,-0.01129654,0.00145538,0.0019
 3008,0.00117181,0.00077992,0.00050894,-0.00002704,0.00007952,0.0217109
 7,-0.32100954,0.03998946,0.00304424,-0.01665072,0.00349878,0.00026690,
 0.00041894,0.00005950,0.00006505,-0.00026280,0.00000688,0.00146731,-0.
 00349236,0.00080924,0.00013075,0.00130028,-0.00055701,0.00175304,0.002
 90369,-0.00066837,0.00021449,-0.00002810,-0.00003667,0.00042161,0.0006
 6888,0.00034318,-0.00014360,0.00012126,0.00006049,-0.00003741,-0.00006
 798,-0.00000482,-0.02439680,0.34471525,0.00087207,0.00025652,-0.000123
 34,-0.00038170,-0.00032113,0.00019474,0.00009350,-0.00014432,-0.000155
 88,-0.00016722,-0.00005937,-0.00075982,0.00298680,-0.00057396,0.003332
 83,-0.00064362,0.00024171,0.00254668,0.00021187,-0.00000990,-0.0000343
 6,-0.00679589,0.03653993,-0.04460674,0.00323797,0.00620589,0.00409092,
 -0.00006626,-0.00002936,-0.00000774,-0.00001206,0.00001913,0.00006358,
 -0.00240648,-0.00014173,-0.00737614,0.00159741,0.00056908,0.00048607,-
 0.00121485,-0.00059008,0.00022464,-0.00002330,0.00001359,-0.00029350,-
 0.00017276,-0.00005423,0.00024226,0.00000905,0.00006746,0.00001056,-0.
 00001863,-0.00003639,0.00002717,0.00229667,-0.04516056,0.03153175,-0.0
 0010851,0.00027072,-0.00008955,0.00001780,0.00009909,-0.00000161,-0.00
 005511,0.00001578,0.00001092,0.00007091,0.00006698,-0.00010851,0.00071
 743,0.00051337,-0.00071955,-0.00079037,-0.00070366,0.00000567,0.000027
 58,0.00004622,0.00001629,0.00620497,-0.02758842,0.00606698,-0.05575045
 ,0.01343666,0.00071651,0.00018264,0.00021508,0.00001647,0.00002764,-0.
 00012290,0.00000166,0.00071106,0.02997447,-0.00777575,0.00131544,-0.00
 219421,-0.00047913,-0.00595476,0.00375459,-0.00073264,-0.00002548,-0.0
 0000429,0.00003214,0.00012225,0.00015170,0.00003157,-0.00137630,0.0009
 8409,0.00082984,0.00000016,0.00000156,0.00000813,-0.00381417,-0.002487
 25,0.00165609,0.05899195,-0.00003554,0.00039172,-0.00015501,-0.0000778
 3,0.00021702,-0.00006093,0.00005541,-0.00040786,-0.00006731,-0.0004368
 6,-0.00011082,-0.00006134,0.00148701,-0.00061560,-0.00154401,0.0005539
 6,0.00006042,-0.00034129,0.00028560,-0.00003725,0.00007025,0.00075951,
 -0.01216239,0.00348841,0.01573636,-0.33264105,0.07053363,0.00010898,0.
 00022503,0.00004162,0.00001999,-0.00011758,0.00000385,-0.00411227,-0.0
 1042584,0.00450072,-0.00024720,0.00208100,-0.00090439,0.00220000,-0.00
 004275,0.00025597,-0.00000916,-0.00001388,-0.00000592,0.00001060,0.000
 08116,0.00005841,0.00119223,0.00046761,0.00004754,-0.00002282,-0.00003
 218,0.00001602,-0.00150645,0.00034787,0.00282522,-0.01581750,0.3524719
 4,-0.00034038,-0.00027805,-0.00031264,-0.00019622,0.00065595,-0.000290
 24,0.00043321,-0.00079160,-0.00001710,-0.00104934,-0.00022478,-0.00012
 240,0.00101969,-0.00162705,-0.00506921,0.00075720,0.00090944,-0.000196
 35,0.00030575,-0.00016465,0.00015776,-0.00365914,0.00500176,0.00321715
 ,0.00174586,0.07431353,-0.05336872,0.00000257,0.00009456,0.00002390,-0
 .00000796,-0.00001875,0.00002856,-0.00139087,-0.00043718,0.00178862,0.
 00060744,-0.00031901,-0.00106879,0.00007162,0.00108483,0.00166541,0.00
 003885,-0.00001675,0.00010389,-0.00009509,-0.00008043,0.00012617,0.000
 61317,-0.00068913,0.00071790,-0.00004991,-0.00003484,0.00003565,0.0017
 5914,0.00119339,0.01002569,-0.00019042,-0.07824863,0.04221963,-0.00013
 326,0.00003030,0.00000848,0.00022465,0.00025215,0.00000138,0.00131085,
 0.00218570,0.00016077,-0.00044080,0.00048568,0.00000504,0.00026575,-0.
 00012928,-0.00001262,-0.00005499,-0.00013449,-0.00001169,0.00013489,-0
 .00015739,-0.00000382,0.00009172,0.00000658,-0.00000043,-0.00010356,0.
 00000533,-0.00001090,0.00891164,0.00398899,0.00044744,-0.29929527,-0.1
 0483810,-0.01187550,0.00018174,-0.00007087,0.00000053,-0.00010137,-0.0
 0000375,0.00002180,-0.00005064,0.00005257,-0.00002400,0.00001769,0.000
 01365,0.00000061,0.00024227,-0.00052857,-0.00002142,0.00000552,-0.0000
 3851,-0.00000201,-0.00010004,0.00008503,-0.00000052,0.00002415,0.00000
 207,0.00000317,-0.00000025,0.00000485,0.00000647,0.31262463,0.00061673
 ,-0.00042736,-0.00002249,-0.00244916,-0.00072661,-0.00011534,0.0036742
 0,-0.00467376,-0.00028047,0.00120122,-0.00060249,-0.00002329,-0.000512
 22,0.00012983,-0.00003554,-0.00007795,0.00016784,0.00002965,0.00041211
 ,0.00011568,0.00002188,0.00012971,-0.00013322,-0.00002185,-0.00016472,
 0.00003339,0.00000493,-0.03589892,-0.03085251,-0.00272898,-0.09091757,
 -0.08371350,-0.00385716,0.00015040,-0.00009771,0.00000791,-0.00007554,
 0.00000567,0.00001495,-0.00003453,0.00007656,-0.00001928,-0.00014497,-
 0.00011601,-0.00000824,-0.00014842,0.00066668,0.00007541,-0.00002783,0
 .00003423,0.00000222,-0.00020063,-0.00017645,-0.00002680,-0.00002973,0
 .00002632,-0.00000130,0.00001219,0.00001171,0.00000302,0.10905071,0.10
 934215,0.00004259,-0.00002546,-0.00005493,-0.00016105,-0.00007022,0.00
 038529,0.00025004,-0.00028709,0.00063313,0.00006249,-0.00004478,0.0002
 2612,-0.00002752,-0.00000462,0.00017346,-0.00000664,0.00001347,-0.0000
 2586,0.00003209,0.00001426,-0.00012476,0.00000498,0.00000017,0.0000476
 0,-0.00000884,0.00000220,0.00000557,-0.00209927,-0.00189471,0.00003414
 ,-0.01099872,-0.00416599,-0.05405408,0.00000852,-0.00000828,-0.0000081
 3,-0.00000619,-0.00000094,0.00000326,-0.00000213,0.00000396,0.00000162
 ,-0.00000804,-0.00000412,-0.00004160,0.00000504,0.00006001,-0.00047911
 ,-0.00000136,0.00000336,-0.00002591,-0.00001840,-0.00002034,0.00017403
 ,0.00000243,-0.00000056,-0.00001221,-0.00000024,-0.00000056,-0.0000014
 3,0.01255711,0.00619820,0.04904571,0.00028281,-0.00000137,-0.00001102,
 0.00032846,-0.00030686,-0.00022237,0.00024451,-0.00087853,0.00110915,0
 .00006887,0.00066905,0.00030546,-0.00012399,-0.00032577,-0.00036280,0.
 00001959,0.00040299,-0.00005189,-0.00026645,0.00013830,0.00010861,-0.0
 0006404,0.00002957,0.00002282,0.00011727,-0.00000998,-0.00000540,-0.00
 037791,0.00713116,-0.00167414,-0.11536664,0.03714935,-0.10461743,-0.00
 018949,0.00009236,-0.00000674,0.00010571,-0.00000137,-0.00001981,0.000
 05568,-0.00006692,0.00003295,0.00001874,0.00002597,0.00000814,-0.00071
 129,-0.00095684,0.00092114,0.00000266,0.00000484,0.00007247,0.00014179
 ,-0.00021465,-0.00015663,-0.00000621,-0.00000798,0.00000802,-0.0000067
 8,-0.00000743,-0.00000166,-0.01139781,0.00936752,-0.02515773,0.1181056
 9,0.00074713,0.00022036,-0.00004502,0.00015877,-0.00170371,-0.00082919
 ,0.00590812,0.00472581,0.00183576,-0.00046494,0.00070414,-0.00037831,-
 0.00053438,-0.00051826,-0.00029098,-0.00057114,0.00046126,-0.00003488,
 -0.00063118,-0.00027631,-0.00011325,0.00019508,-0.00010506,-0.00000234
 ,-0.00020255,0.00001966,-0.00003381,0.01818528,-0.03367544,0.02707891,
 0.03366917,-0.07196915,0.06122505,0.00016916,-0.00010070,0.00001744,-0
 .00008405,0.00000285,0.00001790,-0.00003795,0.00007841,-0.00002728,-0.
 00002148,-0.00002462,0.00007260,-0.00086140,-0.00040189,0.00084165,-0.
 00002657,0.00001667,0.00005524,-0.00045420,0.00083819,0.00036612,-0.00
 002639,0.00002876,0.00001392,0.00001345,0.00001222,0.00000699,-0.00500
 930,0.00622704,-0.01069917,-0.04634174,0.09044691,-0.00003278,-0.00009
 156,-0.00002088,0.00030617,0.00021624,-0.00028305,-0.00072832,-0.00065
 925,0.00053254,-0.00092556,0.00102834,0.00001845,0.00037871,-0.0003528
 8,-0.00009388,-0.00000021,0.00001064,-0.00008022,0.00007209,-0.0001426
 3,0.00003363,-0.00003318,0.00010044,0.00003358,0.00003360,-0.00002746,
 -0.00001109,0.00336107,0.00194030,0.00965532,-0.10450230,0.06614178,-0
 .23605246,0.00001608,0.00007247,-0.00004010,-0.00002590,-0.00002670,0.
 00002459,-0.00000200,-0.00006498,0.00001895,0.00001545,0.00000763,0.00
 001921,0.00047446,-0.00045177,-0.00002988,0.00001387,-0.00006254,0.000
 02352,0.00001320,-0.00008001,-0.00000379,0.00005023,-0.00002148,-0.000
 00812,-0.00001495,-0.00001106,0.00000262,0.00120214,-0.00058740,0.0007
 6594,0.11472985,-0.07456229,0.24569464,0.00028647,-0.00000770,0.000000
 20,0.00031847,-0.00032769,0.00023583,0.00029162,-0.00077136,-0.0012959
 0,0.00005064,0.00070385,-0.00012457,-0.00012372,-0.00038797,0.00030712
 ,0.00000860,0.00040115,0.00011151,-0.00025428,0.00014445,-0.00010173,-
 0.00007829,0.00004348,-0.00002028,0.00013157,-0.00001804,0.00002015,-0
 .00037092,0.00699863,0.00225258,-0.12464630,0.02568011,0.11385542,-0.0
 0019438,0.00008725,-0.00001067,0.00010949,0.00000108,-0.00002477,0.000
 05491,-0.00006231,0.00003059,0.00002078,0.00002719,0.00000087,-0.00064
 932,-0.00082419,-0.00104409,0.00000789,0.00001550,-0.00006664,0.000134
 43,-0.00023279,0.00013531,0.00000663,-0.00000783,-0.00001058,-0.000007
 59,-0.00000754,0.00000103,-0.01237962,0.00606464,0.02552682,0.00904123
 ,-0.00377974,-0.01441940,0.12825809,0.00072759,0.00019327,0.00010033,0
 .00018094,-0.00175216,0.00065175,0.00581733,0.00479893,-0.00100651,-0.
 00059238,0.00076052,0.00036954,-0.00048880,-0.00057454,0.00018477,-0.0
 0057219,0.00045342,0.00009403,-0.00062162,-0.00030196,0.00004925,0.000
 18771,-0.00009818,0.00001387,-0.00018958,0.00000829,0.00002633,0.01970
 466,-0.02943290,-0.03127801,0.02195150,-0.05858100,-0.03779048,0.00017
 207,-0.00008667,-0.00002121,-0.00008912,-0.00000257,0.00002331,-0.0000
 3825,0.00006684,-0.00001811,-0.00001131,-0.00001034,-0.00007442,-0.000
 78096,-0.00034518,-0.00091287,-0.00002073,0.00001876,-0.00005825,-0.00
 043423,0.00085384,-0.00028206,-0.00000771,0.00002701,-0.00001050,0.000
 00813,0.00001192,0.00000964,-0.00523647,0.00470789,0.01093065,-0.00591
 158,0.00501468,0.00759636,-0.03376245,0.07428924,0.00013462,0.00011897
 ,-0.00001233,-0.00025611,-0.00042409,-0.00019929,0.00143165,0.00113676
 ,0.00039918,0.00086731,-0.00088588,0.00001019,-0.00044391,0.00028019,-
 0.00006267,-0.00006504,0.00007768,-0.00004212,-0.00016418,0.00011045,0
 .00004516,0.00004735,-0.00009821,0.00003079,-0.00005783,0.00001693,0.0
 0002568,-0.00123199,-0.00646306,0.00536415,0.11328452,-0.04268630,-0.2
 4025821,0.00000143,-0.00004684,-0.00000088,0.00000904,0.00001525,0.000
 00021,0.00000994,0.00004769,0.00001086,-0.00001627,-0.00001048,0.00001
 100,-0.00061171,0.00034690,-0.00015948,-0.00002017,0.00006225,0.000017
 98,-0.00006010,0.00017550,-0.00002245,-0.00004360,0.00001720,-0.000029
 12,0.00001194,0.00000833,-0.00000917,-0.00247207,0.00136118,0.00333476
 ,0.01499354,-0.00453156,-0.02020172,-0.12533659,0.05139020,0.25177388,
 -0.00003185,-0.00015803,-0.00003285,-0.00018360,0.00009712,-0.00001390
 ,-0.00022525,-0.00013122,0.00001261,0.00012174,0.00004393,-0.00001339,
 -0.00097330,-0.00084138,0.00048728,0.00037580,-0.00003464,-0.00000610,
 0.00023546,-0.00006744,-0.00000406,-0.00030946,0.00518521,-0.00114005,
 -0.00227117,0.00157179,-0.00124458,0.00022942,0.00017145,0.00001716,-0
 .00000336,-0.00008908,-0.00001719,0.00457924,-0.00231438,-0.00372137,0
 .00394426,0.00417886,-0.00108052,-0.33264885,-0.09357957,0.23436068,0.
 00005114,-0.00001666,0.00000024,-0.00010116,-0.00006824,-0.00004895,-0
 .00004198,0.00001217,0.00002289,-0.00004881,0.00000294,0.00000173,-0.0
 0252022,-0.00138755,-0.00105926,-0.00050005,-0.00013390,-0.00038102,0.
 00002212,0.00000277,0.00000404,-0.00002240,0.00000087,0.00001767,-0.00
 001640,0.00000747,-0.00001176,0.33033866,-0.00015371,-0.00020251,-0.00
 002333,0.00046311,-0.00022604,-0.00002267,0.00012317,0.00053255,0.0000
 6269,0.00004305,0.00030332,-0.00003339,-0.00020165,-0.00026024,-0.0002
 5767,-0.00001014,-0.00008217,0.00014077,-0.00062985,0.00009941,-0.0000
 0168,0.00164268,0.00185478,-0.00009631,-0.00038996,-0.00134779,-0.0008
 9572,-0.00032443,-0.00051185,-0.00002484,-0.00006624,0.00033210,-0.000
 00094,-0.03612174,-0.00937832,0.02022084,0.00206751,-0.00724820,0.0067
 7999,-0.05326638,-0.05633611,0.06251062,-0.00001521,0.00001729,-0.0000
 0316,-0.00000035,-0.00002942,-0.00003382,0.00003513,-0.00008287,-0.000
 02875,0.00006581,0.00007805,0.00000273,-0.00018781,0.00063720,0.000380
 36,-0.00064583,0.00022760,-0.00034228,-0.00001689,-0.00002537,0.000000
 58,0.00001991,-0.00002181,0.00002782,0.00002228,-0.00001908,-0.0000190
 8,0.08754753,0.07168947,0.00009405,-0.00007939,-0.00005901,-0.00031377
 ,0.00016075,0.00000361,-0.00012152,-0.00029308,0.00000389,-0.00000718,
 -0.00007965,-0.00019852,-0.00033234,-0.00086304,0.00052550,0.00044448,
 0.00003962,-0.00004325,0.00040908,-0.00009097,-0.00001563,0.00081508,0
 .00148433,-0.00106245,-0.00092867,-0.00130253,0.00035792,0.00024548,0.
 00023460,-0.00000300,0.00000829,-0.00013237,0.00005713,0.02038242,-0.0
 0141811,-0.01445261,-0.00162277,0.00575384,0.00334117,0.20839697,0.086
 25672,-0.17493063,0.00004946,-0.00002544,0.00000822,-0.00009918,-0.000
 02908,0.00007493,-0.00003458,0.00004706,0.00007886,-0.00005634,-0.0000
 2500,0.00001493,-0.00186110,-0.00088368,0.00063009,0.00070814,-0.00044
 951,0.00034308,0.00002003,0.00000881,-0.00000261,-0.00002454,0.0000165
 1,0.00000222,-0.00002219,0.00001237,-0.00002641,-0.22614930,-0.0883427
 6,0.18535261\\0.00002513,0.00000427,0.00000414,-0.00002133,-0.00001415
 ,-0.00000380,-0.00000232,0.00001081,-0.00000290,0.00001338,-0.00000226
 ,0.00000119,-0.00000125,-0.00000384,-0.00000198,-0.00002255,0.00001229
 ,-0.00000441,0.00001424,0.00000535,0.00000120,0.00000139,-0.00000113,0
 .00001250,-0.00000840,-0.00001587,-0.00001030,-0.00000744,-0.00000548,
 0.00000873,-0.00000685,-0.00000922,-0.00000484,-0.00001612,0.00004151,
 -0.00000003,0.00002372,0.00002038,-0.00000649,-0.00001129,-0.00006220,
 -0.00000424,-0.00000163,0.00000459,0.,0.00000052,-0.00000016,0.0000001
 1,0.00000049,0.00000442,0.00000147,0.00000338,-0.00000225,-0.00000047,
 0.00000404,-0.00000186,-0.00000148,0.00000430,0.00000352,-0.00000535,-
 0.00000472,-0.00000312,0.00000049,0.00000172,-0.00000157,0.00000318,0.
 00000358,-0.00000015,-0.00000142,0.00000803,0.00001614,0.00001471\\\@


 TIME IS IN FACT THE HERO OF THE PLOT. THE TIME
 WITH WHICH WE HAVE TO DEAL IS OF THE ORDER OF TWO
 BILLION YEARS...GIVEN SO MUCH TIME, THE "IMPOSSIBLE"
 BECOMES POSSIBLE, THE POSSIBLE PROBABLE, THE PROBABLE
 VIRTUALLY CERTAIN.  ONE HAS ONLY TO WAIT, TIME
 ITSELF PERFORMS THE MIRACLES.
 "ORIGIN OF LIFE" LECTURES, GEORGE WALD, 1954
 Job cpu time:       0 days 13 hours  0 minutes 46.7 seconds.
 File lengths (MBytes):  RWF=  50781 Int=      0 D2E=      0 Chk=     11 Scr=      1
 Normal termination of Gaussian 09 at Wed Dec 18 19:33:13 2024.
