 Entering Gaussian System, Link 0=g09
 Input=B2PLYPD3BJFAyang.gjf
 Output=B2PLYPD3BJFAyang.log
 Initial command:
 /home/c612/g09E/g09/l1.exe "/mnt/ja_sm883/scratch/Gau-1912765.inp" -scrdir="/mnt/ja_sm883/scratch/"
 Default is to use a total of  18 processors:
                               18 via shared-memory
                                1 via Linda
 Entering Link 1 = /home/c612/g09E/g09/l1.exe PID=   1912767.
  
 Copyright (c) 1988,1990,1992,1993,1995,1998,2003,2009,2015,
            Gaussian, Inc.  All Rights Reserved.
  
 This is part of the Gaussian(R) 09 program.  It is based on
 the Gaussian(R) 03 system (copyright 2003, Gaussian, Inc.),
 the Gaussian(R) 98 system (copyright 1998, Gaussian, Inc.),
 the Gaussian(R) 94 system (copyright 1995, Gaussian, Inc.),
 the Gaussian 92(TM) system (copyright 1992, Gaussian, Inc.),
 the Gaussian 90(TM) system (copyright 1990, Gaussian, Inc.),
 the Gaussian 88(TM) system (copyright 1988, Gaussian, Inc.),
 the Gaussian 86(TM) system (copyright 1986, Carnegie Mellon
 University), and the Gaussian 82(TM) system (copyright 1983,
 Carnegie Mellon University). Gaussian is a federally registered
 trademark of Gaussian, Inc.
  
 This software contains proprietary and confidential information,
 including trade secrets, belonging to Gaussian, Inc.
  
 This software is provided under written license and may be
 used, copied, transmitted, or stored only in accord with that
 written license.
  
 The following legend is applicable only to US Government
 contracts under FAR:
  
                    RESTRICTED RIGHTS LEGEND
  
 Use, reproduction and disclosure by the US Government is
 subject to restrictions as set forth in subparagraphs (a)
 and (c) of the Commercial Computer Software - Restricted
 Rights clause in FAR 52.227-19.
  
 Gaussian, Inc.
 340 Quinnipiac St., Bldg. 40, Wallingford CT 06492
  
  
 ---------------------------------------------------------------
 Warning -- This program may not be used in any manner that
 competes with the business of Gaussian, Inc. or will provide
 assistance to any competitor of Gaussian, Inc.  The licensee
 of this program is prohibited from giving any competitor of
 Gaussian, Inc. access to this program.  By using this program,
 the user acknowledges that Gaussian, Inc. is engaged in the
 business of creating and licensing software in the field of
 computational chemistry and represents and warrants to the
 licensee that it is not a competitor of Gaussian, Inc. and that
 it will not use this program in any manner prohibited above.
 ---------------------------------------------------------------
  

 Cite this work as:
 Gaussian 09, Revision E.01,
 M. J. Frisch, G. W. Trucks, H. B. Schlegel, G. E. Scuseria, 
 M. A. Robb, J. R. Cheeseman, G. Scalmani, V. Barone, B. Mennucci, 
 G. A. Petersson, H. Nakatsuji, M. Caricato, X. Li, H. P. Hratchian, 
 A. F. Izmaylov, J. Bloino, G. Zheng, J. L. Sonnenberg, M. Hada, 
 M. Ehara, K. Toyota, R. Fukuda, J. Hasegawa, M. Ishida, T. Nakajima, 
 Y. Honda, O. Kitao, H. Nakai, T. Vreven, J. A. Montgomery, Jr., 
 J. E. Peralta, F. Ogliaro, M. Bearpark, J. J. Heyd, E. Brothers, 
 K. N. Kudin, V. N. Staroverov, T. Keith, R. Kobayashi, J. Normand, 
 K. Raghavachari, A. Rendell, J. C. Burant, S. S. Iyengar, J. Tomasi, 
 M. Cossi, N. Rega, J. M. Millam, M. Klene, J. E. Knox, J. B. Cross, 
 V. Bakken, C. Adamo, J. Jaramillo, R. Gomperts, R. E. Stratmann, 
 O. Yazyev, A. J. Austin, R. Cammi, C. Pomelli, J. W. Ochterski, 
 R. L. Martin, K. Morokuma, V. G. Zakrzewski, G. A. Voth, 
 P. Salvador, J. J. Dannenberg, S. Dapprich, A. D. Daniels, 
 O. Farkas, J. B. Foresman, J. V. Ortiz, J. Cioslowski, 
 and D. J. Fox, Gaussian, Inc., Wallingford CT, 2013.
 
 ******************************************
 Gaussian 09:  ES64L-G09RevE.01 30-Nov-2015
                18-Dec-2024 
 ******************************************
 %chk=B2PLYPD3BJFAyang.chk
 -------------------------------------------------------
 # opt freq B2PLYP/6-31+g(d,p) EmpiricalDispersion=GD3BJ
 -------------------------------------------------------
 1/18=20,19=15,38=1/1,3;
 2/9=110,12=2,17=6,18=5,40=1/2;
 3/5=1,6=6,7=111,11=9,16=1,25=1,30=1,71=1,74=-47,124=41/1,2,3;
 4//1;
 5/5=2,38=5/2;
 8/6=4,10=2/1;
 9/15=2,16=-3/6;
 10/5=1/2;
 6/7=2,8=2,9=2,10=2/1;
 7/12=2/1,2,3,16;
 1/18=20,19=15/3(2);
 2/9=110/2;
 99//99;
 2/9=110/2;
 3/5=1,6=6,7=111,11=9,16=1,25=1,30=1,71=1,74=-47,124=41/1,2,3;
 4/5=5,16=3,69=1/1;
 5/5=2,38=5/2;
 8/6=4,10=2/1;
 9/15=2,16=-3/6;
 10/5=1/2;
 7/12=2/1,2,3,16;
 1/18=20,19=15/3(-8);
 2/9=110/2;
 6/7=2,8=2,9=2,10=2/1;
 99//99;
 ----------
 [No Title]
 ----------
 Symbolic Z-matrix:
 Charge =  1 Multiplicity = 1
 C                     1.47536  -2.02797  -0.02226 
 C                     2.51505  -1.08565  -0.01126 
 C                     2.22907   0.30992   0.00469 
 C                     0.91936   0.73357   0.01093 
 C                    -0.14635  -0.21493   0.00223 
 C                     0.16664  -1.60024  -0.01701 
 O                     3.77214  -1.50434  -0.01718 
 C                    -1.47346   0.27253   0.00957 
 C                    -2.64626  -0.47068   0.01651 
 C                    -3.89482   0.13685  -0.00016 
 O                    -4.96297  -0.63038   0.1002 
 O                    -4.01246   1.44793  -0.12404 
 O                     3.34193   1.07535   0.01212 
 C                     3.20344   2.49592   0.02921 
 H                     1.73326  -3.08144  -0.0366 
 H                     0.68398   1.7926    0.02333 
 H                    -0.62549  -2.34071  -0.02827 
 H                     4.36974  -0.73639  -0.00878 
 H                    -1.58495   1.35587   0.00962 
 H                    -2.65752  -1.55342   0.03618 
 H                    -5.80289  -0.19408  -0.10601 
 H                    -4.88537   1.79808   0.10667 
 H                     4.21762   2.89256   0.03231 
 H                     2.67572   2.84195  -0.86593 
 H                     2.6786    2.82047   0.93405 
 

 GradGradGradGradGradGradGradGradGradGradGradGradGradGradGradGradGradGrad
 Berny optimization.
 Initialization pass.
                           ----------------------------
                           !    Initial Parameters    !
                           ! (Angstroms and Degrees)  !
 --------------------------                            --------------------------
 ! Name  Definition              Value          Derivative Info.                !
 --------------------------------------------------------------------------------
 ! R1    R(1,2)                  1.4032         estimate D2E/DX2                !
 ! R2    R(1,6)                  1.3769         estimate D2E/DX2                !
 ! R3    R(1,15)                 1.0847         estimate D2E/DX2                !
 ! R4    R(2,3)                  1.4247         estimate D2E/DX2                !
 ! R5    R(2,7)                  1.325          estimate D2E/DX2                !
 ! R6    R(3,4)                  1.3765         estimate D2E/DX2                !
 ! R7    R(3,13)                 1.3507         estimate D2E/DX2                !
 ! R8    R(4,5)                  1.4267         estimate D2E/DX2                !
 ! R9    R(4,16)                 1.0849         estimate D2E/DX2                !
 ! R10   R(5,6)                  1.4204         estimate D2E/DX2                !
 ! R11   R(5,8)                  1.4138         estimate D2E/DX2                !
 ! R12   R(6,17)                 1.0844         estimate D2E/DX2                !
 ! R13   R(7,18)                 0.9731         estimate D2E/DX2                !
 ! R14   R(8,9)                  1.3885         estimate D2E/DX2                !
 ! R15   R(8,19)                 1.0891         estimate D2E/DX2                !
 ! R16   R(9,10)                 1.3886         estimate D2E/DX2                !
 ! R17   R(9,20)                 1.083          estimate D2E/DX2                !
 ! R18   R(10,11)                1.319          estimate D2E/DX2                !
 ! R19   R(10,12)                1.3222         estimate D2E/DX2                !
 ! R20   R(11,21)                0.9687         estimate D2E/DX2                !
 ! R21   R(12,22)                0.9684         estimate D2E/DX2                !
 ! R22   R(13,14)                1.4274         estimate D2E/DX2                !
 ! R23   R(14,23)                1.089          estimate D2E/DX2                !
 ! R24   R(14,24)                1.0952         estimate D2E/DX2                !
 ! R25   R(14,25)                1.0952         estimate D2E/DX2                !
 ! A1    A(2,1,6)              119.7102         estimate D2E/DX2                !
 ! A2    A(2,1,15)             118.4344         estimate D2E/DX2                !
 ! A3    A(6,1,15)             121.8553         estimate D2E/DX2                !
 ! A4    A(1,2,3)              120.6096         estimate D2E/DX2                !
 ! A5    A(1,2,7)              119.388          estimate D2E/DX2                !
 ! A6    A(3,2,7)              120.0023         estimate D2E/DX2                !
 ! A7    A(2,3,4)              119.5064         estimate D2E/DX2                !
 ! A8    A(2,3,13)             112.9419         estimate D2E/DX2                !
 ! A9    A(4,3,13)             127.5517         estimate D2E/DX2                !
 ! A10   A(3,4,5)              120.4025         estimate D2E/DX2                !
 ! A11   A(3,4,16)             120.4566         estimate D2E/DX2                !
 ! A12   A(5,4,16)             119.1409         estimate D2E/DX2                !
 ! A13   A(4,5,6)              118.9405         estimate D2E/DX2                !
 ! A14   A(4,5,8)              118.1586         estimate D2E/DX2                !
 ! A15   A(6,5,8)              122.9007         estimate D2E/DX2                !
 ! A16   A(1,6,5)              120.8304         estimate D2E/DX2                !
 ! A17   A(1,6,17)             118.8267         estimate D2E/DX2                !
 ! A18   A(5,6,17)             120.3429         estimate D2E/DX2                !
 ! A19   A(2,7,18)             109.465          estimate D2E/DX2                !
 ! A20   A(5,8,9)              127.4693         estimate D2E/DX2                !
 ! A21   A(5,8,19)             116.0443         estimate D2E/DX2                !
 ! A22   A(9,8,19)             116.4864         estimate D2E/DX2                !
 ! A23   A(8,9,10)             121.6834         estimate D2E/DX2                !
 ! A24   A(8,9,20)             122.958          estimate D2E/DX2                !
 ! A25   A(10,9,20)            115.3586         estimate D2E/DX2                !
 ! A26   A(9,10,11)            118.2133         estimate D2E/DX2                !
 ! A27   A(9,10,12)            120.9953         estimate D2E/DX2                !
 ! A28   A(11,10,12)           120.7892         estimate D2E/DX2                !
 ! A29   A(10,11,21)           115.0877         estimate D2E/DX2                !
 ! A30   A(10,12,22)           114.6094         estimate D2E/DX2                !
 ! A31   A(3,13,14)            118.954          estimate D2E/DX2                !
 ! A32   A(13,14,23)           105.7926         estimate D2E/DX2                !
 ! A33   A(13,14,24)           110.5728         estimate D2E/DX2                !
 ! A34   A(13,14,25)           110.5667         estimate D2E/DX2                !
 ! A35   A(23,14,24)           109.633          estimate D2E/DX2                !
 ! A36   A(23,14,25)           109.6337         estimate D2E/DX2                !
 ! A37   A(24,14,25)           110.5309         estimate D2E/DX2                !
 ! D1    D(6,1,2,3)             -0.0287         estimate D2E/DX2                !
 ! D2    D(6,1,2,7)           -179.9607         estimate D2E/DX2                !
 ! D3    D(15,1,2,3)           179.8611         estimate D2E/DX2                !
 ! D4    D(15,1,2,7)            -0.0709         estimate D2E/DX2                !
 ! D5    D(2,1,6,5)             -0.1314         estimate D2E/DX2                !
 ! D6    D(2,1,6,17)           179.8427         estimate D2E/DX2                !
 ! D7    D(15,1,6,5)           179.9827         estimate D2E/DX2                !
 ! D8    D(15,1,6,17)           -0.0432         estimate D2E/DX2                !
 ! D9    D(1,2,3,4)              0.0785         estimate D2E/DX2                !
 ! D10   D(1,2,3,13)          -179.9282         estimate D2E/DX2                !
 ! D11   D(7,2,3,4)           -179.9899         estimate D2E/DX2                !
 ! D12   D(7,2,3,13)             0.0034         estimate D2E/DX2                !
 ! D13   D(1,2,7,18)           179.9551         estimate D2E/DX2                !
 ! D14   D(3,2,7,18)             0.0227         estimate D2E/DX2                !
 ! D15   D(2,3,4,5)              0.0317         estimate D2E/DX2                !
 ! D16   D(2,3,4,16)           179.9825         estimate D2E/DX2                !
 ! D17   D(13,3,4,5)          -179.9605         estimate D2E/DX2                !
 ! D18   D(13,3,4,16)           -0.0097         estimate D2E/DX2                !
 ! D19   D(2,3,13,14)         -179.9531         estimate D2E/DX2                !
 ! D20   D(4,3,13,14)            0.0396         estimate D2E/DX2                !
 ! D21   D(3,4,5,6)             -0.1869         estimate D2E/DX2                !
 ! D22   D(3,4,5,8)            179.9819         estimate D2E/DX2                !
 ! D23   D(16,4,5,6)           179.8617         estimate D2E/DX2                !
 ! D24   D(16,4,5,8)             0.0305         estimate D2E/DX2                !
 ! D25   D(4,5,6,1)              0.2384         estimate D2E/DX2                !
 ! D26   D(4,5,6,17)          -179.7353         estimate D2E/DX2                !
 ! D27   D(8,5,6,1)           -179.9389         estimate D2E/DX2                !
 ! D28   D(8,5,6,17)             0.0874         estimate D2E/DX2                !
 ! D29   D(4,5,8,9)           -179.3111         estimate D2E/DX2                !
 ! D30   D(4,5,8,19)             0.698          estimate D2E/DX2                !
 ! D31   D(6,5,8,9)              0.8648         estimate D2E/DX2                !
 ! D32   D(6,5,8,19)          -179.1261         estimate D2E/DX2                !
 ! D33   D(5,8,9,10)          -178.8596         estimate D2E/DX2                !
 ! D34   D(5,8,9,20)             1.2092         estimate D2E/DX2                !
 ! D35   D(19,8,9,10)            1.1313         estimate D2E/DX2                !
 ! D36   D(19,8,9,20)         -178.8            estimate D2E/DX2                !
 ! D37   D(8,9,10,11)         -175.4371         estimate D2E/DX2                !
 ! D38   D(8,9,10,12)            5.0986         estimate D2E/DX2                !
 ! D39   D(20,9,10,11)           4.4991         estimate D2E/DX2                !
 ! D40   D(20,9,10,12)        -174.9652         estimate D2E/DX2                !
 ! D41   D(9,10,11,21)        -167.3787         estimate D2E/DX2                !
 ! D42   D(12,10,11,21)         12.0867         estimate D2E/DX2                !
 ! D43   D(9,10,12,22)        -164.5976         estimate D2E/DX2                !
 ! D44   D(11,10,12,22)         15.9519         estimate D2E/DX2                !
 ! D45   D(3,13,14,23)        -179.9948         estimate D2E/DX2                !
 ! D46   D(3,13,14,24)         -61.3672         estimate D2E/DX2                !
 ! D47   D(3,13,14,25)          61.38           estimate D2E/DX2                !
 --------------------------------------------------------------------------------
 Trust Radius=3.00D-01 FncErr=1.00D-07 GrdErr=1.00D-07
 Number of steps in this run=    119 maximum allowed number of steps=    150.
 GradGradGradGradGradGradGradGradGradGradGradGradGradGradGradGradGradGrad

                          Input orientation:                          
 ---------------------------------------------------------------------
 Center     Atomic      Atomic             Coordinates (Angstroms)
 Number     Number       Type             X           Y           Z
 ---------------------------------------------------------------------
      1          6           0        1.475358   -2.027968   -0.022258
      2          6           0        2.515049   -1.085648   -0.011255
      3          6           0        2.229075    0.309918    0.004686
      4          6           0        0.919360    0.733574    0.010930
      5          6           0       -0.146346   -0.214926    0.002225
      6          6           0        0.166639   -1.600235   -0.017010
      7          8           0        3.772139   -1.504336   -0.017181
      8          6           0       -1.473460    0.272532    0.009566
      9          6           0       -2.646260   -0.470681    0.016512
     10          6           0       -3.894816    0.136847   -0.000158
     11          8           0       -4.962974   -0.630379    0.100200
     12          8           0       -4.012462    1.447929   -0.124040
     13          8           0        3.341929    1.075347    0.012116
     14          6           0        3.203441    2.495921    0.029208
     15          1           0        1.733260   -3.081436   -0.036596
     16          1           0        0.683984    1.792598    0.023333
     17          1           0       -0.625492   -2.340712   -0.028268
     18          1           0        4.369739   -0.736386   -0.008782
     19          1           0       -1.584954    1.355871    0.009620
     20          1           0       -2.657516   -1.553415    0.036175
     21          1           0       -5.802893   -0.194081   -0.106011
     22          1           0       -4.885369    1.798081    0.106668
     23          1           0        4.217623    2.892555    0.032307
     24          1           0        2.675720    2.841952   -0.865929
     25          1           0        2.678603    2.820471    0.934048
 ---------------------------------------------------------------------
                    Distance matrix (angstroms):
                    1          2          3          4          5
     1  C    0.000000
     2  C    1.403227   0.000000
     3  C    2.456527   1.424654   0.000000
     4  C    2.817153   2.419976   1.376545   0.000000
     5  C    2.432621   2.800243   2.432713   1.426695   0.000000
     6  C    1.376855   2.404134   2.811191   2.452353   1.420356
     7  O    2.355721   1.324994   2.381815   3.625932   4.125225
     8  C    3.740166   4.213465   3.702727   2.436832   1.413825
     9  C    4.406175   5.197891   4.937445   3.763497   2.513003
    10  C    5.790137   6.525411   6.126338   4.851030   3.764941
    11  O    6.589413   7.492698   7.253885   6.039055   4.835505
    12  O    6.496798   7.002866   6.345741   4.985117   4.210449
    13  O    3.621579   2.313909   1.350696   2.446559   3.719269
    14  C    4.842984   3.647349   2.393449   2.885000   4.309349
    15  H    1.084672   2.143596   3.427655   3.901153   3.428018
    16  H    3.901932   3.411495   2.141493   1.084937   2.172567
    17  H    2.124009   3.382081   3.895572   3.440834   2.179329
    18  H    3.169512   1.887290   2.382724   3.750505   4.546104
    19  H    4.562553   4.771947   3.954853   2.580474   2.130035
    20  H    4.160440   5.193889   5.229892   4.245586   2.845818
    21  H    7.506204   8.366124   8.048526   6.786966   5.657621
    22  H    7.423889   7.943298   7.269136   5.902306   5.149898
    23  H    5.633342   4.327442   3.259617   3.942105   5.357384
    24  H    5.086135   4.022726   2.714527   2.880788   4.249971
    25  H    5.086225   4.022203   2.714529   2.881358   4.249972
                    6          7          8          9         10
     6  C    0.000000
     7  O    3.606775   0.000000
     8  C    2.489556   5.538437   0.000000
     9  C    3.031405   6.501186   1.388479   0.000000
    10  C    4.417370   7.840661   2.425174   1.388618   0.000000
    11  O    5.221809   8.779509   3.605575   2.323719   1.318965
    12  O    5.173746   8.326302   2.801060   2.359518   1.322166
    13  O    4.152355   2.615474   4.881853   6.184548   7.297356
    14  C    5.099294   4.040746   5.178537   6.558955   7.480063
    15  H    2.156071   2.577722   4.640505   5.098927   6.483357
    16  H    3.432286   4.517534   2.639196   4.026537   4.869032
    17  H    1.084391   4.476473   2.747640   2.753638   4.102142
    18  H    4.290962   0.973110   5.929690   7.021074   8.310564
    19  H    3.436182   6.072886   1.089061   2.112513   2.611815
    20  H    2.825044   6.430064   2.176414   1.082971   2.095046
    21  H    6.133555   9.664673   4.356039   3.171096   1.939453
    22  H    6.089880   9.266809   3.738697   3.188890   1.937087
    23  H    6.049634   4.419678   6.265258   7.643592   8.567768
    24  H    5.171961   4.562097   4.958236   6.330538   7.158149
    25  H    5.172728   4.561207   4.958456   6.326746   7.161314
                   11         12         13         14         15
    11  O    0.000000
    12  O    2.296328   0.000000
    13  O    8.478719   7.365081   0.000000
    14  C    8.744663   7.293218   1.427411   0.000000
    15  H    7.132036   7.316838   4.457469   5.768247   0.000000
    16  H    6.145312   4.711382   2.753043   2.615791   4.986058
    17  H    4.664278   5.082769   5.235601   6.169040   2.472337
    18  H    9.333951   8.662898   2.083076   3.436496   3.528605
    19  H    3.919747   2.432927   4.934863   4.922278   5.540972
    20  H    2.484196   3.296910   6.550138   7.123762   4.649630
    21  H    0.968681   2.429437   9.233264   9.400449   8.070641
    22  H    2.429708   0.968400   8.259523   8.119226   8.224139
    23  H    9.833567   8.357373   2.017298   1.088987   6.470346
    24  H    8.446309   6.872080   2.082232   1.095216   6.054961
    25  H    8.425994   6.911857   2.082167   1.095227   6.055438
                   16         17         18         19         20
    16  H    0.000000
    17  H    4.336086   0.000000
    18  H    4.470076   5.246577   0.000000
    19  H    2.310627   3.819258   6.311596   0.000000
    20  H    4.728804   2.180163   7.074735   3.100813   0.000000
    21  H    6.785514   5.605314  10.187541   4.495190   3.429490
    22  H    5.569979   5.940906   9.596555   3.331322   4.025025
    23  H    3.700891   7.130674   3.632360   6.002650   8.187442
    24  H    2.420525   6.201587   4.050791   4.596560   6.969681
    25  H    2.421658   6.203298   4.049704   4.601906   6.957817
                   21         22         23         24         25
    21  H    0.000000
    22  H    2.203586   0.000000
    23  H   10.486048   9.168853   0.000000
    24  H    9.037801   7.694523   1.785176   0.000000
    25  H    9.061182   7.677468   1.785193   1.800107   0.000000
 Stoichiometry    C10H11O4(1+)
 Framework group  C1[X(C10H11O4)]
 Deg. of freedom    69
 Full point group                 C1      NOp   1
 Largest Abelian subgroup         C1      NOp   1
 Largest concise Abelian subgroup C1      NOp   1
                         Standard orientation:                         
 ---------------------------------------------------------------------
 Center     Atomic      Atomic             Coordinates (Angstroms)
 Number     Number       Type             X           Y           Z
 ---------------------------------------------------------------------
      1          6           0        1.475358   -2.027968   -0.022258
      2          6           0        2.515049   -1.085648   -0.011255
      3          6           0        2.229075    0.309918    0.004686
      4          6           0        0.919360    0.733574    0.010930
      5          6           0       -0.146346   -0.214926    0.002225
      6          6           0        0.166639   -1.600235   -0.017010
      7          8           0        3.772139   -1.504336   -0.017181
      8          6           0       -1.473460    0.272532    0.009566
      9          6           0       -2.646260   -0.470681    0.016512
     10          6           0       -3.894816    0.136847   -0.000158
     11          8           0       -4.962974   -0.630379    0.100200
     12          8           0       -4.012462    1.447929   -0.124040
     13          8           0        3.341929    1.075347    0.012116
     14          6           0        3.203441    2.495921    0.029208
     15          1           0        1.733260   -3.081436   -0.036596
     16          1           0        0.683984    1.792598    0.023333
     17          1           0       -0.625492   -2.340712   -0.028268
     18          1           0        4.369739   -0.736386   -0.008782
     19          1           0       -1.584954    1.355871    0.009620
     20          1           0       -2.657516   -1.553415    0.036175
     21          1           0       -5.802893   -0.194081   -0.106011
     22          1           0       -4.885369    1.798081    0.106668
     23          1           0        4.217623    2.892555    0.032307
     24          1           0        2.675720    2.841952   -0.865929
     25          1           0        2.678603    2.820471    0.934048
 ---------------------------------------------------------------------
 Rotational constants (GHZ):      1.5392713      0.2853975      0.2412416
 Standard basis: 6-31+G(d,p) (6D, 7F)
 There are   321 symmetry adapted cartesian basis functions of A   symmetry.
 There are   321 symmetry adapted basis functions of A   symmetry.
   321 basis functions,   525 primitive gaussians,   321 cartesian basis functions
    51 alpha electrons       51 beta electrons
       nuclear repulsion energy       839.6626037816 Hartrees.
 NAtoms=   25 NActive=   25 NUniq=   25 SFac= 1.00D+00 NAtFMM=   60 NAOKFM=F Big=F
 Integral buffers will be    131072 words long.
 Regular integral format.
 Two-electron integral symmetry is turned on.
 Nuclear repulsion after empirical dispersion term =      839.6357161333 Hartrees.
 One-electron integrals computed using PRISM.
 NBasis=   321 RedAO= T EigKep=  1.39D-06  NBF=   321
 NBsUse=   320 1.00D-06 EigRej=  6.54D-07 NBFU=   320
 ExpMin= 4.38D-02 ExpMax= 5.48D+03 ExpMxC= 8.25D+02 IAcc=2 IRadAn=         4 AccDes= 0.00D+00
 Harris functional with IExCor=  419 and IRadAn=       4 diagonalized for initial guess.
 HarFok:  IExCor=  419 AccDes= 0.00D+00 IRadAn=         4 IDoV= 1 UseB2=F ITyADJ=14
 ICtDFT=  3500011 ScaDFX=  1.000000  1.000000  1.000000  1.000000
 FoFCou: FMM=F IPFlag=           0 FMFlag=      100000 FMFlg1=           0
         NFxFlg=           0 DoJE=T BraDBF=F KetDBF=T FulRan=T
         wScrn=  0.000000 ICntrl=     500 IOpCl=  0 I1Cent=   200000004 NGrid=           0
         NMat0=    1 NMatS0=      1 NMatT0=    0 NMatD0=    1 NMtDS0=    0 NMtDT0=    0
 Petite list used in FoFCou.
 Requested convergence on RMS density matrix=1.00D-08 within 128 cycles.
 Requested convergence on MAX density matrix=1.00D-06.
 Requested convergence on             energy=1.00D-06.
 No special actions if energy rises.
 SCF Done:  E(RB2PLYP) =  -687.036958688     A.U. after   15 cycles
            NFock= 15  Conv=0.59D-08     -V/T= 2.0067
 DoSCS=T DFT=T ScalE2(SS,OS)=  0.270000  0.270000
 ExpMin= 4.38D-02 ExpMax= 5.48D+03 ExpMxC= 8.25D+02 IAcc=3 IRadAn=         5 AccDes= 0.00D+00
 HarFok:  IExCor=  205 AccDes= 0.00D+00 IRadAn=         5 IDoV=-2 UseB2=F ITyADJ=14
 ICtDFT= 12500011 ScaDFX=  1.000000  1.000000  1.000000  1.000000
 Range of M.O.s used for correlation:    15   320
 NBasis=   321 NAE=    51 NBE=    51 NFC=    14 NFV=     0
 NROrb=    306 NOA=    37 NOB=    37 NVA=   269 NVB=   269

 **** Warning!!: The largest alpha MO coefficient is  0.18976142D+03

 DoSCS=T DFT=T ScalE2(SS,OS)=  0.270000  0.270000
 Fully direct method using O(ONN) memory.
 JobTyp=1 Pass  1:  I=  15 to  16 NPSUse= 18 ParTrn=T ParDer=T DoDerP=T.
 JobTyp=1 Pass  2:  I=  17 to  18 NPSUse= 18 ParTrn=T ParDer=T DoDerP=T.
 JobTyp=1 Pass  3:  I=  19 to  20 NPSUse= 18 ParTrn=T ParDer=T DoDerP=T.
 JobTyp=1 Pass  4:  I=  21 to  22 NPSUse= 18 ParTrn=T ParDer=T DoDerP=T.
 JobTyp=1 Pass  5:  I=  23 to  24 NPSUse= 18 ParTrn=T ParDer=T DoDerP=T.
 JobTyp=1 Pass  6:  I=  25 to  26 NPSUse= 18 ParTrn=T ParDer=T DoDerP=T.
 JobTyp=1 Pass  7:  I=  27 to  28 NPSUse= 18 ParTrn=T ParDer=T DoDerP=T.
 JobTyp=1 Pass  8:  I=  29 to  30 NPSUse= 18 ParTrn=T ParDer=T DoDerP=T.
 JobTyp=1 Pass  9:  I=  31 to  32 NPSUse= 18 ParTrn=T ParDer=T DoDerP=T.
 JobTyp=1 Pass 10:  I=  33 to  34 NPSUse= 18 ParTrn=T ParDer=T DoDerP=T.
 JobTyp=1 Pass 11:  I=  35 to  36 NPSUse= 18 ParTrn=T ParDer=T DoDerP=T.
 JobTyp=1 Pass 12:  I=  37 to  38 NPSUse= 18 ParTrn=T ParDer=T DoDerP=T.
 JobTyp=1 Pass 13:  I=  39 to  40 NPSUse= 18 ParTrn=T ParDer=T DoDerP=T.
 JobTyp=1 Pass 14:  I=  41 to  42 NPSUse= 18 ParTrn=T ParDer=T DoDerP=T.
 JobTyp=1 Pass 15:  I=  43 to  44 NPSUse= 18 ParTrn=T ParDer=T DoDerP=T.
 JobTyp=1 Pass 16:  I=  45 to  46 NPSUse= 18 ParTrn=T ParDer=T DoDerP=T.
 JobTyp=1 Pass 17:  I=  47 to  48 NPSUse= 18 ParTrn=T ParDer=T DoDerP=T.
 JobTyp=1 Pass 18:  I=  49 to  50 NPSUse= 18 ParTrn=T ParDer=T DoDerP=T.
 JobTyp=1 Pass 19:  I=  51 to  51 NPSUse= 18 ParTrn=T ParDer=T DoDerP=T.
 Spin components of T(2) and E(2):
     alpha-alpha T2 =       0.1472118731D+00 E2=     -0.9175846419D-01
     alpha-beta  T2 =       0.7754717476D+00 E2=     -0.4984722382D+00
     beta-beta   T2 =       0.1472118731D+00 E2=     -0.9175846419D-01
 E2(B2PLYP) =    -0.6819891665D+00 E(B2PLYP) =    -0.68771894785420D+03
          IDoAtm=1111111111111111111111111
          Differentiating once with respect to electric field.
                with respect to dipole field.
          Differentiating once with respect to nuclear coordinates.
          There are     1 degrees of freedom in the 1st order CPHF.  IDoFFX=0 NUNeed=     1.
 LinEq1:  Iter=  0 NonCon=     1 RMS=1.89D-03 Max=8.95D-02 NDo=     1
 AX will form     1 AO Fock derivatives at one time.
 LinEq1:  Iter=  1 NonCon=     1 RMS=7.77D-04 Max=3.50D-02 NDo=     1
 LinEq1:  Iter=  2 NonCon=     1 RMS=3.28D-04 Max=1.60D-02 NDo=     1
 LinEq1:  Iter=  3 NonCon=     1 RMS=2.34D-04 Max=1.20D-02 NDo=     1
 LinEq1:  Iter=  4 NonCon=     1 RMS=9.69D-05 Max=3.08D-03 NDo=     1
 LinEq1:  Iter=  5 NonCon=     1 RMS=4.13D-05 Max=1.17D-03 NDo=     1
 LinEq1:  Iter=  6 NonCon=     1 RMS=1.87D-05 Max=4.86D-04 NDo=     1
 LinEq1:  Iter=  7 NonCon=     1 RMS=1.04D-05 Max=6.57D-04 NDo=     1
 LinEq1:  Iter=  8 NonCon=     1 RMS=3.91D-06 Max=1.27D-04 NDo=     1
 LinEq1:  Iter=  9 NonCon=     1 RMS=1.90D-06 Max=6.59D-05 NDo=     1
 LinEq1:  Iter= 10 NonCon=     1 RMS=5.92D-07 Max=1.21D-05 NDo=     1
 LinEq1:  Iter= 11 NonCon=     1 RMS=3.35D-07 Max=1.37D-05 NDo=     1
 LinEq1:  Iter= 12 NonCon=     1 RMS=1.15D-07 Max=2.10D-06 NDo=     1
 LinEq1:  Iter= 13 NonCon=     1 RMS=3.64D-08 Max=9.46D-07 NDo=     1
 LinEq1:  Iter= 14 NonCon=     1 RMS=1.77D-08 Max=4.60D-07 NDo=     1
 LinEq1:  Iter= 15 NonCon=     1 RMS=6.26D-09 Max=2.25D-07 NDo=     1
 LinEq1:  Iter= 16 NonCon=     1 RMS=3.60D-09 Max=1.61D-07 NDo=     1
 LinEq1:  Iter= 17 NonCon=     1 RMS=1.31D-09 Max=4.97D-08 NDo=     1
 LinEq1:  Iter= 18 NonCon=     1 RMS=5.26D-10 Max=1.47D-08 NDo=     1
 LinEq1:  Iter= 19 NonCon=     1 RMS=2.50D-10 Max=5.98D-09 NDo=     1
 LinEq1:  Iter= 20 NonCon=     1 RMS=7.89D-11 Max=2.18D-09 NDo=     1
 LinEq1:  Iter= 21 NonCon=     0 RMS=3.52D-11 Max=9.22D-10 NDo=     1
 Linear equations converged to 1.000D-10 1.000D-09 after    21 iterations.
 End of Minotr F.D. properties file   721 does not exist.
 End of Minotr F.D. properties file   722 does not exist.
 End of Minotr F.D. properties file   788 does not exist.

 **********************************************************************

            Population analysis using the SCF density.

 **********************************************************************

 Orbital symmetries:
       Occupied  (A) (A) (A) (A) (A) (A) (A) (A) (A) (A) (A) (A)
                 (A) (A) (A) (A) (A) (A) (A) (A) (A) (A) (A) (A)
                 (A) (A) (A) (A) (A) (A) (A) (A) (A) (A) (A) (A)
                 (A) (A) (A) (A) (A) (A) (A) (A) (A) (A) (A) (A)
                 (A) (A) (A)
       Virtual   (A) (A) (A) (A) (A) (A) (A) (A) (A) (A) (A) (A)
                 (A) (A) (A) (A) (A) (A) (A) (A) (A) (A) (A) (A)
                 (A) (A) (A) (A) (A) (A) (A) (A) (A) (A) (A) (A)
                 (A) (A) (A) (A) (A) (A) (A) (A) (A) (A) (A) (A)
                 (A) (A) (A) (A) (A) (A) (A) (A) (A) (A) (A) (A)
                 (A) (A) (A) (A) (A) (A) (A) (A) (A) (A) (A) (A)
                 (A) (A) (A) (A) (A) (A) (A) (A) (A) (A) (A) (A)
                 (A) (A) (A) (A) (A) (A) (A) (A) (A) (A) (A) (A)
                 (A) (A) (A) (A) (A) (A) (A) (A) (A) (A) (A) (A)
                 (A) (A) (A) (A) (A) (A) (A) (A) (A) (A) (A) (A)
                 (A) (A) (A) (A) (A) (A) (A) (A) (A) (A) (A) (A)
                 (A) (A) (A) (A) (A) (A) (A) (A) (A) (A) (A) (A)
                 (A) (A) (A) (A) (A) (A) (A) (A) (A) (A) (A) (A)
                 (A) (A) (A) (A) (A) (A) (A) (A) (A) (A) (A) (A)
                 (A) (A) (A) (A) (A) (A) (A) (A) (A) (A) (A) (A)
                 (A) (A) (A) (A) (A) (A) (A) (A) (A) (A) (A) (A)
                 (A) (A) (A) (A) (A) (A) (A) (A) (A) (A) (A) (A)
                 (A) (A) (A) (A) (A) (A) (A) (A) (A) (A) (A) (A)
                 (A) (A) (A) (A) (A) (A) (A) (A) (A) (A) (A) (A)
                 (A) (A) (A) (A) (A) (A) (A) (A) (A) (A) (A) (A)
                 (A) (A) (A) (A) (A) (A) (A) (A) (A) (A) (A) (A)
                 (A) (A) (A) (A) (A) (A) (A) (A) (A) (A) (A) (A)
                 (A) (A) (A) (A) (A)
 The electronic state is 1-A.
 Alpha  occ. eigenvalues --  -19.99097 -19.98841 -19.91986 -19.91362 -10.97188
 Alpha  occ. eigenvalues --  -10.85362 -10.83360 -10.83306 -10.79839 -10.79031
 Alpha  occ. eigenvalues --  -10.78908 -10.78734 -10.78625 -10.76819  -1.46836
 Alpha  occ. eigenvalues --   -1.38631  -1.37181  -1.33901  -1.13749  -1.09337
 Alpha  occ. eigenvalues --   -1.02766  -1.01440  -0.95680  -0.93194  -0.88809
 Alpha  occ. eigenvalues --   -0.87605  -0.84359  -0.80963  -0.78495  -0.76033
 Alpha  occ. eigenvalues --   -0.73274  -0.72552  -0.71895  -0.70190  -0.67971
 Alpha  occ. eigenvalues --   -0.66715  -0.65453  -0.63940  -0.63579  -0.62760
 Alpha  occ. eigenvalues --   -0.62478  -0.61281  -0.60061  -0.59213  -0.56715
 Alpha  occ. eigenvalues --   -0.55017  -0.54196  -0.53667  -0.48503  -0.42636
 Alpha  occ. eigenvalues --   -0.38638
 Alpha virt. eigenvalues --   -0.20108  -0.12585  -0.08469  -0.08289  -0.07496
 Alpha virt. eigenvalues --   -0.06543  -0.05928  -0.05538  -0.04325  -0.04042
 Alpha virt. eigenvalues --   -0.03062  -0.02565  -0.02069  -0.01684  -0.01386
 Alpha virt. eigenvalues --   -0.00150  -0.00045   0.00996   0.01324   0.01911
 Alpha virt. eigenvalues --    0.03096   0.03590   0.05142   0.05891   0.06108
 Alpha virt. eigenvalues --    0.06304   0.06838   0.06879   0.07147   0.07423
 Alpha virt. eigenvalues --    0.07867   0.08193   0.08980   0.09144   0.10184
 Alpha virt. eigenvalues --    0.10739   0.10999   0.11165   0.12397   0.13241
 Alpha virt. eigenvalues --    0.13460   0.13883   0.14053   0.14882   0.15221
 Alpha virt. eigenvalues --    0.15418   0.16617   0.17298   0.17556   0.17761
 Alpha virt. eigenvalues --    0.18255   0.18642   0.18758   0.19920   0.20075
 Alpha virt. eigenvalues --    0.21042   0.21341   0.21905   0.22686   0.23396
 Alpha virt. eigenvalues --    0.24080   0.24437   0.24580   0.25599   0.26138
 Alpha virt. eigenvalues --    0.26563   0.27304   0.27825   0.28635   0.29760
 Alpha virt. eigenvalues --    0.30594   0.31386   0.31804   0.32706   0.33890
 Alpha virt. eigenvalues --    0.34637   0.36141   0.36562   0.39646   0.41038
 Alpha virt. eigenvalues --    0.42790   0.45061   0.47381   0.54063   0.58720
 Alpha virt. eigenvalues --    0.60898   0.61133   0.62094   0.63146   0.64875
 Alpha virt. eigenvalues --    0.65880   0.66565   0.67045   0.68049   0.69676
 Alpha virt. eigenvalues --    0.70041   0.70174   0.71553   0.73040   0.73904
 Alpha virt. eigenvalues --    0.74006   0.76057   0.80437   0.81337   0.82683
 Alpha virt. eigenvalues --    0.85147   0.87338   0.87534   0.88374   0.89161
 Alpha virt. eigenvalues --    0.90940   0.92234   0.93304   0.95143   0.98818
 Alpha virt. eigenvalues --    0.99433   1.02500   1.02870   1.03489   1.05735
 Alpha virt. eigenvalues --    1.07115   1.09000   1.09078   1.10585   1.12547
 Alpha virt. eigenvalues --    1.13141   1.13432   1.15756   1.16426   1.16873
 Alpha virt. eigenvalues --    1.18170   1.18287   1.19413   1.21068   1.21734
 Alpha virt. eigenvalues --    1.22700   1.23767   1.24868   1.25771   1.26932
 Alpha virt. eigenvalues --    1.27214   1.28645   1.28797   1.30355   1.32209
 Alpha virt. eigenvalues --    1.34149   1.34663   1.36600   1.37516   1.38229
 Alpha virt. eigenvalues --    1.39565   1.40567   1.43078   1.45389   1.49190
 Alpha virt. eigenvalues --    1.52269   1.53576   1.53890   1.57342   1.57717
 Alpha virt. eigenvalues --    1.59334   1.62620   1.67339   1.72581   1.75190
 Alpha virt. eigenvalues --    1.76212   1.78653   1.78990   1.81798   1.83300
 Alpha virt. eigenvalues --    1.85165   1.86525   1.88234   1.88954   1.89279
 Alpha virt. eigenvalues --    1.90459   1.92016   1.93107   1.95539   1.95982
 Alpha virt. eigenvalues --    1.97165   2.01368   2.02933   2.03622   2.04653
 Alpha virt. eigenvalues --    2.05118   2.07541   2.08659   2.13558   2.14280
 Alpha virt. eigenvalues --    2.16541   2.17591   2.20886   2.22351   2.23899
 Alpha virt. eigenvalues --    2.27322   2.27439   2.28503   2.32368   2.35870
 Alpha virt. eigenvalues --    2.37228   2.38002   2.38683   2.41992   2.45716
 Alpha virt. eigenvalues --    2.46801   2.48094   2.49160   2.50018   2.51811
 Alpha virt. eigenvalues --    2.53302   2.54432   2.55706   2.56698   2.57732
 Alpha virt. eigenvalues --    2.58717   2.61182   2.62759   2.64861   2.65510
 Alpha virt. eigenvalues --    2.66393   2.69348   2.70630   2.71839   2.72867
 Alpha virt. eigenvalues --    2.75433   2.75691   2.77883   2.83264   2.84549
 Alpha virt. eigenvalues --    2.86904   2.87722   2.88472   2.91285   2.95901
 Alpha virt. eigenvalues --    2.98926   3.03267   3.09133   3.11382   3.16505
 Alpha virt. eigenvalues --    3.20038   3.22490   3.24484   3.28986   3.35062
 Alpha virt. eigenvalues --    3.37898   3.42838   3.44950   3.46520   3.49846
 Alpha virt. eigenvalues --    3.52362   3.57135   3.57577   3.63782   3.83863
 Alpha virt. eigenvalues --    4.22360   4.28835   4.31167   4.37044   4.38883
 Alpha virt. eigenvalues --    4.42561   4.48096   4.50835   4.55433   4.57252
 Alpha virt. eigenvalues --    4.62971   4.70728   4.84697   5.14390
          Condensed to atoms (all electrons):
               1          2          3          4          5          6
     1  C   11.175135   0.329407  -1.324271  -1.513018  -0.180842  -2.199237
     2  C    0.329407  14.160887  -2.617948  -3.566438  -0.745088  -0.287461
     3  C   -1.324271  -2.617948  11.701066   0.362672  -0.798180  -1.524075
     4  C   -1.513018  -3.566438   0.362672  13.838229   1.063003  -0.967721
     5  C   -0.180842  -0.745088  -0.798180   1.063003   8.103611  -0.145390
     6  C   -2.199237  -0.287461  -1.524075  -0.967721  -0.145390  10.148776
     7  O   -0.396206   0.152867   0.241471   0.104957  -0.034497  -0.056375
     8  C    0.011163  -0.606073   0.067709  -2.267015  -0.503615   0.498101
     9  C   -0.273754  -0.154406  -0.351096  -1.267688  -0.217844   0.539194
    10  C   -0.191820   0.026828   0.056860  -0.302918  -0.952597   0.019264
    11  O    0.000790   0.000604   0.000123   0.004469   0.018414  -0.001600
    12  O   -0.004563  -0.000915   0.001331  -0.018276  -0.010015   0.006705
    13  O    0.045654  -0.758211   0.526386   0.164878  -0.001868  -0.034488
    14  C    0.033557  -0.027707  -0.067544   0.010425  -0.034898   0.001322
    15  H    0.161006   0.108231  -0.000065   0.014899  -0.014450   0.076742
    16  H    0.000569   0.004543  -0.069899   0.223477   0.026391  -0.007976
    17  H   -0.040234  -0.013774  -0.006577   0.026680   0.114161   0.210593
    18  H    0.149197   0.158877  -0.270759  -0.065742   0.002427   0.011042
    19  H    0.008374   0.005843   0.027277   0.235616   0.036171  -0.058535
    20  H    0.035002  -0.004931   0.007472   0.007380   0.059482  -0.005440
    21  H    0.000192   0.000037  -0.000029   0.001231   0.000025   0.001378
    22  H   -0.000530  -0.000010   0.000395   0.005515   0.011277  -0.004892
    23  H    0.001893   0.047808   0.030975  -0.056439  -0.004570  -0.000174
    24  H   -0.002472  -0.033620  -0.055650   0.073435   0.009215   0.002197
    25  H   -0.001375  -0.038746  -0.056637   0.074920   0.016932   0.000815
               7          8          9         10         11         12
     1  C   -0.396206   0.011163  -0.273754  -0.191820   0.000790  -0.004563
     2  C    0.152867  -0.606073  -0.154406   0.026828   0.000604  -0.000915
     3  C    0.241471   0.067709  -0.351096   0.056860   0.000123   0.001331
     4  C    0.104957  -2.267015  -1.267688  -0.302918   0.004469  -0.018276
     5  C   -0.034497  -0.503615  -0.217844  -0.952597   0.018414  -0.010015
     6  C   -0.056375   0.498101   0.539194   0.019264  -0.001600   0.006705
     7  O    8.273417   0.002017   0.000074   0.000154   0.000000  -0.000000
     8  C    0.002017   8.856441  -1.203562   0.608091  -0.138054   0.115325
     9  C    0.000074  -1.203562  11.048145  -1.830312   0.360336  -0.077978
    10  C    0.000154   0.608091  -1.830312   7.578143  -0.085872   0.135068
    11  O    0.000000  -0.138054   0.360336  -0.085872   8.157779  -0.091572
    12  O   -0.000000   0.115325  -0.077978   0.135068  -0.091572   8.224084
    13  O   -0.003177  -0.013549  -0.002530   0.000066   0.000001  -0.000006
    14  C    0.001894  -0.024299  -0.003637  -0.001857  -0.000001  -0.000007
    15  H   -0.005445  -0.006183   0.001137   0.000045   0.000000  -0.000000
    16  H   -0.000375   0.126760   0.025611   0.000020  -0.000001  -0.000066
    17  H   -0.000504   0.010376  -0.001324   0.022773   0.000133   0.000019
    18  H    0.220188   0.000105   0.000102   0.000016   0.000000   0.000000
    19  H   -0.000005   0.262439  -0.151589  -0.053715   0.000718  -0.006947
    20  H   -0.000002   0.035386   0.326271  -0.126303  -0.009668   0.006393
    21  H   -0.000000   0.058876  -0.107957   0.058562   0.228601  -0.002806
    22  H   -0.000000  -0.001698   0.022624  -0.014887  -0.003124   0.220760
    23  H   -0.000175   0.000208   0.000104   0.000005   0.000000  -0.000000
    24  H   -0.000050  -0.000526  -0.000307   0.000001   0.000000   0.000001
    25  H   -0.000033  -0.002162  -0.000354  -0.000089   0.000000  -0.000000
              13         14         15         16         17         18
     1  C    0.045654   0.033557   0.161006   0.000569  -0.040234   0.149197
     2  C   -0.758211  -0.027707   0.108231   0.004543  -0.013774   0.158877
     3  C    0.526386  -0.067544  -0.000065  -0.069899  -0.006577  -0.270759
     4  C    0.164878   0.010425   0.014899   0.223477   0.026680  -0.065742
     5  C   -0.001868  -0.034898  -0.014450   0.026391   0.114161   0.002427
     6  C   -0.034488   0.001322   0.076742  -0.007976   0.210593   0.011042
     7  O   -0.003177   0.001894  -0.005445  -0.000375  -0.000504   0.220188
     8  C   -0.013549  -0.024299  -0.006183   0.126760   0.010376   0.000105
     9  C   -0.002530  -0.003637   0.001137   0.025611  -0.001324   0.000102
    10  C    0.000066  -0.001857   0.000045   0.000020   0.022773   0.000016
    11  O    0.000001  -0.000001   0.000000  -0.000001   0.000133   0.000000
    12  O   -0.000006  -0.000007  -0.000000  -0.000066   0.000019   0.000000
    13  O    8.629694   0.065179  -0.000470  -0.009690   0.000127   0.034852
    14  C    0.065179   4.877904   0.000031  -0.000524  -0.000016   0.004042
    15  H   -0.000470   0.000031   0.470747   0.000010  -0.002947  -0.000038
    16  H   -0.009690  -0.000524   0.000010   0.511918  -0.000104  -0.000016
    17  H    0.000127  -0.000016  -0.002947  -0.000104   0.516410   0.000004
    18  H    0.034852   0.004042  -0.000038  -0.000016   0.000004   0.332133
    19  H    0.000064   0.000865   0.000001   0.002410  -0.000010   0.000000
    20  H    0.000001   0.000023   0.000003   0.000000  -0.000081   0.000000
    21  H    0.000000   0.000000   0.000000   0.000000  -0.000000  -0.000000
    22  H   -0.000000   0.000005  -0.000000  -0.000000   0.000000   0.000000
    23  H   -0.064917   0.420941  -0.000000   0.000079  -0.000000  -0.000055
    24  H   -0.041451   0.413729   0.000000  -0.000879   0.000000   0.000027
    25  H   -0.041752   0.412730   0.000000  -0.000856   0.000000   0.000026
              19         20         21         22         23         24
     1  C    0.008374   0.035002   0.000192  -0.000530   0.001893  -0.002472
     2  C    0.005843  -0.004931   0.000037  -0.000010   0.047808  -0.033620
     3  C    0.027277   0.007472  -0.000029   0.000395   0.030975  -0.055650
     4  C    0.235616   0.007380   0.001231   0.005515  -0.056439   0.073435
     5  C    0.036171   0.059482   0.000025   0.011277  -0.004570   0.009215
     6  C   -0.058535  -0.005440   0.001378  -0.004892  -0.000174   0.002197
     7  O   -0.000005  -0.000002  -0.000000  -0.000000  -0.000175  -0.000050
     8  C    0.262439   0.035386   0.058876  -0.001698   0.000208  -0.000526
     9  C   -0.151589   0.326271  -0.107957   0.022624   0.000104  -0.000307
    10  C   -0.053715  -0.126303   0.058562  -0.014887   0.000005   0.000001
    11  O    0.000718  -0.009668   0.228601  -0.003124   0.000000   0.000000
    12  O   -0.006947   0.006393  -0.002806   0.220760  -0.000000   0.000001
    13  O    0.000064   0.000001   0.000000  -0.000000  -0.064917  -0.041451
    14  C    0.000865   0.000023   0.000000   0.000005   0.420941   0.413729
    15  H    0.000001   0.000003   0.000000  -0.000000  -0.000000   0.000000
    16  H    0.002410   0.000000   0.000000  -0.000000   0.000079  -0.000879
    17  H   -0.000010  -0.000081  -0.000000   0.000000  -0.000000   0.000000
    18  H    0.000000   0.000000  -0.000000   0.000000  -0.000055   0.000027
    19  H    0.502919   0.002708   0.000010  -0.000015   0.000000  -0.000001
    20  H    0.002708   0.484014   0.000024  -0.000159  -0.000000   0.000000
    21  H    0.000010   0.000024   0.361938   0.002827   0.000000  -0.000000
    22  H   -0.000015  -0.000159   0.002827   0.361161  -0.000000   0.000000
    23  H    0.000000  -0.000000   0.000000  -0.000000   0.497193  -0.024118
    24  H   -0.000001   0.000000  -0.000000   0.000000  -0.024118   0.547921
    25  H   -0.000001   0.000000   0.000000  -0.000000  -0.024101  -0.039700
              25
     1  C   -0.001375
     2  C   -0.038746
     3  C   -0.056637
     4  C    0.074920
     5  C    0.016932
     6  C    0.000815
     7  O   -0.000033
     8  C   -0.002162
     9  C   -0.000354
    10  C   -0.000089
    11  O    0.000000
    12  O   -0.000000
    13  O   -0.041752
    14  C    0.412730
    15  H    0.000000
    16  H   -0.000856
    17  H    0.000000
    18  H    0.000026
    19  H   -0.000001
    20  H    0.000000
    21  H    0.000000
    22  H   -0.000000
    23  H   -0.024101
    24  H   -0.039700
    25  H    0.548258
 Mulliken charges:
               1
     1  C    0.176381
     2  C   -0.140605
     3  C    0.118991
     4  C   -0.186532
     5  C    0.182743
     6  C   -0.222764
     7  O   -0.500196
     8  C    0.113738
     9  C   -0.679260
    10  C    1.054473
    11  O   -0.442075
    12  O   -0.496535
    13  O   -0.494794
    14  C   -0.082160
    15  H    0.196749
    16  H    0.168598
    17  H    0.164295
    18  H    0.423573
    19  H    0.185402
    20  H    0.182425
    21  H    0.397091
    22  H    0.400750
    23  H    0.175341
    24  H    0.152247
    25  H    0.152124
 Sum of Mulliken charges =   1.00000
 Mulliken charges with hydrogens summed into heavy atoms:
               1
     1  C    0.373130
     2  C   -0.140605
     3  C    0.118991
     4  C   -0.017934
     5  C    0.182743
     6  C   -0.058469
     7  O   -0.076622
     8  C    0.299140
     9  C   -0.496835
    10  C    1.054473
    11  O   -0.044984
    12  O   -0.095784
    13  O   -0.494794
    14  C    0.397551
 Electronic spatial extent (au):  <R**2>=           4157.2523
 Charge=              1.0000 electrons
 Dipole moment (field-independent basis, Debye):
    X=             -8.4197    Y=              3.6800    Z=              0.0684  Tot=              9.1891
 Quadrupole moment (field-independent basis, Debye-Ang):
   XX=              7.4294   YY=            -62.4568   ZZ=            -83.3737
   XY=             -2.5402   XZ=              0.3280   YZ=              1.1975
 Traceless Quadrupole moment (field-independent basis, Debye-Ang):
   XX=             53.5631   YY=            -16.3231   ZZ=            -37.2400
   XY=             -2.5402   XZ=              0.3280   YZ=              1.1975
 Octapole moment (field-independent basis, Debye-Ang**2):
  XXX=           -342.5672  YYY=             21.9332  ZZZ=             -0.0723  XYY=              1.8355
  XXY=            100.5243  XXZ=             -3.2211  XZZ=             -4.1576  YZZ=              5.7457
  YYZ=              1.5412  XYZ=             -4.5591
 Hexadecapole moment (field-independent basis, Debye-Ang**3):
 XXXX=          -1390.5640 YYYY=           -790.0496 ZZZZ=            -94.1808 XXXY=           -252.1912
 XXXZ=             31.9145 YYYX=             27.9535 YYYZ=              3.7454 ZZZX=              0.6536
 ZZZY=             -0.0252 XXYY=           -687.3508 XXZZ=           -713.1645 YYZZ=           -176.2525
 XXYZ=             24.1581 YYXZ=             -6.0753 ZZXY=             -3.1369
 N-N= 8.396357161333D+02 E-N=-3.269125443772D+03  KE= 6.824597764731D+02
 Calling FoFJK, ICntrl=  10002127 FMM=F ISym2X=0 I1Cent= 0 IOpClX= 0 NMat=1 NMatS=1 NMatT=0.
 ***** Axes restored to original set *****
 -------------------------------------------------------------------
 Center     Atomic                   Forces (Hartrees/Bohr)
 Number     Number              X              Y              Z
 -------------------------------------------------------------------
      1        6           0.001653354   -0.003108714    0.000127811
      2        6          -0.004379518    0.002221158   -0.000013463
      3        6          -0.002421637   -0.003006155   -0.000002860
      4        6          -0.001900803    0.004212922    0.000016346
      5        6          -0.000296184   -0.000155523    0.000044809
      6        6          -0.003756895   -0.001869896   -0.000329230
      7        8           0.005190628   -0.002370506   -0.000029839
      8        6           0.000200188    0.003196633    0.000239801
      9        6           0.000105209   -0.003665371    0.000035765
     10        6           0.003663193   -0.001501046    0.000135650
     11        8          -0.002890666   -0.003585211    0.000798193
     12        8           0.000955856    0.004814839   -0.001072655
     13        8           0.004850006   -0.001891216   -0.000039652
     14        6          -0.000437139    0.007240343    0.000091664
     15        1          -0.000370237    0.001680406    0.000023658
     16        1           0.000186056   -0.001661168   -0.000025825
     17        1           0.000979309    0.001233454    0.000030256
     18        1           0.000693335    0.000398251    0.000005956
     19        1           0.000149786   -0.001497392    0.000018496
     20        1           0.000224840    0.001768204   -0.000078544
     21        1          -0.000887588    0.000532296   -0.000321987
     22        1          -0.000875656    0.000254887    0.000384479
     23        1          -0.001872517   -0.001202174   -0.000010883
     24        1           0.000620918   -0.001042070    0.001692862
     25        1           0.000616162   -0.000996953   -0.001720809
 -------------------------------------------------------------------
 Cartesian Forces:  Max     0.007240343 RMS     0.002064173

 GradGradGradGradGradGradGradGradGradGradGradGradGradGradGradGradGradGrad
 Berny optimization.
 FormGI is forming the generalized inverse of G from B-inverse, IUseBI=4.
 GSVD:  received Info=                   1 from GESDD.
 Internal  Forces:  Max     0.006205767 RMS     0.001296073
 Search for a local minimum.
 Step number   1 out of a maximum of  119
 All quantities printed in internal units (Hartrees-Bohrs-Radians)
 Mixed Optimization -- RFO/linear search
 Second derivative matrix not updated -- first step.
 ITU=  0
     Eigenvalues ---    0.01329   0.01797   0.01846   0.01906   0.01949
     Eigenvalues ---    0.02038   0.02074   0.02076   0.02137   0.02165
     Eigenvalues ---    0.02226   0.02239   0.02240   0.02241   0.02254
     Eigenvalues ---    0.02344   0.02494   0.02684   0.02721   0.02764
     Eigenvalues ---    0.10147   0.10701   0.16000   0.16000   0.16000
     Eigenvalues ---    0.16000   0.16000   0.16000   0.16000   0.16000
     Eigenvalues ---    0.16000   0.16000   0.16000   0.22000   0.22000
     Eigenvalues ---    0.22369   0.23477   0.24604   0.24999   0.25000
     Eigenvalues ---    0.25000   0.25000   0.25000   0.25000   0.34215
     Eigenvalues ---    0.34217   0.34921   0.34930   0.35404   0.35436
     Eigenvalues ---    0.35469   0.35638   0.39078   0.40404   0.41364
     Eigenvalues ---    0.42121   0.43404   0.44023   0.47305   0.47560
     Eigenvalues ---    0.47584   0.49711   0.52746   0.53647   0.53705
     Eigenvalues ---    0.54873   0.60704   0.61395   0.62190
 RFO step:  Lambda=-4.08878613D-04 EMin= 1.32918816D-02
 Linear search not attempted -- first point.
 Iteration  1 RMS(Cart)=  0.00829133 RMS(Int)=  0.00002884
 Iteration  2 RMS(Cart)=  0.00004389 RMS(Int)=  0.00000229
 Iteration  3 RMS(Cart)=  0.00000000 RMS(Int)=  0.00000229
 Variable       Old X    -DE/DX   Delta X   Delta X   Delta X     New X
                                 (Linear)    (Quad)   (Total)
    R1        2.65171   0.00143   0.00000   0.00318   0.00318   2.65489
    R2        2.60188   0.00236   0.00000   0.00477   0.00477   2.60664
    R3        2.04973  -0.00172   0.00000  -0.00485  -0.00485   2.04488
    R4        2.69221   0.00080   0.00000   0.00190   0.00190   2.69411
    R5        2.50388   0.00621   0.00000   0.01022   0.01022   2.51409
    R6        2.60129   0.00223   0.00000   0.00445   0.00445   2.60574
    R7        2.55245   0.00431   0.00000   0.00784   0.00784   2.56029
    R8        2.69606   0.00069   0.00000   0.00164   0.00164   2.69770
    R9        2.05023  -0.00166   0.00000  -0.00469  -0.00469   2.04554
   R10        2.68408   0.00098   0.00000   0.00231   0.00231   2.68639
   R11        2.67174  -0.00049   0.00000  -0.00113  -0.00113   2.67061
   R12        2.04920  -0.00156   0.00000  -0.00439  -0.00439   2.04482
   R13        1.83891   0.00074   0.00000   0.00140   0.00140   1.84031
   R14        2.62384   0.00048   0.00000   0.00102   0.00102   2.62486
   R15        2.05803  -0.00150   0.00000  -0.00430  -0.00430   2.05372
   R16        2.62411   0.00026   0.00000   0.00055   0.00055   2.62466
   R17        2.04652  -0.00177   0.00000  -0.00497  -0.00497   2.04155
   R18        2.49248   0.00487   0.00000   0.00783   0.00783   2.50031
   R19        2.49853   0.00509   0.00000   0.00828   0.00828   2.50681
   R20        1.83054   0.00108   0.00000   0.00201   0.00201   1.83255
   R21        1.83001   0.00097   0.00000   0.00181   0.00181   1.83182
   R22        2.69742   0.00408   0.00000   0.00985   0.00985   2.70727
   R23        2.05789  -0.00218   0.00000  -0.00624  -0.00624   2.05165
   R24        2.06966  -0.00201   0.00000  -0.00588  -0.00588   2.06378
   R25        2.06968  -0.00201   0.00000  -0.00588  -0.00588   2.06380
    A1        2.08934  -0.00003   0.00000   0.00006   0.00005   2.08939
    A2        2.06707  -0.00002   0.00000  -0.00028  -0.00028   2.06679
    A3        2.12678   0.00006   0.00000   0.00022   0.00022   2.12699
    A4        2.10504  -0.00018   0.00000  -0.00062  -0.00062   2.10442
    A5        2.08371  -0.00021   0.00000  -0.00088  -0.00088   2.08284
    A6        2.09444   0.00039   0.00000   0.00150   0.00150   2.09593
    A7        2.08578   0.00053   0.00000   0.00214   0.00214   2.08792
    A8        1.97121   0.00029   0.00000   0.00116   0.00116   1.97236
    A9        2.22620  -0.00082   0.00000  -0.00330  -0.00330   2.22290
   A10        2.10142  -0.00069   0.00000  -0.00312  -0.00312   2.09830
   A11        2.10236   0.00053   0.00000   0.00270   0.00270   2.10506
   A12        2.07940   0.00016   0.00000   0.00042   0.00042   2.07982
   A13        2.07590   0.00077   0.00000   0.00314   0.00314   2.07904
   A14        2.06226  -0.00006   0.00000  -0.00028  -0.00028   2.06198
   A15        2.14502  -0.00071   0.00000  -0.00286  -0.00286   2.14216
   A16        2.10889  -0.00039   0.00000  -0.00161  -0.00161   2.10728
   A17        2.07392   0.00043   0.00000   0.00229   0.00229   2.07621
   A18        2.10038  -0.00004   0.00000  -0.00068  -0.00069   2.09969
   A19        1.91052   0.00056   0.00000   0.00348   0.00348   1.91400
   A20        2.22476  -0.00138   0.00000  -0.00624  -0.00624   2.21852
   A21        2.02535   0.00069   0.00000   0.00315   0.00315   2.02850
   A22        2.03307   0.00068   0.00000   0.00310   0.00310   2.03617
   A23        2.12378  -0.00107   0.00000  -0.00483  -0.00483   2.11894
   A24        2.14602   0.00032   0.00000   0.00110   0.00110   2.14713
   A25        2.01339   0.00074   0.00000   0.00373   0.00373   2.01712
   A26        2.06321   0.00002   0.00000   0.00007   0.00007   2.06328
   A27        2.11177  -0.00060   0.00000  -0.00238  -0.00238   2.10939
   A28        2.10817   0.00058   0.00000   0.00230   0.00230   2.11047
   A29        2.00866  -0.00015   0.00000  -0.00093  -0.00093   2.00773
   A30        2.00031  -0.00022   0.00000  -0.00137  -0.00137   1.99894
   A31        2.07614  -0.00216   0.00000  -0.00864  -0.00864   2.06749
   A32        1.84643  -0.00031   0.00000  -0.00131  -0.00131   1.84512
   A33        1.92986  -0.00050   0.00000  -0.00345  -0.00346   1.92640
   A34        1.92975  -0.00049   0.00000  -0.00340  -0.00340   1.92635
   A35        1.91346   0.00060   0.00000   0.00443   0.00443   1.91789
   A36        1.91347   0.00060   0.00000   0.00443   0.00442   1.91789
   A37        1.92913   0.00010   0.00000  -0.00056  -0.00057   1.92856
    D1       -0.00050   0.00003   0.00000   0.00108   0.00108   0.00058
    D2       -3.14091   0.00002   0.00000   0.00099   0.00099  -3.13992
    D3        3.13917  -0.00000   0.00000  -0.00029  -0.00028   3.13888
    D4       -0.00124  -0.00001   0.00000  -0.00038  -0.00038  -0.00161
    D5       -0.00229  -0.00007   0.00000  -0.00325  -0.00325  -0.00554
    D6        3.13885  -0.00000   0.00000  -0.00015  -0.00014   3.13871
    D7        3.14129  -0.00004   0.00000  -0.00184  -0.00184   3.13945
    D8       -0.00075   0.00003   0.00000   0.00127   0.00127   0.00052
    D9        0.00137   0.00001   0.00000   0.00052   0.00052   0.00189
   D10       -3.14034   0.00000   0.00000   0.00033   0.00033  -3.14001
   D11       -3.14142   0.00001   0.00000   0.00061   0.00061  -3.14081
   D12        0.00006   0.00001   0.00000   0.00042   0.00042   0.00048
   D13        3.14081   0.00000   0.00000   0.00009   0.00009   3.14090
   D14        0.00040  -0.00000   0.00000   0.00000  -0.00000   0.00040
   D15        0.00055  -0.00000   0.00000   0.00007   0.00007   0.00062
   D16        3.14129  -0.00002   0.00000  -0.00062  -0.00063   3.14066
   D17       -3.14090   0.00000   0.00000   0.00029   0.00029  -3.14061
   D18       -0.00017  -0.00001   0.00000  -0.00040  -0.00040  -0.00057
   D19       -3.14077   0.00000   0.00000   0.00014   0.00014  -3.14063
   D20        0.00069  -0.00000   0.00000  -0.00007  -0.00007   0.00062
   D21       -0.00326  -0.00004   0.00000  -0.00219  -0.00219  -0.00545
   D22        3.14128  -0.00002   0.00000  -0.00126  -0.00125   3.14002
   D23        3.13918  -0.00003   0.00000  -0.00150  -0.00151   3.13767
   D24        0.00053  -0.00001   0.00000  -0.00057  -0.00057  -0.00004
   D25        0.00416   0.00008   0.00000   0.00382   0.00382   0.00798
   D26       -3.13697   0.00001   0.00000   0.00066   0.00067  -3.13631
   D27       -3.14053   0.00006   0.00000   0.00284   0.00284  -3.13768
   D28        0.00153  -0.00001   0.00000  -0.00031  -0.00031   0.00122
   D29       -3.12957   0.00002   0.00000   0.00117   0.00117  -3.12840
   D30        0.01218   0.00006   0.00000   0.00304   0.00304   0.01523
   D31        0.01509   0.00004   0.00000   0.00213   0.00213   0.01722
   D32       -3.12634   0.00008   0.00000   0.00401   0.00401  -3.12233
   D33       -3.12169   0.00014   0.00000   0.00602   0.00602  -3.11567
   D34        0.02110   0.00012   0.00000   0.00526   0.00526   0.02636
   D35        0.01974   0.00010   0.00000   0.00413   0.00413   0.02388
   D36       -3.12065   0.00008   0.00000   0.00337   0.00337  -3.11727
   D37       -3.06195   0.00012   0.00000   0.00531   0.00531  -3.05664
   D38        0.08899   0.00015   0.00000   0.00640   0.00640   0.09539
   D39        0.07852   0.00014   0.00000   0.00602   0.00602   0.08454
   D40       -3.05372   0.00016   0.00000   0.00711   0.00711  -3.04661
   D41       -2.92131   0.00008   0.00000   0.00292   0.00292  -2.91839
   D42        0.21095   0.00005   0.00000   0.00181   0.00181   0.21276
   D43       -2.87277   0.00010   0.00000   0.00350   0.00350  -2.86927
   D44        0.27841   0.00013   0.00000   0.00463   0.00463   0.28304
   D45       -3.14150   0.00000   0.00000   0.00001   0.00001  -3.14149
   D46       -1.07106   0.00028   0.00000   0.00271   0.00270  -1.06836
   D47        1.07128  -0.00028   0.00000  -0.00271  -0.00270   1.06858
         Item               Value     Threshold  Converged?
 Maximum Force            0.006206     0.000450     NO 
 RMS     Force            0.001296     0.000300     NO 
 Maximum Displacement     0.024807     0.001800     NO 
 RMS     Displacement     0.008307     0.001200     NO 
 Predicted change in Energy=-2.047201D-04
 GradGradGradGradGradGradGradGradGradGradGradGradGradGradGradGradGradGrad

                          Input orientation:                          
 ---------------------------------------------------------------------
 Center     Atomic      Atomic             Coordinates (Angstroms)
 Number     Number       Type             X           Y           Z
 ---------------------------------------------------------------------
      1          6           0        1.471950   -2.029764   -0.024634
      2          6           0        2.515030   -1.088694   -0.012843
      3          6           0        2.231166    0.308313    0.004406
      4          6           0        0.920833    0.737660    0.011802
      5          6           0       -0.146160   -0.210701    0.003018
      6          6           0        0.161789   -1.598328   -0.020170
      7          8           0        3.775917   -1.513062   -0.019190
      8          6           0       -1.472242    0.277779    0.013077
      9          6           0       -2.641515   -0.471950    0.021708
     10          6           0       -3.890616    0.134978    0.000488
     11          8           0       -4.961755   -0.634093    0.109123
     12          8           0       -4.006244    1.449289   -0.137167
     13          8           0        3.347822    1.075536    0.012086
     14          6           0        3.197219    2.500101    0.030686
     15          1           0        1.727141   -3.081234   -0.040190
     16          1           0        0.687156    1.794499    0.025751
     17          1           0       -0.631972   -2.333635   -0.032105
     18          1           0        4.379054   -0.748518   -0.010102
     19          1           0       -1.585912    1.358603    0.012166
     20          1           0       -2.648187   -1.552011    0.045417
     21          1           0       -5.802235   -0.199477   -0.103258
     22          1           0       -4.878581    1.802998    0.094294
     23          1           0        4.205600    2.902436    0.033783
     24          1           0        2.665215    2.837880   -0.861263
     25          1           0        2.668905    2.814791    0.933225
 ---------------------------------------------------------------------
                    Distance matrix (angstroms):
                    1          2          3          4          5
     1  C    0.000000
     2  C    1.404908   0.000000
     3  C    2.458426   1.425660   0.000000
     4  C    2.822001   2.424384   1.378900   0.000000
     5  C    2.434756   2.802330   2.433322   1.427564   0.000000
     6  C    1.379376   2.407805   2.813931   2.456422   1.421576
     7  O    2.361202   1.330401   2.388351   3.635686   4.132714
     8  C    3.740915   4.215004   3.703544   2.436863   1.413226
     9  C    4.398810   5.193411   4.934788   3.762124   2.509063
    10  C    5.783067   6.521492   6.124237   4.849062   3.760380
    11  O    6.584706   7.491585   7.255150   6.041194   4.835336
    12  O    6.490537   6.998844   6.342487   4.980431   4.204220
    13  O    3.628103   2.319063   1.354847   2.450395   3.723223
    14  C    4.847607   3.653318   2.395388   2.878974   4.304346
    15  H    1.082106   2.142833   3.427107   3.903433   3.427986
    16  H    3.904283   3.414002   2.143168   1.082455   2.171579
    17  H    2.125766   3.384357   3.895996   3.441800   2.178095
    18  H    3.176957   1.894812   2.393852   3.764106   4.557080
    19  H    4.564307   4.775731   3.958946   2.582507   2.129714
    20  H    4.148336   5.184291   5.222124   4.240475   2.839200
    21  H    7.501327   8.365153   8.050154   6.789044   5.657085
    22  H    7.418453   7.939700   7.265718   5.897029   5.143843
    23  H    5.639401   4.334665   3.260172   3.934009   5.350736
    24  H    5.081120   4.019994   2.708595   2.866362   4.236112
    25  H    5.081329   4.019442   2.708644   2.866923   4.235973
                    6          7          8          9         10
     6  C    0.000000
     7  O    3.615134   0.000000
     8  C    2.488160   5.545388   0.000000
     9  C    3.021422   6.501463   1.389017   0.000000
    10  C    4.407581   7.841694   2.422619   1.388908   0.000000
    11  O    5.215090   8.782708   3.607969   2.327541   1.323106
    12  O    5.164702   8.327753   2.795742   2.361966   1.326548
    13  O    4.159494   2.623944   4.885635   6.186029   7.299299
    14  C    5.100347   4.054980   5.171353   6.551640   7.472090
    15  H    2.156325   2.580134   4.639166   5.088944   6.473397
    16  H    3.433568   4.525751   2.638863   4.027016   4.869358
    17  H    1.082070   4.483636   2.743644   2.739896   4.088261
    18  H    4.302047   0.973851   5.940664   7.026087   8.316738
    19  H    3.434959   6.082488   1.086784   2.113128   2.609417
    20  H    2.811123   6.424548   2.175322   1.080342   2.095610
    21  H    6.126441   9.668174   4.357769   3.174903   1.943428
    22  H    6.081730   9.268736   3.733099   3.191413   1.940918
    23  H    6.050801   4.436672   6.255169   7.633453   8.556205
    24  H    5.162801   4.568746   4.943393   6.316327   7.143333
    25  H    5.164321   4.567590   4.942894   6.311425   7.146937
                   11         12         13         14         15
    11  O    0.000000
    12  O    2.305242   0.000000
    13  O    8.484180   7.365069   0.000000
    14  C    8.740605   7.281638   1.432625   0.000000
    15  H    7.124052   7.307991   4.461847   5.772128   0.000000
    16  H    6.149407   4.708898   2.756127   2.607358   4.985849
    17  H    4.653537   5.070233   5.240531   6.166981   2.474749
    18  H    9.342271   8.669471   2.095496   3.457156   3.532013
    19  H    3.921295   2.426629   4.941847   4.917489   5.539965
    20  H    2.489825   3.299311   6.546544   7.112567   4.635660
    21  H    0.969744   2.438271   9.239183   9.396587   8.062258
    22  H    2.438555   0.969359   8.258914   8.106080   8.216408
    23  H    9.826144   8.341177   2.018370   1.085686   6.477078
    24  H    8.436048   6.852799   2.081958   1.092107   6.048971
    25  H    8.414328   6.896952   2.081930   1.092118   6.049592
                   16         17         18         19         20
    16  H    0.000000
    17  H    4.334159   0.000000
    18  H    4.483116   5.255803   0.000000
    19  H    2.314526   3.813736   6.326237   0.000000
    20  H    4.724831   2.163809   7.073246   3.098581   0.000000
    21  H    6.790051   5.593864  10.196508   4.496479   3.435036
    22  H    5.566166   5.929704   9.603381   3.323537   4.029036
    23  H    3.688771   7.129017   3.655335   5.993788   8.174144
    24  H    2.405858   6.188983   4.064968   4.585108   6.951651
    25  H    2.406622   6.191441   4.063452   4.590457   6.937480
                   21         22         23         24         25
    21  H    0.000000
    22  H    2.214062   0.000000
    23  H   10.478426   9.150670   0.000000
    24  H    9.027614   7.674172   1.782712   0.000000
    25  H    9.050985   7.661075   1.782725   1.794640   0.000000
 Stoichiometry    C10H11O4(1+)
 Framework group  C1[X(C10H11O4)]
 Deg. of freedom    69
 Full point group                 C1      NOp   1
 Largest Abelian subgroup         C1      NOp   1
 Largest concise Abelian subgroup C1      NOp   1
                         Standard orientation:                         
 ---------------------------------------------------------------------
 Center     Atomic      Atomic             Coordinates (Angstroms)
 Number     Number       Type             X           Y           Z
 ---------------------------------------------------------------------
      1          6           0        1.471237   -2.029198   -0.025166
      2          6           0        2.514121   -1.087919   -0.012823
      3          6           0        2.229967    0.309022    0.005008
      4          6           0        0.919546    0.738095    0.012425
      5          6           0       -0.147251   -0.210480    0.003083
      6          6           0        0.160986   -1.598034   -0.020680
      7          8           0        3.775097   -1.512025   -0.019194
      8          6           0       -1.473435    0.277722    0.013186
      9          6           0       -2.642555   -0.472251    0.021334
     10          6           0       -3.891778    0.134429    0.000222
     11          8           0       -4.962773   -0.634911    0.108377
     12          8           0       -4.007658    1.448777   -0.136866
     13          8           0        3.346465    1.076470    0.013172
     14          6           0        3.195566    2.500997    0.032384
     15          1           0        1.726645   -3.080609   -0.041154
     16          1           0        0.685649    1.794880    0.026812
     17          1           0       -0.632622   -2.333499   -0.033043
     18          1           0        4.378075   -0.747361   -0.009690
     19          1           0       -1.587327    1.358522    0.012739
     20          1           0       -2.649008   -1.552324    0.044564
     21          1           0       -5.803315   -0.200373   -0.103919
     22          1           0       -4.880098    1.802204    0.094639
     23          1           0        4.203864    2.903537    0.035789
     24          1           0        2.663608    2.839060   -0.859485
     25          1           0        2.667071    2.815178    0.934993
 ---------------------------------------------------------------------
 Rotational constants (GHZ):      1.5342151      0.2856050      0.2412839
 Standard basis: 6-31+G(d,p) (6D, 7F)
 There are   321 symmetry adapted cartesian basis functions of A   symmetry.
 There are   321 symmetry adapted basis functions of A   symmetry.
   321 basis functions,   525 primitive gaussians,   321 cartesian basis functions
    51 alpha electrons       51 beta electrons
       nuclear repulsion energy       839.0233437666 Hartrees.
 NAtoms=   25 NActive=   25 NUniq=   25 SFac= 1.00D+00 NAtFMM=   60 NAOKFM=F Big=F
 Integral buffers will be    131072 words long.
 Regular integral format.
 Two-electron integral symmetry is turned on.
 Nuclear repulsion after empirical dispersion term =      838.9964526569 Hartrees.
 One-electron integrals computed using PRISM.
 NBasis=   321 RedAO= T EigKep=  1.41D-06  NBF=   321
 NBsUse=   320 1.00D-06 EigRej=  6.60D-07 NBFU=   320
 Initial guess from the checkpoint file:  "B2PLYPD3BJFAyang.chk"
 B after Tr=    -0.000000    0.000000    0.000000
         Rot=    1.000000   -0.000015    0.000004   -0.000030 Ang=  -0.00 deg.
 ExpMin= 4.38D-02 ExpMax= 5.48D+03 ExpMxC= 8.25D+02 IAcc=2 IRadAn=         4 AccDes= 0.00D+00
 Harris functional with IExCor=  419 and IRadAn=       4 diagonalized for initial guess.
 HarFok:  IExCor=  419 AccDes= 0.00D+00 IRadAn=         4 IDoV= 1 UseB2=F ITyADJ=14
 ICtDFT=  3500011 ScaDFX=  1.000000  1.000000  1.000000  1.000000
 FoFCou: FMM=F IPFlag=           0 FMFlag=      100000 FMFlg1=           0
         NFxFlg=           0 DoJE=T BraDBF=F KetDBF=T FulRan=T
         wScrn=  0.000000 ICntrl=     500 IOpCl=  0 I1Cent=   200000004 NGrid=           0
         NMat0=    1 NMatS0=      1 NMatT0=    0 NMatD0=    1 NMtDS0=    0 NMtDT0=    0
 Petite list used in FoFCou.
 Requested convergence on RMS density matrix=1.00D-08 within 128 cycles.
 Requested convergence on MAX density matrix=1.00D-06.
 Requested convergence on             energy=1.00D-06.
 No special actions if energy rises.
 SCF Done:  E(RB2PLYP) =  -687.036549000     A.U. after   12 cycles
            NFock= 12  Conv=0.50D-08     -V/T= 2.0068
 DoSCS=T DFT=T ScalE2(SS,OS)=  0.270000  0.270000
 ExpMin= 4.38D-02 ExpMax= 5.48D+03 ExpMxC= 8.25D+02 IAcc=3 IRadAn=         5 AccDes= 0.00D+00
 HarFok:  IExCor=  205 AccDes= 0.00D+00 IRadAn=         5 IDoV=-2 UseB2=F ITyADJ=14
 ICtDFT= 12500011 ScaDFX=  1.000000  1.000000  1.000000  1.000000
 Range of M.O.s used for correlation:    15   320
 NBasis=   321 NAE=    51 NBE=    51 NFC=    14 NFV=     0
 NROrb=    306 NOA=    37 NOB=    37 NVA=   269 NVB=   269

 **** Warning!!: The largest alpha MO coefficient is  0.19866361D+03

 DoSCS=T DFT=T ScalE2(SS,OS)=  0.270000  0.270000
 Fully direct method using O(ONN) memory.
 JobTyp=1 Pass  1:  I=  15 to  16 NPSUse= 18 ParTrn=T ParDer=T DoDerP=T.
 JobTyp=1 Pass  2:  I=  17 to  18 NPSUse= 18 ParTrn=T ParDer=T DoDerP=T.
 JobTyp=1 Pass  3:  I=  19 to  20 NPSUse= 18 ParTrn=T ParDer=T DoDerP=T.
 JobTyp=1 Pass  4:  I=  21 to  22 NPSUse= 18 ParTrn=T ParDer=T DoDerP=T.
 JobTyp=1 Pass  5:  I=  23 to  24 NPSUse= 18 ParTrn=T ParDer=T DoDerP=T.
 JobTyp=1 Pass  6:  I=  25 to  26 NPSUse= 18 ParTrn=T ParDer=T DoDerP=T.
 JobTyp=1 Pass  7:  I=  27 to  28 NPSUse= 18 ParTrn=T ParDer=T DoDerP=T.
 JobTyp=1 Pass  8:  I=  29 to  30 NPSUse= 18 ParTrn=T ParDer=T DoDerP=T.
 JobTyp=1 Pass  9:  I=  31 to  32 NPSUse= 18 ParTrn=T ParDer=T DoDerP=T.
 JobTyp=1 Pass 10:  I=  33 to  34 NPSUse= 18 ParTrn=T ParDer=T DoDerP=T.
 JobTyp=1 Pass 11:  I=  35 to  36 NPSUse= 18 ParTrn=T ParDer=T DoDerP=T.
 JobTyp=1 Pass 12:  I=  37 to  38 NPSUse= 18 ParTrn=T ParDer=T DoDerP=T.
 JobTyp=1 Pass 13:  I=  39 to  40 NPSUse= 18 ParTrn=T ParDer=T DoDerP=T.
 JobTyp=1 Pass 14:  I=  41 to  42 NPSUse= 18 ParTrn=T ParDer=T DoDerP=T.
 JobTyp=1 Pass 15:  I=  43 to  44 NPSUse= 18 ParTrn=T ParDer=T DoDerP=T.
 JobTyp=1 Pass 16:  I=  45 to  46 NPSUse= 18 ParTrn=T ParDer=T DoDerP=T.
 JobTyp=1 Pass 17:  I=  47 to  48 NPSUse= 18 ParTrn=T ParDer=T DoDerP=T.
 JobTyp=1 Pass 18:  I=  49 to  50 NPSUse= 18 ParTrn=T ParDer=T DoDerP=T.
 JobTyp=1 Pass 19:  I=  51 to  51 NPSUse= 18 ParTrn=T ParDer=T DoDerP=T.
 Spin components of T(2) and E(2):
     alpha-alpha T2 =       0.1475980085D+00 E2=     -0.9183204922D-01
     alpha-beta  T2 =       0.7775389853D+00 E2=     -0.4989659373D+00
     beta-beta   T2 =       0.1475980085D+00 E2=     -0.9183204922D-01
 E2(B2PLYP) =    -0.6826300358D+00 E(B2PLYP) =    -0.68771917903553D+03
          IDoAtm=1111111111111111111111111
          Differentiating once with respect to electric field.
                with respect to dipole field.
          Differentiating once with respect to nuclear coordinates.
          There are     1 degrees of freedom in the 1st order CPHF.  IDoFFX=0 NUNeed=     1.
 LinEq1:  Iter=  0 NonCon=     1 RMS=1.90D-03 Max=9.03D-02 NDo=     1
 AX will form     1 AO Fock derivatives at one time.
 LinEq1:  Iter=  1 NonCon=     1 RMS=7.84D-04 Max=3.51D-02 NDo=     1
 LinEq1:  Iter=  2 NonCon=     1 RMS=3.30D-04 Max=1.60D-02 NDo=     1
 LinEq1:  Iter=  3 NonCon=     1 RMS=2.35D-04 Max=1.21D-02 NDo=     1
 LinEq1:  Iter=  4 NonCon=     1 RMS=9.82D-05 Max=3.12D-03 NDo=     1
 LinEq1:  Iter=  5 NonCon=     1 RMS=4.17D-05 Max=1.17D-03 NDo=     1
 LinEq1:  Iter=  6 NonCon=     1 RMS=1.90D-05 Max=4.99D-04 NDo=     1
 LinEq1:  Iter=  7 NonCon=     1 RMS=1.07D-05 Max=6.68D-04 NDo=     1
 LinEq1:  Iter=  8 NonCon=     1 RMS=3.99D-06 Max=1.29D-04 NDo=     1
 LinEq1:  Iter=  9 NonCon=     1 RMS=1.94D-06 Max=6.71D-05 NDo=     1
 LinEq1:  Iter= 10 NonCon=     1 RMS=6.06D-07 Max=1.28D-05 NDo=     1
 LinEq1:  Iter= 11 NonCon=     1 RMS=3.45D-07 Max=1.39D-05 NDo=     1
 LinEq1:  Iter= 12 NonCon=     1 RMS=1.18D-07 Max=2.18D-06 NDo=     1
 LinEq1:  Iter= 13 NonCon=     1 RMS=3.76D-08 Max=9.81D-07 NDo=     1
 LinEq1:  Iter= 14 NonCon=     1 RMS=1.83D-08 Max=4.52D-07 NDo=     1
 LinEq1:  Iter= 15 NonCon=     1 RMS=6.45D-09 Max=2.32D-07 NDo=     1
 LinEq1:  Iter= 16 NonCon=     1 RMS=3.75D-09 Max=1.67D-07 NDo=     1
 LinEq1:  Iter= 17 NonCon=     1 RMS=1.36D-09 Max=5.15D-08 NDo=     1
 LinEq1:  Iter= 18 NonCon=     1 RMS=5.41D-10 Max=1.48D-08 NDo=     1
 LinEq1:  Iter= 19 NonCon=     1 RMS=2.58D-10 Max=6.14D-09 NDo=     1
 LinEq1:  Iter= 20 NonCon=     1 RMS=8.28D-11 Max=2.25D-09 NDo=     1
 LinEq1:  Iter= 21 NonCon=     1 RMS=3.77D-11 Max=1.00D-09 NDo=     1
 LinEq1:  Iter= 22 NonCon=     0 RMS=1.95D-11 Max=5.15D-10 NDo=     1
 Linear equations converged to 1.000D-10 1.000D-09 after    22 iterations.
 End of Minotr F.D. properties file   721 does not exist.
 End of Minotr F.D. properties file   722 does not exist.
 End of Minotr F.D. properties file   788 does not exist.
 Calling FoFJK, ICntrl=  10002127 FMM=F ISym2X=0 I1Cent= 0 IOpClX= 0 NMat=1 NMatS=1 NMatT=0.
 ***** Axes restored to original set *****
 -------------------------------------------------------------------
 Center     Atomic                   Forces (Hartrees/Bohr)
 Number     Number              X              Y              Z
 -------------------------------------------------------------------
      1        6           0.000446603    0.000041073    0.000096426
      2        6          -0.001483452    0.001459290   -0.000043150
      3        6          -0.000710675   -0.001212883    0.000058293
      4        6          -0.000105062    0.000342963   -0.000012187
      5        6           0.000543484   -0.000300768    0.000017625
      6        6          -0.000019835   -0.000079649   -0.000095754
      7        8           0.000919745   -0.000675945   -0.000001868
      8        6           0.000194252    0.000796323   -0.000082703
      9        6          -0.000872793   -0.000407497    0.000101521
     10        6           0.001076658   -0.000669773    0.000052964
     11        8          -0.000526863   -0.000446358    0.000248134
     12        8           0.000013247    0.000980271   -0.000440316
     13        8           0.001514543   -0.001350668   -0.000035378
     14        6          -0.000601686    0.002442420    0.000033904
     15        1          -0.000000295   -0.000075678   -0.000019692
     16        1          -0.000076563   -0.000139373    0.000003457
     17        1           0.000113152    0.000013914   -0.000021885
     18        1          -0.000387185    0.000114001    0.000004877
     19        1          -0.000055529   -0.000105092    0.000053614
[...]
 ,-0.00010736,0.00000261,-0.00015449,0.00076602,0.00011826,-0.00116536,
 -0.00073411,-0.00003196,0.15500936,0.20233180,0.00002518,0.00009674,0.
 00332589,0.00002657,-0.00017595,0.00982381,-0.00000183,-0.00000457,-0.
 00175791,0.00012751,-0.00006868,0.00527877,-0.00071552,-0.00013233,-0.
 00037496,-0.00360721,-0.00399170,-0.03327325,0.00002000,0.00000465,-0.
 00016269,0.00023096,0.00013613,-0.00246288,0.00006000,-0.00023463,-0.0
 0012604,-0.00009178,0.00004182,-0.00027237,0.00004555,0.00000618,-0.00
 011628,-0.00002258,-0.00002735,0.00020117,0.00001097,0.00002149,-0.000
 37083,-0.00000117,-0.00001216,-0.00012371,0.00002096,0.00009734,-0.004
 58240,-0.00001649,-0.00004316,0.00135560,0.00373942,0.00425079,0.02286
 707,-0.00262428,0.00525367,0.00011020,-0.04004886,-0.03473724,-0.00060
 009,-0.00114469,-0.00186542,-0.00002088,-0.00170000,-0.00127126,-0.000
 04526,0.00205895,-0.00090433,-0.00000855,-0.00159818,-0.00083954,-0.00
 003626,-0.19948781,-0.18376410,-0.00299947,-0.00213687,0.00009993,0.00
 005489,0.00193641,-0.00010274,0.00004648,-0.00216646,0.00108966,-0.000
 04177,0.00127164,0.00040005,-0.00017365,0.00040858,-0.00101427,0.00018
 691,-0.00039116,-0.00178459,-0.00002358,0.00121182,0.00135203,0.000018
 08,0.00013989,0.00008073,0.00000609,0.00036325,-0.00009153,-0.00000172
 ,-0.00033531,0.00021431,0.00000081,0.24448165,0.00729152,0.00034913,-0
 .00000294,0.00490416,0.01421955,0.00022481,0.01222605,0.00098088,0.000
 03161,-0.00396833,-0.00060598,-0.00002503,0.00315904,-0.00124980,-0.00
 000515,-0.00242782,0.00200134,-0.00002373,-0.23381195,-0.32909433,-0.0
 0502053,-0.00284099,-0.00018106,0.00003523,0.00204533,-0.00002139,0.00
 005740,-0.00207840,0.00120584,-0.00004848,0.00113355,0.00034049,-0.000
 16654,0.00035889,-0.00105614,0.00017869,-0.00251843,0.00086589,0.00002
 147,-0.00210410,-0.00323957,-0.00002432,0.00008949,0.00011118,0.000019
 53,0.00028631,-0.00004864,-0.00000495,0.00020209,-0.00007618,0.0000059
 1,0.21870709,0.31373852,0.00009124,-0.00006659,0.00423118,0.00002571,0
 .00019294,-0.00284289,0.00014917,0.00003223,-0.00010746,-0.00003008,-0
 .00002757,-0.00070118,0.00002389,-0.00001095,-0.00010427,-0.00004016,-
 0.00001850,0.00196151,-0.00373320,-0.00492443,-0.01179371,-0.00005525,
 0.00001574,0.00000375,0.00003561,-0.00002064,-0.00010452,-0.00003632,0
 .00002442,-0.00004009,0.00002790,0.00000825,-0.00001409,0.00000447,-0.
 00002551,0.00001230,-0.00001553,0.00002449,-0.00126040,-0.00002694,-0.
 00002716,-0.00128926,0.00000310,0.00001835,-0.00053700,0.00000592,-0.0
 0001086,0.00041932,0.00000299,0.00001000,-0.00056827,0.00358169,0.0047
 7037,0.01236095,0.00040871,0.00161352,0.00008733,0.00008836,0.00027747
 ,-0.00004487,0.00009349,-0.00060269,0.00000303,0.00046919,0.00227234,-
 0.00002585,-0.00090441,0.02999269,-0.00006021,-0.00564091,0.00004708,-
 0.00004364,0.00012628,-0.00019437,0.00001446,-0.06313486,0.02925488,-0
 .00022069,0.00529402,-0.02920132,0.00059892,0.00039799,-0.00361334,0.0
 0013513,0.00047521,0.00066696,-0.00009351,-0.00224948,0.00160579,-0.00
 065843,0.00006927,-0.00005173,-0.00000260,-0.00003343,0.00007458,0.000
 00064,-0.00040678,0.00004709,0.00000274,-0.00086048,-0.00090304,-0.000
 01495,0.00009649,-0.00001908,-0.00000089,-0.00005655,0.00002322,-0.000
 00227,0.06992605,-0.00042355,-0.00054259,-0.00017003,0.00006918,-0.000
 15679,0.00004566,-0.00013162,0.00048197,0.00000145,-0.00186500,0.00144
 611,-0.00001504,-0.00040221,-0.00855866,0.00017386,0.00154102,0.000912
 34,0.00024638,-0.00014624,0.00007745,0.00000691,0.02858313,-0.33972401
 ,0.00205432,0.00219079,-0.01508077,0.00036466,0.00045728,-0.00166846,0
 .00029233,-0.00008039,0.00023763,-0.00005318,0.00177923,0.00084890,-0.
 00008022,-0.00005771,-0.00008173,0.00001486,0.00000944,0.00002944,0.00
 000356,0.00014985,0.00001125,-0.00001496,0.00034341,0.00064708,0.00003
 125,-0.00008561,0.00009108,0.00000203,0.00003325,0.00001604,0.00000114
 ,-0.03017349,0.36007041,0.00015995,0.00007761,-0.00090718,-0.00015224,
 -0.00002325,0.00059366,0.00002070,-0.00014427,0.00004774,-0.00014840,0
 .00002119,-0.00325301,0.00062460,-0.00054085,0.00650029,-0.00002560,0.
 00001100,0.00651167,0.00015496,-0.00001653,-0.00016032,-0.00102886,0.0
 0218689,-0.04543111,0.00119074,0.00052483,0.00637693,-0.00037582,0.000
 55748,-0.00450543,0.00053082,-0.00011659,0.00005474,-0.00104125,-0.000
 46222,0.00050191,0.00001681,0.00005265,0.00022270,0.00000145,-0.000029
 07,0.00006016,0.00000534,0.00001161,-0.00074964,-0.00001389,0.00000624
 ,0.00022608,-0.00000655,0.00001282,-0.00007130,-0.00001774,-0.00002453
 ,0.00008166,-0.00007976,-0.00281487,0.02687588,0.00001560,0.00037512,0
 .00004356,0.00018243,-0.00031503,0.00001180,-0.00034259,0.00049958,0.0
 0000713,0.00052170,0.00018924,-0.00002729,0.00017006,0.00145702,-0.000
 00228,-0.00085244,-0.00129751,-0.00007799,-0.00015203,0.00012960,-0.00
 000511,0.00754608,-0.02852301,0.00095948,-0.05893762,-0.00341661,0.000
 02098,0.00328873,0.03052567,-0.00156709,0.00006716,-0.00018224,0.00005
 500,-0.00616160,0.00262927,0.00085271,0.00015626,0.00011855,0.00000440
 ,0.00001901,-0.00009215,-0.00000166,-0.00004132,0.00000795,-0.00000221
 ,0.00015289,0.00014183,0.00000132,-0.00219872,0.00141554,0.00017263,0.
 00002434,0.00002491,-0.00000168,-0.00423963,-0.00202074,0.00001576,0.0
 6047819,0.00008190,0.00034824,-0.00010050,0.00000728,-0.00013105,0.000
 01415,-0.00004466,-0.00003856,0.00000871,-0.00012322,-0.00007982,0.000
 08154,0.00120982,-0.00038393,-0.00019874,0.00060412,-0.00005488,-0.000
 03136,0.00015138,0.00000832,0.00000780,-0.00044719,-0.01081505,0.00033
 448,0.00394865,-0.35749994,0.01270965,-0.00259289,-0.01196002,0.000749
 85,-0.00156754,0.00067540,-0.00022883,0.00163167,0.00101088,-0.0005480
 8,-0.00001345,0.00003020,0.00000545,0.00000151,-0.00002378,0.00000207,
 0.00000370,-0.00000206,0.00000110,0.00000087,0.00006726,0.00000638,0.0
 0156804,0.00063630,-0.00001883,-0.00000261,-0.00002022,0.00000504,-0.0
 0155383,0.00049584,0.00028758,-0.00267737,0.37757819,-0.00004119,0.000
 00437,-0.00024915,-0.00009218,0.00010819,-0.00034401,0.00008954,-0.000
 17335,0.00005720,-0.00022412,-0.00004751,-0.00013861,0.00035730,-0.000
 22373,-0.00316833,0.00005133,0.00021902,-0.00069442,0.00009295,-0.0000
 2876,0.00013989,-0.00092966,0.00018004,0.00151988,0.00093841,0.0126352
 5,-0.03089269,-0.00080064,0.00120112,-0.00129598,0.00069006,-0.0000644
 5,-0.00204403,-0.00047307,-0.00075321,0.00492547,0.00001307,0.00004357
 ,0.00004477,-0.00000168,-0.00001823,0.00002366,0.00000431,-0.00000711,
 0.00013230,-0.00000404,-0.00000466,0.00011947,0.00016451,-0.00015994,0
 .00131827,-0.00001413,-0.00001575,0.00005232,0.00016328,-0.00012411,0.
 00699694,0.00028883,-0.01360794,0.02279623,0.00087963,0.00048958,-0.00
 004717,-0.00148122,0.00050607,0.00003215,-0.00000947,-0.00149597,0.000
 02431,-0.00103970,-0.00030072,-0.00001930,0.00214683,-0.00147787,-0.00
 006869,-0.00055627,0.00117247,0.00000790,0.00151788,-0.00024981,-0.000
 00207,-0.00454699,0.00023433,0.00067707,0.00392679,-0.00478002,-0.0001
 7811,-0.03973091,0.02090074,-0.00808447,-0.36938919,0.15640557,-0.1005
 9941,0.00643708,0.00342427,0.00047772,0.00051339,0.00075054,0.00002683
 ,0.00000993,-0.00040129,-0.00000654,0.00002049,0.00000799,-0.00000008,
 -0.00003901,0.00002005,-0.00000387,-0.00004910,0.00002661,-0.00001532,
 -0.00022041,-0.00018841,-0.00000489,-0.00015173,-0.00006423,-0.0000783
 0,0.00039528,-0.00009337,-0.00023893,0.40046603,-0.00020850,-0.0001684
 1,0.00006819,0.00038671,-0.00013555,-0.00004361,-0.00002436,0.00045578
 ,0.00000697,0.00032592,0.00011685,-0.00018487,-0.00082067,0.00018457,-
 0.00031883,0.00017252,-0.00041540,0.00008025,-0.00040902,0.00005797,0.
 00000167,0.00068876,0.00112255,0.00076879,-0.00364467,-0.00236203,0.00
 135879,-0.02978363,0.01081383,-0.00892463,0.20638354,-0.13784967,0.070
 48797,0.00091700,-0.00016379,0.00080066,-0.00013659,-0.00023947,0.0000
 0959,-0.00001499,0.00014453,-0.00000166,-0.00000314,0.00000059,0.00000
 562,-0.00001071,-0.00001765,-0.00000577,0.00000690,0.00002211,0.000005
 15,0.00005242,0.00006452,0.00000136,-0.00001097,0.00000975,0.00013643,
 -0.00018007,0.00030765,-0.00004944,-0.17198294,0.13119418,-0.00033251,
 -0.00017451,-0.00011195,0.00050497,-0.00017250,0.00005161,-0.00005505,
 0.00051088,0.00001359,0.00041332,0.00014270,-0.00038297,-0.00084455,0.
 00052600,-0.00058698,0.00027925,-0.00049699,0.00033398,-0.00048786,0.0
 0007694,-0.00001548,0.00231775,0.00026502,0.00257320,-0.00068484,0.001
 23420,0.00285880,0.01099929,-0.00256587,-0.00321143,-0.12036631,0.0640
 0425,-0.03961616,0.00021655,0.00085792,-0.00348190,-0.00014256,-0.0002
 5397,0.00004418,-0.00000835,0.00013422,0.00002300,-0.00000305,0.000000
 38,0.00001235,-0.00000157,-0.00001477,-0.00001331,0.00000971,0.0000174
 1,-0.00002149,0.00006537,0.00006750,0.00000829,-0.00004504,0.00001212,
 0.00012851,-0.00003478,0.00005866,-0.00091845,0.10871146,-0.06285505,0
 .04013299,0.00071736,0.00038391,0.00002976,-0.00115281,0.00043921,0.00
 002914,0.00000428,-0.00115320,-0.00002627,-0.00074786,-0.00032794,0.00
 004770,0.00185116,-0.00071083,-0.00028183,-0.00056181,0.00097320,-0.00
 009321,0.00118638,-0.00020058,-0.00000115,-0.00333209,-0.00116884,0.00
 030349,0.00668675,-0.00052855,0.00158803,-0.00596451,0.00107850,-0.001
 93127,0.00036019,-0.00433110,0.00035760,-0.40993477,0.16804279,0.12515
 965,0.00040836,0.00058768,-0.00000255,0.00001002,-0.00031921,0.0000051
 9,0.00000978,0.00000532,0.00000592,-0.00002500,0.00002506,0.00001130,-
 0.00003922,0.00000175,-0.00000506,-0.00017157,-0.00014755,-0.00000137,
 0.00023129,0.00029422,0.00025070,-0.00007571,-0.00009081,-0.00003429,0
 .00094423,-0.00171449,-0.00052111,0.40963000,-0.00049683,-0.00021858,-
 0.00000392,0.00087082,-0.00026159,-0.00004398,0.00007610,0.00082237,0.
 00000346,0.00045976,0.00026184,0.00001504,-0.00097409,0.00078847,-0.00
 036369,0.00021703,-0.00065011,0.00011559,-0.00087093,0.00012474,0.0000
 1572,0.00086474,0.00040030,-0.00024412,-0.00519946,-0.00505881,0.00087
 768,0.04936514,-0.02387669,-0.01219027,-0.00192924,0.00570647,0.000846
 60,0.12037003,-0.09363441,-0.03305486,-0.00036324,-0.00054995,-0.00001
 071,-0.00002767,0.00032444,0.00000429,-0.00001866,0.00000014,0.0000018
 1,0.00003206,0.00000650,0.00001011,0.00004053,0.00000687,0.00003737,0.
 00012630,0.00012210,0.00000932,0.00048504,0.00044221,0.00027751,0.0011
 8023,-0.00015205,0.00087905,-0.00301153,-0.00310866,-0.00133694,-0.161
 22544,0.11857076,0.00030433,0.00018400,-0.00010471,-0.00050805,0.00023
 551,0.00001915,0.00003757,-0.00057161,-0.00003779,-0.00040630,-0.00014
 759,-0.00005135,0.00094585,-0.00036779,0.00006337,-0.00027744,0.000530
 79,0.00005273,0.00052582,-0.00009612,-0.00000101,-0.00180773,-0.000752
 17,-0.00050970,0.00291947,0.00271436,0.00237446,-0.01054966,0.00829412
 ,-0.00290500,0.00038107,0.00062299,-0.00330870,0.13429321,-0.05401380,
 -0.04416316,0.00016524,0.00025929,-0.00001787,0.00000715,-0.00013917,0
 .00003723,0.00000409,0.00000176,0.00000395,-0.00000380,0.00001282,0.00
 003672,-0.00001694,-0.00003436,0.00011161,-0.00007413,-0.00006669,0.00
 002259,0.00028658,0.00002145,-0.00004899,-0.00071324,0.00046229,0.0016
 3053,-0.00061259,-0.00134725,0.00218359,-0.12488801,0.04415820,0.04462
 330,-0.00019302,0.00005375,0.00000624,0.00034206,0.00029564,0.00000178
 ,0.00137150,0.00212855,0.00003386,-0.00027996,0.00045947,0.00001766,0.
 00013713,-0.00010964,0.00000947,-0.00000076,-0.00014094,-0.00002382,0.
 00003717,-0.00011890,-0.00000345,0.00015534,0.00004420,-0.00001339,-0.
 00013120,-0.00000609,0.00000755,0.00017588,-0.00007439,0.00000237,-0.0
 0009801,-0.00002774,0.00001162,-0.00004232,0.00007193,-0.00001455,0.00
 816766,0.00384044,0.00004613,-0.31263526,-0.09991642,-0.00129766,0.000
 02065,0.00001943,0.00000212,0.00020977,-0.00037220,-0.00000731,0.00000
 806,-0.00002314,-0.00000198,-0.00003662,0.00006630,0.00000096,0.000024
 25,-0.00000375,0.00000057,-0.00000075,-0.00000015,-0.00000070,0.000018
 34,-0.00000214,-0.00000407,0.00001511,-0.00001284,0.00000553,0.3251158
 6,0.00047509,-0.00047224,-0.00001146,-0.00220883,-0.00075301,-0.000011
 49,0.00281178,-0.00529417,-0.00005972,0.00110816,-0.00057828,-0.000017
 41,-0.00057738,0.00034144,0.00000472,0.00005589,0.00006536,0.00000531,
 0.00030772,0.00016113,0.00000296,0.00024298,-0.00012159,-0.00000742,-0
 .00028233,0.00003935,-0.00000030,0.00027850,-0.00017955,0.00000524,-0.
 00015831,-0.00004626,0.00002240,-0.00005281,0.00016282,-0.00002532,-0.
 03673677,-0.02904037,-0.00038399,-0.08433592,-0.07758041,-0.00031085,-
 0.00013968,-0.00009340,-0.00000054,-0.00021182,0.00054330,0.00001496,-
 0.00002424,0.00003563,0.00000113,-0.00020714,-0.00024058,-0.00000469,-
 0.00002635,-0.00000119,0.00000209,0.00000729,0.00000243,0.00000143,0.0
 0002327,-0.00000924,-0.00000935,0.00001914,-0.00001698,0.00000890,0.10
 267132,0.10201750,0.00001198,-0.00000841,-0.00005443,-0.00003054,-0.00
 001345,0.00038222,0.00003253,-0.00007470,0.00060167,0.00001666,-0.0000
 1480,0.00010966,-0.00000726,0.00000093,0.00015663,-0.00000349,0.000003
 20,-0.00002219,0.00000515,0.00000438,-0.00013270,-0.00000293,-0.000000
 22,0.00006019,-0.00000180,0.00000422,0.00001323,0.00000315,-0.00000353
 ,-0.00001515,-0.00000184,-0.00000144,-0.00000183,0.00000134,0.00000246
 ,0.00000193,-0.00044337,-0.00035502,0.00003227,-0.00110667,-0.00031564
 ,-0.05334609,-0.00000168,-0.00000055,-0.00003171,-0.00000289,0.0000121
 0,-0.00046208,-0.00000045,0.00000109,-0.00001853,-0.00000281,-0.000005
 43,0.00020343,0.00000008,0.00000054,-0.00000890,0.00000012,-0.00000002
 ,-0.00000082,0.00000046,0.00000020,0.00000177,-0.00000084,-0.00000103,
 -0.00000007,0.00133287,0.00068614,0.04845389,0.00021958,-0.00001762,0.
 00001332,0.00034150,-0.00014179,-0.00032211,0.00063654,-0.00096849,0.0
 0128370,0.00010150,0.00085236,0.00016530,-0.00008868,-0.00028385,-0.00
 036795,0.00003846,0.00035896,-0.00006312,-0.00023120,0.00009181,0.0001
 1065,-0.00016632,-0.00001994,-0.00005556,0.00022862,-0.00000931,0.0000
 2678,-0.00029479,0.00013484,0.00000616,0.00017198,0.00004722,-0.000021
 25,0.00006911,-0.00013405,0.00002636,0.00027447,0.00518363,-0.00051033
 ,-0.11894194,0.03470871,-0.10923093,0.00001726,0.00001349,0.00000891,-
 0.00060720,-0.00078660,0.00096925,0.00000237,0.00000275,0.00004498,0.0
 0011114,-0.00021452,-0.00014469,-0.00001223,0.00000095,0.00000366,-0.0
 0000781,-0.00000098,-0.00000206,-0.00003101,0.00000633,0.00000551,-0.0
 0002398,0.00002192,-0.00001019,-0.01117993,0.00879429,-0.02579081,0.12
 043699,0.00047039,0.00005567,0.00002748,0.00047245,-0.00165279,-0.0008
 7139,0.00616511,0.00464929,0.00169621,-0.00065702,0.00067821,-0.000330
 33,-0.00057231,-0.00004781,-0.00018578,-0.00030211,0.00022786,-0.00013
 896,-0.00084859,-0.00032105,-0.00010105,0.00038797,-0.00012233,-0.0000
 7004,-0.00042138,0.00004132,0.00002417,0.00044253,-0.00024377,0.000006
 45,-0.00026535,-0.00008558,0.00003439,-0.00008324,0.00022959,-0.000041
 81,0.01715163,-0.03277331,0.02867062,0.03093017,-0.06756581,0.05532505
 ,-0.00002199,-0.00001073,0.00007211,-0.00075699,-0.00036762,0.00083414
 ,-0.00001984,0.00001382,0.00004296,-0.00041240,0.00090514,0.00033233,-
 0.00000760,-0.00000210,0.00002133,0.00000168,0.00000039,0.00000260,0.0
 0004195,-0.00001271,-0.00001299,0.00003434,-0.00002393,0.00001385,-0.0
 0444159,0.00566410,-0.01000413,-0.04234288,0.08526204,-0.00012421,-0.0
 0005638,-0.00005225,0.00017806,0.00049141,-0.00023404,-0.00070886,-0.0
 0084523,0.00066130,-0.00082309,0.00099185,-0.00013640,0.00036495,-0.00
 037582,-0.00013440,-0.00000201,-0.00005370,-0.00005148,0.00017725,-0.0
 0019037,0.00001078,0.00000566,0.00009527,0.00002879,0.00003608,-0.0000
 3175,-0.00002118,-0.00000217,0.00006918,0.00000841,-0.00001327,-0.0000
 1119,0.00000116,-0.00000335,-0.00005552,0.00001031,0.00312526,0.002216
 53,0.00783915,-0.10944371,0.06119733,-0.24291294,0.00000995,0.00000455
 ,0.00001541,0.00055639,-0.00024083,-0.00000985,0.00001679,-0.00005634,
 0.00000870,-0.00001629,-0.00008843,0.00000555,0.00004925,0.00000504,-0
 .00002132,-0.00000913,-0.00000379,-0.00000641,0.00000622,0.00000554,-0
 .00000018,0.00000305,0.00000537,-0.00000594,0.00178765,-0.00098407,0.0
 0190246,0.11939261,-0.06901392,0.25234268,0.00026398,-0.00003574,0.000
 00118,0.00032247,-0.00014633,0.00032480,0.00062647,-0.00090850,-0.0013
 3506,0.00012361,0.00081704,-0.00016002,-0.00008965,-0.00030607,0.00032
 614,0.00000763,0.00037070,0.00012335,-0.00022852,0.00009551,-0.0001078
 3,-0.00019516,-0.00000958,0.00010010,0.00022890,-0.00000651,-0.0000249
 3,-0.00028624,0.00013716,-0.00003194,0.00017303,0.00004742,-0.00001870
 ,0.00007098,-0.00013319,0.00002856,0.00028343,0.00517929,0.00060882,-0
 .11901632,0.03210838,0.11009034,0.00001741,0.00001302,-0.00000961,-0.0
 0060599,-0.00074921,-0.00098227,0.00000274,0.00000530,-0.00004570,0.00
 011109,-0.00021747,0.00013973,-0.00001013,0.00000279,-0.00000765,-0.00
 000750,-0.00000088,0.00000307,-0.00003089,0.00000679,0.00000848,-0.000
 02558,0.00002023,-0.00000781,-0.01120096,0.00816615,0.02599304,0.00893
 559,-0.00494493,-0.01456307,0.12052962,0.00047533,0.00004219,-0.000003
 83,0.00046725,-0.00166789,0.00082185,0.00614331,0.00467105,-0.00156267
 ,-0.00066913,0.00067335,0.00033607,-0.00056458,-0.00006149,0.00016854,
 -0.00030681,0.00022653,0.00014968,-0.00084833,-0.00032851,0.00009000,0
 .00038338,-0.00011899,0.00007186,-0.00042346,0.00004228,-0.00002114,0.
 00044747,-0.00024451,-0.00000550,-0.00026694,-0.00008590,0.00003873,-0
 .00008095,0.00023255,-0.00003783,0.01723188,-0.03201991,-0.02964151,0.
 02833695,-0.06482764,-0.05101531,-0.00002066,-0.00000865,-0.00007241,-
 0.00073800,-0.00034394,-0.00083594,-0.00001926,0.00001445,-0.00004033,
 -0.00041227,0.00091325,-0.00030909,-0.00000285,-0.00000118,-0.00001508
 ,0.00000127,0.00000027,0.00000355,0.00004271,-0.00001231,-0.00001530,0
 .00003341,-0.00002545,0.00001623,-0.00440110,0.00539420,0.01008309,-0.
 00529724,0.00550210,0.00692528,-0.03951136,0.08203414,0.00008494,0.000
 07508,-0.00004659,-0.00014769,-0.00053004,-0.00021188,0.00086613,0.000
 92116,0.00060304,0.00079215,-0.00093263,-0.00017247,-0.00037858,0.0003
 8939,-0.00012586,0.00003010,0.00004706,-0.00002778,-0.00020020,0.00018
 239,0.00001773,0.00003290,-0.00010716,0.00005105,-0.00004543,0.0000282
 7,-0.00002070,0.00000063,-0.00007401,0.00000730,0.00000335,0.00000721,
 0.00000437,0.00000448,0.00006038,0.00000304,-0.00272297,-0.00319543,0.
 00707483,0.11021811,-0.05685559,-0.24544713,-0.00001050,-0.00000467,0.
 00001295,-0.00057613,0.00022943,-0.00001792,-0.00001749,0.00005559,0.0
 0001203,0.00000581,0.00010999,0.00000029,-0.00004875,-0.00000514,-0.00
 002169,0.00000874,0.00000332,-0.00000403,-0.00000437,-0.00000608,-0.00
 000554,-0.00000458,-0.00000759,-0.00000495,-0.00189946,0.00107133,0.00
 217513,0.01446180,-0.00633330,-0.01924832,-0.12045301,0.06487105,0.255
 39308\\0.00000575,-0.00001337,-0.00000036,0.00000766,0.00000311,0.0000
 0060,-0.00000295,-0.00001607,-0.00000441,-0.00001758,0.00002180,0.0000
 0356,0.00000282,0.00000120,-0.00000051,-0.00000884,-0.00001444,-0.0000
 0123,0.00000539,-0.00000874,0.00000022,-0.00001025,0.00001770,0.000001
 53,0.00000993,-0.00001835,0.00000427,0.00000718,0.00000705,-0.00000515
 ,-0.00000843,-0.00001501,0.00000293,0.00000480,0.00001205,-0.00000596,
 0.00000074,0.00005557,0.00000487,0.00001750,-0.00006224,-0.00000383,-0
 .00000458,0.00000427,0.00000013,0.00000604,-0.00000307,-0.00000102,0.0
 0000622,0.00000371,0.00000005,-0.00000449,-0.00000146,-0.00000058,0.00
 000198,-0.00000586,-0.00000053,-0.00000099,0.00000889,0.00000021,-0.00
 000449,0.00000703,0.00000197,-0.00000328,0.00000361,0.00000391,-0.0000
 0706,0.00000094,-0.00000037,-0.00000209,0.00000550,0.00000501,-0.00000
 098,0.00000619,-0.00000532\\\@


 I CLAIM NOT TO HAVE CONTROLLED EVENTS,
 BUT CONFESS PLAINLY THAT EVENTS HAVE CONTROLLED ME.

                                         A. LINCOLN
 Job cpu time:       0 days 18 hours  1 minutes  2.5 seconds.
 File lengths (MBytes):  RWF=  53169 Int=      0 D2E=      0 Chk=     12 Scr=      1
 Normal termination of Gaussian 09 at Wed Dec 18 21:56:30 2024.
