 Entering Gaussian System, Link 0=g09
 Input=b3lypFA.gjf
 Output=b3lypFA.log
 Initial command:
 /home/phzd/g09E/g09/l1.exe "/home/phzd/g09E/scratch/Gau-560320.inp" -scrdir="/home/phzd/g09E/scratch/"
 Default is to use a total of  18 processors:
                               18 via shared-memory
                                1 via Linda
 Entering Link 1 = /home/phzd/g09E/g09/l1.exe PID=    560322.
  
 Copyright (c) 1988,1990,1992,1993,1995,1998,2003,2009,2015,
            Gaussian, Inc.  All Rights Reserved.
  
 This is part of the Gaussian(R) 09 program.  It is based on
 the Gaussian(R) 03 system (copyright 2003, Gaussian, Inc.),
 the Gaussian(R) 98 system (copyright 1998, Gaussian, Inc.),
 the Gaussian(R) 94 system (copyright 1995, Gaussian, Inc.),
 the Gaussian 92(TM) system (copyright 1992, Gaussian, Inc.),
 the Gaussian 90(TM) system (copyright 1990, Gaussian, Inc.),
 the Gaussian 88(TM) system (copyright 1988, Gaussian, Inc.),
 the Gaussian 86(TM) system (copyright 1986, Carnegie Mellon
 University), and the Gaussian 82(TM) system (copyright 1983,
 Carnegie Mellon University). Gaussian is a federally registered
 trademark of Gaussian, Inc.
  
 This software contains proprietary and confidential information,
 including trade secrets, belonging to Gaussian, Inc.
  
 This software is provided under written license and may be
 used, copied, transmitted, or stored only in accord with that
 written license.
  
 The following legend is applicable only to US Government
 contracts under FAR:
  
                    RESTRICTED RIGHTS LEGEND
  
 Use, reproduction and disclosure by the US Government is
 subject to restrictions as set forth in subparagraphs (a)
 and (c) of the Commercial Computer Software - Restricted
 Rights clause in FAR 52.227-19.
  
 Gaussian, Inc.
 340 Quinnipiac St., Bldg. 40, Wallingford CT 06492
  
  
 ---------------------------------------------------------------
 Warning -- This program may not be used in any manner that
 competes with the business of Gaussian, Inc. or will provide
 assistance to any competitor of Gaussian, Inc.  The licensee
 of this program is prohibited from giving any competitor of
 Gaussian, Inc. access to this program.  By using this program,
 the user acknowledges that Gaussian, Inc. is engaged in the
 business of creating and licensing software in the field of
 computational chemistry and represents and warrants to the
 licensee that it is not a competitor of Gaussian, Inc. and that
 it will not use this program in any manner prohibited above.
 ---------------------------------------------------------------
  

 Cite this work as:
 Gaussian 09, Revision E.01,
 M. J. Frisch, G. W. Trucks, H. B. Schlegel, G. E. Scuseria, 
 M. A. Robb, J. R. Cheeseman, G. Scalmani, V. Barone, B. Mennucci, 
 G. A. Petersson, H. Nakatsuji, M. Caricato, X. Li, H. P. Hratchian, 
 A. F. Izmaylov, J. Bloino, G. Zheng, J. L. Sonnenberg, M. Hada, 
 M. Ehara, K. Toyota, R. Fukuda, J. Hasegawa, M. Ishida, T. Nakajima, 
 Y. Honda, O. Kitao, H. Nakai, T. Vreven, J. A. Montgomery, Jr., 
 J. E. Peralta, F. Ogliaro, M. Bearpark, J. J. Heyd, E. Brothers, 
 K. N. Kudin, V. N. Staroverov, T. Keith, R. Kobayashi, J. Normand, 
 K. Raghavachari, A. Rendell, J. C. Burant, S. S. Iyengar, J. Tomasi, 
 M. Cossi, N. Rega, J. M. Millam, M. Klene, J. E. Knox, J. B. Cross, 
 V. Bakken, C. Adamo, J. Jaramillo, R. Gomperts, R. E. Stratmann, 
 O. Yazyev, A. J. Austin, R. Cammi, C. Pomelli, J. W. Ochterski, 
 R. L. Martin, K. Morokuma, V. G. Zakrzewski, G. A. Voth, 
 P. Salvador, J. J. Dannenberg, S. Dapprich, A. D. Daniels, 
 O. Farkas, J. B. Foresman, J. V. Ortiz, J. Cioslowski, 
 and D. J. Fox, Gaussian, Inc., Wallingford CT, 2013.
 
 ******************************************
 Gaussian 09:  ES64L-G09RevE.01 30-Nov-2015
                28-May-2024 
 ******************************************
 %chk=b3lypFA.chk
 -------------------------------------
 # opt freq b3lyp/6-31+g(d,p) em=gd3bj
 -------------------------------------
 1/14=-1,18=20,19=15,26=3,38=1/1,3;
 2/9=110,12=2,17=6,18=5,40=1/2;
 3/5=1,6=6,7=111,11=2,16=1,25=1,30=1,71=1,74=-5,124=41/1,2,3;
 4//1;
 5/5=2,38=5/2;
 6/7=2,8=2,9=2,10=2,28=1/1;
 7//1,2,3,16;
 1/14=-1,18=20,19=15,26=3/3(2);
 2/9=110/2;
 99//99;
 2/9=110/2;
 3/5=1,6=6,7=111,11=2,16=1,25=1,30=1,71=1,74=-5,124=41/1,2,3;
 4/5=5,16=3,69=1/1;
 5/5=2,38=5/2;
 7//1,2,3,16;
 1/14=-1,18=20,19=15,26=3/3(-5);
 2/9=110/2;
 6/7=2,8=2,9=2,10=2,19=2,28=1/1;
 99/9=1/99;
 ----------
 [No Title]
 ----------
 Symbolic Z-matrix:
 Charge =  0 Multiplicity = 1
 C                    -2.38468   0.48154   0.00124 
 C                    -2.32874  -0.85883   0.0007 
 C                    -1.12872  -1.47468  -0.00042 
 C                    -0.02803  -0.69434  -0.00078 
 C                    -0.05756   0.65516  -0.00032 
 C                    -1.27352   1.23033   0.00073 
 O                    -3.47194  -1.59863   0.00123 
 C                     1.10515   1.34425  -0.00095 
 C                     1.26445   2.68093  -0.0007 
 O                    -1.12558  -2.8502   -0.00079 
 C                     0.10166  -3.54076   0.00003 
 C                     2.47603   3.3063   -0.00147 
 O                     2.51456   4.52306  -0.00115 
 O                     3.64243   2.61238  -0.0026 
 H                    -3.37186   0.9747    0.00213 
 H                     0.95655  -1.18827  -0.00158 
 H                    -1.41577   2.3216    0.00123 
 H                    -3.23867  -2.54127   0.0007 
 H                     2.02858   0.74076  -0.00179 
 H                     0.38781   3.34839   0.00015 
 H                    -0.12306  -4.631     0.0002 
 H                     0.6782   -3.30684  -0.92258 
 H                     0.67725  -3.3063    0.92308 
 H                     3.47241   1.65871  -0.00285 
 

 GradGradGradGradGradGradGradGradGradGradGradGradGradGradGradGradGradGrad
 Berny optimization.
 Initialization pass.
                           ----------------------------
                           !    Initial Parameters    !
                           ! (Angstroms and Degrees)  !
 --------------------------                            --------------------------
 ! Name  Definition              Value          Derivative Info.                !
 --------------------------------------------------------------------------------
 ! R1    R(1,2)                  1.3415         estimate D2E/DX2                !
 ! R2    R(1,6)                  1.3399         estimate D2E/DX2                !
 ! R3    R(1,15)                 1.1035         estimate D2E/DX2                !
 ! R4    R(2,3)                  1.3488         estimate D2E/DX2                !
 ! R5    R(2,7)                  1.3617         estimate D2E/DX2                !
 ! R6    R(3,4)                  1.3492         estimate D2E/DX2                !
 ! R7    R(3,10)                 1.3755         estimate D2E/DX2                !
 ! R8    R(4,5)                  1.3498         estimate D2E/DX2                !
 ! R9    R(4,16)                 1.1015         estimate D2E/DX2                !
 ! R10   R(5,6)                  1.3451         estimate D2E/DX2                !
 ! R11   R(5,8)                  1.3516         estimate D2E/DX2                !
 ! R12   R(6,17)                 1.1005         estimate D2E/DX2                !
 ! R13   R(7,18)                 0.9711         estimate D2E/DX2                !
 ! R14   R(8,9)                  1.3461         estimate D2E/DX2                !
 ! R15   R(8,19)                 1.1031         estimate D2E/DX2                !
 ! R16   R(9,12)                 1.3635         estimate D2E/DX2                !
 ! R17   R(9,20)                 1.1018         estimate D2E/DX2                !
 ! R18   R(10,11)                1.4082         estimate D2E/DX2                !
 ! R19   R(11,21)                1.1132         estimate D2E/DX2                !
 ! R20   R(11,22)                1.1128         estimate D2E/DX2                !
 ! R21   R(11,23)                1.1128         estimate D2E/DX2                !
 ! R22   R(12,13)                1.2174         estimate D2E/DX2                !
 ! R23   R(12,14)                1.3572         estimate D2E/DX2                !
 ! R24   R(14,24)                0.9687         estimate D2E/DX2                !
 ! A1    A(2,1,6)              121.5855         estimate D2E/DX2                !
 ! A2    A(2,1,15)             118.9345         estimate D2E/DX2                !
 ! A3    A(6,1,15)             119.48           estimate D2E/DX2                !
 ! A4    A(1,2,3)              119.5564         estimate D2E/DX2                !
 ! A5    A(1,2,7)              120.5185         estimate D2E/DX2                !
 ! A6    A(3,2,7)              119.9251         estimate D2E/DX2                !
 ! A7    A(2,3,4)              117.498          estimate D2E/DX2                !
 ! A8    A(2,3,10)             117.2975         estimate D2E/DX2                !
 ! A9    A(4,3,10)             125.2045         estimate D2E/DX2                !
 ! A10   A(3,4,5)              124.0818         estimate D2E/DX2                !
 ! A11   A(3,4,16)             118.0234         estimate D2E/DX2                !
 ! A12   A(5,4,16)             117.8948         estimate D2E/DX2                !
 ! A13   A(4,5,6)              116.5684         estimate D2E/DX2                !
 ! A14   A(4,5,8)              119.4            estimate D2E/DX2                !
 ! A15   A(6,5,8)              124.0316         estimate D2E/DX2                !
 ! A16   A(1,6,5)              120.7099         estimate D2E/DX2                !
 ! A17   A(1,6,17)             116.5481         estimate D2E/DX2                !
 ! A18   A(5,6,17)             122.7419         estimate D2E/DX2                !
 ! A19   A(2,7,18)             109.0089         estimate D2E/DX2                !
 ! A20   A(5,8,9)              127.4498         estimate D2E/DX2                !
 ! A21   A(5,8,19)             116.181          estimate D2E/DX2                !
 ! A22   A(9,8,19)             116.3692         estimate D2E/DX2                !
 ! A23   A(8,9,12)             124.0971         estimate D2E/DX2                !
 ! A24   A(8,9,20)             120.4889         estimate D2E/DX2                !
 ! A25   A(12,9,20)            115.414          estimate D2E/DX2                !
 ! A26   A(3,10,11)            119.4967         estimate D2E/DX2                !
 ! A27   A(10,11,21)           107.7195         estimate D2E/DX2                !
 ! A28   A(10,11,22)           110.363          estimate D2E/DX2                !
 ! A29   A(10,11,23)           110.362          estimate D2E/DX2                !
 ! A30   A(21,11,22)           108.0949         estimate D2E/DX2                !
 ! A31   A(21,11,23)           108.0979         estimate D2E/DX2                !
 ! A32   A(22,11,23)           112.0521         estimate D2E/DX2                !
 ! A33   A(9,12,13)            119.1145         estimate D2E/DX2                !
 ! A34   A(9,12,14)            121.9497         estimate D2E/DX2                !
 ! A35   A(13,12,14)           118.9359         estimate D2E/DX2                !
 ! A36   A(12,14,24)           110.6415         estimate D2E/DX2                !
 ! D1    D(6,1,2,3)             -0.0015         estimate D2E/DX2                !
 ! D2    D(6,1,2,7)           -179.9997         estimate D2E/DX2                !
 ! D3    D(15,1,2,3)           179.9985         estimate D2E/DX2                !
 ! D4    D(15,1,2,7)             0.0002         estimate D2E/DX2                !
 ! D5    D(2,1,6,5)             -0.0016         estimate D2E/DX2                !
 ! D6    D(2,1,6,17)           179.9994         estimate D2E/DX2                !
 ! D7    D(15,1,6,5)           179.9984         estimate D2E/DX2                !
 ! D8    D(15,1,6,17)           -0.0006         estimate D2E/DX2                !
 ! D9    D(1,2,3,4)              0.0075         estimate D2E/DX2                !
 ! D10   D(1,2,3,10)           179.9932         estimate D2E/DX2                !
 ! D11   D(7,2,3,4)           -179.9943         estimate D2E/DX2                !
 ! D12   D(7,2,3,10)            -0.0085         estimate D2E/DX2                !
 ! D13   D(1,2,7,18)           179.9995         estimate D2E/DX2                !
 ! D14   D(3,2,7,18)             0.0013         estimate D2E/DX2                !
 ! D15   D(2,3,4,5)             -0.0112         estimate D2E/DX2                !
 ! D16   D(2,3,4,16)           179.9936         estimate D2E/DX2                !
 ! D17   D(10,3,4,5)          -179.9957         estimate D2E/DX2                !
 ! D18   D(10,3,4,16)            0.0091         estimate D2E/DX2                !
 ! D19   D(2,3,10,11)         -179.9078         estimate D2E/DX2                !
 ! D20   D(4,3,10,11)            0.0768         estimate D2E/DX2                !
 ! D21   D(3,4,5,6)              0.0082         estimate D2E/DX2                !
 ! D22   D(3,4,5,8)           -179.9905         estimate D2E/DX2                !
 ! D23   D(16,4,5,6)          -179.9966         estimate D2E/DX2                !
 ! D24   D(16,4,5,8)             0.0047         estimate D2E/DX2                !
 ! D25   D(4,5,6,1)             -0.0016         estimate D2E/DX2                !
 ! D26   D(4,5,6,17)           179.9974         estimate D2E/DX2                !
 ! D27   D(8,5,6,1)            179.9971         estimate D2E/DX2                !
 ! D28   D(8,5,6,17)            -0.004          estimate D2E/DX2                !
 ! D29   D(4,5,8,9)            179.9961         estimate D2E/DX2                !
 ! D30   D(4,5,8,19)            -0.0013         estimate D2E/DX2                !
 ! D31   D(6,5,8,9)             -0.0025         estimate D2E/DX2                !
 ! D32   D(6,5,8,19)          -179.9999         estimate D2E/DX2                !
 ! D33   D(5,8,9,12)          -179.9951         estimate D2E/DX2                !
 ! D34   D(5,8,9,20)             0.0035         estimate D2E/DX2                !
 ! D35   D(19,8,9,12)            0.0022         estimate D2E/DX2                !
 ! D36   D(19,8,9,20)         -179.9991         estimate D2E/DX2                !
 ! D37   D(8,9,12,13)         -179.9992         estimate D2E/DX2                !
 ! D38   D(8,9,12,14)            0.0014         estimate D2E/DX2                !
 ! D39   D(20,9,12,13)           0.0021         estimate D2E/DX2                !
 ! D40   D(20,9,12,14)        -179.9973         estimate D2E/DX2                !
 ! D41   D(3,10,11,21)         179.9647         estimate D2E/DX2                !
 ! D42   D(3,10,11,22)         -62.2352         estimate D2E/DX2                !
 ! D43   D(3,10,11,23)          62.1616         estimate D2E/DX2                !
 ! D44   D(9,12,14,24)           0.0063         estimate D2E/DX2                !
 ! D45   D(13,12,14,24)       -179.9932         estimate D2E/DX2                !
 --------------------------------------------------------------------------------
 Trust Radius=3.00D-01 FncErr=1.00D-07 GrdErr=1.00D-06
 Number of steps in this run=    115 maximum allowed number of steps=    144.
 GradGradGradGradGradGradGradGradGradGradGradGradGradGradGradGradGradGrad

                          Input orientation:                          
 ---------------------------------------------------------------------
 Center     Atomic      Atomic             Coordinates (Angstroms)
 Number     Number       Type             X           Y           Z
 ---------------------------------------------------------------------
      1          6           0       -2.384676    0.481541    0.001238
      2          6           0       -2.328740   -0.858833    0.000696
      3          6           0       -1.128715   -1.474682   -0.000419
      4          6           0       -0.028031   -0.694336   -0.000783
      5          6           0       -0.057558    0.655159   -0.000321
      6          6           0       -1.273516    1.230327    0.000728
      7          8           0       -3.471938   -1.598631    0.001227
      8          6           0        1.105148    1.344247   -0.000945
      9          6           0        1.264450    2.680930   -0.000698
     10          8           0       -1.125576   -2.850204   -0.000791
     11          6           0        0.101657   -3.540755    0.000025
     12          6           0        2.476033    3.306296   -0.001469
     13          8           0        2.514562    4.523055   -0.001146
     14          8           0        3.642426    2.612378   -0.002599
     15          1           0       -3.371857    0.974697    0.002125
     16          1           0        0.956550   -1.188266   -0.001584
     17          1           0       -1.415771    2.321605    0.001228
     18          1           0       -3.238673   -2.541268    0.000701
     19          1           0        2.028580    0.740763   -0.001794
     20          1           0        0.387811    3.348392    0.000148
     21          1           0       -0.123059   -4.630997    0.000197
     22          1           0        0.678196   -3.306844   -0.922581
     23          1           0        0.677254   -3.306302    0.923084
     24          1           0        3.472414    1.658711   -0.002849
 ---------------------------------------------------------------------
                    Distance matrix (angstroms):
                    1          2          3          4          5
     1  C    0.000000
     2  C    1.341541   0.000000
     3  C    2.324704   1.348826   0.000000
     4  C    2.633717   2.306583   1.349239   0.000000
     5  C    2.333586   2.729550   2.384030   1.349818   0.000000
     6  C    1.339909   2.340531   2.708882   2.292501   1.345129
     7  O    2.347180   1.361691   2.346500   3.560653   4.091157
     8  C    3.594877   4.079847   3.596735   2.332363   1.351565
     9  C    4.260685   5.043901   4.795451   3.614267   2.418978
    10  O    3.561722   2.326621   1.375526   2.419168   3.664455
    11  C    4.728712   3.619328   2.404677   2.849372   4.198934
    12  C    5.621898   6.358785   5.987651   4.719681   3.667099
    13  O    6.351092   7.240324   7.017572   5.803960   4.645043
    14  O    6.392686   6.906818   6.282344   4.940305   4.185761
    15  H    1.103508   2.109485   3.321318   3.737225   3.329668
    16  H    3.735245   3.301766   2.104843   1.101529   2.103956
    17  H    2.079570   3.308882   3.807125   3.319899   2.149834
    18  H    3.141128   1.912738   2.364219   3.703968   4.509616
    19  H    4.420863   4.641654   3.857034   2.507820   2.087894
    20  H    3.988173   5.008033   5.055877   4.064059   2.729809
    21  H    5.590434   4.369697   3.312653   3.937808   5.286562
    22  H    4.958476   3.985833   2.733519   2.858962   4.133929
    23  H    4.957113   3.984583   2.732986   2.858903   4.133497
    24  H    5.974215   6.323878   5.566736   4.217813   3.669854
                    6          7          8          9         10
     6  C    0.000000
     7  O    3.582745   0.000000
     8  C    2.381391   5.441530   0.000000
     9  C    2.923273   6.383417   1.346142   0.000000
    10  O    4.083212   2.659296   4.750742   6.025418   0.000000
    11  C    4.965312   4.067238   4.987007   6.329412   1.408177
    12  C    4.285880   7.709518   2.393525   1.363458   7.132607
    13  O    5.019123   8.562314   3.477250   2.226254   8.222868
    14  O    5.106521   8.267212   2.836536   2.378965   7.250769
    15  H    2.113855   2.575274   4.492232   4.940302   4.435725
    16  H    3.289801   4.447461   2.536869   3.881428   2.664073
    17  H    1.100511   4.426745   2.703750   2.704201   5.179945
    18  H    4.252854   0.971070   5.828037   6.895612   2.135561
    19  H    3.338191   5.977330   1.103141   2.085220   4.779513
    20  H    2.691878   6.274608   2.128655   1.101818   6.380669
    21  H    5.973163   4.517769   6.100167   7.442409   2.043591
    22  H    5.024699   4.582033   4.760709   6.086625   2.076490
    23  H    5.023669   4.580585   4.760728   6.086470   2.076479
    24  H    4.765226   7.670353   2.388062   2.433114   6.439863
                   11         12         13         14         15
    11  C    0.000000
    12  C    7.247053   0.000000
    13  O    8.417075   1.217369   0.000000
    14  O    7.099162   1.357202   2.218731   0.000000
    15  H    5.696895   6.295569   6.873193   7.202929   0.000000
    16  H    2.503008   4.744462   5.920016   4.653904   4.838753
    17  H    6.055564   4.014444   4.504876   5.066549   2.374960
    18  H    3.486657   8.176300   9.110674   8.597069   3.518487
    19  H    4.695150   2.604261   3.813386   2.471324   5.405503
    20  H    6.895087   2.088647   2.429589   3.336801   4.446295
    21  H    1.113160   8.352000   9.526474   8.163661   6.479082
    22  H    1.112795   6.914787   8.094974   6.683578   5.965702
    23  H    1.112797   6.914973   8.094982   6.684303   5.964094
    24  H    6.196488   1.925438   3.020257   0.968703   6.878368
                   16         17         18         19         20
    16  H    0.000000
    17  H    4.236403   0.000000
    18  H    4.408006   5.193314   0.000000
    19  H    2.206899   3.789805   6.206101   0.000000
    20  H    4.572169   2.075380   6.916609   3.080886   0.000000
    21  H    3.608040   7.071759   3.751535   5.786654   7.995726
    22  H    2.326820   6.075982   4.096391   4.365147   6.725171
    23  H    2.327895   6.074859   4.095186   4.365801   6.724622
    24  H    3.799322   4.932930   7.916977   1.710931   3.517074
                   21         22         23         24
    21  H    0.000000
    22  H    1.801918   0.000000
    23  H    1.801954   1.845665   0.000000
    24  H    7.244851   5.771507   5.772489   0.000000
 Stoichiometry    C10H10O4
 Framework group  C1[X(C10H10O4)]
 Deg. of freedom    66
 Full point group                 C1      NOp   1
 Largest Abelian subgroup         C1      NOp   1
 Largest concise Abelian subgroup C1      NOp   1
                         Standard orientation:                         
 ---------------------------------------------------------------------
 Center     Atomic      Atomic             Coordinates (Angstroms)
 Number     Number       Type             X           Y           Z
 ---------------------------------------------------------------------
      1          6           0        1.365924   -1.948183    0.000255
      2          6           0        2.379699   -1.069553   -0.000108
      3          6           0        2.114044    0.252854   -0.000471
      4          6           0        0.817980    0.627903   -0.000293
      5          6           0       -0.219380   -0.235748    0.000004
      6          6           0        0.088024   -1.545280    0.000296
      7          8           0        3.670521   -1.503118   -0.000148
      8          6           0       -1.482682    0.244665   -0.000033
      9          6           0       -2.627633   -0.463279    0.000158
     10          8           0        3.188202    1.112072   -0.000690
     11          6           0        2.964043    2.502292    0.000901
     12          6           0       -3.871527    0.095062    0.000010
     13          8           0       -4.847433   -0.632671    0.000221
     14          8           0       -4.055158    1.439783   -0.000379
     15          1           0        1.594992   -3.027655    0.000525
     16          1           0        0.591137    1.705822   -0.000478
     17          1           0       -0.677110   -2.336288    0.000595
     18          1           0        4.262683   -0.733494   -0.000437
     19          1           0       -1.585730    1.342982   -0.000289
     20          1           0       -2.603782   -1.564839    0.000431
     21          1           0        3.956940    3.005562    0.001065
     22          1           0        2.421693    2.808116   -0.921401
     23          1           0        2.422353    2.806092    0.924263
     24          1           0       -3.203181    1.900782   -0.000621
 ---------------------------------------------------------------------
 Rotational constants (GHZ):      1.5764395      0.3091384      0.2589101
 Standard basis: 6-31+G(d,p) (6D, 7F)
 There are   316 symmetry adapted cartesian basis functions of A   symmetry.
 There are   316 symmetry adapted basis functions of A   symmetry.
   316 basis functions,   518 primitive gaussians,   316 cartesian basis functions
    51 alpha electrons       51 beta electrons
       nuclear repulsion energy       844.9184505819 Hartrees.
 NAtoms=   24 NActive=   24 NUniq=   24 SFac= 1.00D+00 NAtFMM=   60 NAOKFM=F Big=F
 Integral buffers will be    131072 words long.
 Raffenetti 2 integral format.
 Two-electron integral symmetry is turned on.
 Nuclear repulsion after empirical dispersion term =      844.8739827147 Hartrees.
 One-electron integrals computed using PRISM.
 NBasis=   316 RedAO= T EigKep=  1.47D-06  NBF=   316
 NBsUse=   314 1.00D-06 EigRej=  8.43D-07 NBFU=   314
 ExpMin= 4.38D-02 ExpMax= 5.48D+03 ExpMxC= 8.25D+02 IAcc=2 IRadAn=         4 AccDes= 0.00D+00
 Harris functional with IExCor=  402 and IRadAn=       4 diagonalized for initial guess.
 HarFok:  IExCor=  402 AccDes= 0.00D+00 IRadAn=         4 IDoV= 1 UseB2=F ITyADJ=14
 ICtDFT=  3500011 ScaDFX=  1.000000  1.000000  1.000000  1.000000
 FoFCou: FMM=F IPFlag=           0 FMFlag=      100000 FMFlg1=           0
         NFxFlg=           0 DoJE=T BraDBF=F KetDBF=T FulRan=T
         wScrn=  0.000000 ICntrl=     500 IOpCl=  0 I1Cent=   200000004 NGrid=           0
         NMat0=    1 NMatS0=      1 NMatT0=    0 NMatD0=    1 NMtDS0=    0 NMtDT0=    0
 Petite list used in FoFCou.
 Requested convergence on RMS density matrix=1.00D-08 within 128 cycles.
 Requested convergence on MAX density matrix=1.00D-06.
 Requested convergence on             energy=1.00D-06.
 No special actions if energy rises.
 SCF Done:  E(RB3LYP) =  -688.010831763     A.U. after   16 cycles
            NFock= 16  Conv=0.41D-08     -V/T= 2.0073

 **********************************************************************

            Population analysis using the SCF density.

 **********************************************************************

 Orbital symmetries:
       Occupied  (A) (A) (A) (A) (A) (A) (A) (A) (A) (A) (A) (A)
                 (A) (A) (A) (A) (A) (A) (A) (A) (A) (A) (A) (A)
                 (A) (A) (A) (A) (A) (A) (A) (A) (A) (A) (A) (A)
                 (A) (A) (A) (A) (A) (A) (A) (A) (A) (A) (A) (A)
                 (A) (A) (A)
       Virtual   (A) (A) (A) (A) (A) (A) (A) (A) (A) (A) (A) (A)
                 (A) (A) (A) (A) (A) (A) (A) (A) (A) (A) (A) (A)
                 (A) (A) (A) (A) (A) (A) (A) (A) (A) (A) (A) (A)
                 (A) (A) (A) (A) (A) (A) (A) (A) (A) (A) (A) (A)
                 (A) (A) (A) (A) (A) (A) (A) (A) (A) (A) (A) (A)
                 (A) (A) (A) (A) (A) (A) (A) (A) (A) (A) (A) (A)
                 (A) (A) (A) (A) (A) (A) (A) (A) (A) (A) (A) (A)
                 (A) (A) (A) (A) (A) (A) (A) (A) (A) (A) (A) (A)
                 (A) (A) (A) (A) (A) (A) (A) (A) (A) (A) (A) (A)
                 (A) (A) (A) (A) (A) (A) (A) (A) (A) (A) (A) (A)
                 (A) (A) (A) (A) (A) (A) (A) (A) (A) (A) (A) (A)
                 (A) (A) (A) (A) (A) (A) (A) (A) (A) (A) (A) (A)
                 (A) (A) (A) (A) (A) (A) (A) (A) (A) (A) (A) (A)
                 (A) (A) (A) (A) (A) (A) (A) (A) (A) (A) (A) (A)
                 (A) (A) (A) (A) (A) (A) (A) (A) (A) (A) (A) (A)
                 (A) (A) (A) (A) (A) (A) (A) (A) (A) (A) (A) (A)
                 (A) (A) (A) (A) (A) (A) (A) (A) (A) (A) (A) (A)
                 (A) (A) (A) (A) (A) (A) (A) (A) (A) (A) (A) (A)
                 (A) (A) (A) (A) (A) (A) (A) (A) (A) (A) (A) (A)
                 (A) (A) (A) (A) (A) (A) (A) (A) (A) (A) (A) (A)
                 (A) (A) (A) (A) (A) (A) (A) (A) (A) (A) (A) (A)
                 (A) (A) (A) (A) (A) (A) (A) (A) (A) (A) (A)
 The electronic state is 1-A.
 Alpha  occ. eigenvalues --  -19.22168 -19.20668 -19.20008 -19.12842 -10.30897
 Alpha  occ. eigenvalues --  -10.27771 -10.27073 -10.26994 -10.23118 -10.21619
 Alpha  occ. eigenvalues --  -10.20928 -10.20850 -10.20683 -10.20578  -1.11348
 Alpha  occ. eigenvalues --   -1.10316  -1.08047  -1.01439  -0.92196  -0.84956
 Alpha  occ. eigenvalues --   -0.79742  -0.78534  -0.73573  -0.69493  -0.64919
 Alpha  occ. eigenvalues --   -0.62789  -0.60697  -0.59222  -0.56679  -0.53635
 Alpha  occ. eigenvalues --   -0.52251  -0.50765  -0.49635  -0.47152  -0.45742
 Alpha  occ. eigenvalues --   -0.45490  -0.44823  -0.44659  -0.42559  -0.41695
 Alpha  occ. eigenvalues --   -0.39989  -0.39656  -0.38849  -0.37297  -0.36894
 Alpha  occ. eigenvalues --   -0.36773  -0.32435  -0.30730  -0.27434  -0.27017
 Alpha  occ. eigenvalues --   -0.23600
 Alpha virt. eigenvalues --   -0.08713  -0.02380  -0.02288  -0.01344  -0.00076
 Alpha virt. eigenvalues --    0.00611   0.00988   0.02739   0.03138   0.03343
 Alpha virt. eigenvalues --    0.04637   0.05084   0.05498   0.06283   0.06526
 Alpha virt. eigenvalues --    0.07144   0.07609   0.08964   0.09069   0.09211
 Alpha virt. eigenvalues --    0.10125   0.10231   0.11076   0.12388   0.12816
 Alpha virt. eigenvalues --    0.12891   0.13335   0.13419   0.14160   0.14732
 Alpha virt. eigenvalues --    0.15392   0.16121   0.16301   0.16653   0.17937
 Alpha virt. eigenvalues --    0.17969   0.18436   0.18718   0.19788   0.20099
 Alpha virt. eigenvalues --    0.20592   0.21337   0.21551   0.21873   0.22215
 Alpha virt. eigenvalues --    0.22937   0.24079   0.24510   0.24976   0.25528
 Alpha virt. eigenvalues --    0.26126   0.26878   0.27535   0.27538   0.28843
 Alpha virt. eigenvalues --    0.29388   0.29907   0.30167   0.30695   0.31255
 Alpha virt. eigenvalues --    0.31945   0.31990   0.32549   0.33644   0.33696
 Alpha virt. eigenvalues --    0.34562   0.35064   0.35749   0.36662   0.37601
 Alpha virt. eigenvalues --    0.38309   0.38603   0.40162   0.41861   0.42484
 Alpha virt. eigenvalues --    0.43418   0.45755   0.46608   0.50352   0.52353
 Alpha virt. eigenvalues --    0.55451   0.61189   0.63562   0.64702   0.65732
 Alpha virt. eigenvalues --    0.66976   0.67409   0.68454   0.69151   0.69292
 Alpha virt. eigenvalues --    0.70976   0.71707   0.73179   0.73803   0.73979
 Alpha virt. eigenvalues --    0.76869   0.77020   0.78317   0.78615   0.82543
 Alpha virt. eigenvalues --    0.83172   0.83529   0.84170   0.85209   0.88244
 Alpha virt. eigenvalues --    0.88770   0.90386   0.93387   0.96656   0.98670
 Alpha virt. eigenvalues --    0.99938   1.01558   1.02784   1.04862   1.06110
 Alpha virt. eigenvalues --    1.07670   1.08731   1.10177   1.11341   1.13559
 Alpha virt. eigenvalues --    1.14472   1.15774   1.16222   1.17073   1.19495
 Alpha virt. eigenvalues --    1.19593   1.20739   1.21309   1.23421   1.23774
 Alpha virt. eigenvalues --    1.24208   1.25327   1.26751   1.27507   1.27626
 Alpha virt. eigenvalues --    1.28689   1.31025   1.32471   1.34423   1.34771
 Alpha virt. eigenvalues --    1.35353   1.36737   1.37238   1.38282   1.39631
 Alpha virt. eigenvalues --    1.41756   1.42154   1.43089   1.44567   1.45303
 Alpha virt. eigenvalues --    1.46347   1.52542   1.57128   1.57740   1.58514
 Alpha virt. eigenvalues --    1.59984   1.64226   1.67651   1.73363   1.77946
 Alpha virt. eigenvalues --    1.80366   1.80531   1.81994   1.83211   1.84365
 Alpha virt. eigenvalues --    1.85227   1.86144   1.87360   1.88076   1.90108
 Alpha virt. eigenvalues --    1.90380   1.91040   1.94406   1.96106   1.96277
 Alpha virt. eigenvalues --    1.97633   1.98604   1.98811   2.00649   2.02086
 Alpha virt. eigenvalues --    2.03142   2.05558   2.06367   2.07457   2.10676
 Alpha virt. eigenvalues --    2.11136   2.12086   2.17285   2.21314   2.23936
 Alpha virt. eigenvalues --    2.24205   2.25502   2.30274   2.31673   2.32743
 Alpha virt. eigenvalues --    2.34970   2.38361   2.41049   2.43010   2.44259
 Alpha virt. eigenvalues --    2.45395   2.48166   2.48639   2.50190   2.51917
 Alpha virt. eigenvalues --    2.52310   2.53150   2.54297   2.56337   2.58269
 Alpha virt. eigenvalues --    2.58417   2.61012   2.62394   2.63874   2.66149
 Alpha virt. eigenvalues --    2.67343   2.69274   2.71264   2.72518   2.73867
 Alpha virt. eigenvalues --    2.76638   2.78926   2.79547   2.80508   2.81809
 Alpha virt. eigenvalues --    2.84685   2.86001   2.90502   2.96125   2.98931
 Alpha virt. eigenvalues --    3.03665   3.10481   3.12544   3.14834   3.17881
 Alpha virt. eigenvalues --    3.19746   3.21543   3.23085   3.25890   3.34326
 Alpha virt. eigenvalues --    3.35284   3.36970   3.43355   3.47782   3.53678
 Alpha virt. eigenvalues --    3.55767   3.61199   3.63965   3.92028   4.20367
 Alpha virt. eigenvalues --    4.23455   4.31445   4.32338   4.38315   4.42258
 Alpha virt. eigenvalues --    4.45196   4.48084   4.52064   4.56674   4.60079
 Alpha virt. eigenvalues --    4.68583   4.84422   5.16293
          Condensed to atoms (all electrons):
               1          2          3          4          5          6
     1  C   10.961784   1.999125  -4.633079  -0.158804   0.321650  -1.398255
     2  C    1.999125  14.137246  -1.388817  -5.681024  -0.560100  -1.265112
     3  C   -4.633079  -1.388817  17.343659  -1.274772  -2.058853   0.219011
     4  C   -0.158804  -5.681024  -1.274772  19.703891   2.953622  -3.925670
     5  C    0.321650  -0.560100  -2.058853   2.953622   9.363484  -1.402022
     6  C   -1.398255  -1.265112   0.219011  -3.925670  -1.402022  10.406892
     7  O   -0.608089   0.041286   0.433040   0.094782  -0.052329   0.002753
     8  C   -0.866956  -0.511971  -1.645941  -3.518849  -0.531322   1.902997
     9  C    0.078576  -0.072313  -1.008434  -3.218044  -2.572505   1.876419
    10  O    0.024175  -0.770285   0.178404   0.529535  -0.005416  -0.052174
    11  C    0.025565   0.000264  -0.065826  -0.029783  -0.007225  -0.004333
    12  C   -0.052355  -0.052252   0.174396   0.109364  -0.340935  -0.306600
    13  O   -0.000956  -0.000669   0.002840   0.025098   0.074134  -0.012421
    14  O   -0.004927  -0.002180  -0.001439  -0.023098   0.058624  -0.005487
    15  H    0.248944   0.065385   0.085338   0.017663  -0.011511  -0.074109
    16  H   -0.021373   0.015695  -0.198851   0.259346   0.053188   0.003327
    17  H   -0.058415  -0.036247   0.003375   0.105676   0.170552   0.194764
    18  H    0.216455   0.158337  -0.360613  -0.023892   0.005182  -0.001470
    19  H    0.008178   0.011324   0.064967   0.372465   0.109256  -0.109610
    20  H    0.009608  -0.001635  -0.002059   0.045462   0.161012  -0.066926
    21  H    0.007598   0.078702   0.101339  -0.151397  -0.016400  -0.001155
    22  H   -0.004572  -0.042941  -0.105816   0.110270   0.022383   0.003794
    23  H   -0.004678  -0.042719  -0.105481   0.109586   0.022806   0.003829
    24  H    0.003498   0.000496   0.005082   0.088737   0.064110  -0.012963
               7          8          9         10         11         12
     1  C   -0.608089  -0.866956   0.078576   0.024175   0.025565  -0.052355
     2  C    0.041286  -0.511971  -0.072313  -0.770285   0.000264  -0.052252
     3  C    0.433040  -1.645941  -1.008434   0.178404  -0.065826   0.174396
     4  C    0.094782  -3.518849  -3.218044   0.529535  -0.029783   0.109364
     5  C   -0.052329  -0.531322  -2.572505  -0.005416  -0.007225  -0.340935
     6  C    0.002753   1.902997   1.876419  -0.052174  -0.004333  -0.306600
     7  O    8.474731   0.002998   0.001308  -0.021139   0.000713   0.000983
     8  C    0.002998  11.151750  -1.482603  -0.026623  -0.045045   1.158421
     9  C    0.001308  -1.482603  17.384513  -0.001894  -0.006827  -4.288619
    10  O   -0.021139  -0.026623  -0.001894   8.717564   0.045538  -0.000578
    11  C    0.000713  -0.045045  -0.006827   0.045538   4.976533  -0.001411
    12  C    0.000983   1.158421  -4.288619  -0.000578  -0.001411   8.671628
    13  O    0.000000   0.130046  -0.451574   0.000000   0.000012   0.510861
    14  O   -0.000001  -0.008405   0.160667  -0.000005   0.000009  -0.177305
    15  H   -0.007421  -0.009874  -0.004555  -0.000862   0.000268  -0.000715
    16  H   -0.000663   0.156832   0.025490  -0.020256  -0.000405   0.000835
    17  H   -0.000843  -0.067119  -0.042840   0.000227   0.000194   0.023032
    18  H    0.188964   0.000725   0.000372   0.034167   0.003235   0.000019
    19  H   -0.000010   0.146200  -0.345236   0.000167   0.000993  -0.014134
    20  H   -0.000006  -0.146566   0.423648   0.000005   0.000049  -0.106603
    21  H   -0.000161  -0.002903   0.000028  -0.065314   0.410167   0.000000
    22  H   -0.000126   0.002896  -0.000166  -0.049291   0.414384  -0.000049
    23  H   -0.000123   0.003031  -0.000155  -0.049367   0.414103  -0.000047
    24  H    0.000000   0.126511  -0.409306   0.000001   0.000151   0.170595
              13         14         15         16         17         18
     1  C   -0.000956  -0.004927   0.248944  -0.021373  -0.058415   0.216455
     2  C   -0.000669  -0.002180   0.065385   0.015695  -0.036247   0.158337
     3  C    0.002840  -0.001439   0.085338  -0.198851   0.003375  -0.360613
     4  C    0.025098  -0.023098   0.017663   0.259346   0.105676  -0.023892
     5  C    0.074134   0.058624  -0.011511   0.053188   0.170552   0.005182
     6  C   -0.012421  -0.005487  -0.074109   0.003327   0.194764  -0.001470
     7  O    0.000000  -0.000001  -0.007421  -0.000663  -0.000843   0.188964
     8  C    0.130046  -0.008405  -0.009874   0.156832  -0.067119   0.000725
     9  C   -0.451574   0.160667  -0.004555   0.025490  -0.042840   0.000372
    10  O    0.000000  -0.000005  -0.000862  -0.020256   0.000227   0.034167
    11  C    0.000012   0.000009   0.000268  -0.000405   0.000194   0.003235
    12  C    0.510861  -0.177305  -0.000715   0.000835   0.023032   0.000019
    13  O    8.343878  -0.134740  -0.000000   0.000005   0.000220   0.000000
    14  O   -0.134740   8.440064  -0.000000  -0.000050  -0.000036  -0.000000
    15  H   -0.000000  -0.000000   0.549800   0.000022  -0.006804  -0.000042
    16  H    0.000005  -0.000050   0.000022   0.609388  -0.000205  -0.000029
    17  H    0.000220  -0.000036  -0.006804  -0.000205   0.586764   0.000006
    18  H    0.000000  -0.000000  -0.000042  -0.000029   0.000006   0.387845
    19  H    0.000588  -0.020368   0.000004   0.005929   0.000008   0.000000
    20  H   -0.021693   0.006881   0.000011  -0.000002   0.000994  -0.000000
    21  H   -0.000000  -0.000000  -0.000000   0.000115  -0.000000  -0.000057
    22  H   -0.000000   0.000000   0.000000  -0.000834   0.000000   0.000023
    23  H   -0.000000   0.000000   0.000000  -0.000833   0.000000   0.000023
    24  H    0.016498   0.151806  -0.000000   0.000032   0.000007  -0.000000
              19         20         21         22         23         24
     1  C    0.008178   0.009608   0.007598  -0.004572  -0.004678   0.003498
     2  C    0.011324  -0.001635   0.078702  -0.042941  -0.042719   0.000496
     3  C    0.064967  -0.002059   0.101339  -0.105816  -0.105481   0.005082
     4  C    0.372465   0.045462  -0.151397   0.110270   0.109586   0.088737
     5  C    0.109256   0.161012  -0.016400   0.022383   0.022806   0.064110
     6  C   -0.109610  -0.066926  -0.001155   0.003794   0.003829  -0.012963
     7  O   -0.000010  -0.000006  -0.000161  -0.000126  -0.000123   0.000000
     8  C    0.146200  -0.146566  -0.002903   0.002896   0.003031   0.126511
     9  C   -0.345236   0.423648   0.000028  -0.000166  -0.000155  -0.409306
    10  O    0.000167   0.000005  -0.065314  -0.049291  -0.049367   0.000001
    11  C    0.000993   0.000049   0.410167   0.414384   0.414103   0.000151
    12  C   -0.014134  -0.106603   0.000000  -0.000049  -0.000047   0.170595
    13  O    0.000588  -0.021693  -0.000000  -0.000000  -0.000000   0.016498
    14  O   -0.020368   0.006881  -0.000000   0.000000   0.000000   0.151806
    15  H    0.000004   0.000011  -0.000000   0.000000   0.000000  -0.000000
    16  H    0.005929  -0.000002   0.000115  -0.000834  -0.000833   0.000032
    17  H    0.000008   0.000994  -0.000000   0.000000   0.000000   0.000007
    18  H    0.000000  -0.000000  -0.000057   0.000023   0.000023  -0.000000
    19  H    0.679471   0.004579   0.000000  -0.000006  -0.000006   0.018168
    20  H    0.004579   0.549666  -0.000000  -0.000000  -0.000000   0.000203
    21  H    0.000000  -0.000000   0.541575  -0.028449  -0.028431  -0.000000
    22  H   -0.000006  -0.000000  -0.028449   0.569986  -0.039367   0.000000
    23  H   -0.000006  -0.000000  -0.028431  -0.039367   0.569926   0.000000
    24  H    0.018168   0.000203  -0.000000   0.000000   0.000000   0.452354
 Mulliken charges:
               1
     1  C   -0.092695
     2  C   -0.079594
     3  C    0.238531
     4  C   -0.520165
     5  C    0.178613
     6  C    0.024521
     7  O   -0.550648
     8  C    0.081771
     9  C   -0.045949
    10  O   -0.466579
    11  C   -0.131324
    12  C    0.521468
    13  O   -0.482129
    14  O   -0.440010
    15  H    0.148459
    16  H    0.113295
    17  H    0.126689
    18  H    0.390749
    19  H    0.067076
    20  H    0.143372
    21  H    0.154744
    22  H    0.147882
    23  H    0.147904
    24  H    0.324019
 Sum of Mulliken charges =  -0.00000
 Mulliken charges with hydrogens summed into heavy atoms:
               1
     1  C    0.055764
     2  C   -0.079594
     3  C    0.238531
     4  C   -0.406870
     5  C    0.178613
     6  C    0.151209
     7  O   -0.159899
     8  C    0.148847
     9  C    0.097423
    10  O   -0.466579
    11  C    0.319207
    12  C    0.521468
    13  O   -0.482129
    14  O   -0.115991
 Electronic spatial extent (au):  <R**2>=           3907.2394
 Charge=             -0.0000 electrons
 Dipole moment (field-independent basis, Debye):
    X=              7.2006    Y=              3.4622    Z=              0.0010  Tot=              7.9897
 Quadrupole moment (field-independent basis, Debye-Ang):
   XX=           -117.8303   YY=            -71.8779   ZZ=            -83.7522
   XY=              5.8732   XZ=              0.0067   YZ=              0.0014
 Traceless Quadrupole moment (field-independent basis, Debye-Ang):
   XX=            -26.6768   YY=             19.2756   ZZ=              7.4013
   XY=              5.8732   XZ=              0.0067   YZ=              0.0014
 Octapole moment (field-independent basis, Debye-Ang**2):
  XXX=            258.1759  YYY=             21.3561  ZZZ=             -0.0017  XYY=             11.0700
  XXY=             44.8913  XXZ=              0.0062  XZZ=             -1.2291  YZZ=              4.5649
  YYZ=              0.0062  XYZ=              0.0143
 Hexadecapole moment (field-independent basis, Debye-Ang**3):
 XXXX=          -4988.8196 YYYY=           -850.6568 ZZZZ=            -96.7174 XXXY=             57.7337
 XXXZ=              0.0540 YYYX=             52.4927 YYYZ=             -0.0203 ZZZX=             -0.0003
 ZZZY=              0.0047 XXYY=           -836.2285 XXZZ=           -675.9184 YYZZ=           -179.7135
 XXYZ=              0.0590 YYXZ=              0.0320 ZZXY=              0.5315
 N-N= 8.448739827147D+02 E-N=-3.294605619633D+03  KE= 6.830164997281D+02
 Calling FoFJK, ICntrl=      2127 FMM=F ISym2X=0 I1Cent= 0 IOpClX= 0 NMat=1 NMatS=1 NMatT=0.
 ***** Axes restored to original set *****
 -------------------------------------------------------------------
 Center     Atomic                   Forces (Hartrees/Bohr)
 Number     Number              X              Y              Z
 -------------------------------------------------------------------
      1        6          -0.062566473    0.036572225    0.000054501
      2        6          -0.051164181   -0.041645751    0.000008074
      3        6           0.025449157   -0.040542779   -0.000004302
      4        6           0.057936929   -0.055029176   -0.000063234
      5        6          -0.020824376   -0.015665172    0.000014072
      6        6          -0.026023556    0.068786679    0.000042969
      7        8          -0.005478390    0.000334682    0.000003577
      8        6           0.077404552    0.038051687   -0.000043775
      9        6          -0.074556559   -0.036623060    0.000047569
     10        8          -0.015783553    0.001855821   -0.000003533
     11        6           0.012840495   -0.011551643    0.000002994
     12        6           0.055097943    0.049763619   -0.000029100
     13        8           0.011816573    0.014566978   -0.000003865
     14        8           0.006722437   -0.006211748   -0.000007600
     15        1           0.008923998   -0.007493205   -0.000008400
     16        1          -0.008077568    0.004706739    0.000006603
     17        1           0.005428354   -0.009749305   -0.000007843
     18        1           0.000805997    0.001815509    0.000002738
     19        1          -0.008998684   -0.000217153    0.000007546
     20        1           0.011845503   -0.005884571   -0.000011295
     21        1          -0.000804952    0.014372088   -0.000004313
     22        1          -0.001665997   -0.001242289    0.010556715
     23        1          -0.001656537   -0.001245433   -0.010558447
     24        1           0.003328888    0.002275258   -0.000001651
 -------------------------------------------------------------------
 Cartesian Forces:  Max     0.077404552 RMS     0.025358311

 GradGradGradGradGradGradGradGradGradGradGradGradGradGradGradGradGradGrad
 Berny optimization.
 FormGI is forming the generalized inverse of G from B-inverse, IUseBI=4.
 Internal  Forces:  Max     0.099527076 RMS     0.020885843
 Search for a local minimum.
 Step number   1 out of a maximum of  115
 All quantities printed in internal units (Hartrees-Bohrs-Radians)
 Mixed Optimization -- RFO/linear search
 Second derivative matrix not updated -- first step.
 ITU=  0
     Eigenvalues ---    0.01584   0.02016   0.02199   0.02258   0.02468
     Eigenvalues ---    0.02572   0.02622   0.02692   0.02701   0.02729
     Eigenvalues ---    0.02756   0.02762   0.02765   0.02771   0.02796
     Eigenvalues ---    0.02801   0.02845   0.02856   0.02873   0.10199
     Eigenvalues ---    0.10673   0.16000   0.16000   0.16000   0.16000
     Eigenvalues ---    0.16000   0.16000   0.16000   0.16000   0.16000
     Eigenvalues ---    0.16000   0.22000   0.22000   0.22369   0.23471
     Eigenvalues ---    0.24599   0.25000   0.25000   0.25000   0.25000
     Eigenvalues ---    0.25000   0.25000   0.32268   0.32306   0.32306
     Eigenvalues ---    0.33297   0.33337   0.33482   0.33514   0.33626
     Eigenvalues ---    0.44292   0.49398   0.49929   0.50095   0.52255
     Eigenvalues ---    0.52607   0.53159   0.53517   0.53643   0.54690
     Eigenvalues ---    0.55164   0.55732   0.55850   0.56178   0.56887
     Eigenvalues ---    0.96559
 RFO step:  Lambda=-7.69723166D-02 EMin= 1.58361558D-02
 Linear search not attempted -- first point.
 Maximum step size (   0.300) exceeded in Quadratic search.
    -- Step size scaled by   0.815
 Iteration  1 RMS(Cart)=  0.09679537 RMS(Int)=  0.00060955
 Iteration  2 RMS(Cart)=  0.00106836 RMS(Int)=  0.00001767
 Iteration  3 RMS(Cart)=  0.00000099 RMS(Int)=  0.00001766
 Variable       Old X    -DE/DX   Delta X   Delta X   Delta X     New X
                                 (Linear)    (Quad)   (Total)
    R1        2.53514   0.05861   0.00000   0.07358   0.07355   2.60869
    R2        2.53206   0.05631   0.00000   0.07114   0.07113   2.60319
    R3        2.08533  -0.01133   0.00000  -0.02253  -0.02253   2.06279
    R4        2.54891   0.06323   0.00000   0.08095   0.08094   2.62985
    R5        2.57322   0.00275   0.00000   0.00372   0.00372   2.57695
    R6        2.54969   0.04630   0.00000   0.05959   0.05961   2.60930
    R7        2.59937  -0.00220   0.00000  -0.00312  -0.00312   2.59625
    R8        2.55079   0.06987   0.00000   0.09118   0.09121   2.64200
    R9        2.08159  -0.00933   0.00000  -0.01846  -0.01846   2.06313
   R10        2.54193   0.07482   0.00000   0.09654   0.09656   2.63849
   R11        2.55409   0.09953   0.00000   0.13005   0.13005   2.68414
   R12        2.07966  -0.01037   0.00000  -0.02045  -0.02045   2.05921
   R13        1.83506  -0.00157   0.00000  -0.00211  -0.00211   1.83295
   R14        2.54384   0.01944   0.00000   0.02493   0.02493   2.56877
   R15        2.08463  -0.00741   0.00000  -0.01473  -0.01473   2.06991
   R16        2.57656   0.09610   0.00000   0.13067   0.13067   2.70723
   R17        2.08213  -0.01299   0.00000  -0.02572  -0.02572   2.05641
   R18        2.66107   0.00742   0.00000   0.01163   0.01163   2.67270
   R19        2.10357  -0.01391   0.00000  -0.02838  -0.02838   2.07519
   R20        2.10288  -0.00988   0.00000  -0.02013  -0.02013   2.08275
   R21        2.10288  -0.00988   0.00000  -0.02013  -0.02013   2.08275
   R22        2.30049   0.01493   0.00000   0.01168   0.01168   2.31217
   R23        2.56474   0.01066   0.00000   0.01419   0.01419   2.57893
   R24        1.83058  -0.00282   0.00000  -0.00375  -0.00375   1.82683
    A1        2.12207  -0.00390   0.00000  -0.01025  -0.01030   2.11177
    A2        2.07580  -0.00088   0.00000  -0.00460  -0.00458   2.07122
    A3        2.08532   0.00478   0.00000   0.01485   0.01488   2.10019
    A4        2.08665   0.00018   0.00000  -0.00171  -0.00176   2.08490
    A5        2.10344  -0.00457   0.00000  -0.01032  -0.01029   2.09315
    A6        2.09309   0.00439   0.00000   0.01203   0.01205   2.10514
    A7        2.05073   0.01107   0.00000   0.02539   0.02538   2.07611
    A8        2.04723  -0.01318   0.00000  -0.03176  -0.03175   2.01547
    A9        2.18523   0.00211   0.00000   0.00637   0.00637   2.19160
   A10        2.16564  -0.00897   0.00000  -0.02417  -0.02413   2.14151
   A11        2.05990   0.00509   0.00000   0.01417   0.01415   2.07405
   A12        2.05765   0.00388   0.00000   0.00999   0.00997   2.06763
   A13        2.03450   0.00023   0.00000   0.00362   0.00367   2.03817
   A14        2.08392  -0.00054   0.00000  -0.00286  -0.00289   2.08103
   A15        2.16476   0.00031   0.00000  -0.00076  -0.00078   2.16398
   A16        2.10679   0.00139   0.00000   0.00712   0.00712   2.11391
   A17        2.03415   0.00359   0.00000   0.01120   0.01119   2.04534
   A18        2.14225  -0.00499   0.00000  -0.01831  -0.01832   2.12393
   A19        1.90256  -0.00223   0.00000  -0.00768  -0.00768   1.89488
   A20        2.22442   0.00684   0.00000   0.01877   0.01877   2.24319
   A21        2.02774  -0.00874   0.00000  -0.02769  -0.02769   2.00005
   A22        2.03103   0.00190   0.00000   0.00892   0.00892   2.03995
   A23        2.16590   0.01889   0.00000   0.05185   0.05185   2.21775
   A24        2.10293  -0.00685   0.00000  -0.01699  -0.01699   2.08594
   A25        2.01435  -0.01204   0.00000  -0.03486  -0.03486   1.97949
   A26        2.08561  -0.00311   0.00000  -0.00777  -0.00777   2.07785
   A27        1.88006  -0.00600   0.00000  -0.02009  -0.02003   1.86003
   A28        1.92620   0.00375   0.00000   0.01262   0.01264   1.93883
   A29        1.92618   0.00375   0.00000   0.01261   0.01262   1.93880
   A30        1.88661   0.00181   0.00000   0.00679   0.00685   1.89346
   A31        1.88666   0.00181   0.00000   0.00680   0.00685   1.89352
   A32        1.95568  -0.00529   0.00000  -0.01920  -0.01921   1.93647
   A33        2.07894   0.01416   0.00000   0.03530   0.03530   2.11424
   A34        2.12842  -0.00220   0.00000  -0.00547  -0.00547   2.12295
   A35        2.07582  -0.01196   0.00000  -0.02982  -0.02982   2.04600
   A36        1.93106   0.00527   0.00000   0.01814   0.01814   1.94919
    D1       -0.00003   0.00000   0.00000   0.00000   0.00000  -0.00002
    D2       -3.14159  -0.00000   0.00000  -0.00001  -0.00001   3.14159
    D3        3.14157   0.00000   0.00000   0.00001   0.00001   3.14158
    D4        0.00000   0.00000   0.00000   0.00000   0.00000   0.00001
    D5       -0.00003   0.00000   0.00000   0.00001   0.00001  -0.00002
    D6        3.14158   0.00000   0.00000   0.00001   0.00001   3.14159
    D7        3.14157   0.00000   0.00000   0.00000   0.00000   3.14157
    D8       -0.00001  -0.00000   0.00000  -0.00000  -0.00000  -0.00001
    D9        0.00013  -0.00000   0.00000  -0.00002  -0.00002   0.00011
   D10        3.14147   0.00001   0.00000   0.00005   0.00005   3.14152
   D11       -3.14149  -0.00000   0.00000  -0.00002  -0.00002  -3.14151
   D12       -0.00015   0.00001   0.00000   0.00006   0.00006  -0.00009
   D13        3.14158   0.00000   0.00000   0.00002   0.00002  -3.14158
   D14        0.00002   0.00000   0.00000   0.00002   0.00002   0.00004
   D15       -0.00020   0.00000   0.00000   0.00004   0.00004  -0.00016
   D16        3.14148   0.00000   0.00000   0.00003   0.00003   3.14151
   D17       -3.14152  -0.00000   0.00000  -0.00004  -0.00004  -3.14155
   D18        0.00016  -0.00001   0.00000  -0.00005  -0.00005   0.00011
   D19       -3.13998  -0.00001   0.00000  -0.00011  -0.00011  -3.14010
   D20        0.00134  -0.00000   0.00000  -0.00003  -0.00003   0.00131
   D21        0.00014  -0.00000   0.00000  -0.00003  -0.00003   0.00012
   D22       -3.14143  -0.00000   0.00000  -0.00003  -0.00003  -3.14145
   D23       -3.14153  -0.00000   0.00000  -0.00001  -0.00002  -3.14155
   D24        0.00008  -0.00000   0.00000  -0.00001  -0.00001   0.00007
   D25       -0.00003  -0.00000   0.00000   0.00000   0.00000  -0.00003
   D26        3.14155   0.00000   0.00000   0.00001   0.00001   3.14155
   D27        3.14154  -0.00000   0.00000  -0.00000  -0.00000   3.14154
   D28       -0.00007   0.00000   0.00000   0.00000   0.00000  -0.00007
   D29        3.14152   0.00000   0.00000   0.00000   0.00000   3.14153
   D30       -0.00002  -0.00000   0.00000  -0.00001  -0.00001  -0.00003
   D31       -0.00004   0.00000   0.00000   0.00000   0.00000  -0.00004
   D32       -3.14159  -0.00000   0.00000  -0.00001  -0.00001   3.14159
   D33       -3.14151  -0.00000   0.00000  -0.00001  -0.00001  -3.14152
   D34        0.00006  -0.00000   0.00000  -0.00001  -0.00001   0.00005
   D35        0.00004  -0.00000   0.00000  -0.00000  -0.00000   0.00004
   D36       -3.14158   0.00000   0.00000   0.00000   0.00000  -3.14157
   D37       -3.14158   0.00000   0.00000   0.00001   0.00001  -3.14157
   D38        0.00002   0.00000   0.00000   0.00000   0.00000   0.00003
   D39        0.00004   0.00000   0.00000   0.00001   0.00001   0.00004
   D40       -3.14155  -0.00000   0.00000  -0.00000  -0.00000  -3.14155
   D41        3.14098  -0.00000   0.00000  -0.00001  -0.00001   3.14097
   D42       -1.08621   0.00074   0.00000   0.00338   0.00332  -1.08289
   D43        1.08493  -0.00074   0.00000  -0.00340  -0.00334   1.08159
   D44        0.00011   0.00000   0.00000   0.00000   0.00000   0.00011
   D45       -3.14147  -0.00000   0.00000  -0.00000  -0.00000  -3.14148
         Item               Value     Threshold  Converged?
 Maximum Force            0.099527     0.000450     NO 
 RMS     Force            0.020886     0.000300     NO 
 Maximum Displacement     0.340702     0.001800     NO 
 RMS     Displacement     0.096866     0.001200     NO 
 Predicted change in Energy=-4.063620D-02
 GradGradGradGradGradGradGradGradGradGradGradGradGradGradGradGradGradGrad

                          Input orientation:                          
 ---------------------------------------------------------------------
 Center     Atomic      Atomic             Coordinates (Angstroms)
 Number     Number       Type             X           Y           Z
 ---------------------------------------------------------------------
      1          6           0       -2.469241    0.462089    0.001274
      2          6           0       -2.395472   -0.916399    0.000752
      3          6           0       -1.148871   -1.535017   -0.000354
      4          6           0       -0.013054   -0.749855   -0.000772
      5          6           0       -0.060765    0.647416   -0.000315
      6          6           0       -1.327992    1.233577    0.000745
      7          8           0       -3.539240   -1.658939    0.001295
      8          6           0        1.154307    1.383005   -0.000969
      9          6           0        1.327854    2.731218   -0.000756
     10          8           0       -1.170798   -2.908717   -0.000721
     11          6           0        0.054465   -3.615164    0.000013
     12          6           0        2.571854    3.441725   -0.001516
     13          8           0        2.601835    4.664905   -0.001199
     14          8           0        3.769691    2.787797   -0.002622
     15          1           0       -3.453593    0.933900    0.002126
     16          1           0        0.963911   -1.237177   -0.001559
     17          1           0       -1.458325    2.315442    0.001201
     18          1           0       -3.297643   -2.598325    0.000819
     19          1           0        2.060082    0.767083   -0.001776
     20          1           0        0.457068    3.383849    0.000053
     21          1           0       -0.199926   -4.683434    0.000211
     22          1           0        0.639452   -3.395382   -0.907844
     23          1           0        0.638665   -3.394795    0.908236
     24          1           0        3.652706    1.828183   -0.002903
 ---------------------------------------------------------------------
                    Distance matrix (angstroms):
                    1          2          3          4          5
     1  C    0.000000
     2  C    1.380461   0.000000
     3  C    2.394120   1.391655   0.000000
     4  C    2.738917   2.388232   1.380781   0.000000
     5  C    2.415596   2.810049   2.438644   1.398086   0.000000
     6  C    1.377549   2.400397   2.774382   2.379720   1.396227
     7  O    2.375639   1.363662   2.393580   3.641487   4.173615
     8  C    3.738742   4.229443   3.717456   2.431424   1.420385
     9  C    4.423446   5.212318   4.933044   3.730403   2.504095
    10  O    3.612242   2.338624   1.373875   2.449705   3.725353
    11  C    4.795111   3.644932   2.403129   2.866104   4.264137
    12  C    5.855841   6.608144   6.213835   4.924540   3.839120
    13  O    6.586309   7.491597   7.246159   6.013092   4.819715
    14  O    6.658318   7.192379   6.548204   5.179203   4.387896
    15  H    1.091584   2.131485   3.377470   3.830450   3.404903
    16  H    3.830672   3.374664   2.133672   1.091762   2.145146
    17  H    2.111129   3.364972   3.862874   3.388932   2.176117
    18  H    3.170550   1.908609   2.397467   3.769001   4.583908
    19  H    4.539581   4.762991   3.949309   2.568851   2.124221
    20  H    4.135210   5.160340   5.174387   4.160351   2.784998
    21  H    5.623718   4.360158   3.288317   3.938015   5.332666
    22  H    5.036919   4.022645   2.735433   2.871820   4.202157
    23  H    5.035595   4.021438   2.734885   2.871713   4.201682
    24  H    6.272516   6.641776   5.862273   4.481526   3.896676
                    6          7          8          9         10
     6  C    0.000000
     7  O    3.640916   0.000000
     8  C    2.486794   5.593104   0.000000
     9  C    3.049008   6.554547   1.359337   0.000000
    10  O    4.145276   2.677959   4.881085   6.168641   0.000000
    11  C    5.041971   4.091642   5.117748   6.472872   1.414333
    12  C    4.481598   7.960041   2.499553   1.432605   7.371266
    13  O    5.217045   8.814977   3.586949   2.315637   8.461236
    14  O    5.329352   8.555347   2.968784   2.442494   7.540472
    15  H    2.146622   2.594254   4.629736   5.108091   4.469549
    16  H    3.370082   4.522860   2.627090   3.985048   2.711279
    17  H    1.089687   4.486191   2.774039   2.817032   5.232066
    18  H    4.308479   0.969956   5.972508   7.056858   2.149375
    19  H    3.420040   6.102295   1.095349   2.096183   4.893884
    20  H    2.794657   6.434298   2.118849   1.088207   6.499718
    21  H    6.023583   4.505396   6.215756   7.570414   2.022922
    22  H    5.111128   4.615543   4.890856   6.231526   2.082480
    23  H    5.110099   4.614177   4.890798   6.231314   2.082458
    24  H    5.016066   7.992754   2.537751   2.494075   6.760504
                   11         12         13         14         15
    11  C    0.000000
    12  C    7.492458   0.000000
    13  O    8.663061   1.223547   0.000000
    14  O    7.402757   1.364712   2.210752   0.000000
    15  H    5.744602   6.526500   7.112567   7.457399   0.000000
    16  H    2.545961   4.947484   6.125142   4.906406   4.922188
    17  H    6.120508   4.184598   4.690936   5.249313   2.426881
    18  H    3.502940   8.422185   9.357262   8.885805   3.535666
    19  H    4.819397   2.723164   3.935291   2.646894   5.516200
    20  H    7.010582   2.115578   2.498225   3.365822   4.614708
    21  H    1.098142   8.584927   9.759165   8.460328   6.491594
    22  H    1.102143   7.162516   8.345128   6.989243   6.026918
    23  H    1.102144   7.162602   8.345050   6.989808   6.025381
    24  H    6.525133   1.942102   3.025116   0.966719   7.162349
                   16         17         18         19         20
    16  H    0.000000
    17  H    4.299806   0.000000
    18  H    4.473653   5.246732   0.000000
    19  H    2.284436   3.844037   6.327021   0.000000
    20  H    4.648738   2.193223   7.062879   3.068733   0.000000
    21  H    3.637473   7.111106   3.734104   5.900489   8.093991
    22  H    2.363149   6.151466   4.118457   4.490574   6.842185
    23  H    2.364070   6.150356   4.117316   4.491077   6.841621
    24  H    4.077505   5.134206   8.240226   1.913735   3.554181
                   21         22         23         24
    21  H    0.000000
    22  H    1.785553   0.000000
    23  H    1.785591   1.816080   0.000000
    24  H    7.565972   6.097888   6.098697   0.000000
 Stoichiometry    C10H10O4
 Framework group  C1[X(C10H10O4)]
 Deg. of freedom    66
 Full point group                 C1      NOp   1
 Largest Abelian subgroup         C1      NOp   1
 Largest concise Abelian subgroup C1      NOp   1
                         Standard orientation:                         
 ---------------------------------------------------------------------
 Center     Atomic      Atomic             Coordinates (Angstroms)
 Number     Number       Type             X           Y           Z
 ---------------------------------------------------------------------
      1          6           0        1.450688   -1.994796    0.000233
      2          6           0        2.480742   -1.075742   -0.000101
      3          6           0        2.184639    0.284047   -0.000428
      4          6           0        0.861871    0.680080   -0.000280
      5          6           0       -0.199131   -0.230370    0.000002
      6          6           0        0.135200   -1.585978    0.000275
      7          8           0        3.775206   -1.504618   -0.000134
      8          6           0       -1.532729    0.258516   -0.000034
      9          6           0       -2.693704   -0.448544    0.000135
     10          8           0        3.270760    1.125401   -0.000663
     11          6           0        3.056558    2.523419    0.000847
     12          6           0       -4.025799    0.078598    0.000012
     13          8           0       -4.999444   -0.662403    0.000216
     14          8           0       -4.263861    1.422386   -0.000341
     15          1           0        1.697511   -3.058109    0.000472
     16          1           0        0.631773    1.747319   -0.000456
     17          1           0       -0.627939   -2.363820    0.000542
     18          1           0        4.357581   -0.728954   -0.000372
     19          1           0       -1.617942    1.350545   -0.000259
     20          1           0       -2.659015   -1.536199    0.000376
     21          1           0        4.049510    2.992420    0.001012
     22          1           0        2.519151    2.843221   -0.906699
     23          1           0        2.519684    2.841309    0.909380
     24          1           0       -3.441604    1.930753   -0.000587
 ---------------------------------------------------------------------
 Rotational constants (GHZ):      1.5418471      0.2883067      0.2432780
 Standard basis: 6-31+G(d,p) (6D, 7F)
 There are   316 symmetry adapted cartesian basis functions of A   symmetry.
 There are   316 symmetry adapted basis functions of A   symmetry.
   316 basis functions,   518 primitive gaussians,   316 cartesian basis functions
    51 alpha electrons       51 beta electrons
       nuclear repulsion energy       825.8548326927 Hartrees.
 NAtoms=   24 NActive=   24 NUniq=   24 SFac= 1.00D+00 NAtFMM=   60 NAOKFM=F Big=F
 Integral buffers will be    131072 words long.
 Raffenetti 2 integral format.
 Two-electron integral symmetry is turned on.
 Nuclear repulsion after empirical dispersion term =      825.8111346056 Hartrees.
 One-electron integrals computed using PRISM.
 NBasis=   316 RedAO= T EigKep=  1.28D-06  NBF=   316
 NBsUse=   315 1.00D-06 EigRej=  5.88D-07 NBFU=   315
 Initial guess from the checkpoint file:  "b3lypFA.chk"
 B after Tr=    -0.000000    0.000000   -0.000000
         Rot=    0.999997   -0.000001   -0.000001   -0.002393 Ang=  -0.27 deg.
 ExpMin= 4.38D-02 ExpMax= 5.48D+03 ExpMxC= 8.25D+02 IAcc=2 IRadAn=         4 AccDes= 0.00D+00
 Harris functional with IExCor=  402 and IRadAn=       4 diagonalized for initial guess.
 HarFok:  IExCor=  402 AccDes= 0.00D+00 IRadAn=         4 IDoV= 1 UseB2=F ITyADJ=14
 ICtDFT=  3500011 ScaDFX=  1.000000  1.000000  1.000000  1.000000
 FoFCou: FMM=F IPFlag=           0 FMFlag=      100000 FMFlg1=           0
         NFxFlg=           0 DoJE=T BraDBF=F KetDBF=T FulRan=T
         wScrn=  0.000000 ICntrl=     500 IOpCl=  0 I1Cent=   200000004 NGrid=           0
         NMat0=    1 NMatS0=      1 NMatT0=    0 NMatD0=    1 NMtDS0=    0 NMtDT0=    0
 Petite list used in FoFCou.
 Requested convergence on RMS density matrix=1.00D-08 within 128 cycles.
 Requested convergence on MAX density matrix=1.00D-06.
 Requested convergence on             energy=1.00D-06.
 No special actions if energy rises.
 SCF Done:  E(RB3LYP) =  -688.047993606     A.U. after   13 cycles
            NFock= 13  Conv=0.82D-08     -V/T= 2.0090
 Calling FoFJK, ICntrl=      2127 FMM=F ISym2X=0 I1Cent= 0 IOpClX= 0 NMat=1 NMatS=1 NMatT=0.
 ***** Axes restored to original set *****
 -------------------------------------------------------------------
 Center     Atomic                   Forces (Hartrees/Bohr)
 Number     Number              X              Y              Z
 -------------------------------------------------------------------
      1        6          -0.016215617    0.009528177    0.000011713
      2        6          -0.015276486   -0.012740743   -0.000003193
      3        6           0.009004080   -0.007146900    0.000012924
      4        6           0.019308309   -0.014902028   -0.000023422
      5        6          -0.017030332   -0.006407171    0.000012374
      6        6          -0.003833884    0.017200833    0.000008368
      7        8           0.002125837    0.002576449   -0.000001156
      8        6           0.029587867    0.019098723   -0.000015664
      9        6          -0.028131800   -0.022742428    0.000014435
     10        8          -0.008282028    0.003638612    0.000000111
     11        6           0.006313277   -0.007211845   -0.000000728
     12        6           0.021440118    0.030448743   -0.000007573
     13        8          -0.000729218   -0.007090415   -0.000000507
     14        8          -0.001437547   -0.005094761   -0.000000762
     15        1           0.003652829   -0.002899711   -0.000002888
     16        1          -0.003599931    0.002339538    0.000002722
     17        1           0.003526527   -0.003122391   -0.000003950
     18        1           0.000625750    0.000049528    0.000001448
     19        1          -0.003069974   -0.001226500    0.000002215
     20        1           0.003654364    0.000291587   -0.000003371
     21        1          -0.000580573    0.005113936   -0.000001538
     22        1          -0.000579417    0.000662489    0.004106120
     23        1          -0.000576399    0.000660422   -0.004107653
     24        1           0.000104249   -0.001024143   -0.000000024
 -------------------------------------------------------------------
 Cartesian Forces:  Max     0.030448743 RMS     0.009477593

 GradGradGradGradGradGradGradGradGradGradGradGradGradGradGradGradGradGrad
 Berny optimization.
 Using GEDIIS/GDIIS optimizer.
 FormGI is forming the generalized inverse of G from B-inverse, IUseBI=4.
 Internal  Forces:  Max     0.025378622 RMS     0.005215869
 Search for a local minimum.
 Step number   2 out of a maximum of  115
 All quantities printed in internal units (Hartrees-Bohrs-Radians)
 Mixed Optimization -- RFO/linear search
 Update second derivatives using D2CorX and points    1    2
 DE= -3.72D-02 DEPred=-4.06D-02 R= 9.15D-01
 TightC=F SS=  1.41D+00  RLast= 3.00D-01 DXNew= 5.0454D-01 9.0011D-01
 Trust test= 9.15D-01 RLast= 3.00D-01 DXMaxT set to 5.05D-01
 ITU=  1  0
 Use linear search instead of GDIIS.
     Eigenvalues ---    0.01584   0.02016   0.02199   0.02258   0.02473
     Eigenvalues ---    0.02572   0.02626   0.02693   0.02700   0.02729
     Eigenvalues ---    0.02756   0.02762   0.02766   0.02771   0.02796
     Eigenvalues ---    0.02801   0.02845   0.02855   0.02873   0.10099
     Eigenvalues ---    0.10715   0.15909   0.16000   0.16000   0.16000
     Eigenvalues ---    0.16000   0.16000   0.16000   0.16000   0.16000
     Eigenvalues ---    0.16047   0.21981   0.22266   0.22542   0.23208
     Eigenvalues ---    0.24613   0.24710   0.25000   0.25000   0.25000
     Eigenvalues ---    0.25000   0.25450   0.32252   0.32294   0.32306
     Eigenvalues ---    0.33264   0.33344   0.33483   0.33527   0.33626
     Eigenvalues ---    0.44213   0.49740   0.49850   0.50191   0.51525
     Eigenvalues ---    0.52718   0.53159   0.53527   0.53620   0.54219
     Eigenvalues ---    0.55109   0.55524   0.55922   0.56884   0.62664
     Eigenvalues ---    0.97653
 RFO step:  Lambda=-3.61147353D-03 EMin= 1.58361558D-02
 Quartic linear search produced a step of  0.35103.
 Iteration  1 RMS(Cart)=  0.02567937 RMS(Int)=  0.00028464
 Iteration  2 RMS(Cart)=  0.00047930 RMS(Int)=  0.00001642
 Iteration  3 RMS(Cart)=  0.00000005 RMS(Int)=  0.00001642
 Variable       Old X    -DE/DX   Delta X   Delta X   Delta X     New X
                                 (Linear)    (Quad)   (Total)
    R1        2.60869   0.01352   0.02582   0.00471   0.03050   2.63919
    R2        2.60319   0.01244   0.02497   0.00294   0.02788   2.63107
    R3        2.06279  -0.00455  -0.00791  -0.00998  -0.01789   2.04490
    R4        2.62985   0.01461   0.02841   0.00534   0.03375   2.66360
    R5        2.57695  -0.00374   0.00131  -0.01091  -0.00960   2.56734
    R6        2.60930   0.00826   0.02092  -0.00222   0.01873   2.62803
    R7        2.59625  -0.00280  -0.00109  -0.00637  -0.00747   2.58878
    R8        2.64200   0.01374   0.03202  -0.00049   0.03155   2.67355
    R9        2.06313  -0.00427  -0.00648  -0.01024  -0.01672   2.04641
   R10        2.63849   0.01280   0.03390  -0.00514   0.02876   2.66724
   R11        2.68414   0.02488   0.04565   0.01278   0.05843   2.74257
   R12        2.05921  -0.00352  -0.00718  -0.00649  -0.01367   2.04554
   R13        1.83295   0.00011  -0.00074   0.00105   0.00031   1.83326
   R14        2.56877  -0.00583   0.00875  -0.02325  -0.01450   2.55427
   R15        2.06991  -0.00185  -0.00517  -0.00201  -0.00718   2.06273
   R16        2.70723   0.02538   0.04587   0.01669   0.06256   2.76979
   R17        2.05641  -0.00275  -0.00903  -0.00155  -0.01057   2.04584
   R18        2.67270   0.00435   0.00408   0.00885   0.01293   2.68563
   R19        2.07519  -0.00484  -0.00996  -0.00964  -0.01960   2.05559
   R20        2.08275  -0.00356  -0.00707  -0.00734  -0.01441   2.06834
   R21        2.08275  -0.00356  -0.00707  -0.00734  -0.01441   2.06834
   R22        2.31217  -0.00711   0.00410  -0.01427  -0.01017   2.30199
   R23        2.57893   0.00177   0.00498  -0.00084   0.00414   2.58307
   R24        1.82683   0.00101  -0.00132   0.00391   0.00259   1.82942
    A1        2.11177  -0.00257  -0.00361  -0.00982  -0.01350   2.09827
    A2        2.07122   0.00022  -0.00161  -0.00045  -0.00203   2.06919
    A3        2.10019   0.00235   0.00522   0.01027   0.01552   2.11572
    A4        2.08490   0.00037  -0.00062   0.00382   0.00317   2.08807
    A5        2.09315  -0.00053  -0.00361   0.00030  -0.00330   2.08985
    A6        2.10514   0.00016   0.00423  -0.00412   0.00012   2.10526
    A7        2.07611   0.00399   0.00891   0.01249   0.02143   2.09754
    A8        2.01547  -0.00557  -0.01115  -0.01835  -0.02951   1.98596
    A9        2.19160   0.00158   0.00224   0.00586   0.00808   2.19969
   A10        2.14151  -0.00594  -0.00847  -0.02680  -0.03521   2.10630
   A11        2.07405   0.00347   0.00497   0.01680   0.02174   2.09579
   A12        2.06763   0.00247   0.00350   0.01000   0.01347   2.08110
   A13        2.03817   0.00491   0.00129   0.02570   0.02702   2.06519
   A14        2.08103  -0.00218  -0.00101  -0.01101  -0.01204   2.06899
   A15        2.16398  -0.00273  -0.00027  -0.01469  -0.01498   2.14900
   A16        2.11391  -0.00076   0.00250  -0.00538  -0.00291   2.11100
   A17        2.04534   0.00360   0.00393   0.02405   0.02800   2.07334
   A18        2.12393  -0.00284  -0.00643  -0.01867  -0.02509   2.09884
   A19        1.89488  -0.00113  -0.00270  -0.00662  -0.00932   1.88556
   A20        2.24319  -0.00274   0.00659  -0.02334  -0.01676   2.22643
   A21        2.00005  -0.00146  -0.00972  -0.00526  -0.01498   1.98507
   A22        2.03995   0.00421   0.00313   0.02860   0.03174   2.07169
   A23        2.21775  -0.00121   0.01820  -0.02600  -0.00780   2.20995
   A24        2.08594   0.00310  -0.00596   0.03042   0.02446   2.11040
   A25        1.97949  -0.00189  -0.01224  -0.00442  -0.01666   1.96284
   A26        2.07785  -0.00261  -0.00273  -0.01110  -0.01383   2.06402
   A27        1.86003  -0.00198  -0.00703  -0.00585  -0.01285   1.84718
   A28        1.93883   0.00049   0.00444  -0.00221   0.00223   1.94107
   A29        1.93880   0.00049   0.00443  -0.00221   0.00222   1.94103
   A30        1.89346   0.00167   0.00240   0.01480   0.01723   1.91069
   A31        1.89352   0.00167   0.00241   0.01480   0.01723   1.91075
   A32        1.93647  -0.00225  -0.00674  -0.01776  -0.02453   1.91194
   A33        2.11424   0.00418   0.01239   0.00943   0.02182   2.13606
   A34        2.12295  -0.00963  -0.00192  -0.04930  -0.05122   2.07173
   A35        2.04600   0.00545  -0.01047   0.03987   0.02940   2.07540
   A36        1.94919   0.00042   0.00637  -0.00298   0.00338   1.95258
    D1       -0.00002   0.00000   0.00000  -0.00001  -0.00001  -0.00003
    D2        3.14159  -0.00000  -0.00000  -0.00003  -0.00003   3.14156
    D3        3.14158   0.00000   0.00000   0.00003   0.00004  -3.14157
    D4        0.00001   0.00000   0.00000   0.00001   0.00001   0.00002
    D5       -0.00002   0.00000   0.00000   0.00004   0.00005   0.00003
    D6        3.14159   0.00000   0.00000   0.00003   0.00003  -3.14157
    D7        3.14157   0.00000   0.00000   0.00000   0.00000   3.14157
    D8       -0.00001  -0.00000  -0.00000  -0.00001  -0.00001  -0.00002
    D9        0.00011  -0.00000  -0.00001  -0.00009  -0.00010   0.00001
   D10        3.14152   0.00000   0.00002   0.00018   0.00020  -3.14146
   D11       -3.14151  -0.00000  -0.00001  -0.00006  -0.00007  -3.14158
   D12       -0.00009   0.00001   0.00002   0.00020   0.00022   0.00013
   D13       -3.14158   0.00000   0.00001   0.00009   0.00010  -3.14148
   D14        0.00004   0.00000   0.00001   0.00007   0.00008   0.00011
   D15       -0.00016   0.00000   0.00001   0.00015   0.00016   0.00000
   D16        3.14151   0.00000   0.00001   0.00010   0.00011  -3.14156
   D17       -3.14155  -0.00000  -0.00001  -0.00015  -0.00016   3.14147
   D18        0.00011  -0.00000  -0.00002  -0.00019  -0.00021  -0.00010
   D19       -3.14010  -0.00001  -0.00004  -0.00058  -0.00061  -3.14071
   D20        0.00131  -0.00000  -0.00001  -0.00029  -0.00030   0.00100
   D21        0.00012  -0.00000  -0.00001  -0.00011  -0.00012  -0.00000
   D22       -3.14145  -0.00000  -0.00001  -0.00010  -0.00011  -3.14156
   D23       -3.14155  -0.00000  -0.00001  -0.00007  -0.00007   3.14156
   D24        0.00007  -0.00000  -0.00000  -0.00006  -0.00006   0.00001
   D25       -0.00003   0.00000   0.00000   0.00001   0.00001  -0.00001
   D26        3.14155   0.00000   0.00000   0.00003   0.00003   3.14158
   D27        3.14154  -0.00000  -0.00000   0.00000   0.00000   3.14154
   D28       -0.00007   0.00000   0.00000   0.00002   0.00002  -0.00005
   D29        3.14153   0.00000   0.00000   0.00000   0.00000   3.14153
   D30       -0.00003  -0.00000  -0.00000  -0.00003  -0.00004  -0.00007
   D31       -0.00004   0.00000   0.00000   0.00001   0.00001  -0.00003
   D32        3.14159  -0.00000  -0.00000  -0.00002  -0.00002   3.14156
   D33       -3.14152  -0.00000  -0.00001  -0.00006  -0.00007  -3.14159
   D34        0.00005  -0.00000  -0.00000  -0.00004  -0.00004   0.00001
   D35        0.00004  -0.00000  -0.00000  -0.00003  -0.00003   0.00001
   D36       -3.14157  -0.00000   0.00000  -0.00000  -0.00000  -3.14158
   D37       -3.14157   0.00000   0.00000   0.00004   0.00004  -3.14152
   D38        0.00003   0.00000   0.00000   0.00002   0.00002   0.00005
   D39        0.00004   0.00000   0.00000   0.00002   0.00002   0.00006
   D40       -3.14155  -0.00000  -0.00000  -0.00001  -0.00001  -3.14155
   D41        3.14097  -0.00000  -0.00000  -0.00003  -0.00003   3.14093
   D42       -1.08289   0.00110   0.00116   0.01307   0.01418  -1.06871
   D43        1.08159  -0.00110  -0.00117  -0.01312  -0.01425   1.06734
   D44        0.00011  -0.00000   0.00000  -0.00001  -0.00001   0.00011
   D45       -3.14148  -0.00000  -0.00000  -0.00003  -0.00003  -3.14150
         Item               Value     Threshold  Converged?
 Maximum Force            0.025379     0.000450     NO 
 RMS     Force            0.005216     0.000300     NO 
 Maximum Displacement     0.092617     0.001800     NO 
 RMS     Displacement     0.025571     0.001200     NO 
 Predicted change in Energy=-3.501661D-03
 GradGradGradGradGradGradGradGradGradGradGradGradGradGradGradGradGradGrad

                          Input orientation:                          
 ---------------------------------------------------------------------
 Center     Atomic      Atomic             Coordinates (Angstroms)
 Number     Number       Type             X           Y           Z
 ---------------------------------------------------------------------
      1          6           0       -2.487863    0.467680    0.001158
      2          6           0       -2.401427   -0.926241    0.000859
      3          6           0       -1.135527   -1.546106   -0.000034
      4          6           0        0.021054   -0.773871   -0.000599
      5          6           0       -0.054189    0.638911   -0.000283
      6          6           0       -1.330481    1.241616    0.000614
      7          8           0       -3.537093   -1.671894    0.001433
      8          6           0        1.182017    1.399228   -0.000939
      9          6           0        1.322643    2.743556   -0.000842
     10          8           0       -1.190558   -2.914923   -0.000402
     11          6           0        0.033189   -3.637547   -0.000200
     12          6           0        2.583606    3.490736   -0.001517
     13          8           0        2.620562    4.708338   -0.001304
     14          8           0        3.759548    2.793896   -0.002394
[...]
 00001,0.00000033,0.00000158,-0.00000012,0.,0.00000010,-0.00017988,0.00
 008104,0.02437120,0.00016688,-0.00066573,-0.00000077,-0.00131126,-0.00
 416542,0.00000379,-0.01958745,0.01476418,0.00001538,-0.28755895,0.1091
 6557,0.00016525,0.00020006,0.00048736,0.00000130,0.00161501,0.00006464
 ,0.00000192,-0.00164525,0.00033813,0.00000080,0.00045573,-0.00248010,-
 0.00000333,0.00050559,0.00040198,-0.00000030,0.00146625,0.00057643,-0.
 00000249,-0.00068127,0.00099823,-0.00000012,-0.00031079,-0.00015129,0.
 00000071,0.00007562,0.00017579,-0.00000025,0.00014179,-0.00001868,-0.0
 0000019,-0.00006607,0.00004339,-0.00000019,0.30456243,-0.00083650,-0.0
 0058587,0.00000032,-0.00256794,-0.00231527,0.00000081,-0.01569280,0.01
 307674,0.00000993,0.11020033,-0.11073229,-0.00007455,0.02812030,-0.008
 86284,-0.00001822,-0.00094555,-0.00590793,-0.00000063,-0.00120055,0.00
 027762,0.00000062,0.00290926,0.00096262,-0.00000091,-0.00061716,0.0001
 2699,0.00000030,0.00223835,-0.00003281,-0.00000025,-0.00140888,-0.0020
 5921,0.00000106,0.00009261,-0.00025242,-0.00000015,0.00000991,0.000166
 89,0.00000008,-0.00004646,0.00012252,0.00000003,0.00007209,0.00006941,
 0.00000001,-0.12006878,0.11895465,-0.00000044,-0.00000057,-0.00094072,
 0.00000349,0.00000189,0.00613886,0.00001177,-0.00000704,0.00422476,0.0
 0016498,-0.00007493,-0.03121049,0.00000441,-0.00000186,0.00204884,0.00
 000164,-0.00000037,0.00473298,0.00000009,0.00000020,-0.00055617,-0.000
 00230,0.00000214,-0.00403129,-0.00000040,0.00000014,0.00018118,-0.0000
 0238,0.00000031,-0.00325492,0.00000103,-0.00000043,-0.00017063,0.,0.00
 000057,0.00030109,0.00000005,-0.00000024,-0.00011199,0.00000019,0.0000
 0007,-0.00008591,-0.00000014,0.00000015,-0.00034953,-0.00018130,0.0000
 8173,0.02217928,0.00546971,-0.02782178,-0.00000469,-0.00411619,-0.0016
 7498,0.00000634,-0.00118195,-0.00017310,0.00000006,-0.00503675,0.00135
 646,0.00000666,0.00377118,0.02845823,0.00000291,-0.06099575,0.02517276
 ,0.00001803,0.00030574,-0.00164443,-0.00000012,0.00127125,0.00002035,-
 0.00000299,-0.00149166,0.00048916,0.00000089,0.00033939,-0.00008968,-0
 .00000044,-0.00011025,0.00007881,0.00000003,-0.00006036,-0.00053772,0.
 00000006,0.00012523,0.00013778,-0.00000024,0.00048056,0.00002774,-0.00
 000025,0.00098854,0.00039164,-0.00000306,-0.00008211,0.00146287,0.0000
 0060,0.06198421,0.00332309,-0.01321409,-0.00000842,-0.00262920,0.00091
 343,0.00000738,-0.00018331,0.00054158,-0.00000683,0.00249309,0.0008849
 8,0.00000143,0.00047653,-0.00965190,-0.00000364,0.02419031,-0.34116817
 ,-0.00004866,0.00012012,-0.00102027,-0.00000081,-0.00125841,-0.0013350
 1,-0.00000016,-0.00069797,0.00022244,-0.00000055,0.00005199,-0.0000628
 3,0.00000017,-0.00003414,0.00001246,-0.00000040,-0.00016972,0.00016110
 ,0.00000166,0.00001282,0.00012478,0.,-0.00016623,-0.00002313,-0.000000
 24,-0.00003395,0.00093375,0.00000027,-0.00014603,-0.00052529,-0.000000
 02,-0.02380737,0.36283807,-0.00000101,0.00001352,0.00328978,0.00000625
 ,0.00000063,0.00737044,0.00000026,0.00000051,-0.00094171,0.00000652,-0
 .00000191,0.00574554,-0.00000135,-0.00001781,0.00241645,0.00001841,-0.
 00005352,-0.03492651,-0.00000009,0.00000092,0.00018435,-0.00000285,0.0
 0000056,-0.00354286,0.00000092,-0.00000025,-0.00000353,-0.00000036,-0.
 00000015,-0.00043832,0.00000009,-0.00000008,-0.00019501,-0.00000026,0.
 00000077,-0.00019526,-0.00000010,-0.00000017,-0.00012853,-0.00000008,-
 0.00000004,0.00014996,-0.00000313,0.00000051,-0.00433426,0.00000051,-0
 .00000088,0.00083285,-0.00002527,0.00005688,0.02373454,-0.00680200,-0.
 00369022,0.00000453,0.00821020,-0.04067238,-0.00001004,-0.00368560,-0.
 00882786,0.00000230,0.00081592,0.00061123,-0.00000063,-0.00086377,-0.0
 0000094,0.00000058,0.00184556,-0.00063307,-0.00000029,-0.08233087,0.14
 868902,0.00005483,0.00021425,0.00034936,-0.00000014,-0.00006558,-0.000
 15378,0.00000001,0.00177062,0.00041293,0.00000093,-0.00100304,0.003622
 33,-0.00000241,0.00011833,-0.00005670,-0.00000011,-0.00000784,0.000049
 15,0.,-0.00005996,0.00005961,0.00000004,0.00003414,-0.00000222,-0.0000
 0035,0.00000314,-0.00003915,0.00000014,-0.00037355,-0.00019708,0.00000
 013,0.08056173,-0.00324713,0.00218548,0.00000311,0.00050003,-0.0325743
 2,-0.00000385,0.00301530,0.00424137,-0.00000127,-0.00044030,-0.0025346
 3,0.00000068,0.00131204,0.00095462,-0.00000004,0.00000537,-0.00139363,
 -0.00000097,0.09780722,-0.45678759,-0.00009225,-0.00098385,-0.00081408
 ,-0.00000051,0.00069927,0.00078499,-0.00000049,0.00001569,-0.00156674,
 -0.00000052,0.00027856,-0.00061702,0.00000096,-0.00110276,-0.00052279,
 0.00000135,0.00028262,0.00048915,-0.00000057,0.00045082,-0.00010387,-0
 .00000035,0.00001532,0.00024181,0.00000007,0.00040763,0.00024345,-0.00
 000066,-0.00020938,-0.00002796,-0.00000004,-0.09862125,0.48778282,0.00
 000486,0.00000113,0.00208979,-0.00000599,0.00002048,-0.00277501,0.0000
 0339,0.00000504,0.00154938,-0.00000047,-0.00000045,-0.00072158,0.00000
 058,-0.00000002,0.00003073,-0.00000019,0.00000075,0.00167053,0.0000500
 7,-0.00012084,-0.00734163,-0.00000050,-0.00000036,-0.00007658,-0.00000
 006,0.00000049,-0.00004539,-0.00000089,0.00000060,-0.00145521,-0.00000
 002,-0.00000264,-0.00113576,-0.00000056,0.00000020,-0.00001350,0.00000
 019,-0.00000006,-0.00001377,0.00000038,-0.00000003,-0.00000599,-0.0000
 0034,0.00000021,-0.00059217,0.,0.00000007,0.00019103,-0.00000003,0.000
 00005,-0.00017675,-0.00004926,0.00009520,0.00860925,-0.00082734,0.0014
 0570,-0.00000406,0.00067862,0.00016305,0.00000686,-0.00015912,-0.00001
 261,-0.00000713,0.00083885,0.00237668,0.00000250,-0.02336423,0.0176698
 9,0.00001508,-0.00258751,-0.00491252,0.00000687,-0.00026343,-0.0004009
 8,-0.00000068,-0.23025108,0.12000113,0.00011305,0.00445604,0.00038992,
 -0.00000036,0.00024355,-0.00058597,-0.00000016,-0.00035278,0.00014999,
 -0.00000032,-0.00385607,0.00112745,-0.00000015,0.00116976,-0.00016347,
 0.00000006,0.00026729,-0.00434147,-0.00000126,-0.00035979,-0.00029865,
 -0.00000042,0.00053472,-0.00143098,-0.00000026,0.00020796,0.00014443,-
 0.00000003,-0.00004874,0.00005699,0.00000010,0.25301420,-0.00047232,0.
 00066951,0.00000397,-0.00018510,-0.00007217,-0.00000532,0.00014011,-0.
 00014364,0.00000538,-0.00264810,0.00078888,-0.00000079,-0.01305368,0.0
 0814627,0.00000904,-0.00248781,-0.00193435,-0.00000248,0.00022183,0.00
 011428,0.00000045,0.12400561,-0.14396135,-0.00007543,0.02938066,-0.016
 41683,-0.00001739,0.00001028,0.00020201,0.,0.00005735,-0.00003436,0.00
 000034,0.00426640,-0.00102353,-0.00000336,-0.00107575,0.00128071,0.000
 00075,-0.00230244,0.00149650,0.00000147,-0.00014373,-0.00009985,0.0000
 0041,0.00004617,-0.00038838,-0.00000021,-0.00004210,0.00005865,-0.0000
 0005,-0.00001940,-0.00003689,0.,-0.12987704,0.15709732,0.00000018,0.00
 000020,-0.00013397,-0.00000007,-0.00000069,0.00024624,-0.00000014,0.00
 000029,-0.00010043,-0.00000205,-0.00000112,-0.00132330,0.00001552,-0.0
 0000949,0.00453732,0.00000287,0.00000155,0.00281956,0.00000055,0.,-0.0
 0004674,0.00011323,-0.00007348,-0.04121456,0.00000277,-0.00000190,0.00
 565889,-0.00000025,0.00000045,0.00000283,0.00000018,-0.00000023,0.0000
 6413,-0.00000132,-0.00000051,-0.00743653,-0.00000029,-0.00000005,0.001
 15943,-0.00000055,0.00000303,-0.00034289,-0.00000003,0.00000011,-0.000
 34603,0.,0.00000065,0.00031093,-0.00000007,-0.00000006,-0.00005470,0.0
 0000005,0.00000032,0.00002898,-0.00013763,0.00008098,0.02387424,0.0000
 7804,-0.00012228,-0.00000062,0.00004800,0.00001249,0.00000027,-0.00023
 494,0.00009371,-0.00000011,0.00008912,0.00036059,-0.00000024,-0.001337
 40,-0.00010190,-0.00000264,-0.00024570,-0.00138569,0.00000022,-0.00011
 279,-0.00009026,-0.00000002,0.00808682,-0.00129934,-0.00000182,-0.2387
 7042,0.13683338,0.00012507,0.00004048,0.00005151,-0.00000006,0.0000060
 3,-0.00000199,-0.00000011,-0.02124737,0.02081447,0.00001526,0.00325353
 ,-0.00102609,-0.00000244,-0.00525350,-0.00288503,0.00000439,-0.0000051
 3,0.00000097,0.00000008,0.00003091,0.00006538,0.00000019,-0.00147918,-
 0.00148556,0.00000154,-0.00001183,0.00001982,0.00000017,0.00072729,-0.
 00199842,0.00000521,0.25571670,-0.00038410,0.00043625,0.00000044,0.000
 01110,-0.00002902,-0.00000024,-0.00008484,-0.00011598,0.00000002,0.000
 01361,0.00006035,0.00000023,0.00054492,0.00113123,0.00000042,0.0003381
 5,-0.00097495,-0.00000042,0.00002234,0.00013812,0.00000011,0.02653965,
 -0.01506084,-0.00001686,0.14071204,-0.15909365,-0.00009041,-0.00009823
 ,0.00035965,0.00000014,0.00015909,-0.00007645,0.00000002,-0.01431658,0
 .00958719,0.00000887,0.00022613,0.00054071,0.00000013,-0.00391260,-0.0
 0098366,0.00000206,-0.00001521,-0.00003493,-0.00000002,-0.00008118,0.0
 0022660,-0.00000002,-0.00160471,0.00040240,0.00000090,0.00000803,-0.00
 000534,-0.00000010,-0.00102243,-0.00437847,-0.00000062,-0.14693491,0.1
 6845119,-0.00000084,-0.00000003,-0.00031827,-0.00000013,0.00000029,-0.
 00045408,0.00000010,0.00000052,0.00009499,-0.00000090,-0.00000100,-0.0
 0017421,-0.00000242,0.00000052,-0.00558879,0.00000015,0.00000051,-0.00
 022934,0.00000024,-0.00000041,0.00019825,0.00000031,-0.00000018,0.0043
 6693,0.00012647,-0.00008887,-0.03644288,0.00000007,-0.00000029,0.00003
 965,0.00000006,-0.00000003,0.00002453,0.00001190,-0.00000934,0.0018584
 6,-0.00000273,0.00000023,-0.00141263,0.00000449,0.00000099,0.00273821,
 -0.00000006,-0.00000004,0.00010782,0.00000018,-0.00000007,0.00013670,0
 .00000164,0.00000116,0.00121080,0.00000002,0.00000027,0.00004876,0.000
 00548,-0.00000026,0.01030060,-0.00014374,0.00009547,0.02361346,-0.0005
 9260,-0.00023204,0.00000074,0.00069260,0.00199376,-0.00000038,-0.00499
 292,0.00142183,-0.00000028,-0.00131156,-0.00044893,0.00000106,0.000469
 53,0.00032537,0.00000010,0.00018400,-0.00009730,-0.00000036,-0.0000080
 8,-0.00032450,-0.00000012,-0.00010810,0.00003119,0.00000017,0.00005819
 ,0.00003259,-0.00000003,0.00022397,0.04238150,-0.00000456,-0.07009443,
 -0.08761180,0.00001898,-0.00002910,0.00001982,0.,0.00000221,-0.0000120
 3,-0.00000003,0.00001743,-0.00001513,0.,0.00000012,0.00015186,0.000000
 01,0.00080357,-0.00028349,-0.00000087,0.00005241,-0.00001342,-0.000000
 07,-0.00010407,0.00020480,0.00000007,0.00004155,0.00001881,-0.00000001
 ,-0.00000137,-0.00001218,0.,0.07990593,0.00034455,0.00006503,-0.000000
 42,-0.00062898,-0.00115416,0.00000052,0.00279622,0.00198535,0.00000147
 ,0.00019893,0.00034214,0.,-0.00007804,-0.00007829,0.00000023,-0.000038
 91,-0.00008774,0.00000011,0.00028027,0.00023695,-0.00000005,0.00016690
 ,0.00008811,-0.00000034,-0.00014890,-0.00014594,-0.00000001,0.00387355
 ,-0.02247637,-0.00000079,-0.07363457,-0.30307604,0.00006667,0.00025780
 ,0.00012761,0.00000008,-0.00007607,-0.00012210,-0.00000007,-0.00011963
 ,0.00001676,0.00000005,0.00000338,-0.00009512,-0.00000006,0.00005283,0
 .00008963,-0.00000032,-0.00000087,-0.00001480,-0.00000004,-0.00011133,
 -0.00017146,0.00000003,-0.00001604,0.00001606,0.00000009,-0.00000123,0
 .00001053,0.00000007,0.07204233,0.33221366,-0.00000014,-0.00000019,-0.
 00000977,-0.00000037,-0.00000022,0.00028493,0.00000195,-0.00000176,0.0
 0064078,0.00000064,-0.00000051,0.00026684,-0.00000021,0.00000014,0.000
 14683,0.00000014,-0.00000006,-0.00003558,0.00000009,0.00000006,-0.0001
 1481,0.00000012,0.00000008,0.00003882,0.00000014,0.00000004,0.00001479
 ,-0.00000114,-0.00000867,0.00022961,0.00001749,0.00007078,-0.05158178,
 -0.00000006,0.00000025,-0.00001146,0.,-0.00000003,0.00000177,0.0000000
 1,0.,0.00000761,-0.00000007,-0.00000004,-0.00003816,-0.00000051,-0.000
 00020,-0.00048094,-0.00000001,0.00000014,-0.00002368,0.00000015,-0.000
 00002,0.00016188,0.00000008,-0.00000010,-0.00001225,-0.00000002,0.0000
 0002,-0.00000290,-0.00002330,-0.00007108,0.04684757,-0.00011845,-0.000
 45507,-0.00005765,-0.00088320,0.00081747,-0.00037169,0.00069292,-0.006
 07891,0.00038244,0.00039200,0.00024248,-0.00045618,0.00003891,0.000399
 72,0.00003850,0.00039306,0.00031517,-0.00001329,-0.00005400,0.00043819
 ,-0.00013740,-0.00022537,-0.00010699,0.00000988,0.00018645,0.00019336,
 -0.00001407,-0.03229697,0.00664951,0.02376647,-0.11198921,-0.03003934,
 0.10391202,-0.00029190,-0.00013854,0.00000703,0.00008296,0.00013292,-0
 .00000402,0.00013579,-0.00002474,-0.00000747,-0.00000862,0.00003645,0.
 00005410,0.00036077,0.00004959,0.00011038,0.00001672,0.00000904,-0.000
 00028,0.00089827,-0.00017714,0.00035115,0.00003417,-0.00001264,0.00000
 602,-0.00000080,-0.00001791,-0.00000005,-0.00260551,-0.00260058,0.0071
 1734,0.13413242,0.00032835,0.00059778,0.00009118,0.00124262,-0.0005283
 9,0.00047544,0.00061857,0.00445332,-0.00173136,-0.00091968,0.00035037,
 -0.00011195,0.00019310,-0.00067701,0.00046850,-0.00066474,0.00010369,0
 .00010070,-0.00033492,-0.00052034,-0.00000627,0.00006018,0.00002338,-0
 .00001658,-0.00001364,-0.00001054,0.00001129,0.01796607,0.00005879,-0.
 01658031,-0.03374819,-0.06684375,0.05257941,-0.00004178,-0.00002972,-0
 .00000624,0.00001992,0.00002823,0.00000044,0.00002446,0.00000419,0.000
 00751,-0.00000583,0.00000940,-0.00004792,0.00012602,-0.00128585,-0.001
 27299,-0.00002122,0.00000632,-0.00009104,-0.00037327,0.00009582,-0.000
 11216,-0.00001385,-0.00000612,-0.00001497,-0.00000071,-0.00000022,-0.0
 0000015,-0.01478618,-0.00387911,0.02591974,0.02737780,0.06562051,-0.00
 003571,0.00017361,-0.00002762,0.00009796,-0.00045854,-0.00023593,-0.00
 006076,0.00156842,0.00052459,0.00124844,0.00012793,-0.00001089,-0.0004
 8613,-0.00013569,-0.00006266,-0.00007179,-0.00003646,-0.00005970,-0.00
 016219,0.00000238,0.00005014,0.00012658,-0.00001795,0.00003050,-0.0000
 6059,-0.00003133,0.00000525,0.00272269,-0.00507709,0.00728901,0.107554
 97,0.04919676,-0.23114358,0.00007006,-0.00004918,-0.00000943,-0.000012
 52,0.00003244,0.00000520,-0.00005342,0.00003542,0.00001689,-0.00000051
 ,-0.00001783,0.00001658,-0.00064799,-0.00020631,-0.00009974,-0.0000579
 8,0.00002427,0.00002249,-0.00012818,0.00004860,-0.00002168,-0.00005513
 ,-0.00002241,-0.00001795,0.00000067,0.00001930,-0.00000521,-0.00188209
 ,-0.00032128,0.00183254,-0.12139654,-0.05223837,0.24199355,-0.00011798
 ,-0.00045651,0.00005973,-0.00088317,0.00081809,0.00036952,0.00069562,-
 0.00608106,-0.00037918,0.00039227,0.00024209,0.00045465,0.00003856,0.0
 0039983,-0.00003709,0.00039337,0.00031615,0.00001081,-0.00005404,0.000
 43772,0.00013832,-0.00022548,-0.00010693,-0.00000984,0.00018630,0.0001
 9360,0.00001423,-0.03231217,0.00664266,-0.02374718,-0.11210907,-0.0301
 0347,-0.10396642,-0.00029215,-0.00013806,-0.00000695,0.00008307,0.0001
 3272,0.00000370,0.00013605,-0.00002471,0.00000742,-0.00000867,0.000036
 51,-0.00005395,0.00036082,0.00004988,-0.00011100,0.00001665,0.00000903
 ,0.00000016,0.00089735,-0.00017733,-0.00035267,0.00003428,-0.00001268,
 -0.00000586,-0.00000068,-0.00001800,0.00000003,-0.00260840,-0.00260205
 ,-0.00711236,0.01114957,0.00298408,0.01328178,0.13426780,0.00032863,0.
 00059819,-0.00009156,0.00124281,-0.00052801,-0.00047636,0.00061910,0.0
 0445537,0.00173262,-0.00091940,0.00035118,0.00011242,0.00019296,-0.000
 67777,-0.00046865,-0.00066547,0.00010413,-0.00009979,-0.00033526,-0.00
 051983,0.00000657,0.00006003,0.00002329,0.00001629,-0.00001389,-0.0000
 1048,-0.00001134,0.01797500,0.00006189,0.01656895,-0.03381895,-0.06687
 957,-0.05262359,-0.00004187,-0.00002998,0.00000643,0.00002001,0.000028
 26,-0.00000050,0.00002457,0.00000419,-0.00000755,-0.00000571,0.0000095
 1,0.00004784,0.00012744,-0.00128493,0.00127289,-0.00002116,0.00000610,
 0.00009104,-0.00037280,0.00009546,0.00011264,-0.00001394,-0.00000602,0
 .00001504,-0.00000064,-0.00000029,0.00000019,-0.01479911,-0.00388693,-
 0.02590824,0.00298313,0.00243390,0.00740875,0.02745172,0.06565691,0.00
 003557,-0.00017575,-0.00002424,-0.00009837,0.00046026,-0.00024109,0.00
 006123,-0.00156561,0.00053088,-0.00124736,-0.00012945,-0.00001228,0.00
 048504,0.00013514,-0.00006123,0.00007161,0.00003794,-0.00006321,0.0001
 6163,-0.00000251,0.00005031,-0.00012630,0.00001849,0.00003165,0.000060
 79,0.00003194,0.00000596,-0.00270650,0.00507249,0.00729348,-0.10761042
 ,-0.04924152,-0.23098890,-0.00007071,0.00005130,-0.00001051,0.00001268
 ,-0.00003304,0.00000518,0.00005397,-0.00003534,0.00001709,0.00000040,0
 .00001800,0.00001691,0.00064750,0.00020649,-0.00010155,0.00005788,-0.0
 0002372,0.00002225,0.00012769,-0.00004905,-0.00002153,0.00005579,0.000
 02191,-0.00001804,-0.00000051,-0.00001940,-0.00000552,0.00189097,0.000
 32517,0.00184611,-0.01330096,-0.00741906,-0.02007179,0.12144646,0.0522
 9108,0.24182071,0.00015042,0.00004042,-0.00000193,-0.00055840,-0.00028
 729,0.00000313,0.00024113,-0.00057912,-0.00000318,0.00017219,-0.000130
 43,0.00000125,0.00044140,-0.00150916,-0.00000192,0.00028937,0.00052601
 ,0.00000173,0.00055523,0.00047768,-0.00000058,-0.00404538,0.00327136,0
 .00000246,-0.00213564,-0.00086569,0.00000027,-0.00016459,0.00073848,0.
 00000015,0.00031394,-0.00017991,-0.00000027,0.01384956,0.03742459,-0.0
 0000283,-0.00775430,0.00705614,0.00000970,-0.06066349,-0.10691987,0.00
 000709,0.00007601,0.00004173,-0.00000019,-0.00004015,-0.00013234,0.000
 00013,-0.00010180,-0.00000805,0.00000009,-0.00001265,-0.00011234,0.000
 00002,-0.00017819,-0.00381601,0.00000170,0.00062420,-0.00007217,-0.000
 00029,0.00000463,0.00004042,0.00000004,-0.00003995,-0.00001715,0.00000
 837,-0.00003990,-0.00001721,-0.00000808,0.05901636,0.00007719,-0.00027
 492,0.00000678,0.00017144,0.00010993,-0.00001049,-0.00022077,0.0000717
 1,0.00001034,-0.00015904,0.00024589,-0.00000408,0.00011647,-0.00107382
 ,0.00000308,0.00011047,0.00012910,-0.00000654,-0.00016562,-0.00018346,
 0.00000139,-0.00444235,0.00435924,0.00000337,-0.00123913,-0.00067738,0
 .00000249,0.00012134,-0.00015136,-0.00000002,-0.00012842,0.00005272,0.
 00000090,-0.00579237,-0.02590103,-0.00000220,0.00522932,0.00151198,-0.
 00000485,-0.05745757,-0.49109241,-0.00008846,0.00001279,0.00002149,0.0
 0000052,0.00000145,-0.00008403,-0.00000040,0.00005270,-0.00006259,-0.0
 0000025,-0.00003019,0.00004139,-0.00000022,-0.00039527,-0.00136823,0.0
 0000041,-0.00091827,-0.00059041,0.00000045,0.00001224,-0.00000376,-0.0
 0000013,0.00000701,-0.00000465,-0.00002546,0.00000669,-0.00000457,0.00
 002425,0.06502988,0.51492917,-0.00000015,-0.00000028,0.00004569,0.0000
 0041,0.00000037,0.00005712,-0.00000016,0.00000045,-0.00006740,-0.00000
 013,-0.00000011,0.00004083,-0.00000096,0.00000121,-0.00073847,-0.00000
 031,-0.00000027,0.00001017,-0.00000050,-0.00000034,-0.00002654,0.00000
 246,-0.00000283,-0.00009300,0.00000113,0.00000145,-0.00026719,0.000000
 10,-0.00000060,-0.00003569,-0.00000011,0.00000015,0.00008856,-0.000016
 33,-0.00002644,-0.00721208,0.00000977,-0.00000442,0.00666987,0.0000205
 8,-0.00006075,-0.00514001,-0.00000008,0.,0.00000531,0.00000009,0.00000
 009,0.00011539,0.00000007,0.00000009,-0.00001834,0.00000002,0.00000003
 ,0.00001620,0.00000173,0.00000311,0.00204426,-0.00000073,-0.00000003,-
 0.00010532,0.,-0.00000004,-0.00000874,0.00000427,-0.00000483,-0.000020
 57,-0.00000429,0.00000483,-0.00002065,-0.00001688,0.00008915,0.0046606
 1\\0.00014944,0.00014823,-0.00000017,-0.00008897,-0.00011698,0.0000005
 2,0.00000612,0.00005236,0.00000275,-0.00002959,-0.00001303,-0.00000073
 ,0.00000237,-0.00005561,0.00000050,-0.00021075,-0.00008580,0.00000004,
 0.00009515,0.00004320,-0.00000017,0.00004718,0.00008510,-0.00000064,0.
 00003698,-0.00002633,-0.00000226,-0.00003658,-0.00000624,-0.00000428,0
 .00002494,-0.00004786,0.00000212,-0.00012837,0.00014669,0.00000886,0.0
 0001523,-0.00009795,-0.00000372,0.00011734,-0.00004946,-0.00000213,-0.
 00000868,-0.00001918,0.00000010,0.00000426,0.00002013,-0.00000007,0.00
 004845,0.00003137,0.,-0.00001336,-0.00000678,0.00000018,-0.00000302,-0
 .00001732,-0.00000028,-0.00002179,0.00000022,0.,-0.00000201,0.00000739
 ,0.00000028,0.00000315,0.00000002,-0.00000211,0.00000347,0.00000108,0.
 00000153,-0.00001094,0.00000673,-0.00000031\\\@


 THE PROMISED LAND ALWAYS LIES ON THE OTHER SIDE OF A WILDERNESS.

                         -- HAVELOCK ELLIS
 Job cpu time:       0 days  1 hours  5 minutes 11.1 seconds.
 File lengths (MBytes):  RWF=    250 Int=      0 D2E=      0 Chk=      9 Scr=      1
 Normal termination of Gaussian 09 at Tue May 28 17:01:33 2024.
