 Entering Gaussian System, Link 0=g09
 Input=B3PW91D3BJFAyang.gjf
 Output=B3PW91D3BJFAyang.log
 Initial command:
 /home/c612/g09E/g09/l1.exe "/mnt/ja_sm883/scratch/Gau-1911683.inp" -scrdir="/mnt/ja_sm883/scratch/"
 Default is to use a total of  18 processors:
                               18 via shared-memory
                                1 via Linda
 Entering Link 1 = /home/c612/g09E/g09/l1.exe PID=   1911685.
  
 Copyright (c) 1988,1990,1992,1993,1995,1998,2003,2009,2015,
            Gaussian, Inc.  All Rights Reserved.
  
 This is part of the Gaussian(R) 09 program.  It is based on
 the Gaussian(R) 03 system (copyright 2003, Gaussian, Inc.),
 the Gaussian(R) 98 system (copyright 1998, Gaussian, Inc.),
 the Gaussian(R) 94 system (copyright 1995, Gaussian, Inc.),
 the Gaussian 92(TM) system (copyright 1992, Gaussian, Inc.),
 the Gaussian 90(TM) system (copyright 1990, Gaussian, Inc.),
 the Gaussian 88(TM) system (copyright 1988, Gaussian, Inc.),
 the Gaussian 86(TM) system (copyright 1986, Carnegie Mellon
 University), and the Gaussian 82(TM) system (copyright 1983,
 Carnegie Mellon University). Gaussian is a federally registered
 trademark of Gaussian, Inc.
  
 This software contains proprietary and confidential information,
 including trade secrets, belonging to Gaussian, Inc.
  
 This software is provided under written license and may be
 used, copied, transmitted, or stored only in accord with that
 written license.
  
 The following legend is applicable only to US Government
 contracts under FAR:
  
                    RESTRICTED RIGHTS LEGEND
  
 Use, reproduction and disclosure by the US Government is
 subject to restrictions as set forth in subparagraphs (a)
 and (c) of the Commercial Computer Software - Restricted
 Rights clause in FAR 52.227-19.
  
 Gaussian, Inc.
 340 Quinnipiac St., Bldg. 40, Wallingford CT 06492
  
  
 ---------------------------------------------------------------
 Warning -- This program may not be used in any manner that
 competes with the business of Gaussian, Inc. or will provide
 assistance to any competitor of Gaussian, Inc.  The licensee
 of this program is prohibited from giving any competitor of
 Gaussian, Inc. access to this program.  By using this program,
 the user acknowledges that Gaussian, Inc. is engaged in the
 business of creating and licensing software in the field of
 computational chemistry and represents and warrants to the
 licensee that it is not a competitor of Gaussian, Inc. and that
 it will not use this program in any manner prohibited above.
 ---------------------------------------------------------------
  

 Cite this work as:
 Gaussian 09, Revision E.01,
 M. J. Frisch, G. W. Trucks, H. B. Schlegel, G. E. Scuseria, 
 M. A. Robb, J. R. Cheeseman, G. Scalmani, V. Barone, B. Mennucci, 
 G. A. Petersson, H. Nakatsuji, M. Caricato, X. Li, H. P. Hratchian, 
 A. F. Izmaylov, J. Bloino, G. Zheng, J. L. Sonnenberg, M. Hada, 
 M. Ehara, K. Toyota, R. Fukuda, J. Hasegawa, M. Ishida, T. Nakajima, 
 Y. Honda, O. Kitao, H. Nakai, T. Vreven, J. A. Montgomery, Jr., 
 J. E. Peralta, F. Ogliaro, M. Bearpark, J. J. Heyd, E. Brothers, 
 K. N. Kudin, V. N. Staroverov, T. Keith, R. Kobayashi, J. Normand, 
 K. Raghavachari, A. Rendell, J. C. Burant, S. S. Iyengar, J. Tomasi, 
 M. Cossi, N. Rega, J. M. Millam, M. Klene, J. E. Knox, J. B. Cross, 
 V. Bakken, C. Adamo, J. Jaramillo, R. Gomperts, R. E. Stratmann, 
 O. Yazyev, A. J. Austin, R. Cammi, C. Pomelli, J. W. Ochterski, 
 R. L. Martin, K. Morokuma, V. G. Zakrzewski, G. A. Voth, 
 P. Salvador, J. J. Dannenberg, S. Dapprich, A. D. Daniels, 
 O. Farkas, J. B. Foresman, J. V. Ortiz, J. Cioslowski, 
 and D. J. Fox, Gaussian, Inc., Wallingford CT, 2013.
 
 ******************************************
 Gaussian 09:  ES64L-G09RevE.01 30-Nov-2015
                18-Dec-2024 
 ******************************************
 %chk=B3PW91D3BJFAyang.chk
 -------------------------------------------------------
 # opt freq b3pw91/6-31+g(d,p) EmpiricalDispersion=GD3BJ
 -------------------------------------------------------
 1/14=-1,18=20,19=15,26=3,38=1/1,3;
 2/9=110,12=2,17=6,18=5,40=1/2;
 3/5=1,6=6,7=111,11=2,16=1,25=1,30=1,71=1,74=-6,124=41/1,2,3;
 4//1;
 5/5=2,38=5/2;
 6/7=2,8=2,9=2,10=2,28=1/1;
 7//1,2,3,16;
 1/14=-1,18=20,19=15,26=3/3(2);
 2/9=110/2;
 99//99;
 2/9=110/2;
 3/5=1,6=6,7=111,11=2,16=1,25=1,30=1,71=1,74=-6,124=41/1,2,3;
 4/5=5,16=3,69=1/1;
 5/5=2,38=5/2;
 7//1,2,3,16;
 1/14=-1,18=20,19=15,26=3/3(-5);
 2/9=110/2;
 6/7=2,8=2,9=2,10=2,19=2,28=1/1;
 99/9=1/99;
 ----------
 [No Title]
 ----------
 Symbolic Z-matrix:
 Charge =  1 Multiplicity = 1
 C                     1.47536  -2.02797  -0.02226 
 C                     2.51505  -1.08565  -0.01126 
 C                     2.22907   0.30992   0.00469 
 C                     0.91936   0.73357   0.01093 
 C                    -0.14635  -0.21493   0.00223 
 C                     0.16664  -1.60024  -0.01701 
 O                     3.77214  -1.50434  -0.01718 
 C                    -1.47346   0.27253   0.00957 
 C                    -2.64626  -0.47068   0.01651 
 C                    -3.89482   0.13685  -0.00016 
 O                    -4.96297  -0.63038   0.1002 
 O                    -4.01246   1.44793  -0.12404 
 O                     3.34193   1.07535   0.01212 
 C                     3.20344   2.49592   0.02921 
 H                     1.73326  -3.08144  -0.0366 
 H                     0.68398   1.7926    0.02333 
 H                    -0.62549  -2.34071  -0.02827 
 H                     4.36974  -0.73639  -0.00878 
 H                    -1.58495   1.35587   0.00962 
 H                    -2.65752  -1.55342   0.03618 
 H                    -5.80289  -0.19408  -0.10601 
 H                    -4.88537   1.79808   0.10667 
 H                     4.21762   2.89256   0.03231 
 H                     2.67572   2.84195  -0.86593 
 H                     2.6786    2.82047   0.93405 
 

 GradGradGradGradGradGradGradGradGradGradGradGradGradGradGradGradGradGrad
 Berny optimization.
 Initialization pass.
                           ----------------------------
                           !    Initial Parameters    !
                           ! (Angstroms and Degrees)  !
 --------------------------                            --------------------------
 ! Name  Definition              Value          Derivative Info.                !
 --------------------------------------------------------------------------------
 ! R1    R(1,2)                  1.4032         estimate D2E/DX2                !
 ! R2    R(1,6)                  1.3769         estimate D2E/DX2                !
 ! R3    R(1,15)                 1.0847         estimate D2E/DX2                !
 ! R4    R(2,3)                  1.4247         estimate D2E/DX2                !
 ! R5    R(2,7)                  1.325          estimate D2E/DX2                !
 ! R6    R(3,4)                  1.3765         estimate D2E/DX2                !
 ! R7    R(3,13)                 1.3507         estimate D2E/DX2                !
 ! R8    R(4,5)                  1.4267         estimate D2E/DX2                !
 ! R9    R(4,16)                 1.0849         estimate D2E/DX2                !
 ! R10   R(5,6)                  1.4204         estimate D2E/DX2                !
 ! R11   R(5,8)                  1.4138         estimate D2E/DX2                !
 ! R12   R(6,17)                 1.0844         estimate D2E/DX2                !
 ! R13   R(7,18)                 0.9731         estimate D2E/DX2                !
 ! R14   R(8,9)                  1.3885         estimate D2E/DX2                !
 ! R15   R(8,19)                 1.0891         estimate D2E/DX2                !
 ! R16   R(9,10)                 1.3886         estimate D2E/DX2                !
 ! R17   R(9,20)                 1.083          estimate D2E/DX2                !
 ! R18   R(10,11)                1.319          estimate D2E/DX2                !
 ! R19   R(10,12)                1.3222         estimate D2E/DX2                !
 ! R20   R(11,21)                0.9687         estimate D2E/DX2                !
 ! R21   R(12,22)                0.9684         estimate D2E/DX2                !
 ! R22   R(13,14)                1.4274         estimate D2E/DX2                !
 ! R23   R(14,23)                1.089          estimate D2E/DX2                !
 ! R24   R(14,24)                1.0952         estimate D2E/DX2                !
 ! R25   R(14,25)                1.0952         estimate D2E/DX2                !
 ! A1    A(2,1,6)              119.7102         estimate D2E/DX2                !
 ! A2    A(2,1,15)             118.4344         estimate D2E/DX2                !
 ! A3    A(6,1,15)             121.8553         estimate D2E/DX2                !
 ! A4    A(1,2,3)              120.6096         estimate D2E/DX2                !
 ! A5    A(1,2,7)              119.388          estimate D2E/DX2                !
 ! A6    A(3,2,7)              120.0023         estimate D2E/DX2                !
 ! A7    A(2,3,4)              119.5064         estimate D2E/DX2                !
 ! A8    A(2,3,13)             112.9419         estimate D2E/DX2                !
 ! A9    A(4,3,13)             127.5517         estimate D2E/DX2                !
 ! A10   A(3,4,5)              120.4025         estimate D2E/DX2                !
 ! A11   A(3,4,16)             120.4566         estimate D2E/DX2                !
 ! A12   A(5,4,16)             119.1409         estimate D2E/DX2                !
 ! A13   A(4,5,6)              118.9405         estimate D2E/DX2                !
 ! A14   A(4,5,8)              118.1586         estimate D2E/DX2                !
 ! A15   A(6,5,8)              122.9007         estimate D2E/DX2                !
 ! A16   A(1,6,5)              120.8304         estimate D2E/DX2                !
 ! A17   A(1,6,17)             118.8267         estimate D2E/DX2                !
 ! A18   A(5,6,17)             120.3429         estimate D2E/DX2                !
 ! A19   A(2,7,18)             109.465          estimate D2E/DX2                !
 ! A20   A(5,8,9)              127.4693         estimate D2E/DX2                !
 ! A21   A(5,8,19)             116.0443         estimate D2E/DX2                !
 ! A22   A(9,8,19)             116.4864         estimate D2E/DX2                !
 ! A23   A(8,9,10)             121.6834         estimate D2E/DX2                !
 ! A24   A(8,9,20)             122.958          estimate D2E/DX2                !
 ! A25   A(10,9,20)            115.3586         estimate D2E/DX2                !
 ! A26   A(9,10,11)            118.2133         estimate D2E/DX2                !
 ! A27   A(9,10,12)            120.9953         estimate D2E/DX2                !
 ! A28   A(11,10,12)           120.7892         estimate D2E/DX2                !
 ! A29   A(10,11,21)           115.0877         estimate D2E/DX2                !
 ! A30   A(10,12,22)           114.6094         estimate D2E/DX2                !
 ! A31   A(3,13,14)            118.954          estimate D2E/DX2                !
 ! A32   A(13,14,23)           105.7926         estimate D2E/DX2                !
 ! A33   A(13,14,24)           110.5728         estimate D2E/DX2                !
 ! A34   A(13,14,25)           110.5667         estimate D2E/DX2                !
 ! A35   A(23,14,24)           109.633          estimate D2E/DX2                !
 ! A36   A(23,14,25)           109.6337         estimate D2E/DX2                !
 ! A37   A(24,14,25)           110.5309         estimate D2E/DX2                !
 ! D1    D(6,1,2,3)             -0.0287         estimate D2E/DX2                !
 ! D2    D(6,1,2,7)           -179.9607         estimate D2E/DX2                !
 ! D3    D(15,1,2,3)           179.8611         estimate D2E/DX2                !
 ! D4    D(15,1,2,7)            -0.0709         estimate D2E/DX2                !
 ! D5    D(2,1,6,5)             -0.1314         estimate D2E/DX2                !
 ! D6    D(2,1,6,17)           179.8427         estimate D2E/DX2                !
 ! D7    D(15,1,6,5)           179.9827         estimate D2E/DX2                !
 ! D8    D(15,1,6,17)           -0.0432         estimate D2E/DX2                !
 ! D9    D(1,2,3,4)              0.0785         estimate D2E/DX2                !
 ! D10   D(1,2,3,13)          -179.9282         estimate D2E/DX2                !
 ! D11   D(7,2,3,4)           -179.9899         estimate D2E/DX2                !
 ! D12   D(7,2,3,13)             0.0034         estimate D2E/DX2                !
 ! D13   D(1,2,7,18)           179.9551         estimate D2E/DX2                !
 ! D14   D(3,2,7,18)             0.0227         estimate D2E/DX2                !
 ! D15   D(2,3,4,5)              0.0317         estimate D2E/DX2                !
 ! D16   D(2,3,4,16)           179.9825         estimate D2E/DX2                !
 ! D17   D(13,3,4,5)          -179.9605         estimate D2E/DX2                !
 ! D18   D(13,3,4,16)           -0.0097         estimate D2E/DX2                !
 ! D19   D(2,3,13,14)         -179.9531         estimate D2E/DX2                !
 ! D20   D(4,3,13,14)            0.0396         estimate D2E/DX2                !
 ! D21   D(3,4,5,6)             -0.1869         estimate D2E/DX2                !
 ! D22   D(3,4,5,8)            179.9819         estimate D2E/DX2                !
 ! D23   D(16,4,5,6)           179.8617         estimate D2E/DX2                !
 ! D24   D(16,4,5,8)             0.0305         estimate D2E/DX2                !
 ! D25   D(4,5,6,1)              0.2384         estimate D2E/DX2                !
 ! D26   D(4,5,6,17)          -179.7353         estimate D2E/DX2                !
 ! D27   D(8,5,6,1)           -179.9389         estimate D2E/DX2                !
 ! D28   D(8,5,6,17)             0.0874         estimate D2E/DX2                !
 ! D29   D(4,5,8,9)           -179.3111         estimate D2E/DX2                !
 ! D30   D(4,5,8,19)             0.698          estimate D2E/DX2                !
 ! D31   D(6,5,8,9)              0.8648         estimate D2E/DX2                !
 ! D32   D(6,5,8,19)          -179.1261         estimate D2E/DX2                !
 ! D33   D(5,8,9,10)          -178.8596         estimate D2E/DX2                !
 ! D34   D(5,8,9,20)             1.2092         estimate D2E/DX2                !
 ! D35   D(19,8,9,10)            1.1313         estimate D2E/DX2                !
 ! D36   D(19,8,9,20)         -178.8            estimate D2E/DX2                !
 ! D37   D(8,9,10,11)         -175.4371         estimate D2E/DX2                !
 ! D38   D(8,9,10,12)            5.0986         estimate D2E/DX2                !
 ! D39   D(20,9,10,11)           4.4991         estimate D2E/DX2                !
 ! D40   D(20,9,10,12)        -174.9652         estimate D2E/DX2                !
 ! D41   D(9,10,11,21)        -167.3787         estimate D2E/DX2                !
 ! D42   D(12,10,11,21)         12.0867         estimate D2E/DX2                !
 ! D43   D(9,10,12,22)        -164.5976         estimate D2E/DX2                !
 ! D44   D(11,10,12,22)         15.9519         estimate D2E/DX2                !
 ! D45   D(3,13,14,23)        -179.9948         estimate D2E/DX2                !
 ! D46   D(3,13,14,24)         -61.3672         estimate D2E/DX2                !
 ! D47   D(3,13,14,25)          61.38           estimate D2E/DX2                !
 --------------------------------------------------------------------------------
 Trust Radius=3.00D-01 FncErr=1.00D-07 GrdErr=1.00D-06
 Number of steps in this run=    119 maximum allowed number of steps=    150.
 GradGradGradGradGradGradGradGradGradGradGradGradGradGradGradGradGradGrad

                          Input orientation:                          
 ---------------------------------------------------------------------
 Center     Atomic      Atomic             Coordinates (Angstroms)
 Number     Number       Type             X           Y           Z
 ---------------------------------------------------------------------
      1          6           0        1.475358   -2.027968   -0.022258
      2          6           0        2.515049   -1.085648   -0.011255
      3          6           0        2.229075    0.309918    0.004686
      4          6           0        0.919360    0.733574    0.010930
      5          6           0       -0.146346   -0.214926    0.002225
      6          6           0        0.166639   -1.600235   -0.017010
      7          8           0        3.772139   -1.504336   -0.017181
      8          6           0       -1.473460    0.272532    0.009566
      9          6           0       -2.646260   -0.470681    0.016512
     10          6           0       -3.894816    0.136847   -0.000158
     11          8           0       -4.962974   -0.630379    0.100200
     12          8           0       -4.012462    1.447929   -0.124040
     13          8           0        3.341929    1.075347    0.012116
     14          6           0        3.203441    2.495921    0.029208
     15          1           0        1.733260   -3.081436   -0.036596
     16          1           0        0.683984    1.792598    0.023333
     17          1           0       -0.625492   -2.340712   -0.028268
     18          1           0        4.369739   -0.736386   -0.008782
     19          1           0       -1.584954    1.355871    0.009620
     20          1           0       -2.657516   -1.553415    0.036175
     21          1           0       -5.802893   -0.194081   -0.106011
     22          1           0       -4.885369    1.798081    0.106668
     23          1           0        4.217623    2.892555    0.032307
     24          1           0        2.675720    2.841952   -0.865929
     25          1           0        2.678603    2.820471    0.934048
 ---------------------------------------------------------------------
                    Distance matrix (angstroms):
                    1          2          3          4          5
     1  C    0.000000
     2  C    1.403227   0.000000
     3  C    2.456527   1.424654   0.000000
     4  C    2.817153   2.419976   1.376545   0.000000
     5  C    2.432621   2.800243   2.432713   1.426695   0.000000
     6  C    1.376855   2.404134   2.811191   2.452353   1.420356
     7  O    2.355721   1.324994   2.381815   3.625932   4.125225
     8  C    3.740166   4.213465   3.702727   2.436832   1.413825
     9  C    4.406175   5.197891   4.937445   3.763497   2.513003
    10  C    5.790137   6.525411   6.126338   4.851030   3.764941
    11  O    6.589413   7.492698   7.253885   6.039055   4.835505
    12  O    6.496798   7.002866   6.345741   4.985117   4.210449
    13  O    3.621579   2.313909   1.350696   2.446559   3.719269
    14  C    4.842984   3.647349   2.393449   2.885000   4.309349
    15  H    1.084672   2.143596   3.427655   3.901153   3.428018
    16  H    3.901932   3.411495   2.141493   1.084937   2.172567
    17  H    2.124009   3.382081   3.895572   3.440834   2.179329
    18  H    3.169512   1.887290   2.382724   3.750505   4.546104
    19  H    4.562553   4.771947   3.954853   2.580474   2.130035
    20  H    4.160440   5.193889   5.229892   4.245586   2.845818
    21  H    7.506204   8.366124   8.048526   6.786966   5.657621
    22  H    7.423889   7.943298   7.269136   5.902306   5.149898
    23  H    5.633342   4.327442   3.259617   3.942105   5.357384
    24  H    5.086135   4.022726   2.714527   2.880788   4.249971
    25  H    5.086225   4.022203   2.714529   2.881358   4.249972
                    6          7          8          9         10
     6  C    0.000000
     7  O    3.606775   0.000000
     8  C    2.489556   5.538437   0.000000
     9  C    3.031405   6.501186   1.388479   0.000000
    10  C    4.417370   7.840661   2.425174   1.388618   0.000000
    11  O    5.221809   8.779509   3.605575   2.323719   1.318965
    12  O    5.173746   8.326302   2.801060   2.359518   1.322166
    13  O    4.152355   2.615474   4.881853   6.184548   7.297356
    14  C    5.099294   4.040746   5.178537   6.558955   7.480063
    15  H    2.156071   2.577722   4.640505   5.098927   6.483357
    16  H    3.432286   4.517534   2.639196   4.026537   4.869032
    17  H    1.084391   4.476473   2.747640   2.753638   4.102142
    18  H    4.290962   0.973110   5.929690   7.021074   8.310564
    19  H    3.436182   6.072886   1.089061   2.112513   2.611815
    20  H    2.825044   6.430064   2.176414   1.082971   2.095046
    21  H    6.133555   9.664673   4.356039   3.171096   1.939453
    22  H    6.089880   9.266809   3.738697   3.188890   1.937087
    23  H    6.049634   4.419678   6.265258   7.643592   8.567768
    24  H    5.171961   4.562097   4.958236   6.330538   7.158149
    25  H    5.172728   4.561207   4.958456   6.326746   7.161314
                   11         12         13         14         15
    11  O    0.000000
    12  O    2.296328   0.000000
    13  O    8.478719   7.365081   0.000000
    14  C    8.744663   7.293218   1.427411   0.000000
    15  H    7.132036   7.316838   4.457469   5.768247   0.000000
    16  H    6.145312   4.711382   2.753043   2.615791   4.986058
    17  H    4.664278   5.082769   5.235601   6.169040   2.472337
    18  H    9.333951   8.662898   2.083076   3.436496   3.528605
    19  H    3.919747   2.432927   4.934863   4.922278   5.540972
    20  H    2.484196   3.296910   6.550138   7.123762   4.649630
    21  H    0.968681   2.429437   9.233264   9.400449   8.070641
    22  H    2.429708   0.968400   8.259523   8.119226   8.224139
    23  H    9.833567   8.357373   2.017298   1.088987   6.470346
    24  H    8.446309   6.872080   2.082232   1.095216   6.054961
    25  H    8.425994   6.911857   2.082167   1.095227   6.055438
                   16         17         18         19         20
    16  H    0.000000
    17  H    4.336086   0.000000
    18  H    4.470076   5.246577   0.000000
    19  H    2.310627   3.819258   6.311596   0.000000
    20  H    4.728804   2.180163   7.074735   3.100813   0.000000
    21  H    6.785514   5.605314  10.187541   4.495190   3.429490
    22  H    5.569979   5.940906   9.596555   3.331322   4.025025
    23  H    3.700891   7.130674   3.632360   6.002650   8.187442
    24  H    2.420525   6.201587   4.050791   4.596560   6.969681
    25  H    2.421658   6.203298   4.049704   4.601906   6.957817
                   21         22         23         24         25
    21  H    0.000000
    22  H    2.203586   0.000000
    23  H   10.486048   9.168853   0.000000
    24  H    9.037801   7.694523   1.785176   0.000000
    25  H    9.061182   7.677468   1.785193   1.800107   0.000000
 Stoichiometry    C10H11O4(1+)
 Framework group  C1[X(C10H11O4)]
 Deg. of freedom    69
 Full point group                 C1      NOp   1
 Largest Abelian subgroup         C1      NOp   1
 Largest concise Abelian subgroup C1      NOp   1
                         Standard orientation:                         
 ---------------------------------------------------------------------
 Center     Atomic      Atomic             Coordinates (Angstroms)
 Number     Number       Type             X           Y           Z
 ---------------------------------------------------------------------
      1          6           0        1.475358   -2.027968   -0.022258
      2          6           0        2.515049   -1.085648   -0.011255
      3          6           0        2.229075    0.309918    0.004686
      4          6           0        0.919360    0.733574    0.010930
      5          6           0       -0.146346   -0.214926    0.002225
      6          6           0        0.166639   -1.600235   -0.017010
      7          8           0        3.772139   -1.504336   -0.017181
      8          6           0       -1.473460    0.272532    0.009566
      9          6           0       -2.646260   -0.470681    0.016512
     10          6           0       -3.894816    0.136847   -0.000158
     11          8           0       -4.962974   -0.630379    0.100200
     12          8           0       -4.012462    1.447929   -0.124040
     13          8           0        3.341929    1.075347    0.012116
     14          6           0        3.203441    2.495921    0.029208
     15          1           0        1.733260   -3.081436   -0.036596
     16          1           0        0.683984    1.792598    0.023333
     17          1           0       -0.625492   -2.340712   -0.028268
     18          1           0        4.369739   -0.736386   -0.008782
     19          1           0       -1.584954    1.355871    0.009620
     20          1           0       -2.657516   -1.553415    0.036175
     21          1           0       -5.802893   -0.194081   -0.106011
     22          1           0       -4.885369    1.798081    0.106668
     23          1           0        4.217623    2.892555    0.032307
     24          1           0        2.675720    2.841952   -0.865929
     25          1           0        2.678603    2.820471    0.934048
 ---------------------------------------------------------------------
 Rotational constants (GHZ):      1.5392713      0.2853975      0.2412416
 Standard basis: 6-31+G(d,p) (6D, 7F)
 There are   321 symmetry adapted cartesian basis functions of A   symmetry.
 There are   321 symmetry adapted basis functions of A   symmetry.
   321 basis functions,   525 primitive gaussians,   321 cartesian basis functions
    51 alpha electrons       51 beta electrons
       nuclear repulsion energy       839.6626037816 Hartrees.
 NAtoms=   25 NActive=   25 NUniq=   25 SFac= 1.00D+00 NAtFMM=   60 NAOKFM=F Big=F
 Integral buffers will be    131072 words long.
 Raffenetti 2 integral format.
 Two-electron integral symmetry is turned on.
 Nuclear repulsion after empirical dispersion term =      839.6177065481 Hartrees.
 One-electron integrals computed using PRISM.
 NBasis=   321 RedAO= T EigKep=  1.39D-06  NBF=   321
 NBsUse=   320 1.00D-06 EigRej=  6.54D-07 NBFU=   320
 ExpMin= 4.38D-02 ExpMax= 5.48D+03 ExpMxC= 8.25D+02 IAcc=2 IRadAn=         4 AccDes= 0.00D+00
 Harris functional with IExCor=  408 and IRadAn=       4 diagonalized for initial guess.
 HarFok:  IExCor=  408 AccDes= 0.00D+00 IRadAn=         4 IDoV= 1 UseB2=F ITyADJ=14
 ICtDFT=  3500011 ScaDFX=  1.000000  1.000000  1.000000  1.000000
 FoFCou: FMM=F IPFlag=           0 FMFlag=      100000 FMFlg1=           0
         NFxFlg=           0 DoJE=T BraDBF=F KetDBF=T FulRan=T
         wScrn=  0.000000 ICntrl=     500 IOpCl=  0 I1Cent=   200000004 NGrid=           0
         NMat0=    1 NMatS0=      1 NMatT0=    0 NMatD0=    1 NMtDS0=    0 NMtDT0=    0
 Petite list used in FoFCou.
 Requested convergence on RMS density matrix=1.00D-08 within 128 cycles.
 Requested convergence on MAX density matrix=1.00D-06.
 Requested convergence on             energy=1.00D-06.
 No special actions if energy rises.
 SCF Done:  E(RB3PW91) =  -688.143688515     A.U. after   15 cycles
            NFock= 15  Conv=0.78D-08     -V/T= 2.0091

 **********************************************************************

            Population analysis using the SCF density.

 **********************************************************************

 Orbital symmetries:
       Occupied  (A) (A) (A) (A) (A) (A) (A) (A) (A) (A) (A) (A)
                 (A) (A) (A) (A) (A) (A) (A) (A) (A) (A) (A) (A)
                 (A) (A) (A) (A) (A) (A) (A) (A) (A) (A) (A) (A)
                 (A) (A) (A) (A) (A) (A) (A) (A) (A) (A) (A) (A)
                 (A) (A) (A)
       Virtual   (A) (A) (A) (A) (A) (A) (A) (A) (A) (A) (A) (A)
                 (A) (A) (A) (A) (A) (A) (A) (A) (A) (A) (A) (A)
                 (A) (A) (A) (A) (A) (A) (A) (A) (A) (A) (A) (A)
                 (A) (A) (A) (A) (A) (A) (A) (A) (A) (A) (A) (A)
                 (A) (A) (A) (A) (A) (A) (A) (A) (A) (A) (A) (A)
                 (A) (A) (A) (A) (A) (A) (A) (A) (A) (A) (A) (A)
                 (A) (A) (A) (A) (A) (A) (A) (A) (A) (A) (A) (A)
                 (A) (A) (A) (A) (A) (A) (A) (A) (A) (A) (A) (A)
                 (A) (A) (A) (A) (A) (A) (A) (A) (A) (A) (A) (A)
                 (A) (A) (A) (A) (A) (A) (A) (A) (A) (A) (A) (A)
                 (A) (A) (A) (A) (A) (A) (A) (A) (A) (A) (A) (A)
                 (A) (A) (A) (A) (A) (A) (A) (A) (A) (A) (A) (A)
                 (A) (A) (A) (A) (A) (A) (A) (A) (A) (A) (A) (A)
                 (A) (A) (A) (A) (A) (A) (A) (A) (A) (A) (A) (A)
                 (A) (A) (A) (A) (A) (A) (A) (A) (A) (A) (A) (A)
                 (A) (A) (A) (A) (A) (A) (A) (A) (A) (A) (A) (A)
                 (A) (A) (A) (A) (A) (A) (A) (A) (A) (A) (A) (A)
                 (A) (A) (A) (A) (A) (A) (A) (A) (A) (A) (A) (A)
                 (A) (A) (A) (A) (A) (A) (A) (A) (A) (A) (A) (A)
                 (A) (A) (A) (A) (A) (A) (A) (A) (A) (A) (A) (A)
                 (A) (A) (A) (A) (A) (A) (A) (A) (A) (A) (A) (A)
                 (A) (A) (A) (A) (A) (A) (A) (A) (A) (A) (A) (A)
                 (A) (A) (A) (A) (A)
 The electronic state is 1-A.
 Alpha  occ. eigenvalues --  -19.38365 -19.38199 -19.32417 -19.32063 -10.50391
 Alpha  occ. eigenvalues --  -10.39977 -10.38415 -10.37098 -10.34923 -10.34209
 Alpha  occ. eigenvalues --  -10.34199 -10.33456 -10.33350 -10.32147  -1.32253
 Alpha  occ. eigenvalues --   -1.24543  -1.23780  -1.20697  -1.01750  -0.97870
 Alpha  occ. eigenvalues --   -0.92083  -0.90755  -0.85940  -0.83651  -0.80566
 Alpha  occ. eigenvalues --   -0.78684  -0.75536  -0.72649  -0.70684  -0.67829
 Alpha  occ. eigenvalues --   -0.65700  -0.64606  -0.64212  -0.62725  -0.60794
 Alpha  occ. eigenvalues --   -0.59450  -0.58522  -0.57079  -0.56033  -0.55960
 Alpha  occ. eigenvalues --   -0.55591  -0.53656  -0.53369  -0.52428  -0.51170
 Alpha  occ. eigenvalues --   -0.48754  -0.47956  -0.47860  -0.44031  -0.39130
 Alpha  occ. eigenvalues --   -0.35733
 Alpha virt. eigenvalues --   -0.24927  -0.15174  -0.14293  -0.14186  -0.09595
 Alpha virt. eigenvalues --   -0.09005  -0.08538  -0.08402  -0.07735  -0.06514
 Alpha virt. eigenvalues --   -0.05388  -0.05158  -0.04408  -0.03914  -0.03725
 Alpha virt. eigenvalues --   -0.02478  -0.01818  -0.01514  -0.01095  -0.00347
 Alpha virt. eigenvalues --    0.00796   0.01295   0.01950   0.02292   0.02972
 Alpha virt. eigenvalues --    0.03288   0.03568   0.03777   0.04065   0.04513
 Alpha virt. eigenvalues --    0.04919   0.05019   0.05282   0.05813   0.06002
 Alpha virt. eigenvalues --    0.07751   0.08061   0.08291   0.08614   0.09318
 Alpha virt. eigenvalues --    0.09704   0.10039   0.10450   0.10647   0.11591
 Alpha virt. eigenvalues --    0.11694   0.12185   0.12677   0.13512   0.13809
 Alpha virt. eigenvalues --    0.14483   0.14918   0.15476   0.15937   0.16631
 Alpha virt. eigenvalues --    0.16735   0.17356   0.18084   0.18104   0.18917
 Alpha virt. eigenvalues --    0.19334   0.19957   0.20483   0.21130   0.21527
 Alpha virt. eigenvalues --    0.23227   0.23310   0.23894   0.24363   0.24531
 Alpha virt. eigenvalues --    0.25432   0.26029   0.27474   0.28140   0.28386
 Alpha virt. eigenvalues --    0.29794   0.30915   0.31451   0.33719   0.35369
 Alpha virt. eigenvalues --    0.36268   0.37815   0.39125   0.45646   0.48936
 Alpha virt. eigenvalues --    0.52461   0.53039   0.54027   0.54538   0.56790
 Alpha virt. eigenvalues --    0.57543   0.57684   0.58709   0.59838   0.60276
 Alpha virt. eigenvalues --    0.61108   0.61459   0.62896   0.64133   0.65073
 Alpha virt. eigenvalues --    0.65270   0.67026   0.71542   0.72279   0.73936
 Alpha virt. eigenvalues --    0.76038   0.78348   0.79047   0.79612   0.79868
 Alpha virt. eigenvalues --    0.82080   0.83692   0.84723   0.86339   0.90184
 Alpha virt. eigenvalues --    0.90533   0.93375   0.93720   0.94992   0.96288
 Alpha virt. eigenvalues --    0.97309   0.98751   0.99335   1.01077   1.02909
 Alpha virt. eigenvalues --    1.03582   1.04463   1.04647   1.05934   1.06955
 Alpha virt. eigenvalues --    1.07324   1.08894   1.09720   1.10580   1.10984
 Alpha virt. eigenvalues --    1.11724   1.12890   1.14692   1.14899   1.16132
 Alpha virt. eigenvalues --    1.16921   1.17524   1.18663   1.20448   1.21974
 Alpha virt. eigenvalues --    1.22375   1.23109   1.25710   1.26305   1.27770
 Alpha virt. eigenvalues --    1.28436   1.29818   1.32681   1.33455   1.37765
 Alpha virt. eigenvalues --    1.40869   1.42397   1.43208   1.45006   1.45995
 Alpha virt. eigenvalues --    1.48798   1.51660   1.55575   1.60826   1.62849
 Alpha virt. eigenvalues --    1.64341   1.66680   1.67289   1.69537   1.71053
 Alpha virt. eigenvalues --    1.72228   1.73731   1.75641   1.76286   1.76460
 Alpha virt. eigenvalues --    1.77756   1.79063   1.79768   1.82773   1.82907
 Alpha virt. eigenvalues --    1.84365   1.88247   1.89629   1.90530   1.92007
 Alpha virt. eigenvalues --    1.92230   1.94184   1.95178   2.00205   2.01163
 Alpha virt. eigenvalues --    2.03260   2.04251   2.07396   2.09182   2.10069
 Alpha virt. eigenvalues --    2.13684   2.13850   2.15296   2.18413   2.22392
 Alpha virt. eigenvalues --    2.23722   2.24252   2.25277   2.28428   2.31805
 Alpha virt. eigenvalues --    2.33142   2.34606   2.35294   2.36125   2.38067
 Alpha virt. eigenvalues --    2.39951   2.40540   2.41898   2.43111   2.43918
 Alpha virt. eigenvalues --    2.44689   2.47719   2.49122   2.50495   2.51732
 Alpha virt. eigenvalues --    2.52978   2.55154   2.56740   2.57305   2.59405
 Alpha virt. eigenvalues --    2.60945   2.61058   2.63848   2.69021   2.70382
 Alpha virt. eigenvalues --    2.72969   2.73017   2.74626   2.76496   2.82201
 Alpha virt. eigenvalues --    2.84938   2.88576   2.94511   2.96754   3.01524
 Alpha virt. eigenvalues --    3.04958   3.07698   3.09702   3.14091   3.20306
 Alpha virt. eigenvalues --    3.22690   3.27773   3.29705   3.31462   3.34742
 Alpha virt. eigenvalues --    3.37232   3.41789   3.42143   3.48398   3.67936
 Alpha virt. eigenvalues --    4.05960   4.11976   4.15008   4.20584   4.22765
 Alpha virt. eigenvalues --    4.26695   4.31360   4.34283   4.38923   4.40768
 Alpha virt. eigenvalues --    4.46461   4.54085   4.67649   4.97095
          Condensed to atoms (all electrons):
               1          2          3          4          5          6
     1  C   11.891504  -0.124607  -1.460939  -1.372964  -0.210135  -2.453011
     2  C   -0.124607  16.206716  -3.529536  -4.152595  -0.740118   0.030117
     3  C   -1.460939  -3.529536  13.117006   0.488062  -0.962592  -1.639544
     4  C   -1.372964  -4.152595   0.488062  15.198297   1.180213  -1.445318
     5  C   -0.210135  -0.740118  -0.962592   1.180213   8.622956  -0.369664
     6  C   -2.453011   0.030117  -1.639544  -1.445318  -0.369664  10.643160
     7  O   -0.411583   0.065755   0.322372   0.098558  -0.040013  -0.051082
     8  C   -0.012625  -0.710345  -0.040194  -2.669708  -0.576526   0.603576
     9  C   -0.261903  -0.151678  -0.466218  -1.534740  -0.276872   0.721868
    10  C   -0.159502   0.027329   0.059427  -0.457645  -1.187202   0.111446
    11  O    0.000264   0.000678   0.000419   0.007677   0.024797  -0.004469
    12  O   -0.004546  -0.001054   0.001621  -0.015763  -0.001807   0.003320
    13  O    0.058511  -0.830549   0.516555   0.248060  -0.009215  -0.044599
    14  C    0.046007  -0.043079  -0.069339   0.020715  -0.050463  -0.006022
    15  H    0.115295   0.142398  -0.003736   0.018187  -0.020252   0.088130
    16  H   -0.003926   0.000279  -0.110645   0.241270   0.035788  -0.006481
    17  H   -0.014875  -0.015865  -0.005645   0.023472   0.131815   0.161716
    18  H    0.163141   0.172943  -0.294431  -0.062483   0.002259   0.006551
    19  H    0.010213   0.004893   0.038184   0.272684   0.047353  -0.076129
    20  H    0.036569  -0.005733   0.009053   0.013685   0.080481  -0.019557
    21  H    0.000240   0.000039  -0.000038   0.001045  -0.000933   0.001835
    22  H   -0.000452  -0.000014   0.000397   0.005126   0.010459  -0.004142
    23  H    0.001663   0.047486   0.038950  -0.061478  -0.003204  -0.000336
    24  H   -0.002334  -0.029357  -0.056434   0.069005   0.009000   0.002281
    25  H   -0.001294  -0.034586  -0.057709   0.070547   0.017418   0.000856
               7          8          9         10         11         12
     1  C   -0.411583  -0.012625  -0.261903  -0.159502   0.000264  -0.004546
     2  C    0.065755  -0.710345  -0.151678   0.027329   0.000678  -0.001054
     3  C    0.322372  -0.040194  -0.466218   0.059427   0.000419   0.001621
     4  C    0.098558  -2.669708  -1.534740  -0.457645   0.007677  -0.015763
     5  C   -0.040013  -0.576526  -0.276872  -1.187202   0.024797  -0.001807
     6  C   -0.051082   0.603576   0.721868   0.111446  -0.004469   0.003320
     7  O    8.258593   0.006107   0.000295   0.000271   0.000000  -0.000000
     8  C    0.006107   9.615989  -1.510585   0.786532  -0.125875   0.128838
     9  C    0.000295  -1.510585  12.017010  -2.189843   0.339829  -0.115929
    10  C    0.000271   0.786532  -2.189843   8.191425  -0.107535   0.138209
    11  O    0.000000  -0.125875   0.339829  -0.107535   8.148502  -0.091918
    12  O   -0.000000   0.128838  -0.115929   0.138209  -0.091918   8.194816
    13  O   -0.011390  -0.027823  -0.003489   0.000010   0.000001  -0.000006
    14  C    0.002742  -0.032219  -0.003995  -0.002426  -0.000002  -0.000008
    15  H   -0.007708  -0.007743   0.000908  -0.000017   0.000000  -0.000000
    16  H   -0.000385   0.133005   0.028919   0.000196  -0.000000  -0.000096
    17  H   -0.000598   0.015729  -0.008356   0.022039   0.000139   0.000017
    18  H    0.199293   0.000017   0.000081   0.000014   0.000000   0.000000
    19  H   -0.000006   0.248986  -0.183484  -0.066149   0.000781  -0.006014
    20  H   -0.000003   0.051446   0.294876  -0.138186  -0.011387   0.007168
    21  H   -0.000000   0.055222  -0.091215   0.053373   0.213265  -0.004304
    22  H   -0.000000  -0.001292   0.040617  -0.027192  -0.004922   0.207931
    23  H   -0.000156   0.000196   0.000097   0.000005   0.000000  -0.000000
    24  H   -0.000120   0.000103  -0.000282   0.000001  -0.000000   0.000001
    25  H   -0.000099  -0.001659  -0.000277  -0.000085   0.000000  -0.000000
              13         14         15         16         17         18
     1  C    0.058511   0.046007   0.115295  -0.003926  -0.014875   0.163141
     2  C   -0.830549  -0.043079   0.142398   0.000279  -0.015865   0.172943
     3  C    0.516555  -0.069339  -0.003736  -0.110645  -0.005645  -0.294431
     4  C    0.248060   0.020715   0.018187   0.241270   0.023472  -0.062483
     5  C   -0.009215  -0.050463  -0.020252   0.035788   0.131815   0.002259
     6  C   -0.044599  -0.006022   0.088130  -0.006481   0.161716   0.006551
     7  O   -0.011390   0.002742  -0.007708  -0.000385  -0.000598   0.199293
     8  C   -0.027823  -0.032219  -0.007743   0.133005   0.015729   0.000017
     9  C   -0.003489  -0.003995   0.000908   0.028919  -0.008356   0.000081
    10  C    0.000010  -0.002426  -0.000017   0.000196   0.022039   0.000014
    11  O    0.000001  -0.000002   0.000000  -0.000000   0.000139   0.000000
    12  O   -0.000006  -0.000008  -0.000000  -0.000096   0.000017   0.000000
    13  O    8.560273   0.061238  -0.000527  -0.013083   0.000156   0.043862
    14  C    0.061238   5.011547   0.000019   0.000681  -0.000052   0.004446
    15  H   -0.000527   0.000019   0.477645   0.000011  -0.003982  -0.000053
    16  H   -0.013083   0.000681   0.000011   0.522707  -0.000111  -0.000021
    17  H    0.000156  -0.000052  -0.003982  -0.000111   0.525464   0.000005
    18  H    0.043862   0.004446  -0.000053  -0.000021   0.000005   0.349920
    19  H    0.000067   0.001131   0.000002   0.003178  -0.000009   0.000000
    20  H    0.000001   0.000025   0.000004  -0.000000   0.001073   0.000000
    21  H    0.000000  -0.000000   0.000000   0.000000  -0.000000  -0.000000
    22  H   -0.000000   0.000005  -0.000000  -0.000000   0.000000   0.000000
    23  H   -0.066209   0.412013  -0.000000   0.000070  -0.000000  -0.000078
    24  H   -0.040845   0.406768   0.000000  -0.000642   0.000000   0.000037
    25  H   -0.041170   0.405557   0.000000  -0.000617   0.000000   0.000036
              19         20         21         22         23         24
     1  C    0.010213   0.036569   0.000240  -0.000452   0.001663  -0.002334
     2  C    0.004893  -0.005733   0.000039  -0.000014   0.047486  -0.029357
     3  C    0.038184   0.009053  -0.000038   0.000397   0.038950  -0.056434
     4  C    0.272684   0.013685   0.001045   0.005126  -0.061478   0.069005
     5  C    0.047353   0.080481  -0.000933   0.010459  -0.003204   0.009000
     6  C   -0.076129  -0.019557   0.001835  -0.004142  -0.000336   0.002281
     7  O   -0.000006  -0.000003  -0.000000  -0.000000  -0.000156  -0.000120
     8  C    0.248986   0.051446   0.055222  -0.001292   0.000196   0.000103
     9  C   -0.183484   0.294876  -0.091215   0.040617   0.000097  -0.000282
    10  C   -0.066149  -0.138186   0.053373  -0.027192   0.000005   0.000001
    11  O    0.000781  -0.011387   0.213265  -0.004922   0.000000  -0.000000
    12  O   -0.006014   0.007168  -0.004304   0.207931  -0.000000   0.000001
    13  O    0.000067   0.000001   0.000000  -0.000000  -0.066209  -0.040845
    14  C    0.001131   0.000025  -0.000000   0.000005   0.412013   0.406768
    15  H    0.000002   0.000004   0.000000  -0.000000  -0.000000   0.000000
    16  H    0.003178  -0.000000   0.000000  -0.000000   0.000070  -0.000642
    17  H   -0.000009   0.001073  -0.000000   0.000000  -0.000000   0.000000
    18  H    0.000000   0.000000  -0.000000   0.000000  -0.000078   0.000037
    19  H    0.515401   0.003203   0.000009  -0.000070   0.000000  -0.000001
    20  H    0.003203   0.489191   0.000035  -0.000178  -0.000000   0.000000
    21  H    0.000009   0.000035   0.375746   0.003614   0.000000  -0.000000
    22  H   -0.000070  -0.000178   0.003614   0.374855  -0.000000   0.000000
    23  H    0.000000  -0.000000   0.000000  -0.000000   0.482225  -0.023328
    24  H   -0.000001   0.000000  -0.000000   0.000000  -0.023328   0.528911
    25  H   -0.000001   0.000000   0.000000  -0.000000  -0.023300  -0.038234
              25
     1  C   -0.001294
     2  C   -0.034586
     3  C   -0.057709
     4  C    0.070547
     5  C    0.017418
     6  C    0.000856
     7  O   -0.000099
     8  C   -0.001659
     9  C   -0.000277
    10  C   -0.000085
    11  O    0.000000
    12  O   -0.000000
    13  O   -0.041170
    14  C    0.405557
    15  H    0.000000
    16  H   -0.000617
    17  H    0.000000
    18  H    0.000036
    19  H   -0.000001
    20  H    0.000000
    21  H    0.000000
    22  H   -0.000000
    23  H   -0.023300
    24  H   -0.038234
    25  H    0.529250
 Mulliken charges:
               1
     1  C    0.171289
     2  C   -0.329519
     3  C    0.104953
     4  C   -0.183911
     5  C    0.286456
     6  C   -0.254503
     7  O   -0.430843
     8  C    0.070846
     9  C   -0.645633
    10  C    0.945506
    11  O   -0.390245
    12  O   -0.440476
    13  O   -0.399829
    14  C   -0.165290
    15  H    0.201419
    16  H    0.169904
    17  H    0.167867
    18  H    0.414460
    19  H    0.185779
    20  H    0.188231
    21  H    0.392068
    22  H    0.395256
    23  H    0.195382
    24  H    0.175469
    25  H    0.175365
 Sum of Mulliken charges =   1.00000
 Mulliken charges with hydrogens summed into heavy atoms:
               1
     1  C    0.372708
     2  C   -0.329519
     3  C    0.104953
     4  C   -0.014007
     5  C    0.286456
     6  C   -0.086636
     7  O   -0.016383
     8  C    0.256625
     9  C   -0.457403
    10  C    0.945506
    11  O    0.001822
    12  O   -0.045219
    13  O   -0.399829
    14  C    0.380927
 Electronic spatial extent (au):  <R**2>=           4153.6220
 Charge=              1.0000 electrons
 Dipole moment (field-independent basis, Debye):
    X=             -7.7160    Y=              3.4843    Z=              0.0659  Tot=              8.4665
 Quadrupole moment (field-independent basis, Debye-Ang):
   XX=             10.0104   YY=            -61.0805   ZZ=            -82.4483
   XY=             -2.4654   XZ=              0.3103   YZ=              1.1492
 Traceless Quadrupole moment (field-independent basis, Debye-Ang):
   XX=             54.5165   YY=            -16.5744   ZZ=            -37.9421
   XY=             -2.4654   XZ=              0.3103   YZ=              1.1492
 Octapole moment (field-independent basis, Debye-Ang**2):
  XXX=           -330.5922  YYY=             21.1283  ZZZ=             -0.0597  XYY=              3.4892
  XXY=             97.0916  XXZ=             -3.0804  XZZ=             -3.5897  YZZ=              5.4527
  YYZ=              1.4812  XYZ=             -4.3117
 Hexadecapole moment (field-independent basis, Debye-Ang**3):
 XXXX=          -1335.3608 YYYY=           -777.9634 ZZZZ=            -90.7304 XXXY=           -247.3745
 XXXZ=             30.6234 YYYX=             26.4336 YYYZ=              3.6616 ZZZX=              0.6000
 ZZZY=             -0.0206 XXYY=           -670.0233 XXZZ=           -706.9221 YYZZ=           -173.2256
 XXYZ=             23.2267 YYXZ=             -5.8356 ZZXY=             -2.6965
 N-N= 8.396177065481D+02 E-N=-3.269334723044D+03  KE= 6.819117639861D+02
 Calling FoFJK, ICntrl=      2127 FMM=F ISym2X=0 I1Cent= 0 IOpClX= 0 NMat=1 NMatS=1 NMatT=0.
 ***** Axes restored to original set *****
 -------------------------------------------------------------------
 Center     Atomic                   Forces (Hartrees/Bohr)
 Number     Number              X              Y              Z
 -------------------------------------------------------------------
      1        6          -0.000145101    0.000405000    0.000007329
      2        6          -0.000137958    0.000262307    0.000002455
      3        6          -0.000202591    0.000040826    0.000005316
      4        6           0.000119357    0.000004215   -0.000000175
      5        6          -0.000100618    0.000086102   -0.000000071
      6        6          -0.000146749    0.000267254    0.000005062
      7        8          -0.000408241    0.000253844    0.000004939
      8        6           0.000218123   -0.000168594   -0.000004850
      9        6           0.000377957    0.000065639   -0.000001429
     10        6           0.000428440   -0.000074172   -0.000000443
     11        8           0.000275830    0.000076802   -0.000014431
     12        8           0.000246203   -0.000205104    0.000008818
     13        8          -0.000319232   -0.000225621   -0.000006197
     14        6          -0.000222796   -0.000410967   -0.000002893
     15        1          -0.000038229    0.000306563    0.000004853
     16        1           0.000063942   -0.000253853   -0.000003877
     17        1           0.000056330    0.000319256    0.000004517
     18        1          -0.000270355    0.000138474    0.000003066
     19        1           0.000063017   -0.000190489   -0.000001776
     20        1           0.000181110    0.000176117   -0.000005450
     21        1           0.000194837    0.000017532    0.000007901
     22        1           0.000175021   -0.000164179   -0.000004133
     23        1          -0.000163151   -0.000201590   -0.000001643
     24        1          -0.000121847   -0.000263794    0.000087075
     25        1          -0.000123298   -0.000261567   -0.000093965
 -------------------------------------------------------------------
 Cartesian Forces:  Max     0.000428440 RMS     0.000180864

 GradGradGradGradGradGradGradGradGradGradGradGradGradGradGradGradGradGrad
 Berny optimization.
 FormGI is forming the generalized inverse of G from B-inverse, IUseBI=4.
 GSVD:  received Info=                   1 from GESDD.
 Internal  Forces:  Max     0.002369925 RMS     0.000550962
 Search for a local minimum.
 Step number   1 out of a maximum of  119
 All quantities printed in internal units (Hartrees-Bohrs-Radians)
 Mixed Optimization -- En-DIIS/RFO-DIIS
 Second derivative matrix not updated -- first step.
 ITU=  0
     Eigenvalues ---    0.01329   0.01797   0.01846   0.01906   0.01949
     Eigenvalues ---    0.02038   0.02074   0.02076   0.02137   0.02165
     Eigenvalues ---    0.02226   0.02239   0.02240   0.02241   0.02254
     Eigenvalues ---    0.02344   0.02494   0.02684   0.02721   0.02764
     Eigenvalues ---    0.10147   0.10701   0.16000   0.16000   0.16000
     Eigenvalues ---    0.16000   0.16000   0.16000   0.16000   0.16000
     Eigenvalues ---    0.16000   0.16000   0.16000   0.22000   0.22000
     Eigenvalues ---    0.22369   0.23477   0.24604   0.24999   0.25000
     Eigenvalues ---    0.25000   0.25000   0.25000   0.25000   0.34215
     Eigenvalues ---    0.34217   0.34921   0.34930   0.35404   0.35436
     Eigenvalues ---    0.35469   0.35638   0.39078   0.40404   0.41364
     Eigenvalues ---    0.42121   0.43404   0.44023   0.47305   0.47560
     Eigenvalues ---    0.47584   0.49711   0.52746   0.53647   0.53705
     Eigenvalues ---    0.54873   0.60704   0.61395   0.62190
 RFO step:  Lambda=-9.93121858D-05 EMin= 1.32918816D-02
 Linear search not attempted -- first point.
 Iteration  1 RMS(Cart)=  0.00976063 RMS(Int)=  0.00001699
 Iteration  2 RMS(Cart)=  0.00002408 RMS(Int)=  0.00000073
 Iteration  3 RMS(Cart)=  0.00000000 RMS(Int)=  0.00000073
 Variable       Old X    -DE/DX   Delta X   Delta X   Delta X     New X
                                 (Linear)    (Quad)   (Total)
    R1        2.65171  -0.00066   0.00000  -0.00143  -0.00143   2.65028
    R2        2.60188  -0.00072   0.00000  -0.00141  -0.00141   2.60047
    R3        2.04973  -0.00031   0.00000  -0.00086  -0.00086   2.04887
    R4        2.69221  -0.00114   0.00000  -0.00274  -0.00274   2.68947
    R5        2.50388  -0.00077   0.00000  -0.00126  -0.00126   2.50261
    R6        2.60129  -0.00133   0.00000  -0.00271  -0.00271   2.59858
    R7        2.55245  -0.00156   0.00000  -0.00283  -0.00283   2.54961
    R8        2.69606  -0.00130   0.00000  -0.00317  -0.00317   2.69290
    R9        2.05023  -0.00026   0.00000  -0.00074  -0.00074   2.04949
   R10        2.68408  -0.00100   0.00000  -0.00233  -0.00233   2.68175
   R11        2.67174  -0.00218   0.00000  -0.00501  -0.00501   2.66673
   R12        2.04920  -0.00026   0.00000  -0.00073  -0.00073   2.04848
   R13        1.83891  -0.00006   0.00000  -0.00012  -0.00012   1.83880
   R14        2.62384  -0.00155   0.00000  -0.00325  -0.00325   2.62060
   R15        2.05803  -0.00019   0.00000  -0.00056  -0.00056   2.05747
   R16        2.62411  -0.00133   0.00000  -0.00280  -0.00280   2.62131
   R17        2.04652  -0.00018   0.00000  -0.00051  -0.00051   2.04601
   R18        2.49248  -0.00044   0.00000  -0.00071  -0.00071   2.49177
   R19        2.49853  -0.00039   0.00000  -0.00064  -0.00064   2.49789
   R20        1.83054  -0.00016   0.00000  -0.00030  -0.00030   1.83024
   R21        1.83001  -0.00022   0.00000  -0.00040  -0.00040   1.82961
   R22        2.69742  -0.00109   0.00000  -0.00263  -0.00263   2.69479
   R23        2.05789  -0.00022   0.00000  -0.00064  -0.00064   2.05725
   R24        2.06966  -0.00010   0.00000  -0.00029  -0.00029   2.06937
   R25        2.06968  -0.00010   0.00000  -0.00029  -0.00029   2.06939
    A1        2.08934  -0.00029   0.00000  -0.00104  -0.00104   2.08830
    A2        2.06707   0.00011   0.00000   0.00031   0.00032   2.06739
    A3        2.12678   0.00018   0.00000   0.00072   0.00072   2.12750
    A4        2.10504   0.00003   0.00000   0.00023   0.00023   2.10526
    A5        2.08371   0.00044   0.00000   0.00172   0.00172   2.08543
    A6        2.09444  -0.00047   0.00000  -0.00195  -0.00195   2.09249
    A7        2.08578   0.00041   0.00000   0.00160   0.00160   2.08738
    A8        1.97121   0.00020   0.00000   0.00084   0.00084   1.97205
    A9        2.22620  -0.00062   0.00000  -0.00244  -0.00244   2.22375
   A10        2.10142  -0.00052   0.00000  -0.00246  -0.00246   2.09896
   A11        2.10236   0.00025   0.00000   0.00118   0.00118   2.10354
   A12        2.07940   0.00027   0.00000   0.00129   0.00129   2.08069
   A13        2.07590   0.00062   0.00000   0.00253   0.00253   2.07844
   A14        2.06226   0.00012   0.00000   0.00043   0.00043   2.06269
   A15        2.14502  -0.00073   0.00000  -0.00297  -0.00297   2.14206
   A16        2.10889  -0.00024   0.00000  -0.00085  -0.00085   2.10803
   A17        2.07392   0.00032   0.00000   0.00169   0.00169   2.07561
   A18        2.10038  -0.00008   0.00000  -0.00083  -0.00083   2.09955
   A19        1.91052  -0.00054   0.00000  -0.00340  -0.00340   1.90712
   A20        2.22476  -0.00120   0.00000  -0.00547  -0.00547   2.21929
   A21        2.02535   0.00056   0.00000   0.00245   0.00245   2.02780
   A22        2.03307   0.00065   0.00000   0.00302   0.00302   2.03609
   A23        2.12378  -0.00076   0.00000  -0.00344  -0.00344   2.12034
   A24        2.14602   0.00020   0.00000   0.00058   0.00058   2.14661
   A25        2.01339   0.00056   0.00000   0.00285   0.00285   2.01624
   A26        2.06321   0.00010   0.00000   0.00039   0.00039   2.06360
   A27        2.11177  -0.00046   0.00000  -0.00184  -0.00184   2.10993
   A28        2.10817   0.00036   0.00000   0.00146   0.00146   2.10963
   A29        2.00866  -0.00021   0.00000  -0.00130  -0.00130   2.00736
   A30        2.00031  -0.00017   0.00000  -0.00104  -0.00104   1.99928
   A31        2.07614  -0.00237   0.00000  -0.00948  -0.00948   2.06666
   A32        1.84643  -0.00000   0.00000   0.00036   0.00036   1.84679
   A33        1.92986  -0.00031   0.00000  -0.00217  -0.00217   1.92769
   A34        1.92975  -0.00031   0.00000  -0.00217  -0.00217   1.92758
   A35        1.91346   0.00028   0.00000   0.00213   0.00213   1.91559
   A36        1.91347   0.00028   0.00000   0.00213   0.00213   1.91560
   A37        1.92913   0.00008   0.00000  -0.00018  -0.00018   1.92894
    D1       -0.00050   0.00000   0.00000   0.00000   0.00000  -0.00050
    D2       -3.14091   0.00000   0.00000  -0.00000  -0.00000  -3.14091
    D3        3.13917   0.00000   0.00000  -0.00002  -0.00002   3.13915
    D4       -0.00124   0.00000   0.00000  -0.00002  -0.00002  -0.00126
    D5       -0.00229   0.00000   0.00000  -0.00001  -0.00001  -0.00231
    D6        3.13885   0.00000   0.00000  -0.00001  -0.00001   3.13884
    D7        3.14129   0.00000   0.00000   0.00000   0.00000   3.14130
    D8       -0.00075   0.00000   0.00000   0.00001   0.00001  -0.00075
    D9        0.00137  -0.00000   0.00000   0.00001   0.00001   0.00138
   D10       -3.14034  -0.00000   0.00000   0.00002   0.00002  -3.14032
   D11       -3.14142   0.00000   0.00000   0.00001   0.00001  -3.14140
   D12        0.00006   0.00000   0.00000   0.00002   0.00002   0.00008
   D13        3.14081   0.00000   0.00000   0.00001   0.00001   3.14082
   D14        0.00040  -0.00000   0.00000   0.00000   0.00000   0.00040
   D15        0.00055  -0.00000   0.00000   0.00000   0.00000   0.00056
   D16        3.14129   0.00000   0.00000   0.00001   0.00001   3.14129
   D17       -3.14090  -0.00000   0.00000  -0.00001  -0.00001  -3.14091
   D18       -0.00017  -0.00000   0.00000  -0.00001  -0.00001  -0.00017
   D19       -3.14077   0.00000   0.00000   0.00005   0.00005  -3.14072
   D20        0.00069   0.00000   0.00000   0.00006   0.00006   0.00075
   D21       -0.00326  -0.00000   0.00000  -0.00002  -0.00002  -0.00329
   D22        3.14128   0.00000   0.00000  -0.00002  -0.00002   3.14126
   D23        3.13918  -0.00000   0.00000  -0.00003  -0.00003   3.13915
   D24        0.00053   0.00000   0.00000  -0.00002  -0.00002   0.00051
   D25        0.00416   0.00000   0.00000   0.00003   0.00003   0.00419
   D26       -3.13697   0.00000   0.00000   0.00003   0.00003  -3.13694
   D27       -3.14053   0.00000   0.00000   0.00003   0.00003  -3.14049
   D28        0.00153   0.00000   0.00000   0.00003   0.00003   0.00155
   D29       -3.12957  -0.00000   0.00000  -0.00013  -0.00013  -3.12970
   D30        0.01218   0.00000   0.00000   0.00007   0.00007   0.01226
   D31        0.01509  -0.00000   0.00000  -0.00014  -0.00014   0.01496
   D32       -3.12634   0.00000   0.00000   0.00007   0.00007  -3.12627
   D33       -3.12169   0.00001   0.00000   0.00037   0.00037  -3.12132
   D34        0.02110   0.00000   0.00000   0.00010   0.00010   0.02121
   D35        0.01974   0.00000   0.00000   0.00016   0.00016   0.01990
   D36       -3.12065  -0.00000   0.00000  -0.00011  -0.00011  -3.12075
   D37       -3.06195   0.00000   0.00000   0.00010   0.00010  -3.06186
   D38        0.08899  -0.00001   0.00000  -0.00035  -0.00035   0.08863
   D39        0.07852   0.00001   0.00000   0.00034   0.00034   0.07886
   D40       -3.05372  -0.00000   0.00000  -0.00011  -0.00011  -3.05383
   D41       -2.92131  -0.00000   0.00000  -0.00009  -0.00009  -2.92140
   D42        0.21095   0.00001   0.00000   0.00034   0.00034   0.21130
   D43       -2.87277   0.00003   0.00000   0.00119   0.00119  -2.87158
   D44        0.27841   0.00002   0.00000   0.00073   0.00073   0.27915
   D45       -3.14150  -0.00000   0.00000  -0.00007  -0.00007  -3.14157
   D46       -1.07106   0.00016   0.00000   0.00153   0.00153  -1.06953
   D47        1.07128  -0.00016   0.00000  -0.00168  -0.00167   1.06961
         Item               Value     Threshold  Converged?
 Maximum Force            0.002370     0.000450     NO 
 RMS     Force            0.000551     0.000300     NO 
 Maximum Displacement     0.031423     0.001800     NO 
 RMS     Displacement     0.009766     0.001200     NO 
 Predicted change in Energy=-4.967183D-05
 GradGradGradGradGradGradGradGradGradGradGradGradGradGradGradGradGradGrad

                          Input orientation:                          
 ---------------------------------------------------------------------
 Center     Atomic      Atomic             Coordinates (Angstroms)
 Number     Number       Type             X           Y           Z
 ---------------------------------------------------------------------
      1          6           0        1.470178   -2.026167   -0.022181
      2          6           0        2.511112   -1.086349   -0.011274
      3          6           0        2.228418    0.308407    0.004639
      4          6           0        0.921662    0.736513    0.010985
      5          6           0       -0.144001   -0.209514    0.002386
      6          6           0        0.163436   -1.594802   -0.016845
      7          8           0        3.767484   -1.505074   -0.017238
      8          6           0       -1.468213    0.278146    0.009806
      9          6           0       -2.636112   -0.469561    0.016670
     10          6           0       -3.884058    0.135826   -0.000352
     11          8           0       -4.951312   -0.632020    0.099933
     12          8           0       -4.000778    1.446658   -0.124123
     13          8           0        3.341029    1.071542    0.011958
     14          6           0        3.191075    2.489554    0.029077
     15          1           0        1.725619   -3.079764   -0.036521
     16          1           0        0.689090    1.795754    0.023369
     17          1           0       -0.631845   -2.331331   -0.028013
     18          1           0        4.362582   -0.735260   -0.008851
     19          1           0       -1.581416    1.361012    0.009798
     20          1           0       -2.642988   -1.552064    0.036261
     21          1           0       -5.790796   -0.195428   -0.106690
     22          1           0       -4.873404    1.796452    0.107290
     23          1           0        4.201518    2.894707    0.032277
     24          1           0        2.659092    2.828841   -0.865933
     25          1           0        2.662006    2.807314    0.933679
 ---------------------------------------------------------------------
                    Distance matrix (angstroms):
                    1          2          3          4          5
     1  C    0.000000
     2  C    1.402469   0.000000
     3  C    2.454767   1.423205   0.000000
     4  C    2.816801   2.418609   1.375109   0.000000
     5  C    2.430310   2.796185   2.428296   1.425019   0.000000
     6  C    1.376110   2.402111   2.808348   2.451675   1.419123
     7  O    2.355669   1.324325   2.378637   3.622735   4.120507
     8  C    3.734303   4.206818   3.696759   2.433435   1.411171
     9  C    4.391600   5.184122   4.926361   3.756648   2.505683
    10  C    5.774300   6.510916   6.114915   4.843130   3.755968
    11  O    6.572221   7.477069   7.241686   6.030972   4.826828
    12  O    6.480915   6.988102   6.333646   4.975236   4.199242
    13  O    3.618985   2.312098   1.349197   2.442454   3.713035
    14  C    4.832789   3.640201   2.384263   2.867703   4.290503
    15  H    1.084215   2.142741   3.425523   3.900330   3.425687
    16  H    3.901186   3.409910   2.140581   1.084544   2.171539
    17  H    2.124066   3.380597   3.892350   3.438979   2.177390
    18  H    3.167431   1.884465   2.375727   3.742518   4.537161
    19  H    4.559191   4.768522   3.952574   2.579807   2.129030
    20  H    4.140812   5.175316   5.214687   4.236149   2.836993
    21  H    7.488690   8.350120   8.035797   6.777865   5.647865
    22  H    7.407443   7.928157   7.256769   5.891989   5.138303
    23  H    5.628337   4.325295   3.253127   3.926285   5.340470
    24  H    5.069174   4.010118   2.701103   2.857530   4.224086
    25  H    5.069187   4.009528   2.701046   2.858037   4.224006
                    6          7          8          9         10
     6  C    0.000000
     7  O    3.605165   0.000000
     8  C    2.484134   5.531105   0.000000
     9  C    3.017409   6.486870   1.386759   0.000000
    10  C    4.401994   7.825531   2.420055   1.387139   0.000000
    11  O    5.205885   8.763182   3.601181   2.322386   1.318589
    12  O    5.157777   8.310838   2.792354   2.356699   1.321826
    13  O    4.148171   2.611832   4.874248   6.172620   7.285438
    14  C    5.084356   4.036266   5.157487   6.535491   7.456435
    15  H    2.155439   2.578611   4.634465   5.083374   6.466051
    16  H    3.431297   4.513715   2.637665   4.023514   4.865142
    17  H    1.084007   4.476261   2.740495   2.735923   4.082221
    18  H    4.286223   0.973049   5.918235   7.003782   8.292523
    19  H    3.432499   6.068436   1.088767   2.112682   2.608322
    20  H    2.807252   6.410868   2.174964   1.082702   2.095369
    21  H    6.117123   9.647999   4.350007   3.168974   1.938217
    22  H    6.073365   9.250974   3.729622   3.185672   1.935993
    23  H    6.038561   4.421414   6.244418   7.620481   8.543362
    24  H    5.149550   4.553200   4.930274   6.300605   7.128420
    25  H    5.150240   4.552253   4.930410   6.296735   7.131635
                   11         12         13         14         15
    11  O    0.000000
    12  O    2.296655   0.000000
    13  O    8.465978   7.352643   0.000000
    14  C    8.720535   7.268690   1.426021   0.000000
    15  H    7.112769   7.299849   4.454800   5.759268   0.000000
    16  H    6.141180   4.705154   2.749072   2.596406   4.984843
    17  H    4.643472   5.062821   5.231144   6.152960   2.473431
    18  H    9.315102   8.644064   2.075702   3.431224   3.528602
    19  H    3.916184   2.424578   4.930950   4.904147   5.537068
    20  H    2.485739   3.295702   6.533940   7.097255   4.628595
    21  H    0.968524   2.429180   9.220060   9.375584   8.051137
    22  H    2.429733   0.968186   8.246908   8.094587   8.206416
    23  H    9.809011   8.330604   2.016131   1.088648   6.467543
    24  H    8.415979   6.842117   2.079382   1.095064   6.039114
    25  H    8.395640   6.882079   2.079313   1.095075   6.039519
                   16         17         18         19         20
    16  H    0.000000
    17  H    4.333629   0.000000
    18  H    4.461123   5.243292   0.000000
    19  H    2.311792   3.812678   6.302842   0.000000
    20  H    4.723431   2.157797   7.053171   3.100588   0.000000
    21  H    6.780165   5.584178  10.168189   4.489426   3.430683
    22  H    5.563126   5.920112   9.577395   3.322092   4.023974
    23  H    3.680344   7.118743   3.633771   5.982898   8.162173
    24  H    2.395628   6.177357   4.042188   4.572017   6.936738
    25  H    2.396730   6.178995   4.041058   4.577333   6.924774
                   21         22         23         24         25
    21  H    0.000000
    22  H    2.203402   0.000000
    23  H   10.460143   9.141444   0.000000
    24  H    9.006844   7.664951   1.786113   0.000000
    25  H    9.030431   7.647690   1.786131   1.799743   0.000000
 Stoichiometry    C10H11O4(1+)
 Framework group  C1[X(C10H11O4)]
 Deg. of freedom    69
 Full point group                 C1      NOp   1
 Largest Abelian subgroup         C1      NOp   1
 Largest concise Abelian subgroup C1      NOp   1
                         Standard orientation:                         
 ---------------------------------------------------------------------
 Center     Atomic      Atomic             Coordinates (Angstroms)
 Number     Number       Type             X           Y           Z
 ---------------------------------------------------------------------
      1          6           0        1.469422   -2.025756   -0.022165
      2          6           0        2.510023   -1.085569   -0.011258
      3          6           0        2.226835    0.309086    0.004654
      4          6           0        0.919927    0.736728    0.011001
      5          6           0       -0.145401   -0.209676    0.002402
      6          6           0        0.162527   -1.594855   -0.016829
      7          8           0        3.766544   -1.503849   -0.017222
      8          6           0       -1.469786    0.277514    0.009821
      9          6           0       -2.637420   -0.470607    0.016686
     10          6           0       -3.885580    0.134337   -0.000336
     11          8           0       -4.952562   -0.633887    0.099949
     12          8           0       -4.002764    1.445128   -0.124107
     13          8           0        3.339175    1.072616    0.011974
     14          6           0        3.188718    2.490575    0.029093
     15          1           0        1.725237   -3.079263   -0.036506
     16          1           0        0.686979    1.795887    0.023385
     17          1           0       -0.632492   -2.331667   -0.027997
     18          1           0        4.361368   -0.733824   -0.008835
     19          1           0       -1.583373    1.360339    0.009814
     20          1           0       -2.643912   -1.553113    0.036277
     21          1           0       -5.792200   -0.197593   -0.106674
     22          1           0       -4.875515    1.794613    0.107306
     23          1           0        4.199018    2.896085    0.032292
     24          1           0        2.656614    2.829672   -0.865917
     25          1           0        2.659536    2.808146    0.933695
 ---------------------------------------------------------------------
 Rotational constants (GHZ):      1.5436502      0.2866828      0.2422672
 Standard basis: 6-31+G(d,p) (6D, 7F)
 There are   321 symmetry adapted cartesian basis functions of A   symmetry.
 There are   321 symmetry adapted basis functions of A   symmetry.
   321 basis functions,   525 primitive gaussians,   321 cartesian basis functions
    51 alpha electrons       51 beta electrons
       nuclear repulsion energy       840.9162601899 Hartrees.
 NAtoms=   25 NActive=   25 NUniq=   25 SFac= 1.00D+00 NAtFMM=   60 NAOKFM=F Big=F
 Integral buffers will be    131072 words long.
 Raffenetti 2 integral format.
 Two-electron integral symmetry is turned on.
 Nuclear repulsion after empirical dispersion term =      840.8712637853 Hartrees.
 One-electron integrals computed using PRISM.
 NBasis=   321 RedAO= T EigKep=  1.37D-06  NBF=   321
 NBsUse=   320 1.00D-06 EigRej=  6.45D-07 NBFU=   320
 Initial guess from the checkpoint file:  "B3PW91D3BJFAyang.chk"
 B after Tr=    -0.000000   -0.000000    0.000000
         Rot=    1.000000    0.000007    0.000003   -0.000088 Ang=   0.01 deg.
 ExpMin= 4.38D-02 ExpMax= 5.48D+03 ExpMxC= 8.25D+02 IAcc=2 IRadAn=         4 AccDes= 0.00D+00
 Harris functional with IExCor=  408 and IRadAn=       4 diagonalized for initial guess.
 HarFok:  IExCor=  408 AccDes= 0.00D+00 IRadAn=         4 IDoV= 1 UseB2=F ITyADJ=14
 ICtDFT=  3500011 ScaDFX=  1.000000  1.000000  1.000000  1.000000
 FoFCou: FMM=F IPFlag=           0 FMFlag=      100000 FMFlg1=           0
         NFxFlg=           0 DoJE=T BraDBF=F KetDBF=T FulRan=T
         wScrn=  0.000000 ICntrl=     500 IOpCl=  0 I1Cent=   200000004 NGrid=           0
         NMat0=    1 NMatS0=      1 NMatT0=    0 NMatD0=    1 NMtDS0=    0 NMtDT0=    0
 Petite list used in FoFCou.
 Requested convergence on RMS density matrix=1.00D-08 within 128 cycles.
 Requested convergence on MAX density matrix=1.00D-06.
 Requested convergence on             energy=1.00D-06.
 No special actions if energy rises.
 SCF Done:  E(RB3PW91) =  -688.143724649     A.U. after   11 cycles
            NFock= 11  Conv=0.41D-08     -V/T= 2.0091
 Calling FoFJK, ICntrl=      2127 FMM=F ISym2X=0 I1Cent= 0 IOpClX= 0 NMat=1 NMatS=1 NMatT=0.
 ***** Axes restored to original set *****
 -------------------------------------------------------------------
 Center     Atomic                   Forces (Hartrees/Bohr)
 Number     Number              X              Y              Z
 -------------------------------------------------------------------
      1        6           0.000032388   -0.000120276    0.000003511
      2        6          -0.000168549   -0.000244152   -0.000002036
      3        6          -0.000035633   -0.000235786    0.000001431
      4        6          -0.000176171    0.000213234    0.000003644
      5        6           0.000276677   -0.000008325    0.000002473
      6        6           0.000001119   -0.000129451   -0.000009183
      7        8           0.000085175    0.000057030    0.000001476
      8        6          -0.000060454    0.000337102   -0.000014080
      9        6          -0.000270748   -0.000293296    0.000013648
     10        6           0.000046086   -0.000222509    0.000058519
     11        8          -0.000134344    0.000142219   -0.000031774
     12        8          -0.000200420    0.000127835   -0.000054863
     13        8           0.000225387    0.000084703   -0.000002890
     14        6           0.000308951    0.000097886    0.000002169
     15        1           0.000024444   -0.000017509    0.000000864
     16        1          -0.000119966   -0.000168218   -0.000001940
     17        1           0.000092200    0.000038344   -0.000003419
     18        1           0.000183534    0.000008339    0.000000936
     19        1          -0.000033001   -0.000080362    0.000009101
     20        1           0.000013831    0.000115564    0.000002071
     21        1          -0.000050797   -0.000028977   -0.000003770
     22        1          -0.000004051    0.000034340    0.000021303
     23        1          -0.000067375    0.000113522    0.000001727
     24        1           0.000016442    0.000089059   -0.000004721
     25        1           0.000015274    0.000089686    0.000005804
 -------------------------------------------------------------------
 Cartesian Forces:  Max     0.000337102 RMS     0.000120131

 GradGradGradGradGradGradGradGradGradGradGradGradGradGradGradGradGradGrad
 Berny optimization.
 Using GEDIIS/GDIIS optimizer.
 FormGI is forming the generalized inverse of G from B-inverse, IUseBI=4.
 GSVD:  received Info=                   1 from GESDD.
 Internal  Forces:  Max     0.000808888 RMS     0.000178059
 Search for a local minimum.
 Step number   2 out of a maximum of  119
 All quantities printed in internal units (Hartrees-Bohrs-Radians)
 Mixed Optimization -- En-DIIS/RFO-DIIS
 Swapping is turned off.
 Update second derivatives using D2CorX and points    1    2
 DE= -3.61D-05 DEPred=-4.97D-05 R= 7.27D-01
 TightC=F SS=  1.41D+00  RLast= 1.86D-02 DXNew= 5.0454D-01 5.5852D-02
 Trust test= 7.27D-01 RLast= 1.86D-02 DXMaxT set to 3.00D-01
 ITU=  1  0
     Eigenvalues ---    0.01329   0.01797   0.01846   0.01906   0.01949
     Eigenvalues ---    0.02038   0.02074   0.02076   0.02137   0.02164
     Eigenvalues ---    0.02225   0.02239   0.02240   0.02241   0.02254
     Eigenvalues ---    0.02344   0.02495   0.02684   0.02719   0.02764
     Eigenvalues ---    0.10155   0.10704   0.15879   0.16000   0.16000
     Eigenvalues ---    0.16000   0.16000   0.16000   0.16000   0.16000
     Eigenvalues ---    0.16000   0.16000   0.16287   0.21949   0.22110
     Eigenvalues ---    0.22355   0.23450   0.24580   0.24705   0.25000
     Eigenvalues ---    0.25000   0.25000   0.25000   0.27686   0.34216
     Eigenvalues ---    0.34218   0.34852   0.34929   0.35281   0.35439
     Eigenvalues ---    0.35457   0.35617   0.39077   0.40478   0.41527
     Eigenvalues ---    0.42231   0.43900   0.44703   0.47314   0.47548
     Eigenvalues ---    0.48785   0.51137   0.52787   0.53649   0.53701
     Eigenvalues ---    0.57821   0.61022   0.61874   0.62397
 En-DIIS/RFO-DIIS IScMMF=        0 using points:     2    1
 RFO step:  Lambda=-5.07385777D-06.
 DidBck=T Rises=F RFO-DIIS coefs:    0.77976    0.22024
 Iteration  1 RMS(Cart)=  0.00251767 RMS(Int)=  0.00000135
 Iteration  2 RMS(Cart)=  0.00000224 RMS(Int)=  0.00000015
 Iteration  3 RMS(Cart)=  0.00000000 RMS(Int)=  0.00000015
 Variable       Old X    -DE/DX   Delta X   Delta X   Delta X     New X
                                 (Linear)    (Quad)   (Total)
    R1        2.65028   0.00006   0.00032  -0.00024   0.00007   2.65036
    R2        2.60047   0.00013   0.00031  -0.00015   0.00016   2.60063
    R3        2.04887   0.00002   0.00019  -0.00015   0.00004   2.04891
    R4        2.68947   0.00023   0.00060  -0.00020   0.00040   2.68987
    R5        2.50261   0.00023   0.00028   0.00000   0.00028   2.50289
    R6        2.59858   0.00050   0.00060   0.00016   0.00076   2.59934
    R7        2.54961   0.00068   0.00062   0.00030   0.00092   2.55053
    R8        2.69290   0.00019   0.00070  -0.00037   0.00033   2.69322
    R9        2.04949  -0.00014   0.00016  -0.00048  -0.00032   2.04917
   R10        2.68175   0.00023   0.00051  -0.00014   0.00038   2.68213
   R11        2.66673   0.00071   0.00110   0.00009   0.00119   2.66792
   R12        2.04848  -0.00009   0.00016  -0.00037  -0.00021   2.04826
   R13        1.83880   0.00011   0.00003   0.00014   0.00017   1.83896
   R14        2.62060   0.00056   0.00072   0.00014   0.00086   2.62146
   R15        2.05747  -0.00007   0.00012  -0.00030  -0.00018   2.05730
   R16        2.62131   0.00034   0.00062  -0.00010   0.00052   2.62183
   R17        2.04601  -0.00012   0.00011  -0.00038  -0.00027   2.04574
   R18        2.49177   0.00008   0.00016  -0.00007   0.00008   2.49186
   R19        2.49789   0.00019   0.00014   0.00009   0.00023   2.49812
   R20        1.83024   0.00003   0.00007  -0.00002   0.00005   1.83029
   R21        1.82961   0.00002   0.00009  -0.00006   0.00003   1.82963
   R22        2.69479   0.00034   0.00058   0.00003   0.00061   2.69540
   R23        2.05725  -0.00002   0.00014  -0.00019  -0.00005   2.05719
   R24        2.06937   0.00002   0.00006  -0.00002   0.00004   2.06941
   R25        2.06939   0.00002   0.00006  -0.00002   0.00004   2.06944
    A1        2.08830   0.00002   0.00023  -0.00025  -0.00002   2.08827
    A2        2.06739  -0.00003  -0.00007   0.00000  -0.00007   2.06732
    A3        2.12750   0.00001  -0.00016   0.00025   0.00009   2.12759
    A4        2.10526   0.00005  -0.00005   0.00019   0.00014   2.10541
    A5        2.08543   0.00002  -0.00038   0.00047   0.00009   2.08552
    A6        2.09249  -0.00007   0.00043  -0.00066  -0.00023   2.09226
    A7        2.08738  -0.00012  -0.00035   0.00006  -0.00029   2.08709
    A8        1.97205  -0.00023  -0.00019  -0.00055  -0.00074   1.97131
    A9        2.22375   0.00035   0.00054   0.00049   0.00103   2.22479
   A10        2.09896   0.00006   0.00054  -0.00031   0.00023   2.09918
   A11        2.10354   0.00013  -0.00026   0.00090   0.00064   2.10418
   A12        2.08069  -0.00018  -0.00028  -0.00059  -0.00087   2.07982
   A13        2.07844  -0.00012  -0.00056   0.00022  -0.00033   2.07810
   A14        2.06269  -0.00002  -0.00010   0.00003  -0.00006   2.06263
   A15        2.14206   0.00014   0.00065  -0.00026   0.00040   2.14245
   A16        2.10803   0.00011   0.00019   0.00009   0.00028   2.10831
   A17        2.07561  -0.00009  -0.00037   0.00009  -0.00028   2.07533
   A18        2.09955  -0.00002   0.00018  -0.00018   0.00000   2.09955
   A19        1.90712   0.00026   0.00075   0.00047   0.00122   1.90834
   A20        2.21929   0.00028   0.00121  -0.00029   0.00092   2.22021
   A21        2.02780  -0.00010  -0.00054   0.00027  -0.00026   2.02754
   A22        2.03609  -0.00018  -0.00067   0.00001  -0.00065   2.03544
   A23        2.12034   0.00011   0.00076  -0.00042   0.00034   2.12068
   A24        2.14661  -0.00007  -0.00013  -0.00012  -0.00024   2.14636
   A25        2.01624  -0.00004  -0.00063   0.00053  -0.00010   2.01614
   A26        2.06360   0.00017  -0.00009   0.00061   0.00053   2.06412
   A27        2.10993   0.00012   0.00041  -0.00007   0.00033   2.11026
   A28        2.10963  -0.00028  -0.00032  -0.00054  -0.00086   2.10876
   A29        2.00736   0.00008   0.00029   0.00008   0.00037   2.00773
   A30        1.99928   0.00006   0.00023   0.00003   0.00026   1.99954
   A31        2.06666   0.00081   0.00209   0.00029   0.00237   2.06904
   A32        1.84679   0.00014  -0.00008   0.00077   0.00069   1.84748
   A33        1.92769   0.00008   0.00048  -0.00011   0.00037   1.92806
   A34        1.92758   0.00008   0.00048  -0.00011   0.00037   1.92795
   A35        1.91559  -0.00012  -0.00047  -0.00008  -0.00055   1.91504
   A36        1.91560  -0.00012  -0.00047  -0.00008  -0.00055   1.91505
   A37        1.92894  -0.00007   0.00004  -0.00035  -0.00031   1.92864
    D1       -0.00050   0.00000  -0.00000   0.00001   0.00001  -0.00049
    D2       -3.14091   0.00000   0.00000   0.00004   0.00004  -3.14087
    D3        3.13915  -0.00000   0.00000  -0.00005  -0.00005   3.13911
    D4       -0.00126  -0.00000   0.00000  -0.00002  -0.00002  -0.00128
    D5       -0.00231  -0.00000   0.00000  -0.00007  -0.00007  -0.00238
    D6        3.13884  -0.00000   0.00000  -0.00009  -0.00009   3.13875
    D7        3.14130  -0.00000  -0.00000  -0.00001  -0.00002   3.14128
    D8       -0.00075  -0.00000  -0.00000  -0.00003  -0.00003  -0.00078
    D9        0.00138   0.00000  -0.00000   0.00003   0.00002   0.00140
   D10       -3.14032   0.00000  -0.00000   0.00005   0.00005  -3.14027
   D11       -3.14140  -0.00000  -0.00000  -0.00000  -0.00000  -3.14141
   D12        0.00008   0.00000  -0.00001   0.00002   0.00002   0.00010
   D13        3.14082  -0.00000  -0.00000  -0.00001  -0.00002   3.14080
   D14        0.00040   0.00000  -0.00000   0.00001   0.00001   0.00041
   D15        0.00056   0.00000  -0.00000   0.00001   0.00001   0.00056
   D16        3.14129  -0.00000  -0.00000  -0.00001  -0.00001   3.14128
   D17       -3.14091  -0.00000   0.00000  -0.00002  -0.00002  -3.14093
   D18       -0.00017  -0.00000   0.00000  -0.00004  -0.00004  -0.00021
   D19       -3.14072   0.00000  -0.00001   0.00001   0.00000  -3.14072
   D20        0.00075   0.00000  -0.00001   0.00004   0.00003   0.00078
   D21       -0.00329  -0.00000   0.00001  -0.00007  -0.00007  -0.00335
   D22        3.14126  -0.00000   0.00000  -0.00003  -0.00003   3.14123
   D23        3.13915  -0.00000   0.00001  -0.00006  -0.00005   3.13910
   D24        0.00051  -0.00000   0.00000  -0.00001  -0.00001   0.00050
   D25        0.00419   0.00000  -0.00001   0.00011   0.00010   0.00429
[...]
 001442,-0.00006921,0.00024150,0.00000947,-0.00000218,-0.00011625,0.000
 00115,-0.00007097,0.00074438,0.00008809,-0.00114612,-0.00074097,-0.000
 02288,0.15396240,0.20015922,0.00015084,0.00008307,0.00542786,0.0000334
 6,-0.00013129,0.00896256,-0.00000337,0.00001743,-0.00130751,0.00009092
 ,-0.00010218,0.00460386,-0.00042719,-0.00018721,0.00160161,-0.00229537
 ,-0.00246451,-0.03637459,0.00001777,0.00000942,-0.00014274,0.00008514,
 0.00009965,-0.00288446,0.00002265,-0.00013543,0.00019723,-0.00003563,0
 .00003266,-0.00031268,0.00003790,0.00000436,-0.00011576,-0.00001928,-0
 .00002892,0.00016865,0.00000310,0.00001269,-0.00037766,0.,-0.00000367,
 -0.00014901,0.00000096,0.00007540,-0.00488200,-0.00001105,-0.00002973,
 0.00131545,0.00227444,0.00272012,0.02353678,-0.00266122,0.00518082,0.0
 0007945,-0.04089087,-0.03442970,-0.00038223,-0.00120119,-0.00186825,-0
 .00000564,-0.00176790,-0.00122093,-0.00001087,0.00193870,-0.00076637,-
 0.00000562,-0.00144414,-0.00096343,-0.00002131,-0.19733569,-0.18526525
 ,-0.00200750,-0.00195612,0.00013818,0.00001197,0.00179396,-0.00009528,
 0.00001828,-0.00199125,0.00098653,-0.00001514,0.00116407,0.00038458,-0
 .00012738,0.00037265,-0.00094270,0.00013735,-0.00051465,-0.00162768,-0
 .00001982,0.00113604,0.00138860,0.00001596,0.00012516,0.00004630,0.000
 00164,0.00036675,-0.00009064,-0.00000092,-0.00032716,0.00020239,0.0000
 0155,0.24337948,0.00709843,0.00037319,-0.00005154,0.00307418,0.0142566
 2,0.00017970,0.01278392,0.00130449,0.00000888,-0.00423676,-0.00062226,
 0.00000959,0.00307232,-0.00105689,-0.00001699,-0.00236643,0.00177953,0
 .00000261,-0.23257639,-0.33193664,-0.00352480,-0.00260829,-0.00015884,
 0.00000613,0.00183342,-0.00001443,0.00002317,-0.00182422,0.00107022,-0
 .00002127,0.00097864,0.00030682,-0.00011663,0.00031139,-0.00094665,0.0
 0012444,-0.00293581,0.00164701,0.00004495,-0.00236131,-0.00333219,-0.0
 0003000,0.00007263,0.00005163,0.00000945,0.00030790,-0.00004221,-0.000
 00491,0.00020863,-0.00007530,0.00000504,0.21977055,0.31556435,0.000069
 74,-0.00005297,0.00458691,0.00010533,0.00022286,-0.00244175,0.00012680
 ,0.00001681,-0.00013758,-0.00004122,0.00000447,-0.00071182,0.00002290,
 -0.00000814,0.00005728,-0.00001660,-0.00000999,0.00159395,-0.00256460,
 -0.00356568,-0.01292394,-0.00002109,0.00000542,-0.00008944,0.00002262,
 -0.00001105,-0.00006456,-0.00002540,0.00001013,-0.00002932,0.00001558,
 0.00000368,-0.00001717,0.00000051,-0.00001739,0.00001042,-0.00002627,0
 .00003819,-0.00164630,-0.00002706,-0.00002423,-0.00120844,0.00000113,0
 .00001028,-0.00050509,0.00000500,-0.00000729,0.00043766,0.00000137,0.0
 0000705,-0.00055823,0.00236151,0.00334754,0.01330025,0.00024640,0.0015
 2413,0.00003600,0.00021361,0.00032765,-0.00001284,0.00003882,-0.000601
 85,-0.00000516,0.00052689,0.00241276,0.00004352,-0.00090603,0.02930251
 ,0.00000472,-0.00543211,-0.00003715,-0.00004176,0.00004747,-0.00019655
 ,0.00000670,-0.06142728,0.02855102,0.00008013,0.00495911,-0.02836258,0
 .00018296,0.00064355,-0.00392283,0.00014875,0.00046542,0.00070079,-0.0
 0007898,-0.00220129,0.00161516,-0.00061229,0.00007345,-0.00006487,-0.0
 0000328,-0.00002803,0.00009049,0.00000189,-0.00039937,0.00005159,0.000
 00793,-0.00085983,-0.00102590,-0.00001375,0.00009430,-0.00000291,-0.00
 000111,-0.00005169,0.00003846,-0.00000105,0.06801110,-0.00043527,-0.00
 060615,-0.00003372,0.00011926,-0.00004949,0.00000135,-0.00010673,0.000
 46455,-0.00000859,-0.00179930,0.00149081,-0.00005415,-0.00042935,-0.00
 855341,0.00006290,0.00159097,0.00085025,0.00011097,-0.00016263,0.00005
 820,0.00000483,0.02814899,-0.33605803,-0.00022609,0.00191850,-0.014815
 21,0.00016615,0.00052643,-0.00169505,0.00016362,-0.00017346,0.00016818
 ,-0.00001623,0.00144881,0.00102725,-0.00003855,-0.00005746,-0.00007948
 ,0.00000637,0.00001546,0.00002580,-0.00000055,0.00015274,0.00000294,-0
 .00000934,0.00048363,0.00053198,0.00001402,-0.00009107,0.00007689,0.00
 000287,0.00003328,0.00002167,0.00000053,-0.02935313,0.35619518,0.00008
 394,0.00003147,-0.00088665,-0.00006654,-0.00001676,0.00048519,0.000007
 41,-0.00004657,0.00006040,-0.00006487,0.00001744,-0.00358511,0.0003018
 8,-0.00032719,0.00763005,-0.00000800,-0.00001816,0.00623739,0.00006547
 ,-0.00000724,-0.00012428,-0.00041473,-0.00014159,-0.04678378,0.0006876
 4,0.00010364,0.00715615,-0.00016080,0.00039353,-0.00472588,0.00034882,
 -0.00011631,0.00005963,-0.00080190,-0.00035283,0.00061499,0.00000947,0
 .00002001,0.00022632,0.00000150,-0.00001259,0.00004753,0.00000160,0.00
 000867,-0.00072098,-0.00000562,-0.00000056,0.00033426,-0.00000506,0.00
 000928,-0.00006804,-0.00000695,-0.00000942,0.00007278,-0.00007096,-0.0
 0002600,0.02700697,0.00013479,0.00045570,0.00002015,0.00012153,-0.0003
 6968,0.00001142,-0.00038386,0.00049886,-0.00000359,0.00054079,0.000212
 58,-0.00001423,0.00011964,0.00139458,0.00003475,-0.00098222,-0.0015261
 6,-0.00003965,-0.00009804,0.00012800,-0.00000255,0.00740643,-0.0278788
 8,0.00044651,-0.05741982,-0.00360898,-0.00013867,0.00358756,0.02988229
 ,-0.00086186,-0.00003111,-0.00018684,0.00005988,-0.00617356,0.00243910
 ,0.00076737,0.00016948,0.00014474,0.00000270,0.00002159,-0.00010743,-0
 .00000130,-0.00004031,0.00000419,-0.00000333,0.00017081,0.00013852,0.0
 0000122,-0.00202134,0.00157751,0.00008880,0.00001954,0.00001876,-0.000
 00172,-0.00415980,-0.00197068,-0.00004296,0.05875997,0.00010098,0.0002
 7992,-0.00001965,-0.00004319,-0.00001581,-0.00000534,0.00000427,-0.000
 11354,-0.00000941,-0.00021218,-0.00015319,0.,0.00148039,-0.00048520,-0
 .00010775,0.00058483,0.00033459,0.00001313,0.00016015,-0.00000341,0.00
 000346,-0.00100178,-0.01106890,0.00018625,0.00397904,-0.35298914,0.006
 06849,-0.00245941,-0.01200607,0.00045634,-0.00148179,0.00069060,-0.000
 14522,0.00165728,0.00099768,-0.00052082,0.00001036,0.00006501,0.000001
 62,0.00000457,-0.00003627,0.00000006,0.00000194,0.00000092,0.00000050,
 0.00001463,0.00007091,0.00000341,0.00117285,0.00062217,-0.00001576,-0.
 00000797,-0.00002153,0.00000247,-0.00154275,0.00054801,0.00014948,-0.0
 0227606,0.37318951,0.00000583,-0.00000916,-0.00024948,-0.00005483,0.00
 005305,-0.00033258,0.00005190,-0.00007998,0.00001600,-0.00011793,-0.00
 004005,-0.00013737,0.00020765,-0.00011689,-0.00360352,0.00000998,0.000
 13483,-0.00045476,0.00004467,-0.00001423,0.00014051,-0.00055839,0.0000
 1903,0.00257492,0.00058173,0.00593564,-0.03198802,-0.00057514,0.000915
 96,-0.00029224,0.00048803,-0.00001967,-0.00215694,-0.00034335,-0.00077
 206,0.00440102,0.00000444,0.00001865,0.00004074,-0.00000022,-0.0000063
 4,0.00002172,0.00000198,-0.00000138,0.00013094,-0.00000315,-0.00000158
 ,0.00009582,0.00009375,-0.00008931,0.00125579,-0.00000667,-0.00000759,
 0.00004918,0.00008183,-0.00012370,0.00692662,0.00030429,-0.00648709,0.
 02274066,0.00089179,0.00041872,0.00001411,-0.00138403,0.00048929,0.000
 00294,-0.00001119,-0.00136902,-0.00000091,-0.00094739,-0.00031280,-0.0
 0011262,0.00193775,-0.00142296,-0.00005241,-0.00057183,0.00112309,0.00
 005279,0.00139703,-0.00023251,-0.00000524,-0.00425043,0.00028608,0.000
 66208,0.00369020,-0.00481219,-0.00038872,-0.03952460,0.02061613,-0.006
 46535,-0.37948482,0.16492753,-0.08441830,0.00636037,0.00328010,0.00055
 728,0.00050210,0.00069758,0.00002240,0.00001059,-0.00036448,-0.0000071
 7,0.00001800,0.00000616,-0.00000074,-0.00003836,0.00002234,-0.00000402
 ,-0.00004460,0.00003068,-0.00001366,-0.00020355,-0.00016334,-0.0000032
 4,-0.00014524,-0.00005206,-0.00005918,0.00035774,-0.00005269,-0.000186
 35,0.41054133,-0.00020518,-0.00009705,-0.00000619,0.00027997,-0.000098
 73,-0.00000359,-0.00001411,0.00029299,0.00002717,0.00020346,0.00012536
 ,-0.00006691,-0.00058744,0.00010625,-0.00028476,0.00017000,-0.00032554
 ,0.00003811,-0.00027593,0.00003535,-0.00000024,0.00031347,0.00100198,0
 .00058816,-0.00312568,-0.00239523,0.00108555,-0.03027202,0.01116809,-0
 .00719340,0.21464593,-0.14350422,0.05867398,0.00069790,-0.00002549,0.0
 0077133,-0.00010235,-0.00017610,0.00001032,-0.00001334,0.00010711,-0.0
 0000015,-0.00000025,0.00000016,0.00000674,-0.00001287,-0.00001711,-0.0
 0000526,-0.00000200,0.00002122,0.00000048,0.00003432,0.00004545,0.0000
 0130,-0.00001529,0.00000599,0.00010103,-0.00019498,0.00026651,-0.00003
 191,-0.18003314,0.13662945,-0.00026420,-0.00013388,-0.00005694,0.00039
 660,-0.00014195,0.00003440,-0.00004615,0.00041553,0.00002959,0.0003342
 7,0.00011111,-0.00040242,-0.00066480,0.00043959,-0.00059440,0.00022030
 ,-0.00040568,0.00026076,-0.00038825,0.00006070,-0.00002015,0.00190504,
 0.00022377,0.00261738,-0.00057886,0.00095344,0.00311266,0.00846569,-0.
 00203958,-0.00392659,-0.09988238,0.05350747,-0.02745083,0.00020082,0.0
 0072920,-0.00345491,-0.00011911,-0.00020410,0.00005259,-0.00000535,0.0
 0010570,0.00001884,-0.00000223,-0.00000191,0.00001504,-0.00000143,-0.0
 0001311,-0.00001414,0.00000544,0.00001495,-0.00003238,0.00005239,0.000
 05274,0.00000841,-0.00004632,0.00000378,0.00013761,-0.00004182,0.00005
 612,-0.00094699,0.09097601,-0.05240020,0.02839545,0.00065083,0.0003286
 2,0.00005381,-0.00102741,0.00040528,0.00000618,0.00000860,-0.00103672,
 -0.00001183,-0.00066780,-0.00029166,0.00001189,0.00161696,-0.00065511,
 -0.00015240,-0.00052074,0.00088876,-0.00012849,0.00105024,-0.00017975,
 -0.00000435,-0.00285347,-0.00095902,0.00016963,0.00614414,-0.00062805,
 0.00140698,-0.00571369,0.00101437,-0.00155700,0.00062334,-0.00433864,0
 .00020269,-0.42726918,0.16813785,0.11071104,0.00038466,0.00052506,-0.0
 0000130,0.00000760,-0.00027913,0.00000365,0.00000836,0.00000328,0.0000
 0610,-0.00002270,0.00002377,0.00001005,-0.00003442,0.00000193,-0.00000
 018,-0.00015295,-0.00012346,0.00000009,0.00029167,0.00019869,0.0002019
 0,-0.00008133,-0.00009252,-0.00003035,0.00094291,-0.00149755,-0.000524
 62,0.42664803,-0.00055210,-0.00020579,-0.00002879,0.00088656,-0.000278
 30,-0.00003109,0.00007323,0.00083426,0.00001613,0.00047157,0.00028239,
 0.00001973,-0.00101045,0.00082177,-0.00023256,0.00025828,-0.00069713,0
 .00006553,-0.00087807,0.00012947,0.00001138,0.00094847,0.00047621,-0.0
 0019523,-0.00538106,-0.00511573,0.00049074,0.04963354,-0.02366771,-0.0
 1040728,-0.00181573,0.00554604,0.00097613,0.12050013,-0.09071861,-0.02
 882158,-0.00038254,-0.00055459,-0.00000645,-0.00002811,0.00031997,0.00
 000566,-0.00001673,-0.00000109,0.00000502,0.00003403,0.00000171,0.0000
 0916,0.00003489,0.00001220,0.00003399,0.00012752,0.00011746,0.00000825
 ,0.00055209,0.00039302,0.00023740,0.00121328,-0.00018171,0.00071994,-0
 .00317943,-0.00314213,-0.00130394,-0.16152079,0.11569093,0.00024164,0.
 00013653,-0.00015893,-0.00039343,0.00018997,-0.00000755,0.00003127,-0.
 00044583,-0.00001669,-0.00031777,-0.00012163,-0.00008063,0.00071244,-0
 .00028018,0.00012067,-0.00021316,0.00041842,0.00020926,0.00041085,-0.0
 0007450,0.00000120,-0.00147438,-0.00061232,-0.00081137,0.00238616,0.00
 218017,0.00238562,-0.00812657,0.00626173,-0.00363856,0.00024435,0.0006
 3081,-0.00326050,0.11766982,-0.04583246,-0.03266648,0.00013598,0.00020
 447,-0.00001376,0.00000461,-0.00010820,0.00003567,0.00000247,0.0000009
 9,0.00000463,-0.00000134,0.00001123,0.00003973,-0.00000797,-0.00002681
 ,0.00012369,-0.00005802,-0.00005048,0.00002634,0.00029311,-0.00000103,
 -0.00005372,-0.00058558,0.00036981,0.00177719,-0.00057159,-0.00131126,
 0.00222088,-0.11037162,0.03843081,0.03377393,-0.00019139,0.00003958,0.
 00000334,0.00033456,0.00031696,0.00000398,0.00138287,0.00219947,0.0000
 2142,-0.00030660,0.00043129,0.00000711,0.00014123,-0.00007957,0.000003
 82,-0.00000014,-0.00015455,-0.00000746,0.00003572,-0.00015192,-0.00000
 179,0.00014883,0.00003950,-0.00000379,-0.00013881,-0.00000590,0.000002
 29,0.00018160,-0.00007580,0.00000054,-0.00010170,-0.00002894,0.0000106
 0,-0.00004208,0.00007718,-0.00001342,0.00803310,0.00318908,0.00002597,
 -0.30631975,-0.09870591,-0.00077201,0.00002040,0.00001911,0.00000009,0
 .00023428,-0.00035130,-0.00000484,0.00000693,-0.00002389,-0.00000025,-
 0.00003229,0.00010174,0.00000138,0.00002552,-0.00000144,0.00000072,0.0
 0000015,-0.00000017,-0.00000006,0.00001963,-0.00000248,-0.00000388,0.0
 0001489,-0.00001485,0.00000529,0.31843720,0.00048148,-0.00044139,-0.00
 000999,-0.00214123,-0.00069798,-0.00000693,0.00262631,-0.00513620,-0.0
 0007339,0.00108204,-0.00048640,-0.00000966,-0.00052132,0.00031493,0.00
 000342,0.00002673,0.00007974,0.00000650,0.00033977,0.00016356,0.000003
 12,0.00019975,-0.00012340,-0.00000284,-0.00023442,0.00003698,-0.000005
 11,0.00022777,-0.00015081,0.00000546,-0.00013341,-0.00004029,0.0000148
 9,-0.00004409,0.00013999,-0.00001724,-0.03652193,-0.02870801,-0.000286
 36,-0.08297424,-0.07631045,-0.00017599,-0.00013484,-0.00009027,-0.0000
 0063,-0.00023572,0.00048151,0.00001214,-0.00002158,0.00003585,0.000000
 73,-0.00021887,-0.00025276,-0.00000465,-0.00002864,-0.00000115,0.00000
 069,0.00000760,0.00000395,0.00000096,0.00001975,-0.00000675,-0.0000068
 8,0.00001537,-0.00001546,0.00000650,0.10155029,0.10079714,0.00000620,-
 0.00000469,-0.00003831,-0.00002568,-0.00001478,0.00033578,0.00002914,-
 0.00007044,0.00052478,0.00001355,-0.00000837,0.00021919,-0.00000654,0.
 00000155,0.00014509,0.00000007,0.00000207,-0.00002188,0.00000350,0.000
 00459,-0.00013384,0.00000158,-0.00000204,0.00002620,-0.00000238,0.0000
 0137,0.00000190,0.00000155,-0.00000214,-0.00000864,-0.00000154,-0.0000
 0126,-0.00000010,0.00000075,0.00000200,0.00000172,-0.00044951,-0.00035
 226,-0.00009894,-0.00058286,-0.00014668,-0.05065685,-0.00000158,-0.000
 00064,-0.00003082,-0.00000270,0.00001216,-0.00047381,-0.00000040,0.000
 00074,-0.00001676,-0.00000209,-0.00000518,0.00020068,-0.00000005,0.000
 00035,-0.00000854,0.00000021,0.00000002,-0.00000103,0.00000044,0.00000
 024,0.00000234,-0.00000045,-0.00000058,0.00000023,0.00078097,0.0004872
 5,0.04658256,0.00021703,-0.00003883,-0.00001756,0.00035975,-0.00011936
 ,-0.00026740,0.00071788,-0.00107176,0.00132779,0.00019474,0.00081334,0
 .00013016,-0.00013644,-0.00026831,-0.00045410,0.00005967,0.00036702,-0
 .00003859,-0.00026612,0.00010837,0.00010578,-0.00015969,-0.00001617,0.
 00002528,0.00022928,-0.00000761,0.00000873,-0.00029614,0.00013207,0.00
 000451,0.00017523,0.00005100,-0.00001977,0.00006925,-0.00013784,0.0000
 2171,0.00002816,0.00540210,-0.00035915,-0.11478551,0.03477859,-0.10711
 786,0.00001519,0.00001283,0.00000947,-0.00060897,-0.00068538,0.0010136
 4,0.00000104,0.00000632,0.00005134,0.00011712,-0.00023624,-0.00013677,
 -0.00001378,-0.00000282,-0.00000319,-0.00000938,-0.00000033,-0.0000012
 8,-0.00003206,0.00000447,0.00000398,-0.00002396,0.00002346,-0.00000969
 ,-0.01098095,0.00861553,-0.02491953,0.11692308,0.00053419,0.00008070,-
 0.00007885,0.00045170,-0.00168590,-0.00069472,0.00620435,0.00463111,0.
 00164363,-0.00068804,0.00067506,-0.00026813,-0.00051258,-0.00006299,-0
 .00026412,-0.00035672,0.00026877,-0.00005850,-0.00085479,-0.00033699,-
 0.00011278,0.00032439,-0.00012817,0.00001804,-0.00036261,0.00003903,-0
 .00001461,0.00038455,-0.00021326,0.00000594,-0.00023755,-0.00008196,0.
 00002531,-0.00007258,0.00020909,-0.00003160,0.01688592,-0.03278296,0.0
 2845589,0.03111794,-0.06666423,0.05535119,-0.00001929,-0.00000975,0.00
 007382,-0.00080895,-0.00035702,0.00088606,-0.00001594,0.00001641,0.000
 04374,-0.00039793,0.00095868,0.00036003,-0.00000783,-0.00000181,0.0000
 1224,0.00000226,0.00000255,0.00000139,0.00003823,-0.00000891,-0.000010
 59,0.00002991,-0.00002319,0.00001063,-0.00422478,0.00533657,-0.0097516
 8,-0.04232961,0.08515645,-0.00013134,-0.00010017,-0.00001702,0.0001894
 2,0.00055165,-0.00023706,-0.00089095,-0.00097290,0.00071714,-0.0007200
 5,0.00089695,-0.00018172,0.00031316,-0.00038244,-0.00015769,0.00002367
 ,-0.00005548,-0.00004691,0.00016518,-0.00020374,0.00002220,-0.00000992
 ,0.00010995,0.00002813,0.00002810,-0.00003466,0.00000656,0.00000183,0.
 00007657,-0.00000884,-0.00000594,-0.00000860,0.00000061,-0.00000081,-0
 .00006335,0.00001045,0.00327476,0.00288498,0.00742780,-0.10754499,0.06
 124998,-0.23635093,0.00000841,0.00000481,0.00001556,0.00068587,-0.0000
 6989,-0.00004010,0.00001447,-0.00005624,0.00001365,-0.00001220,-0.0000
 8080,-0.00000174,0.00005164,0.00000680,-0.00001901,-0.00000943,-0.0000
 0520,-0.00000451,0.00000482,0.00000578,-0.00000048,0.00000202,0.000006
 35,-0.00000645,0.00190639,-0.00110736,0.00163107,0.11675365,-0.0694175
 5,0.24574634,0.00021924,-0.00003917,0.00000682,0.00035907,-0.00012942,
 0.00026557,0.00071462,-0.00102218,-0.00134782,0.00020279,0.00080754,-0
 .00010649,-0.00013704,-0.00028068,0.00043432,0.00005889,0.00036842,0.0
 0006347,-0.00026725,0.00011212,-0.00010155,-0.00016104,-0.00001535,-0.
 00001921,0.00023020,-0.00000822,-0.00001237,-0.00029658,0.00013227,-0.
 00001002,0.00017429,0.00004974,-0.00001453,0.00007021,-0.00013670,0.00
 002385,0.00000757,0.00537212,0.00051154,-0.11404575,0.03200762,0.10750
 664,0.00001526,0.00001314,-0.00000882,-0.00062196,-0.00064970,-0.00102
 560,0.00000104,0.00000824,-0.00005176,0.00011720,-0.00023871,0.0001310
 2,-0.00001285,-0.00000135,0.00000040,-0.00000926,-0.00000045,0.0000016
 4,-0.00003133,0.00000509,0.00000886,-0.00002456,0.00002281,-0.00000688
 ,-0.01090322,0.00801789,0.02515734,0.00820557,-0.00508424,-0.01409776,
 0.11613490,0.00053335,0.00007718,0.00008469,0.00045735,-0.00169300,0.0
 0065806,0.00617520,0.00465692,-0.00154941,-0.00069893,0.00067919,0.000
 29295,-0.00050387,-0.00007995,0.00026258,-0.00035750,0.00026829,0.0000
 6208,-0.00085077,-0.00034083,0.00010669,0.00032391,-0.00012733,-0.0000
 2865,-0.00036317,0.00003815,0.00001497,0.00038545,-0.00021215,-0.00000
 232,-0.00023875,-0.00008209,0.00002970,-0.00007026,0.00020955,-0.00002
 601,0.01684748,-0.03205094,-0.02946603,0.02836332,-0.06393500,-0.05129
 202,-0.00001866,-0.00000721,-0.00007411,-0.00078194,-0.00032928,-0.000
 88112,-0.00001557,0.00001644,-0.00004294,-0.00039806,0.00096259,-0.000
 33761,-0.00000439,-0.00000092,-0.00000968,0.00000174,0.00000243,0.0000
 0149,0.00003895,-0.00000865,-0.00001229,0.00002950,-0.00002399,0.00001
 261,-0.00414270,0.00507110,0.00984839,-0.00540084,0.00498270,0.0067645
 6,-0.03931083,0.08192681,0.00014327,0.00010286,-0.00001645,-0.00018039
 ,-0.00058726,-0.00023006,0.00104052,0.00107821,0.00070374,0.00070084,-
 0.00087973,-0.00020285,-0.00032557,0.00038538,-0.00013946,-0.00003289,
 0.00006030,-0.00004477,-0.00018508,0.00019422,0.00002975,0.00001881,-0
 .00011360,0.00002913,-0.00003772,0.00003523,0.00000712,0.00000765,-0.0
 0007796,-0.00000218,-0.00000207,0.00000573,0.00000350,0.00000107,0.000
 06758,0.00000295,-0.00284087,-0.00386241,0.00665480,0.10785191,-0.0571
 8097,-0.23973567,-0.00000889,-0.00000559,0.00001418,-0.00070256,0.0000
 6912,-0.00005340,-0.00001500,0.00005605,0.00001469,0.00000225,0.000105
 38,-0.00000847,-0.00005165,-0.00000661,-0.00001991,0.00000938,0.000005
 09,-0.00000367,-0.00000336,-0.00000632,-0.00000571,-0.00000343,-0.0000
 0871,-0.00000440,-0.00196641,0.00116536,0.00181800,0.01388887,-0.00618
 477,-0.01854704,-0.11730868,0.06558342,0.24973616\\-0.00002033,0.00002
 901,-0.00000199,-0.00004080,0.00003509,-0.00000007,0.00005605,-0.00001
 977,-0.00000267,-0.00007137,-0.00006445,-0.00000006,-0.00003550,0.0000
 1861,0.00000198,0.00000870,0.00000840,0.00000198,0.00000987,0.00002837
 ,-0.00000120,-0.00000755,-0.00004188,-0.00000588,0.00007543,0.00003372
 ,-0.00001363,0.00000191,0.00008301,0.00000552,-0.00000484,-0.00000715,
 -0.00000417,0.00001111,-0.00006741,0.00003980,-0.00004747,-0.00004727,
 0.00000069,0.00002827,0.00002421,-0.00000077,-0.00000540,0.00000445,-0
 .00000069,0.00002179,-0.00001310,0.00000027,0.00000209,0.00000567,0.00
 000250,0.00002213,-0.00001689,-0.00000111,0.00000757,0.00000315,0.0000
 0071,-0.00001311,0.00000248,-0.00000210,-0.00001053,0.00000829,0.00000
 681,-0.00000785,0.00000872,-0.00002612,-0.00000035,0.00000873,-0.00000
 024,0.00000979,-0.00001170,0.00000236,0.00001038,-0.00001230,-0.000001
 92\\\@


 A DANDELION FROM A LOVER MEANS MORE THAN AN ORCHID FROM A FRIEND.
 Job cpu time:       0 days  0 hours 39 minutes  6.4 seconds.
 File lengths (MBytes):  RWF=    264 Int=      0 D2E=      0 Chk=      9 Scr=      1
 Normal termination of Gaussian 09 at Wed Dec 18 19:50:30 2024.
