 Entering Gaussian System, Link 0=g09
 Input=B3PW91D3BJFA.gjf
 Output=B3PW91D3BJFA.log
 Initial command:
 /home/phzd/g09E/g09/l1.exe "/home/phzd/g09E/scratch/Gau-1472822.inp" -scrdir="/home/phzd/g09E/scratch/"
 Default is to use a total of  18 processors:
                               18 via shared-memory
                                1 via Linda
 Entering Link 1 = /home/phzd/g09E/g09/l1.exe PID=   1472824.
  
 Copyright (c) 1988,1990,1992,1993,1995,1998,2003,2009,2015,
            Gaussian, Inc.  All Rights Reserved.
  
 This is part of the Gaussian(R) 09 program.  It is based on
 the Gaussian(R) 03 system (copyright 2003, Gaussian, Inc.),
 the Gaussian(R) 98 system (copyright 1998, Gaussian, Inc.),
 the Gaussian(R) 94 system (copyright 1995, Gaussian, Inc.),
 the Gaussian 92(TM) system (copyright 1992, Gaussian, Inc.),
 the Gaussian 90(TM) system (copyright 1990, Gaussian, Inc.),
 the Gaussian 88(TM) system (copyright 1988, Gaussian, Inc.),
 the Gaussian 86(TM) system (copyright 1986, Carnegie Mellon
 University), and the Gaussian 82(TM) system (copyright 1983,
 Carnegie Mellon University). Gaussian is a federally registered
 trademark of Gaussian, Inc.
  
 This software contains proprietary and confidential information,
 including trade secrets, belonging to Gaussian, Inc.
  
 This software is provided under written license and may be
 used, copied, transmitted, or stored only in accord with that
 written license.
  
 The following legend is applicable only to US Government
 contracts under FAR:
  
                    RESTRICTED RIGHTS LEGEND
  
 Use, reproduction and disclosure by the US Government is
 subject to restrictions as set forth in subparagraphs (a)
 and (c) of the Commercial Computer Software - Restricted
 Rights clause in FAR 52.227-19.
  
 Gaussian, Inc.
 340 Quinnipiac St., Bldg. 40, Wallingford CT 06492
  
  
 ---------------------------------------------------------------
 Warning -- This program may not be used in any manner that
 competes with the business of Gaussian, Inc. or will provide
 assistance to any competitor of Gaussian, Inc.  The licensee
 of this program is prohibited from giving any competitor of
 Gaussian, Inc. access to this program.  By using this program,
 the user acknowledges that Gaussian, Inc. is engaged in the
 business of creating and licensing software in the field of
 computational chemistry and represents and warrants to the
 licensee that it is not a competitor of Gaussian, Inc. and that
 it will not use this program in any manner prohibited above.
 ---------------------------------------------------------------
  

 Cite this work as:
 Gaussian 09, Revision E.01,
 M. J. Frisch, G. W. Trucks, H. B. Schlegel, G. E. Scuseria, 
 M. A. Robb, J. R. Cheeseman, G. Scalmani, V. Barone, B. Mennucci, 
 G. A. Petersson, H. Nakatsuji, M. Caricato, X. Li, H. P. Hratchian, 
 A. F. Izmaylov, J. Bloino, G. Zheng, J. L. Sonnenberg, M. Hada, 
 M. Ehara, K. Toyota, R. Fukuda, J. Hasegawa, M. Ishida, T. Nakajima, 
 Y. Honda, O. Kitao, H. Nakai, T. Vreven, J. A. Montgomery, Jr., 
 J. E. Peralta, F. Ogliaro, M. Bearpark, J. J. Heyd, E. Brothers, 
 K. N. Kudin, V. N. Staroverov, T. Keith, R. Kobayashi, J. Normand, 
 K. Raghavachari, A. Rendell, J. C. Burant, S. S. Iyengar, J. Tomasi, 
 M. Cossi, N. Rega, J. M. Millam, M. Klene, J. E. Knox, J. B. Cross, 
 V. Bakken, C. Adamo, J. Jaramillo, R. Gomperts, R. E. Stratmann, 
 O. Yazyev, A. J. Austin, R. Cammi, C. Pomelli, J. W. Ochterski, 
 R. L. Martin, K. Morokuma, V. G. Zakrzewski, G. A. Voth, 
 P. Salvador, J. J. Dannenberg, S. Dapprich, A. D. Daniels, 
 O. Farkas, J. B. Foresman, J. V. Ortiz, J. Cioslowski, 
 and D. J. Fox, Gaussian, Inc., Wallingford CT, 2013.
 
 ******************************************
 Gaussian 09:  ES64L-G09RevE.01 30-Nov-2015
                18-Dec-2024 
 ******************************************
 %chk=B3PW91D3BJFA.chk
 -------------------------------------------------------
 # opt freq b3pw91/6-31+g(d,p) EmpiricalDispersion=GD3BJ
 -------------------------------------------------------
 1/14=-1,18=20,19=15,26=3,38=1/1,3;
 2/9=110,12=2,17=6,18=5,40=1/2;
 3/5=1,6=6,7=111,11=2,16=1,25=1,30=1,71=1,74=-6,124=41/1,2,3;
 4//1;
 5/5=2,38=5/2;
 6/7=2,8=2,9=2,10=2,28=1/1;
 7//1,2,3,16;
 1/14=-1,18=20,19=15,26=3/3(2);
 2/9=110/2;
 99//99;
 2/9=110/2;
 3/5=1,6=6,7=111,11=2,16=1,25=1,30=1,71=1,74=-6,124=41/1,2,3;
 4/5=5,16=3,69=1/1;
 5/5=2,38=5/2;
 7//1,2,3,16;
 1/14=-1,18=20,19=15,26=3/3(-5);
 2/9=110/2;
 6/7=2,8=2,9=2,10=2,19=2,28=1/1;
 99/9=1/99;
 ----------
 [No Title]
 ----------
 Symbolic Z-matrix:
 Charge =  0 Multiplicity = 1
 C                     1.46084  -2.01376  -0.00042 
 C                     2.49406  -1.08065  -0.00028 
 C                     2.189     0.29467  -0.00008 
 C                     0.86662   0.7127   -0.00002 
 C                    -0.18631  -0.22683  -0.00015 
 C                     0.13646  -1.59271  -0.00036 
 O                     3.78085  -1.49428  -0.00034 
 C                    -1.55728   0.2719   -0.00007 
 C                    -2.69671  -0.44863   0.00012 
 O                     3.29155   1.10182   0.00004 
 C                     3.09949   2.50661   0.00039 
 C                    -4.07724   0.07802   0.00032 
 O                    -5.04131  -0.65548   0.0021 
 O                    -4.2698    1.42358  -0.00112 
 H                     1.71474  -3.06889  -0.00058 
 H                     0.63076   1.7723    0.00015 
 H                    -0.64961  -2.34028  -0.00048 
 H                     4.349    -0.70917  -0.00021 
 H                    -1.61709   1.36317  -0.00003 
 H                    -2.67665  -1.53362   0.00044 
 H                     4.09677   2.94732   0.00051 
 H                     2.55815   2.8303   -0.89674 
 H                     2.55814   2.82983   0.89769 
 H                    -3.42813   1.89597  -0.00297 
 

 GradGradGradGradGradGradGradGradGradGradGradGradGradGradGradGradGradGrad
 Berny optimization.
 Initialization pass.
                           ----------------------------
                           !    Initial Parameters    !
                           ! (Angstroms and Degrees)  !
 --------------------------                            --------------------------
 ! Name  Definition              Value          Derivative Info.                !
 --------------------------------------------------------------------------------
 ! R1    R(1,2)                  1.3922         estimate D2E/DX2                !
 ! R2    R(1,6)                  1.3897         estimate D2E/DX2                !
 ! R3    R(1,15)                 1.0852         estimate D2E/DX2                !
 ! R4    R(2,3)                  1.4087         estimate D2E/DX2                !
 ! R5    R(2,7)                  1.3516         estimate D2E/DX2                !
 ! R6    R(3,4)                  1.3869         estimate D2E/DX2                !
 ! R7    R(3,10)                 1.3664         estimate D2E/DX2                !
 ! R8    R(4,5)                  1.4112         estimate D2E/DX2                !
 ! R9    R(4,16)                 1.0855         estimate D2E/DX2                !
 ! R10   R(5,6)                  1.4035         estimate D2E/DX2                !
 ! R11   R(5,8)                  1.4589         estimate D2E/DX2                !
 ! R12   R(6,17)                 1.0848         estimate D2E/DX2                !
 ! R13   R(7,18)                 0.9691         estimate D2E/DX2                !
 ! R14   R(8,9)                  1.3481         estimate D2E/DX2                !
 ! R15   R(8,19)                 1.0929         estimate D2E/DX2                !
 ! R16   R(9,12)                 1.4776         estimate D2E/DX2                !
 ! R17   R(9,20)                 1.0852         estimate D2E/DX2                !
 ! R18   R(10,11)                1.4179         estimate D2E/DX2                !
 ! R19   R(11,21)                1.0903         estimate D2E/DX2                !
 ! R20   R(11,22)                1.0967         estimate D2E/DX2                !
 ! R21   R(11,23)                1.0967         estimate D2E/DX2                !
 ! R22   R(12,13)                1.2114         estimate D2E/DX2                !
 ! R23   R(12,14)                1.3593         estimate D2E/DX2                !
 ! R24   R(14,24)                0.9652         estimate D2E/DX2                !
 ! A1    A(2,1,6)              120.2778         estimate D2E/DX2                !
 ! A2    A(2,1,15)             118.555          estimate D2E/DX2                !
 ! A3    A(6,1,15)             121.1672         estimate D2E/DX2                !
 ! A4    A(1,2,3)              119.579          estimate D2E/DX2                !
 ! A5    A(1,2,7)              120.095          estimate D2E/DX2                !
 ! A6    A(3,2,7)              120.326          estimate D2E/DX2                !
 ! A7    A(2,3,4)              120.049          estimate D2E/DX2                !
 ! A8    A(2,3,10)             113.7007         estimate D2E/DX2                !
 ! A9    A(4,3,10)             126.2502         estimate D2E/DX2                !
 ! A10   A(3,4,5)              120.715          estimate D2E/DX2                !
 ! A11   A(3,4,16)             120.0919         estimate D2E/DX2                !
 ! A12   A(5,4,16)             119.1931         estimate D2E/DX2                !
 ! A13   A(4,5,6)              118.4464         estimate D2E/DX2                !
 ! A14   A(4,5,8)              118.2672         estimate D2E/DX2                !
 ! A15   A(6,5,8)              123.2864         estimate D2E/DX2                !
 ! A16   A(1,6,5)              120.9328         estimate D2E/DX2                !
 ! A17   A(1,6,17)             118.8012         estimate D2E/DX2                !
 ! A18   A(5,6,17)             120.266          estimate D2E/DX2                !
 ! A19   A(2,7,18)             108.072          estimate D2E/DX2                !
 ! A20   A(5,8,9)              127.7021         estimate D2E/DX2                !
 ! A21   A(5,8,19)             113.128          estimate D2E/DX2                !
 ! A22   A(9,8,19)             119.1699         estimate D2E/DX2                !
 ! A23   A(8,9,12)             126.8114         estimate D2E/DX2                !
 ! A24   A(8,9,20)             121.2478         estimate D2E/DX2                !
 ! A25   A(12,9,20)            111.9408         estimate D2E/DX2                !
 ! A26   A(3,10,11)            118.4218         estimate D2E/DX2                !
 ! A27   A(10,11,21)           106.0562         estimate D2E/DX2                !
 ! A28   A(10,11,22)           111.0448         estimate D2E/DX2                !
 ! A29   A(10,11,23)           111.0447         estimate D2E/DX2                !
 ! A30   A(21,11,22)           109.4074         estimate D2E/DX2                !
 ! A31   A(21,11,23)           109.4077         estimate D2E/DX2                !
 ! A32   A(22,11,23)           109.7962         estimate D2E/DX2                !
 ! A33   A(9,12,13)            121.8533         estimate D2E/DX2                !
 ! A34   A(9,12,14)            119.0254         estimate D2E/DX2                !
 ! A35   A(13,12,14)           119.1213         estimate D2E/DX2                !
 ! A36   A(12,14,24)           111.1593         estimate D2E/DX2                !
 ! D1    D(6,1,2,3)             -0.0003         estimate D2E/DX2                !
 ! D2    D(6,1,2,7)           -179.9999         estimate D2E/DX2                !
 ! D3    D(15,1,2,3)           179.9995         estimate D2E/DX2                !
 ! D4    D(15,1,2,7)            -0.0001         estimate D2E/DX2                !
 ! D5    D(2,1,6,5)             -0.0002         estimate D2E/DX2                !
 ! D6    D(2,1,6,17)           179.9994         estimate D2E/DX2                !
 ! D7    D(15,1,6,5)          -180.0            estimate D2E/DX2                !
 ! D8    D(15,1,6,17)           -0.0005         estimate D2E/DX2                !
 ! D9    D(1,2,3,4)              0.0004         estimate D2E/DX2                !
 ! D10   D(1,2,3,10)          -179.9996         estimate D2E/DX2                !
 ! D11   D(7,2,3,4)           -180.0            estimate D2E/DX2                !
 ! D12   D(7,2,3,10)             0.0            estimate D2E/DX2                !
 ! D13   D(1,2,7,18)          -179.9992         estimate D2E/DX2                !
 ! D14   D(3,2,7,18)             0.0012         estimate D2E/DX2                !
 ! D15   D(2,3,4,5)              0.0            estimate D2E/DX2                !
 ! D16   D(2,3,4,16)           179.9993         estimate D2E/DX2                !
 ! D17   D(10,3,4,5)          -180.0            estimate D2E/DX2                !
 ! D18   D(10,3,4,16)           -0.0007         estimate D2E/DX2                !
 ! D19   D(2,3,10,11)         -179.9928         estimate D2E/DX2                !
 ! D20   D(4,3,10,11)            0.0072         estimate D2E/DX2                !
 ! D21   D(3,4,5,6)             -0.0005         estimate D2E/DX2                !
 ! D22   D(3,4,5,8)            179.9996         estimate D2E/DX2                !
 ! D23   D(16,4,5,6)          -179.9998         estimate D2E/DX2                !
 ! D24   D(16,4,5,8)             0.0003         estimate D2E/DX2                !
 ! D25   D(4,5,6,1)              0.0006         estimate D2E/DX2                !
 ! D26   D(4,5,6,17)          -179.999          estimate D2E/DX2                !
 ! D27   D(8,5,6,1)           -179.9995         estimate D2E/DX2                !
 ! D28   D(8,5,6,17)             0.001          estimate D2E/DX2                !
 ! D29   D(4,5,8,9)           -179.9842         estimate D2E/DX2                !
 ! D30   D(4,5,8,19)             0.0071         estimate D2E/DX2                !
 ! D31   D(6,5,8,9)              0.0159         estimate D2E/DX2                !
 ! D32   D(6,5,8,19)          -179.9929         estimate D2E/DX2                !
 ! D33   D(5,8,9,12)           179.9945         estimate D2E/DX2                !
 ! D34   D(5,8,9,20)             0.0121         estimate D2E/DX2                !
 ! D35   D(19,8,9,12)            0.0038         estimate D2E/DX2                !
 ! D36   D(19,8,9,20)         -179.9787         estimate D2E/DX2                !
 ! D37   D(8,9,12,13)         -179.91           estimate D2E/DX2                !
 ! D38   D(8,9,12,14)            0.0686         estimate D2E/DX2                !
 ! D39   D(20,9,12,13)           0.0738         estimate D2E/DX2                !
 ! D40   D(20,9,12,14)        -179.9476         estimate D2E/DX2                !
 ! D41   D(3,10,11,21)         179.9953         estimate D2E/DX2                !
 ! D42   D(3,10,11,22)         -61.2397         estimate D2E/DX2                !
 ! D43   D(3,10,11,23)          61.23           estimate D2E/DX2                !
 ! D44   D(9,12,14,24)           0.0526         estimate D2E/DX2                !
 ! D45   D(13,12,14,24)       -179.9682         estimate D2E/DX2                !
 --------------------------------------------------------------------------------
 Trust Radius=3.00D-01 FncErr=1.00D-07 GrdErr=1.00D-06
 Number of steps in this run=    115 maximum allowed number of steps=    144.
 GradGradGradGradGradGradGradGradGradGradGradGradGradGradGradGradGradGrad

                          Input orientation:                          
 ---------------------------------------------------------------------
 Center     Atomic      Atomic             Coordinates (Angstroms)
 Number     Number       Type             X           Y           Z
 ---------------------------------------------------------------------
      1          6           0        1.460837   -2.013762   -0.000419
      2          6           0        2.494064   -1.080651   -0.000277
      3          6           0        2.189003    0.294670   -0.000079
      4          6           0        0.866621    0.712699   -0.000018
      5          6           0       -0.186313   -0.226828   -0.000152
      6          6           0        0.136464   -1.592707   -0.000359
      7          8           0        3.780849   -1.494280   -0.000337
      8          6           0       -1.557275    0.271903   -0.000070
      9          6           0       -2.696714   -0.448627    0.000124
     10          8           0        3.291549    1.101821    0.000036
     11          6           0        3.099486    2.506606    0.000394
     12          6           0       -4.077238    0.078024    0.000317
     13          8           0       -5.041308   -0.655484    0.002101
     14          8           0       -4.269800    1.423580   -0.001118
     15          1           0        1.714740   -3.068887   -0.000579
     16          1           0        0.630757    1.772301    0.000146
     17          1           0       -0.649609   -2.340279   -0.000483
     18          1           0        4.349001   -0.709169   -0.000205
     19          1           0       -1.617093    1.363173   -0.000031
     20          1           0       -2.676646   -1.533616    0.000438
     21          1           0        4.096772    2.947324    0.000513
     22          1           0        2.558151    2.830295   -0.896741
     23          1           0        2.558135    2.829834    0.897685
     24          1           0       -3.428134    1.895968   -0.002974
 ---------------------------------------------------------------------
                    Distance matrix (angstroms):
                    1          2          3          4          5
     1  C    0.000000
     2  C    1.392212   0.000000
     3  C    2.420555   1.408748   0.000000
     4  C    2.790463   2.421709   1.386882   0.000000
     5  C    2.430275   2.813083   2.431889   1.411163   0.000000
     6  C    1.389695   2.412567   2.788388   2.418269   1.403499
     7  O    2.377460   1.351630   2.394643   3.655610   4.164710
     8  C    3.785930   4.271153   3.746347   2.463650   1.458859
     9  C    4.442396   5.229114   4.941935   3.747804   2.520180
    10  O    3.613636   2.323611   1.366419   2.455950   3.723014
    11  C    4.808212   3.637987   2.391995   2.864226   4.274124
    12  C    5.919953   6.672671   6.269985   4.984431   3.902849
    13  O    6.642501   7.547357   7.292475   6.064285   4.873882
    14  O    6.682479   7.212561   6.556720   5.185381   4.404397
    15  H    1.085244   2.135516   3.396828   3.875526   3.419255
    16  H    3.875991   3.407528   2.147446   1.085536   2.159657
    17  H    2.135555   3.386642   3.873070   3.408758   2.163635
    18  H    3.169141   1.891769   2.381866   3.761473   4.560891
    19  H    4.569173   4.782665   3.953235   2.567480   2.138980
    20  H    4.165250   5.190512   5.197804   4.195316   2.812375
    21  H    5.617876   4.335119   3.267439   3.927776   5.331047
    22  H    5.047017   4.012886   2.714713   2.854750   4.204992
    23  H    5.046888   4.012771   2.714645   2.854707   4.204912
    24  H    6.260035   6.628174   5.840924   4.454779   3.875006
                    6          7          8          9         10
     6  C    0.000000
     7  O    3.645714   0.000000
     8  C    2.519032   5.622719   0.000000
     9  C    3.055457   6.561419   1.348141   0.000000
    10  O    4.149101   2.641809   4.919335   6.185724   0.000000
    11  C    5.058050   4.058490   5.165203   6.506100   1.417854
    12  C    4.532839   8.013842   2.527410   1.477568   7.439569
    13  O    5.261912   8.861943   3.605348   2.353702   8.516139
    14  O    5.339771   8.563110   2.946889   2.445355   7.568192
    15  H    2.161033   2.597729   4.676212   5.130954   4.458826
    16  H    3.401118   4.538021   2.653051   4.000573   2.743967
    17  H    1.084792   4.510507   2.765385   2.787290   5.232665
    18  H    4.304196   0.969121   5.987203   7.050531   2.097115
    19  H    3.436887   6.107603   1.092908   2.109076   4.915595
    20  H    2.813731   6.457615   2.124357   1.085175   6.524177
    21  H    6.024610   4.452825   6.255088   7.594994   2.013521
    22  H    5.121622   4.582628   4.928095   6.258538   2.080794
    23  H    5.121508   4.582514   4.928040   6.258383   2.080793
    24  H    4.987707   7.966381   2.477440   2.456036   6.766448
                   11         12         13         14         15
    11  C    0.000000
    12  C    7.576502   0.000000
    13  O    8.733347   1.211391   0.000000
    14  O    7.448444   1.359266   2.217598   0.000000
    15  H    5.744880   6.591666   7.174169   7.483113   0.000000
    16  H    2.575622   5.003578   6.169803   4.912949   4.961060
    17  H    6.127643   4.194858   4.703782   5.222300   2.474069
    18  H    3.450000   8.462930   9.390463   8.878758   3.536609
    19  H    4.853201   2.775594   3.974950   2.653395   5.544751
    20  H    7.048907   2.135191   2.522448   3.359040   4.652024
    21  H    1.090326   8.662986   9.822664   8.504195   6.470616
    22  H    1.096663   7.239344   8.408945   7.028649   6.026176
    23  H    1.096662   7.239192   8.408391   7.028947   6.026035
    24  H    6.556120   1.930354   3.018653   0.965171   7.148353
                   16         17         18         19         20
    16  H    0.000000
    17  H    4.307279   0.000000
    18  H    4.470238   5.258006   0.000000
    19  H    2.284779   3.827739   6.315764   0.000000
    20  H    4.676324   2.181647   7.073855   3.084484   0.000000
    21  H    3.659773   7.105412   3.665182   5.929400   8.121454
    22  H    2.374575   6.150434   4.066783   4.515440   6.873991
    23  H    2.374603   6.150317   4.066688   4.515475   6.873695
    24  H    4.060776   5.066162   8.201864   1.887789   3.510953
                   21         22         23         24
    21  H    0.000000
    22  H    1.784969   0.000000
    23  H    1.784972   1.794426   0.000000
    24  H    7.597998   6.124328   6.125252   0.000000
 Stoichiometry    C10H10O4
 Framework group  C1[X(C10H10O4)]
 Deg. of freedom    66
 Full point group                 C1      NOp   1
 Largest Abelian subgroup         C1      NOp   1
 Largest concise Abelian subgroup C1      NOp   1
                         Standard orientation:                         
 ---------------------------------------------------------------------
 Center     Atomic      Atomic             Coordinates (Angstroms)
 Number     Number       Type             X           Y           Z
 ---------------------------------------------------------------------
      1          6           0        1.460837   -2.013762   -0.000419
      2          6           0        2.494064   -1.080651   -0.000277
      3          6           0        2.189003    0.294670   -0.000079
      4          6           0        0.866621    0.712699   -0.000018
      5          6           0       -0.186313   -0.226828   -0.000152
      6          6           0        0.136464   -1.592707   -0.000359
      7          8           0        3.780849   -1.494280   -0.000337
      8          6           0       -1.557275    0.271903   -0.000070
      9          6           0       -2.696714   -0.448627    0.000124
     10          8           0        3.291549    1.101821    0.000036
     11          6           0        3.099486    2.506606    0.000394
     12          6           0       -4.077238    0.078024    0.000317
     13          8           0       -5.041308   -0.655484    0.002101
     14          8           0       -4.269800    1.423580   -0.001118
     15          1           0        1.714740   -3.068887   -0.000579
     16          1           0        0.630757    1.772301    0.000146
     17          1           0       -0.649609   -2.340279   -0.000483
     18          1           0        4.349001   -0.709169   -0.000205
     19          1           0       -1.617093    1.363173   -0.000031
     20          1           0       -2.676646   -1.533616    0.000438
     21          1           0        4.096772    2.947324    0.000513
     22          1           0        2.558151    2.830295   -0.896741
     23          1           0        2.558135    2.829834    0.897685
     24          1           0       -3.428134    1.895968   -0.002974
 ---------------------------------------------------------------------
 Rotational constants (GHZ):      1.5465928      0.2847573      0.2408522
 Standard basis: 6-31+G(d,p) (6D, 7F)
 There are   316 symmetry adapted cartesian basis functions of A   symmetry.
 There are   316 symmetry adapted basis functions of A   symmetry.
   316 basis functions,   518 primitive gaussians,   316 cartesian basis functions
    51 alpha electrons       51 beta electrons
       nuclear repulsion energy       823.0999281954 Hartrees.
 NAtoms=   24 NActive=   24 NUniq=   24 SFac= 1.00D+00 NAtFMM=   60 NAOKFM=F Big=F
 Integral buffers will be    131072 words long.
 Raffenetti 2 integral format.
 Two-electron integral symmetry is turned on.
 Nuclear repulsion after empirical dispersion term =      823.0556958756 Hartrees.
 One-electron integrals computed using PRISM.
 NBasis=   316 RedAO= T EigKep=  1.47D-06  NBF=   316
 NBsUse=   315 1.00D-06 EigRej=  6.80D-07 NBFU=   315
 ExpMin= 4.38D-02 ExpMax= 5.48D+03 ExpMxC= 8.25D+02 IAcc=2 IRadAn=         4 AccDes= 0.00D+00
 Harris functional with IExCor=  408 and IRadAn=       4 diagonalized for initial guess.
 HarFok:  IExCor=  408 AccDes= 0.00D+00 IRadAn=         4 IDoV= 1 UseB2=F ITyADJ=14
 ICtDFT=  3500011 ScaDFX=  1.000000  1.000000  1.000000  1.000000
 FoFCou: FMM=F IPFlag=           0 FMFlag=      100000 FMFlg1=           0
         NFxFlg=           0 DoJE=T BraDBF=F KetDBF=T FulRan=T
         wScrn=  0.000000 ICntrl=     500 IOpCl=  0 I1Cent=   200000004 NGrid=           0
         NMat0=    1 NMatS0=      1 NMatT0=    0 NMatD0=    1 NMtDS0=    0 NMtDT0=    0
 Petite list used in FoFCou.
 Requested convergence on RMS density matrix=1.00D-08 within 128 cycles.
 Requested convergence on MAX density matrix=1.00D-06.
 Requested convergence on             energy=1.00D-06.
 No special actions if energy rises.
 SCF Done:  E(RB3PW91) =  -687.782628330     A.U. after   16 cycles
            NFock= 16  Conv=0.30D-08     -V/T= 2.0092

 **********************************************************************

            Population analysis using the SCF density.

 **********************************************************************

 Orbital symmetries:
       Occupied  (A) (A) (A) (A) (A) (A) (A) (A) (A) (A) (A) (A)
                 (A) (A) (A) (A) (A) (A) (A) (A) (A) (A) (A) (A)
                 (A) (A) (A) (A) (A) (A) (A) (A) (A) (A) (A) (A)
                 (A) (A) (A) (A) (A) (A) (A) (A) (A) (A) (A) (A)
                 (A) (A) (A)
       Virtual   (A) (A) (A) (A) (A) (A) (A) (A) (A) (A) (A) (A)
                 (A) (A) (A) (A) (A) (A) (A) (A) (A) (A) (A) (A)
                 (A) (A) (A) (A) (A) (A) (A) (A) (A) (A) (A) (A)
                 (A) (A) (A) (A) (A) (A) (A) (A) (A) (A) (A) (A)
                 (A) (A) (A) (A) (A) (A) (A) (A) (A) (A) (A) (A)
                 (A) (A) (A) (A) (A) (A) (A) (A) (A) (A) (A) (A)
                 (A) (A) (A) (A) (A) (A) (A) (A) (A) (A) (A) (A)
                 (A) (A) (A) (A) (A) (A) (A) (A) (A) (A) (A) (A)
                 (A) (A) (A) (A) (A) (A) (A) (A) (A) (A) (A) (A)
                 (A) (A) (A) (A) (A) (A) (A) (A) (A) (A) (A) (A)
                 (A) (A) (A) (A) (A) (A) (A) (A) (A) (A) (A) (A)
                 (A) (A) (A) (A) (A) (A) (A) (A) (A) (A) (A) (A)
                 (A) (A) (A) (A) (A) (A) (A) (A) (A) (A) (A) (A)
                 (A) (A) (A) (A) (A) (A) (A) (A) (A) (A) (A) (A)
                 (A) (A) (A) (A) (A) (A) (A) (A) (A) (A) (A) (A)
                 (A) (A) (A) (A) (A) (A) (A) (A) (A) (A) (A) (A)
                 (A) (A) (A) (A) (A) (A) (A) (A) (A) (A) (A) (A)
                 (A) (A) (A) (A) (A) (A) (A) (A) (A) (A) (A) (A)
                 (A) (A) (A) (A) (A) (A) (A) (A) (A) (A) (A) (A)
                 (A) (A) (A) (A) (A) (A) (A) (A) (A) (A) (A) (A)
                 (A) (A) (A) (A) (A) (A) (A) (A) (A) (A) (A) (A)
                 (A) (A) (A) (A) (A) (A) (A) (A) (A) (A) (A) (A)
 The electronic state is 1-A.
 Alpha  occ. eigenvalues --  -19.21490 -19.19891 -19.19397 -19.12864 -10.31029
 Alpha  occ. eigenvalues --  -10.26570 -10.26510 -10.25801 -10.22739 -10.21596
 Alpha  occ. eigenvalues --  -10.21212 -10.20494 -10.20432 -10.20146  -1.11875
 Alpha  occ. eigenvalues --   -1.10973  -1.08757  -1.02477  -0.89152  -0.82993
 Alpha  occ. eigenvalues --   -0.78916  -0.77267  -0.73221  -0.67974  -0.64136
 Alpha  occ. eigenvalues --   -0.62925  -0.60586  -0.58786  -0.55820  -0.53403
 Alpha  occ. eigenvalues --   -0.51921  -0.50578  -0.48759  -0.47374  -0.45701
 Alpha  occ. eigenvalues --   -0.45113  -0.45042  -0.44226  -0.43289  -0.41211
 Alpha  occ. eigenvalues --   -0.40515  -0.38526  -0.38484  -0.37692  -0.36816
 Alpha  occ. eigenvalues --   -0.36672  -0.32611  -0.30645  -0.27986  -0.26974
 Alpha  occ. eigenvalues --   -0.23140
 Alpha virt. eigenvalues --   -0.08269  -0.02799  -0.01154  -0.00068   0.00519
 Alpha virt. eigenvalues --    0.00914   0.02036   0.03817   0.04126   0.04422
 Alpha virt. eigenvalues --    0.05703   0.05922   0.06437   0.06756   0.07709
 Alpha virt. eigenvalues --    0.07985   0.08357   0.09825   0.09865   0.10216
 Alpha virt. eigenvalues --    0.10966   0.11242   0.11352   0.13300   0.13526
 Alpha virt. eigenvalues --    0.13600   0.13991   0.14096   0.14589   0.15482
 Alpha virt. eigenvalues --    0.15611   0.16057   0.16738   0.17476   0.18456
 Alpha virt. eigenvalues --    0.18491   0.18771   0.19581   0.20073   0.20292
 Alpha virt. eigenvalues --    0.20911   0.21464   0.21575   0.21931   0.22196
 Alpha virt. eigenvalues --    0.22956   0.23310   0.24358   0.25552   0.25595
 Alpha virt. eigenvalues --    0.25722   0.26814   0.27824   0.28030   0.28218
 Alpha virt. eigenvalues --    0.28535   0.29493   0.30259   0.30886   0.31460
 Alpha virt. eigenvalues --    0.31669   0.32008   0.33226   0.33336   0.33679
 Alpha virt. eigenvalues --    0.34101   0.34387   0.35069   0.36125   0.36838
 Alpha virt. eigenvalues --    0.38373   0.38421   0.38825   0.39601   0.41245
 Alpha virt. eigenvalues --    0.42796   0.43202   0.45890   0.47406   0.48037
 Alpha virt. eigenvalues --    0.49107   0.52284   0.57596   0.61587   0.64500
 Alpha virt. eigenvalues --    0.64792   0.66822   0.67001   0.67551   0.68052
 Alpha virt. eigenvalues --    0.70562   0.71349   0.71933   0.72063   0.72817
 Alpha virt. eigenvalues --    0.74362   0.75138   0.77360   0.77640   0.78735
 Alpha virt. eigenvalues --    0.82664   0.83165   0.83798   0.85589   0.86250
 Alpha virt. eigenvalues --    0.88737   0.90448   0.92534   0.94545   0.97034
 Alpha virt. eigenvalues --    0.99638   1.00592   1.02376   1.04263   1.04302
 Alpha virt. eigenvalues --    1.05407   1.08169   1.08753   1.10232   1.11578
 Alpha virt. eigenvalues --    1.13263   1.14864   1.15107   1.16055   1.16128
 Alpha virt. eigenvalues --    1.18001   1.19413   1.20041   1.21210   1.21447
 Alpha virt. eigenvalues --    1.22224   1.24132   1.24836   1.25236   1.25972
 Alpha virt. eigenvalues --    1.27427   1.28270   1.30056   1.30965   1.33356
 Alpha virt. eigenvalues --    1.34385   1.34574   1.35975   1.36888   1.37707
 Alpha virt. eigenvalues --    1.38127   1.40609   1.41001   1.42707   1.43340
 Alpha virt. eigenvalues --    1.43657   1.43931   1.51156   1.54040   1.55607
 Alpha virt. eigenvalues --    1.56499   1.57595   1.60599   1.65875   1.70000
 Alpha virt. eigenvalues --    1.72929   1.76133   1.76683   1.77543   1.79982
 Alpha virt. eigenvalues --    1.80944   1.81947   1.83859   1.84297   1.85284
 Alpha virt. eigenvalues --    1.87072   1.88010   1.89066   1.90819   1.93794
 Alpha virt. eigenvalues --    1.93923   1.94179   1.95442   1.98620   1.99017
 Alpha virt. eigenvalues --    2.01046   2.02700   2.03124   2.03470   2.04511
 Alpha virt. eigenvalues --    2.07502   2.08020   2.11571   2.13840   2.16422
 Alpha virt. eigenvalues --    2.19273   2.20892   2.21892   2.25845   2.26752
 Alpha virt. eigenvalues --    2.29729   2.34673   2.35318   2.37628   2.40975
 Alpha virt. eigenvalues --    2.43232   2.44682   2.45573   2.45626   2.47904
 Alpha virt. eigenvalues --    2.49785   2.50129   2.50893   2.52927   2.53012
 Alpha virt. eigenvalues --    2.54096   2.56752   2.59916   2.60739   2.61881
 Alpha virt. eigenvalues --    2.63601   2.65222   2.67075   2.68397   2.70498
 Alpha virt. eigenvalues --    2.70852   2.72231   2.72586   2.75678   2.79075
 Alpha virt. eigenvalues --    2.81801   2.83096   2.83851   2.87525   2.93136
 Alpha virt. eigenvalues --    2.93786   3.01268   3.06750   3.08311   3.11786
 Alpha virt. eigenvalues --    3.14900   3.16668   3.20270   3.22732   3.23652
 Alpha virt. eigenvalues --    3.32513   3.34460   3.38871   3.44348   3.47639
 Alpha virt. eigenvalues --    3.49441   3.52742   3.56357   3.58967   3.80060
 Alpha virt. eigenvalues --    4.19719   4.23863   4.27269   4.31523   4.35274
 Alpha virt. eigenvalues --    4.40144   4.42949   4.47224   4.51683   4.54149
 Alpha virt. eigenvalues --    4.59282   4.66653   4.77902   5.07528
          Condensed to atoms (all electrons):
               1          2          3          4          5          6
     1  C   11.719319  -1.214373  -1.627468  -1.827137  -0.067843  -1.679433
     2  C   -1.214373  17.243499  -4.369466  -4.299986  -0.716200   1.131249
     3  C   -1.627468  -4.369466  14.745780  -0.125264  -1.112181  -1.696965
     4  C   -1.827137  -4.299986  -0.125264  15.567733   2.049050  -1.103354
     5  C   -0.067843  -0.716200  -1.112181   2.049050   8.279044  -0.478369
     6  C   -1.679433   1.131249  -1.696965  -1.103354  -0.478369   9.150202
     7  O   -0.526763   0.077570   0.353221   0.115859  -0.053480  -0.023618
     8  C    0.558556  -0.884472   0.315924  -3.365766  -0.864515   0.157831
     9  C    0.038593  -0.005095  -0.582977  -1.654068  -1.521845   0.961085
    10  O    0.083662  -0.863775   0.531038   0.242822  -0.016626  -0.052398
    11  C    0.045625  -0.051155  -0.044208  -0.018986  -0.014257  -0.009968
    12  C   -0.102953   0.057326  -0.009828   0.115263  -0.284000  -0.070867
    13  O   -0.002753   0.000133   0.000553   0.015078   0.058655  -0.011520
    14  O    0.000309  -0.001674   0.005553  -0.007635   0.017051  -0.001352
    15  H    0.126036   0.139266   0.020359   0.006849  -0.019222   0.056045
    16  H   -0.006916  -0.008128  -0.160366   0.276752   0.035846  -0.012286
    17  H   -0.025281  -0.025704   0.001043   0.033134   0.149283   0.163744
    18  H    0.206911   0.179466  -0.337376  -0.063155   0.005348  -0.000693
    19  H    0.009476   0.002111   0.067470   0.295311   0.078092  -0.120092
    20  H    0.043804  -0.006130   0.008168   0.008744   0.088507  -0.036169
    21  H    0.002089   0.065608   0.040170  -0.076306  -0.002807  -0.000310
    22  H   -0.001480  -0.039936  -0.052969   0.072711   0.009410   0.001802
    23  H   -0.001474  -0.039992  -0.053019   0.072780   0.009439   0.001794
    24  H   -0.001097   0.001229  -0.002867   0.059101   0.072148  -0.010109
               7          8          9         10         11         12
     1  C   -0.526763   0.558556   0.038593   0.083662   0.045625  -0.102953
     2  C    0.077570  -0.884472  -0.005095  -0.863775  -0.051155   0.057326
     3  C    0.353221   0.315924  -0.582977   0.531038  -0.044208  -0.009828
     4  C    0.115859  -3.365766  -1.654068   0.242822  -0.018986   0.115263
     5  C   -0.053480  -0.864515  -1.521845  -0.016626  -0.014257  -0.284000
     6  C   -0.023618   0.157831   0.961085  -0.052398  -0.009968  -0.070867
     7  O    8.372962   0.004051   0.000049  -0.008023   0.002695   0.000135
     8  C    0.004051  10.256450  -0.891066  -0.032256  -0.047811   0.282434
     9  C    0.000049  -0.891066  11.797362  -0.003423  -0.006579  -1.727644
    10  O   -0.008023  -0.032256  -0.003423   8.600774   0.060144   0.000183
    11  C    0.002695  -0.047811  -0.006579   0.060144   5.015374  -0.000933
    12  C    0.000135   0.282434  -1.727644   0.000183  -0.000933   6.924533
    13  O    0.000000   0.070081  -0.356184   0.000000   0.000008   0.534966
    14  O    0.000000   0.131135  -0.054321  -0.000006  -0.000034  -0.069633
    15  H   -0.007474  -0.003571   0.001072  -0.000697   0.000052   0.000034
    16  H   -0.000397   0.154498   0.031148  -0.014779   0.000241   0.000194
    17  H   -0.000590   0.010756  -0.018708   0.000158  -0.000007   0.018240
    18  H    0.192568   0.000641   0.000094   0.040154   0.004478   0.000007
    19  H   -0.000008   0.220808  -0.254290   0.000093   0.001197  -0.033344
    20  H   -0.000002  -0.002569   0.318190   0.000002   0.000024  -0.103801
    21  H   -0.000228   0.000552   0.000145  -0.072382   0.408824   0.000006
    22  H   -0.000099  -0.002302  -0.000501  -0.044011   0.413666  -0.000045
    23  H   -0.000098  -0.002289  -0.000501  -0.044010   0.413664  -0.000046
    24  H   -0.000000   0.080145  -0.310170   0.000002   0.000118   0.147863
              13         14         15         16         17         18
     1  C   -0.002753   0.000309   0.126036  -0.006916  -0.025281   0.206911
     2  C    0.000133  -0.001674   0.139266  -0.008128  -0.025704   0.179466
     3  C    0.000553   0.005553   0.020359  -0.160366   0.001043  -0.337376
     4  C    0.015078  -0.007635   0.006849   0.276752   0.033134  -0.063155
     5  C    0.058655   0.017051  -0.019222   0.035846   0.149283   0.005348
     6  C   -0.011520  -0.001352   0.056045  -0.012286   0.163744  -0.000693
     7  O    0.000000   0.000000  -0.007474  -0.000397  -0.000590   0.192568
     8  C    0.070081   0.131135  -0.003571   0.154498   0.010756   0.000641
     9  C   -0.356184  -0.054321   0.001072   0.031148  -0.018708   0.000094
    10  O    0.000000  -0.000006  -0.000697  -0.014779   0.000158   0.040154
    11  C    0.000008  -0.000034   0.000052   0.000241  -0.000007   0.004478
    12  C    0.534966  -0.069633   0.000034   0.000194   0.018240   0.000007
    13  O    8.250243  -0.123305   0.000000  -0.000001   0.000143   0.000000
    14  O   -0.123305   8.353659  -0.000000   0.000013  -0.000013  -0.000000
    15  H    0.000000  -0.000000   0.514933   0.000014  -0.004376  -0.000077
    16  H   -0.000001   0.000013   0.000014   0.560405  -0.000141  -0.000025
    17  H    0.000143  -0.000013  -0.004376  -0.000141   0.545684   0.000005
    18  H    0.000000  -0.000000  -0.000077  -0.000025   0.000005   0.377074
    19  H   -0.000082  -0.011116   0.000002   0.004143   0.000034   0.000000
    20  H   -0.014020   0.006491   0.000004   0.000001   0.001494  -0.000000
    21  H    0.000000  -0.000000  -0.000000   0.000124  -0.000000  -0.000065
    22  H   -0.000000  -0.000000   0.000000  -0.000940   0.000000   0.000027
    23  H   -0.000000  -0.000000   0.000000  -0.000939   0.000000   0.000027
    24  H    0.014519   0.165390   0.000000   0.000012   0.000004  -0.000000
              19         20         21         22         23         24
     1  C    0.009476   0.043804   0.002089  -0.001480  -0.001474  -0.001097
     2  C    0.002111  -0.006130   0.065608  -0.039936  -0.039992   0.001229
     3  C    0.067470   0.008168   0.040170  -0.052969  -0.053019  -0.002867
     4  C    0.295311   0.008744  -0.076306   0.072711   0.072780   0.059101
     5  C    0.078092   0.088507  -0.002807   0.009410   0.009439   0.072148
     6  C   -0.120092  -0.036169  -0.000310   0.001802   0.001794  -0.010109
     7  O   -0.000008  -0.000002  -0.000228  -0.000099  -0.000098  -0.000000
     8  C    0.220808  -0.002569   0.000552  -0.002302  -0.002289   0.080145
     9  C   -0.254290   0.318190   0.000145  -0.000501  -0.000501  -0.310170
    10  O    0.000093   0.000002  -0.072382  -0.044011  -0.044010   0.000002
    11  C    0.001197   0.000024   0.408824   0.413666   0.413664   0.000118
    12  C   -0.033344  -0.103801   0.000006  -0.000045  -0.000046   0.147863
    13  O   -0.000082  -0.014020   0.000000  -0.000000  -0.000000   0.014519
    14  O   -0.011116   0.006491  -0.000000  -0.000000  -0.000000   0.165390
    15  H    0.000002   0.000004  -0.000000   0.000000   0.000000   0.000000
    16  H    0.004143   0.000001   0.000124  -0.000940  -0.000939   0.000012
    17  H    0.000034   0.001494  -0.000000   0.000000   0.000000   0.000004
    18  H    0.000000  -0.000000  -0.000065   0.000027   0.000027  -0.000000
    19  H    0.623715   0.004191   0.000000  -0.000001  -0.000001   0.013721
    20  H    0.004191   0.520802  -0.000000   0.000000   0.000000   0.000195
    21  H    0.000000  -0.000000   0.515877  -0.026373  -0.026371  -0.000000
    22  H   -0.000001   0.000000  -0.026373   0.548097  -0.041284   0.000000
    23  H   -0.000001   0.000000  -0.026371  -0.041284   0.548082   0.000000
    24  H    0.013721   0.000195  -0.000000   0.000000   0.000000   0.437038
 Mulliken charges:
               1
     1  C    0.250591
     2  C   -0.371370
     3  C    0.085675
     4  C   -0.389529
     5  C    0.299473
     6  C   -0.316247
     7  O   -0.498328
     8  C   -0.147244
     9  C    0.239633
    10  O   -0.406648
    11  C   -0.172171
    12  C    0.321910
    13  O   -0.436516
    14  O   -0.410511
    15  H    0.170751
    16  H    0.141525
    17  H    0.151100
    18  H    0.394590
    19  H    0.098571
    20  H    0.162077
    21  H    0.171446
    22  H    0.164229
    23  H    0.164238
    24  H    0.332756
 Sum of Mulliken charges =  -0.00000
 Mulliken charges with hydrogens summed into heavy atoms:
               1
     1  C    0.421342
     2  C   -0.371370
     3  C    0.085675
     4  C   -0.248004
     5  C    0.299473
     6  C   -0.165147
     7  O   -0.103737
     8  C   -0.048673
     9  C    0.401709
    10  O   -0.406648
    11  C    0.327743
    12  C    0.321910
    13  O   -0.436516
    14  O   -0.077755
 Electronic spatial extent (au):  <R**2>=           4175.6313
 Charge=             -0.0000 electrons
 Dipole moment (field-independent basis, Debye):
    X=              6.8930    Y=              3.7775    Z=             -0.0051  Tot=              7.8602
 Quadrupole moment (field-independent basis, Debye-Ang):
   XX=           -114.5134   YY=            -70.1575   ZZ=            -84.5023
   XY=              5.6208   XZ=              0.0273   YZ=             -0.0015
 Traceless Quadrupole moment (field-independent basis, Debye-Ang):
   XX=            -24.7890   YY=             19.5669   ZZ=              5.2221
   XY=              5.6208   XZ=              0.0273   YZ=             -0.0015
 Octapole moment (field-independent basis, Debye-Ang**2):
  XXX=            267.5778  YYY=             23.0270  ZZZ=              0.0055  XYY=             12.1788
  XXY=             49.7842  XXZ=             -0.1038  XZZ=             -1.8917  YZZ=              5.2513
  YYZ=             -0.0172  XYZ=              0.0045
 Hexadecapole moment (field-independent basis, Debye-Ang**3):
 XXXX=          -5318.2143 YYYY=           -842.7954 ZZZZ=            -96.1115 XXXY=             64.1624
 XXXZ=              0.6735 YYYX=             48.0755 YYYZ=             -0.0233 ZZZX=              0.1212
 ZZZY=             -0.0050 XXYY=           -871.6481 XXZZ=           -726.1189 YYZZ=           -180.9784
 XXYZ=              0.0480 YYXZ=              0.1165 ZZXY=              1.6025
 N-N= 8.230556958756D+02 E-N=-3.249989280143D+03  KE= 6.815344824020D+02
 Calling FoFJK, ICntrl=      2127 FMM=F ISym2X=0 I1Cent= 0 IOpClX= 0 NMat=1 NMatS=1 NMatT=0.
 ***** Axes restored to original set *****
 -------------------------------------------------------------------
 Center     Atomic                   Forces (Hartrees/Bohr)
 Number     Number              X              Y              Z
 -------------------------------------------------------------------
      1        6          -0.000111919    0.000316740    0.000000048
      2        6          -0.000073820    0.000246463    0.000000303
      3        6          -0.000184208    0.000085450   -0.000000747
      4        6           0.000060198    0.000068563    0.000000989
      5        6           0.000041695    0.000064094    0.000001872
      6        6          -0.000211056    0.000274935   -0.000000366
      7        8          -0.000446633    0.000272064   -0.000000086
      8        6           0.000067232   -0.000091014   -0.000000221
      9        6           0.000617329    0.000004171   -0.000015104
     10        8          -0.000280100   -0.000217894    0.000000673
     11        6          -0.000240256   -0.000423829   -0.000000517
     12        6           0.000189100   -0.000164512    0.000049216
     13        8           0.000482202    0.000225395   -0.000019260
     14        8           0.000369070   -0.000189887   -0.000008802
     15        1          -0.000033538    0.000305481    0.000000032
     16        1           0.000042534   -0.000238103    0.000000124
     17        1           0.000058188    0.000318001   -0.000000246
     18        1          -0.000323426    0.000096613    0.000000011
     19        1           0.000088277   -0.000221936   -0.000000249
     20        1           0.000190203    0.000194867   -0.000001167
     21        1          -0.000163770   -0.000217404   -0.000000127
     22        1          -0.000120434   -0.000255508    0.000091703
     23        1          -0.000120309   -0.000255458   -0.000091661
     24        1           0.000103441   -0.000197291   -0.000006420
 -------------------------------------------------------------------
 Cartesian Forces:  Max     0.000617329 RMS     0.000193989

 GradGradGradGradGradGradGradGradGradGradGradGradGradGradGradGradGradGrad
 Berny optimization.
 FormGI is forming the generalized inverse of G from B-inverse, IUseBI=4.
 GSVD:  received Info=                   1 from GESDD.
 Internal  Forces:  Max     0.002496259 RMS     0.000570698
 Search for a local minimum.
 Step number   1 out of a maximum of  115
 All quantities printed in internal units (Hartrees-Bohrs-Radians)
 Mixed Optimization -- En-DIIS/RFO-DIIS
 Second derivative matrix not updated -- first step.
 ITU=  0
     Eigenvalues ---    0.01063   0.01310   0.01438   0.01456   0.01789
     Eigenvalues ---    0.01988   0.02004   0.02065   0.02080   0.02112
     Eigenvalues ---    0.02126   0.02134   0.02136   0.02162   0.02195
     Eigenvalues ---    0.02209   0.02231   0.02332   0.02775   0.10122
     Eigenvalues ---    0.10680   0.16000   0.16000   0.16000   0.16000
     Eigenvalues ---    0.16000   0.16000   0.16000   0.16000   0.16000
     Eigenvalues ---    0.16000   0.22000   0.22000   0.22372   0.23481
     Eigenvalues ---    0.24605   0.25000   0.25000   0.25000   0.25000
     Eigenvalues ---    0.25000   0.25000   0.34054   0.34054   0.34479
     Eigenvalues ---    0.34775   0.34849   0.35334   0.35368   0.35376
     Eigenvalues ---    0.35421   0.37108   0.41128   0.41904   0.42785
     Eigenvalues ---    0.44631   0.45297   0.46743   0.47651   0.51671
     Eigenvalues ---    0.53096   0.53557   0.54376   0.54676   0.55419
     Eigenvalues ---    0.99302
 RFO step:  Lambda=-1.06941531D-04 EMin= 1.06267696D-02
 Linear search not attempted -- first point.
 Iteration  1 RMS(Cart)=  0.01077898 RMS(Int)=  0.00002152
 Iteration  2 RMS(Cart)=  0.00003085 RMS(Int)=  0.00000070
 Iteration  3 RMS(Cart)=  0.00000000 RMS(Int)=  0.00000070
 Variable       Old X    -DE/DX   Delta X   Delta X   Delta X     New X
                                 (Linear)    (Quad)   (Total)
    R1        2.63090  -0.00062   0.00000  -0.00127  -0.00127   2.62963
    R2        2.62614  -0.00067   0.00000  -0.00135  -0.00135   2.62479
    R3        2.05081  -0.00030   0.00000  -0.00086  -0.00086   2.04995
    R4        2.66215  -0.00105   0.00000  -0.00240  -0.00240   2.65975
    R5        2.55421  -0.00085   0.00000  -0.00155  -0.00155   2.55266
    R6        2.62083  -0.00131   0.00000  -0.00279  -0.00279   2.61804
    R7        2.58216  -0.00155   0.00000  -0.00301  -0.00301   2.57915
    R8        2.66671  -0.00133   0.00000  -0.00309  -0.00309   2.66362
    R9        2.05137  -0.00024   0.00000  -0.00069  -0.00069   2.05068
   R10        2.65223  -0.00098   0.00000  -0.00216  -0.00216   2.65007
   R11        2.75684  -0.00212   0.00000  -0.00572  -0.00572   2.75113
   R12        2.04996  -0.00026   0.00000  -0.00073  -0.00073   2.04923
   R13        1.83137  -0.00012   0.00000  -0.00021  -0.00021   1.83116
   R14        2.54762  -0.00159   0.00000  -0.00287  -0.00287   2.54474
   R15        2.06530  -0.00022   0.00000  -0.00065  -0.00065   2.06465
   R16        2.79220  -0.00118   0.00000  -0.00339  -0.00339   2.78881
   R17        2.05068  -0.00019   0.00000  -0.00055  -0.00055   2.05013
   R18        2.67936  -0.00107   0.00000  -0.00249  -0.00249   2.67686
   R19        2.06042  -0.00024   0.00000  -0.00068  -0.00068   2.05974
   R20        2.07239  -0.00009   0.00000  -0.00027  -0.00027   2.07212
   R21        2.07239  -0.00009   0.00000  -0.00027  -0.00027   2.07212
   R22        2.28920  -0.00052   0.00000  -0.00053  -0.00053   2.28867
   R23        2.56864  -0.00044   0.00000  -0.00083  -0.00083   2.56781
   R24        1.82391  -0.00000   0.00000  -0.00001  -0.00001   1.82390
    A1        2.09924  -0.00032   0.00000  -0.00113  -0.00113   2.09811
    A2        2.06918   0.00012   0.00000   0.00034   0.00034   2.06952
    A3        2.11477   0.00020   0.00000   0.00079   0.00079   2.11556
    A4        2.08705   0.00004   0.00000   0.00031   0.00031   2.08736
    A5        2.09605   0.00041   0.00000   0.00155   0.00155   2.09761
    A6        2.10009  -0.00045   0.00000  -0.00187  -0.00187   2.09822
    A7        2.09525   0.00040   0.00000   0.00157   0.00157   2.09682
    A8        1.98445   0.00030   0.00000   0.00123   0.00123   1.98568
    A9        2.20348  -0.00071   0.00000  -0.00280  -0.00280   2.20068
   A10        2.10687  -0.00053   0.00000  -0.00254  -0.00254   2.10433
   A11        2.09600   0.00028   0.00000   0.00133   0.00133   2.09733
   A12        2.08031   0.00026   0.00000   0.00121   0.00121   2.08152
   A13        2.06728   0.00067   0.00000   0.00272   0.00272   2.07000
   A14        2.06415  -0.00002   0.00000  -0.00008  -0.00008   2.06407
   A15        2.15175  -0.00066   0.00000  -0.00264  -0.00264   2.14911
   A16        2.11068  -0.00026   0.00000  -0.00093  -0.00093   2.10975
   A17        2.07347   0.00033   0.00000   0.00170   0.00170   2.07517
   A18        2.09904  -0.00007   0.00000  -0.00077  -0.00077   2.09827
   A19        1.88621  -0.00058   0.00000  -0.00363  -0.00363   1.88259
   A20        2.22882  -0.00109   0.00000  -0.00495  -0.00495   2.22387
   A21        1.97446   0.00047   0.00000   0.00198   0.00198   1.97644
   A22        2.07991   0.00063   0.00000   0.00298   0.00298   2.08288
   A23        2.21328  -0.00091   0.00000  -0.00413  -0.00413   2.20915
   A24        2.11617   0.00026   0.00000   0.00083   0.00083   2.11701
   A25        1.95374   0.00065   0.00000   0.00329   0.00329   1.95703
   A26        2.06685  -0.00250   0.00000  -0.00998  -0.00998   2.05687
   A27        1.85103  -0.00001   0.00000   0.00034   0.00034   1.85137
   A28        1.93810  -0.00030   0.00000  -0.00206  -0.00207   1.93603
   A29        1.93810  -0.00030   0.00000  -0.00206  -0.00207   1.93603
   A30        1.90952   0.00028   0.00000   0.00212   0.00212   1.91164
   A31        1.90952   0.00028   0.00000   0.00212   0.00212   1.91164
   A32        1.91630   0.00007   0.00000  -0.00029  -0.00029   1.91601
   A33        2.12674   0.00033   0.00000   0.00130   0.00130   2.12804
   A34        2.07739  -0.00090   0.00000  -0.00360  -0.00360   2.07379
   A35        2.07906   0.00057   0.00000   0.00229   0.00229   2.08135
   A36        1.94010  -0.00040   0.00000  -0.00251  -0.00251   1.93758
    D1       -0.00001  -0.00000   0.00000  -0.00000  -0.00000  -0.00001
    D2       -3.14159   0.00000   0.00000   0.00000   0.00000  -3.14159
    D3        3.14158  -0.00000   0.00000  -0.00000  -0.00000   3.14158
    D4       -0.00000   0.00000   0.00000   0.00000   0.00000  -0.00000
    D5       -0.00000  -0.00000   0.00000  -0.00000  -0.00000  -0.00000
    D6        3.14158  -0.00000   0.00000  -0.00001  -0.00001   3.14157
    D7       -3.14159   0.00000   0.00000   0.00000   0.00000  -3.14159
    D8       -0.00001  -0.00000   0.00000  -0.00000  -0.00000  -0.00001
    D9        0.00001   0.00000   0.00000   0.00001   0.00001   0.00001
   D10       -3.14159   0.00000   0.00000   0.00000   0.00000  -3.14158
   D11       -3.14159   0.00000   0.00000   0.00000   0.00000  -3.14159
   D12        0.00000  -0.00000   0.00000  -0.00000  -0.00000  -0.00000
   D13       -3.14158  -0.00000   0.00000  -0.00000  -0.00000  -3.14158
   D14        0.00002   0.00000   0.00000   0.00000   0.00000   0.00002
   D15        0.00000  -0.00000   0.00000  -0.00001  -0.00001  -0.00001
   D16        3.14158  -0.00000   0.00000  -0.00001  -0.00001   3.14157
   D17       -3.14159  -0.00000   0.00000  -0.00000  -0.00000   3.14159
   D18       -0.00001  -0.00000   0.00000  -0.00000  -0.00000  -0.00001
   D19       -3.14147  -0.00000   0.00000  -0.00001  -0.00001  -3.14148
   D20        0.00013  -0.00000   0.00000  -0.00002  -0.00002   0.00011
   D21       -0.00001   0.00000   0.00000   0.00000   0.00000  -0.00000
   D22        3.14159   0.00000   0.00000   0.00000   0.00000   3.14159
   D23       -3.14159   0.00000   0.00000   0.00000   0.00000  -3.14159
   D24        0.00001   0.00000   0.00000   0.00000   0.00000   0.00001
   D25        0.00001   0.00000   0.00000   0.00000   0.00000   0.00001
   D26       -3.14157   0.00000   0.00000   0.00001   0.00001  -3.14157
   D27       -3.14158  -0.00000   0.00000  -0.00000  -0.00000  -3.14158
   D28        0.00002   0.00000   0.00000   0.00001   0.00001   0.00002
   D29       -3.14132   0.00000   0.00000   0.00009   0.00009  -3.14122
   D30        0.00012   0.00000   0.00000   0.00004   0.00004   0.00016
   D31        0.00028   0.00000   0.00000   0.00010   0.00010   0.00037
   D32       -3.14147   0.00000   0.00000   0.00004   0.00004  -3.14143
   D33        3.14150  -0.00000   0.00000  -0.00008  -0.00008   3.14141
   D34        0.00021  -0.00000   0.00000  -0.00001  -0.00001   0.00020
   D35        0.00007  -0.00000   0.00000  -0.00003  -0.00003   0.00004
   D36       -3.14122   0.00000   0.00000   0.00005   0.00005  -3.14117
   D37       -3.14002  -0.00001   0.00000  -0.00059  -0.00059  -3.14061
   D38        0.00120   0.00001   0.00000   0.00103   0.00103   0.00223
   D39        0.00129  -0.00001   0.00000  -0.00066  -0.00066   0.00063
   D40       -3.14068   0.00001   0.00000   0.00096   0.00096  -3.13972
   D41        3.14151   0.00000   0.00000   0.00001   0.00001   3.14152
   D42       -1.06883   0.00017   0.00000   0.00164   0.00164  -1.06719
   D43        1.06866  -0.00017   0.00000  -0.00162  -0.00162   1.06705
   D44        0.00092  -0.00001   0.00000  -0.00054  -0.00054   0.00038
   D45       -3.14104   0.00002   0.00000   0.00103   0.00103  -3.14000
         Item               Value     Threshold  Converged?
 Maximum Force            0.002496     0.000450     NO 
 RMS     Force            0.000571     0.000300     NO 
 Maximum Displacement     0.037532     0.001800     NO 
 RMS     Displacement     0.010782     0.001200     NO 
 Predicted change in Energy=-5.349001D-05
 GradGradGradGradGradGradGradGradGradGradGradGradGradGradGradGradGradGrad

                          Input orientation:                          
 ---------------------------------------------------------------------
 Center     Atomic      Atomic             Coordinates (Angstroms)
 Number     Number       Type             X           Y           Z
 ---------------------------------------------------------------------
      1          6           0        1.456768   -2.012507   -0.000528
      2          6           0        2.490861   -1.081359   -0.000383
      3          6           0        2.188514    0.293262   -0.000080
      4          6           0        0.868943    0.715257    0.000087
      5          6           0       -0.183524   -0.222338   -0.000052
      6          6           0        0.134175   -1.588232   -0.000367
      7          8           0        3.776904   -1.494620   -0.000545
      8          6           0       -1.551204    0.276566    0.000137
      9          6           0       -2.686417   -0.447781    0.000446
     10          8           0        3.290214    1.098874    0.000025
     11          6           0        3.085093    2.500479    0.000471
     12          6           0       -4.065238    0.078305    0.000847
     13          8           0       -5.030081   -0.653727    0.002117
     14          8           0       -4.252829    1.424116   -0.001725
     15          1           0        1.708663   -3.067646   -0.000774
     16          1           0        0.635293    1.774978    0.000337
     17          1           0       -0.654819   -2.332155   -0.000503
     18          1           0        4.342067   -0.707494   -0.000394
     19          1           0       -1.612200    1.367425    0.000212
     20          1           0       -2.662839   -1.532409    0.000774
     21          1           0        4.077694    2.950780    0.000557
     22          1           0        2.539222    2.816692   -0.896406
     23          1           0        2.539314    2.816134    0.897599
     24          1           0       -3.408273    1.891308   -0.003940
 ---------------------------------------------------------------------
                    Distance matrix (angstroms):
                    1          2          3          4          5
     1  C    0.000000
     2  C    1.391540   0.000000
     3  C    2.419096   1.407479   0.000000
     4  C    2.790383   2.420423   1.385406   0.000000
     5  C    2.428017   2.808960   2.427429   1.409529   0.000000
     6  C    1.388979   2.410579   2.785737   2.417840   1.402355
     7  O    2.377233   1.350812   2.391549   3.652369   4.159771
     8  C    3.779914   4.264065   3.739755   2.459585   1.455834
     9  C    4.428809   5.215901   4.930933   3.740754   2.513025
    10  O    3.611401   2.322150   1.364827   2.451472   3.716511
    11  C    4.797759   3.630796   2.382365   2.845758   4.254127
    12  C    5.904579   6.657872   6.257446   4.975123   3.893339
    13  O    6.627632   7.533090   7.280447   6.055791   4.865718
    14  O    6.664074   7.194078   6.539858   5.170593   4.389767
    15  H    1.084789   2.134753   3.394990   3.874982   3.417038
    16  H    3.875547   3.406141   2.146620   1.085173   2.158641
    17  H    2.135644   3.385232   3.870059   3.407135   2.161815
    18  H    3.166703   1.888581   2.374721   3.753240   4.551522
    19  H    4.565360   4.778248   3.949589   2.565422   2.137396
    20  H    4.147489   5.173401   5.183503   4.186345   2.804156
    21  H    5.612795   4.333149   3.260583   3.910709   5.312877
    22  H    5.029460   4.000000   2.700758   2.830117   4.177619
    23  H    5.029345   3.999896   2.700698   2.830080   4.177552
    24  H    6.237661   6.605796   5.820463   4.435954   3.855713
                    6          7          8          9         10
     6  C    0.000000
     7  O    3.643932   0.000000
     8  C    2.513558   5.614787   0.000000
     9  C    3.042428   6.547548   1.346620   0.000000
    10  O    4.145012   2.638764   4.910755   6.173512   0.000000
    11  C    5.042369   4.054556   5.142085   6.480938   1.416535
    12  C    4.518010   7.998331   2.521840   1.475776   7.425916
    13  O    5.248127   8.847039   3.601115   2.352696   8.502877
    14  O    5.321659   8.543749   2.935244   2.440830   7.550052
    15  H    2.160481   2.598467   4.670169   5.116680   4.456589
    16  H    3.400339   4.534313   2.650661   3.996800   2.739657
    17  H    1.084404   4.510170   2.758428   2.770966   5.228311
    18  H    4.299076   0.969008   5.974865   7.033280   2.090301
    19  H    3.433036   6.101946   1.092564   2.109245   4.909764
    20  H    2.797571   6.439855   2.123234   1.084884   6.508647
    21  H    6.012818   4.455565   6.231846   7.569901   2.012382
    22  H    5.098088   4.574039   4.897715   6.226430   2.078094
    23  H    5.097988   4.573936   4.897671   6.226258   2.078093
    24  H    4.965496   7.943003   2.460918   2.447945   6.745198
                   11         12         13         14         15
    11  C    0.000000
    12  C    7.549448   0.000000
    13  O    8.706610   1.211112   0.000000
    14  O    7.416446   1.358825   2.218460   0.000000
    15  H    5.735728   6.575328   7.158050   7.464269   0.000000
    16  H    2.554971   4.997368   6.164014   4.900698   4.960154
    17  H    6.110752   4.176275   4.686154   5.201466   2.475277
    18  H    3.445443   8.443948   9.372302   8.855281   3.536260
    19  H    4.832015   2.771142   3.970764   2.641239   5.540576
    20  H    7.021603   2.135678   2.525057   3.356950   4.633248
    21  H    1.089966   8.634724   9.795102   8.469257   6.467902
    22  H    1.096519   7.205742   8.375291   6.990829   6.009777
    23  H    1.096518   7.205552   8.374817   6.991403   6.009652
    24  H    6.521879   1.928369   3.017864   0.965168   7.125606
                   16         17         18         19         20
    16  H    0.000000
    17  H    4.304989   0.000000
    18  H    4.461260   5.254369   0.000000
    19  H    2.284146   3.821448   6.305441   0.000000
    20  H    4.670812   2.161421   7.053311   3.084296   0.000000
    21  H    3.637669   7.092678   3.667814   5.906090   8.095293
    22  H    2.348247   6.124962   4.058691   4.487606   6.839668
    23  H    2.348272   6.124863   4.058603   4.487664   6.839336
    24  H    4.045241   5.041742   8.174445   1.870922   3.503931
                   21         22         23         24
    21  H    0.000000
    22  H    1.785894   0.000000
    23  H    1.785896   1.794005   0.000000
    24  H    7.560568   6.084861   6.086203   0.000000
 Stoichiometry    C10H10O4
 Framework group  C1[X(C10H10O4)]
 Deg. of freedom    66
 Full point group                 C1      NOp   1
 Largest Abelian subgroup         C1      NOp   1
 Largest concise Abelian subgroup C1      NOp   1
                         Standard orientation:                         
 ---------------------------------------------------------------------
 Center     Atomic      Atomic             Coordinates (Angstroms)
 Number     Number       Type             X           Y           Z
 ---------------------------------------------------------------------
      1          6           0        1.456024   -2.012026   -0.000527
      2          6           0        2.489528   -1.080225   -0.000382
      3          6           0        2.186313    0.294205   -0.000079
      4          6           0        0.866475    0.715367    0.000088
      5          6           0       -0.185399   -0.222893   -0.000051
      6          6           0        0.133162   -1.588587   -0.000366
      7          8           0        3.775832   -1.492673   -0.000544
      8          6           0       -1.553394    0.275147    0.000138
      9          6           0       -2.688149   -0.449917    0.000447
     10          8           0        3.287503    1.100513    0.000026
     11          6           0        3.081498    2.501988    0.000472
     12          6           0       -4.067302    0.075298    0.000848
     13          8           0       -5.031682   -0.657343    0.002118
     14          8           0       -4.255743    1.420990   -0.001724
     15          1           0        1.708584   -3.067005   -0.000773
     16          1           0        0.632156    1.774940    0.000338
     17          1           0       -0.655362   -2.333007   -0.000502
     18          1           0        4.340497   -0.705191   -0.000393
     19          1           0       -1.615079    1.365967    0.000213
     20          1           0       -2.663887   -1.534529    0.000775
     21          1           0        4.073814    2.952916    0.000558
     22          1           0        2.535427    2.817856   -0.896405
     23          1           0        2.535520    2.817298    0.897600
     24          1           0       -3.411482    1.888716   -0.003939
 ---------------------------------------------------------------------
 Rotational constants (GHZ):      1.5506083      0.2861761      0.2419643
 Standard basis: 6-31+G(d,p) (6D, 7F)
 There are   316 symmetry adapted cartesian basis functions of A   symmetry.
 There are   316 symmetry adapted basis functions of A   symmetry.
   316 basis functions,   518 primitive gaussians,   316 cartesian basis functions
    51 alpha electrons       51 beta electrons
       nuclear repulsion energy       824.4029617335 Hartrees.
 NAtoms=   24 NActive=   24 NUniq=   24 SFac= 1.00D+00 NAtFMM=   60 NAOKFM=F Big=F
 Integral buffers will be    131072 words long.
 Raffenetti 2 integral format.
 Two-electron integral symmetry is turned on.
 Nuclear repulsion after empirical dispersion term =      824.3586228926 Hartrees.
 One-electron integrals computed using PRISM.
 NBasis=   316 RedAO= T EigKep=  1.45D-06  NBF=   316
 NBsUse=   315 1.00D-06 EigRej=  6.68D-07 NBFU=   315
 Initial guess from the checkpoint file:  "B3PW91D3BJFA.chk"
 B after Tr=    -0.000000    0.000000    0.000000
         Rot=    1.000000    0.000003   -0.000003   -0.000159 Ang=   0.02 deg.
 ExpMin= 4.38D-02 ExpMax= 5.48D+03 ExpMxC= 8.25D+02 IAcc=2 IRadAn=         4 AccDes= 0.00D+00
 Harris functional with IExCor=  408 and IRadAn=       4 diagonalized for initial guess.
 HarFok:  IExCor=  408 AccDes= 0.00D+00 IRadAn=         4 IDoV= 1 UseB2=F ITyADJ=14
 ICtDFT=  3500011 ScaDFX=  1.000000  1.000000  1.000000  1.000000
 FoFCou: FMM=F IPFlag=           0 FMFlag=      100000 FMFlg1=           0
         NFxFlg=           0 DoJE=T BraDBF=F KetDBF=T FulRan=T
         wScrn=  0.000000 ICntrl=     500 IOpCl=  0 I1Cent=   200000004 NGrid=           0
         NMat0=    1 NMatS0=      1 NMatT0=    0 NMatD0=    1 NMtDS0=    0 NMtDT0=    0
 Petite list used in FoFCou.
 Requested convergence on RMS density matrix=1.00D-08 within 128 cycles.
 Requested convergence on MAX density matrix=1.00D-06.
 Requested convergence on             energy=1.00D-06.
 No special actions if energy rises.
 SCF Done:  E(RB3PW91) =  -687.782664957     A.U. after   11 cycles
            NFock= 11  Conv=0.52D-08     -V/T= 2.0091
 Calling FoFJK, ICntrl=      2127 FMM=F ISym2X=0 I1Cent= 0 IOpClX= 0 NMat=1 NMatS=1 NMatT=0.
 ***** Axes restored to original set *****
 -------------------------------------------------------------------
 Center     Atomic                   Forces (Hartrees/Bohr)
 Number     Number              X              Y              Z
 -------------------------------------------------------------------
      1        6          -0.000014289   -0.000091856   -0.000000090
      2        6          -0.000161709   -0.000251414   -0.000000138
      3        6           0.000035970   -0.000202485    0.000000079
      4        6          -0.000177487    0.000208520   -0.000000971
      5        6           0.000128159    0.000027781   -0.000006286
      6        6          -0.000003519   -0.000158229    0.000000042
      7        8           0.000086221    0.000109171    0.000000083
      8        6           0.000011996    0.000198724    0.000007262
      9        6          -0.000392162   -0.000299404    0.000046237
     10        8           0.000173766    0.000014741    0.000000769
     11        6           0.000361823    0.000242397   -0.000000194
     12        6           0.000081731   -0.000084280   -0.000170555
     13        8          -0.000155387    0.000077587    0.000067954
     14        8          -0.000132957    0.000135074    0.000046144
     15        1           0.000025661   -0.000015078   -0.000000005
     16        1          -0.000143072   -0.000224904   -0.000000083
     17        1           0.000064495    0.000047194   -0.000000330
     18        1           0.000200675   -0.000008020    0.000000040
     19        1           0.000081094   -0.000061532    0.000005708
     20        1           0.000067496    0.000110693    0.000001986
     21        1          -0.000057703    0.000092816   -0.000000028
     22        1           0.000024683    0.000080508    0.000004765
     23        1           0.000024842    0.000080578   -0.000004675
     24        1          -0.000130325   -0.000028580    0.000002288
 -------------------------------------------------------------------
 Cartesian Forces:  Max     0.000392162 RMS     0.000122918

 GradGradGradGradGradGradGradGradGradGradGradGradGradGradGradGradGradGrad
 Berny optimization.
 Using GEDIIS/GDIIS optimizer.
 FormGI is forming the generalized inverse of G from B-inverse, IUseBI=4.
 GSVD:  received Info=                   1 from GESDD.
 Internal  Forces:  Max     0.001131868 RMS     0.000211148
 Search for a local minimum.
 Step number   2 out of a maximum of  115
 All quantities printed in internal units (Hartrees-Bohrs-Radians)
 Mixed Optimization -- En-DIIS/RFO-DIIS
 Swapping is turned off.
 Update second derivatives using D2CorX and points    1    2
 DE= -3.66D-05 DEPred=-5.35D-05 R= 6.85D-01
 TightC=F SS=  1.41D+00  RLast= 1.96D-02 DXNew= 5.0454D-01 5.8909D-02
 Trust test= 6.85D-01 RLast= 1.96D-02 DXMaxT set to 3.00D-01
 ITU=  1  0
     Eigenvalues ---    0.01063   0.01310   0.01441   0.01456   0.01790
     Eigenvalues ---    0.01988   0.02004   0.02065   0.02081   0.02112
     Eigenvalues ---    0.02126   0.02134   0.02136   0.02162   0.02195
     Eigenvalues ---    0.02209   0.02231   0.02332   0.02775   0.10133
     Eigenvalues ---    0.10682   0.15764   0.16000   0.16000   0.16000
     Eigenvalues ---    0.16000   0.16000   0.16000   0.16000   0.16000
     Eigenvalues ---    0.16252   0.21942   0.22096   0.22362   0.23374
     Eigenvalues ---    0.24526   0.24755   0.25000   0.25000   0.25000
     Eigenvalues ---    0.25000   0.28940   0.34050   0.34054   0.34426
     Eigenvalues ---    0.34751   0.35017   0.35259   0.35363   0.35400
     Eigenvalues ---    0.35411   0.38152   0.41126   0.42131   0.43365
     Eigenvalues ---    0.44758   0.45231   0.46820   0.48418   0.52844
     Eigenvalues ---    0.53312   0.53625   0.54369   0.54793   0.58609
     Eigenvalues ---    0.99304
 En-DIIS/RFO-DIIS IScMMF=        0 using points:     2    1
 RFO step:  Lambda=-7.08081144D-06.
 DidBck=T Rises=F RFO-DIIS coefs:    0.75318    0.24682
 Iteration  1 RMS(Cart)=  0.00357137 RMS(Int)=  0.00000319
 Iteration  2 RMS(Cart)=  0.00000512 RMS(Int)=  0.00000047
 Iteration  3 RMS(Cart)=  0.00000000 RMS(Int)=  0.00000047
 Variable       Old X    -DE/DX   Delta X   Delta X   Delta X     New X
                                 (Linear)    (Quad)   (Total)
    R1        2.62963   0.00010   0.00031  -0.00019   0.00012   2.62975
    R2        2.62479   0.00010   0.00033  -0.00023   0.00011   2.62490
    R3        2.04995   0.00002   0.00021  -0.00019   0.00002   2.04998
    R4        2.65975   0.00022   0.00059  -0.00026   0.00033   2.66008
    R5        2.55266   0.00024   0.00038  -0.00009   0.00030   2.55296
    R6        2.61804   0.00056   0.00069   0.00015   0.00083   2.61887
    R7        2.57915   0.00073   0.00074   0.00024   0.00099   2.58014
    R8        2.66362   0.00026   0.00076  -0.00038   0.00038   2.66400
    R9        2.05068  -0.00019   0.00017  -0.00059  -0.00042   2.05026
   R10        2.65007   0.00019   0.00053  -0.00028   0.00025   2.65032
   R11        2.75113   0.00056   0.00141  -0.00042   0.00099   2.75212
   R12        2.04923  -0.00008   0.00018  -0.00037  -0.00018   2.04904
   R13        1.83116   0.00011   0.00005   0.00009   0.00014   1.83130
   R14        2.54474   0.00059   0.00071   0.00003   0.00074   2.54548
   R15        2.06465  -0.00006   0.00016  -0.00032  -0.00016   2.06449
   R16        2.78881   0.00035   0.00084  -0.00015   0.00068   2.78950
   R17        2.05013  -0.00011   0.00014  -0.00039  -0.00025   2.04988
   R18        2.67686   0.00043   0.00061   0.00008   0.00069   2.67756
   R19        2.05974  -0.00001   0.00017  -0.00021  -0.00005   2.05969
   R20        2.07212   0.00001   0.00007  -0.00006   0.00000   2.07212
   R21        2.07212   0.00001   0.00007  -0.00006   0.00000   2.07212
   R22        2.28867   0.00007   0.00013  -0.00009   0.00004   2.28871
   R23        2.56781   0.00015   0.00021  -0.00001   0.00019   2.56800
   R24        1.82390  -0.00012   0.00000  -0.00017  -0.00017   1.82373
    A1        2.09811   0.00005   0.00028  -0.00023   0.00005   2.09816
    A2        2.06952  -0.00004  -0.00008  -0.00003  -0.00012   2.06940
    A3        2.11556  -0.00001  -0.00020   0.00026   0.00007   2.11563
    A4        2.08736   0.00009  -0.00008   0.00033   0.00025   2.08761
    A5        2.09761   0.00003  -0.00038   0.00051   0.00013   2.09774
    A6        2.09822  -0.00011   0.00046  -0.00084  -0.00038   2.09784
    A7        2.09682  -0.00019  -0.00039  -0.00010  -0.00049   2.09633
    A8        1.98568  -0.00036  -0.00030  -0.00078  -0.00109   1.98460
    A9        2.20068   0.00055   0.00069   0.00088   0.00157   2.20226
   A10        2.10433   0.00008   0.00063  -0.00035   0.00028   2.10461
   A11        2.09733   0.00015  -0.00033   0.00109   0.00076   2.09809
   A12        2.08152  -0.00023  -0.00030  -0.00074  -0.00104   2.08048
   A13        2.07000  -0.00009  -0.00067   0.00045  -0.00022   2.06978
   A14        2.06407   0.00000   0.00002  -0.00002   0.00000   2.06407
   A15        2.14911   0.00009   0.00065  -0.00043   0.00022   2.14933
   A16        2.10975   0.00007   0.00023  -0.00010   0.00013   2.10988
   A17        2.07517  -0.00004  -0.00042   0.00035  -0.00007   2.07510
   A18        2.09827  -0.00003   0.00019  -0.00025  -0.00006   2.09821
   A19        1.88259   0.00031   0.00090   0.00047   0.00137   1.88395
   A20        2.22387   0.00023   0.00122  -0.00054   0.00068   2.22455
   A21        1.97644  -0.00020  -0.00049  -0.00025  -0.00074   1.97570
   A22        2.08288  -0.00004  -0.00073   0.00079   0.00006   2.08294
   A23        2.20915   0.00028   0.00102  -0.00015   0.00087   2.21002
   A24        2.11701  -0.00021  -0.00021  -0.00059  -0.00079   2.11621
   A25        1.95703  -0.00007  -0.00081   0.00074  -0.00007   1.95695
   A26        2.05687   0.00113   0.00246   0.00070   0.00316   2.06003
   A27        1.85137   0.00011  -0.00008   0.00057   0.00049   1.85186
   A28        1.93603   0.00008   0.00051  -0.00017   0.00034   1.93637
   A29        1.93603   0.00008   0.00051  -0.00017   0.00034   1.93637
   A30        1.91164  -0.00011  -0.00052   0.00004  -0.00048   1.91116
   A31        1.91164  -0.00011  -0.00052   0.00004  -0.00048   1.91116
   A32        1.91601  -0.00006   0.00007  -0.00029  -0.00022   1.91579
   A33        2.12804   0.00001  -0.00032   0.00039   0.00007   2.12811
   A34        2.07379   0.00034   0.00089   0.00005   0.00094   2.07473
   A35        2.08135  -0.00035  -0.00057  -0.00044  -0.00101   2.08034
   A36        1.93758   0.00007   0.00062  -0.00033   0.00029   1.93787
    D1       -0.00001  -0.00000   0.00000  -0.00001  -0.00001  -0.00001
    D2       -3.14159  -0.00000  -0.00000  -0.00001  -0.00001   3.14159
    D3        3.14158  -0.00000   0.00000  -0.00000  -0.00000   3.14158
    D4       -0.00000  -0.00000  -0.00000  -0.00000  -0.00000  -0.00000
    D5       -0.00000   0.00000   0.00000   0.00000   0.00000  -0.00000
    D6        3.14157   0.00000   0.00000   0.00000   0.00000   3.14158
    D7       -3.14159  -0.00000  -0.00000  -0.00000  -0.00000   3.14159
    D8       -0.00001  -0.00000   0.00000  -0.00000  -0.00000  -0.00001
    D9        0.00001  -0.00000  -0.00000   0.00000  -0.00000   0.00001
   D10       -3.14158  -0.00000  -0.00000  -0.00000  -0.00000  -3.14159
   D11       -3.14159   0.00000  -0.00000  -0.00000  -0.00000  -3.14159
   D12       -0.00000  -0.00000   0.00000  -0.00000  -0.00000  -0.00000
   D13       -3.14158   0.00000   0.00000   0.00000   0.00000  -3.14158
   D14        0.00002   0.00000  -0.00000   0.00000   0.00000   0.00002
   D15       -0.00001   0.00000   0.00000   0.00001   0.00001   0.00001
   D16        3.14157  -0.00000   0.00000  -0.00001  -0.00000   3.14157
   D17        3.14159   0.00000   0.00000   0.00002   0.00002  -3.14158
   D18       -0.00001  -0.00000   0.00000  -0.00000  -0.00000  -0.00002
   D19       -3.14148  -0.00000   0.00000  -0.00001  -0.00001  -3.14149
   D20        0.00011  -0.00000   0.00000  -0.00001  -0.00001   0.00010
   D21       -0.00000  -0.00000  -0.00000  -0.00002  -0.00002  -0.00002
   D22        3.14159  -0.00000  -0.00000  -0.00003  -0.00003   3.14156
   D23       -3.14159  -0.00000  -0.00000   0.00000  -0.00000  -3.14159
   D24        0.00001  -0.00000  -0.00000  -0.00001  -0.00001  -0.00000
   D25        0.00001   0.00000  -0.00000   0.00001   0.00001   0.00002
   D26       -3.14157   0.00000  -0.00000   0.00001   0.00001  -3.14156
   D27       -3.14158   0.00000   0.00000   0.00002   0.00002  -3.14157
   D28        0.00002   0.00000  -0.00000   0.00002   0.00002   0.00004
   D29       -3.14122   0.00000  -0.00002   0.00003   0.00001  -3.14121
   D30        0.00016   0.00000  -0.00001   0.00004   0.00003   0.00019
   D31        0.00037  -0.00000  -0.00002   0.00002   0.00000   0.00037
   D32       -3.14143   0.00000  -0.00001   0.00003   0.00002  -3.14141
   D33        3.14141   0.00001   0.00002   0.00014   0.00016   3.14158
   D34        0.00020   0.00001   0.00000   0.00018   0.00018   0.00039
   D35        0.00004   0.00001   0.00001   0.00014   0.00014   0.00018
   D36       -3.14117   0.00001  -0.00001   0.00017   0.00016  -3.14101
   D37       -3.14061   0.00005   0.00015   0.00235   0.00249  -3.13812
   D38        0.00223  -0.00004  -0.00025  -0.00149  -0.00175   0.00048
   D39        0.00063   0.00005   0.00016   0.00231   0.00248   0.00310
   D40       -3.13972  -0.00004  -0.00024  -0.00153  -0.00177  -3.14149
   D41        3.14152   0.00000  -0.00000   0.00001   0.00001   3.14153
   D42       -1.06719  -0.00002  -0.00040   0.00031  -0.00009  -1.06728
   D43        1.06705   0.00002   0.00040  -0.00029   0.00010   1.06715
   D44        0.00038   0.00004   0.00013   0.00188   0.00201   0.00239
   D45       -3.14000  -0.00004  -0.00026  -0.00186  -0.00211   3.14107
         Item               Value     Threshold  Converged?
 Maximum Force            0.001132     0.000450     NO 
 RMS     Force            0.000211     0.000300     YES
 Maximum Displacement     0.014602     0.001800     NO 
 RMS     Displacement     0.003573     0.001200     NO 
 Predicted change in Energy=-5.638406D-06
 GradGradGradGradGradGradGradGradGradGradGradGradGradGradGradGradGradGrad

                          Input orientation:                          
 ---------------------------------------------------------------------
 Center     Atomic      Atomic             Coordinates (Angstroms)
 Number     Number       Type             X           Y           Z
 ---------------------------------------------------------------------
      1          6           0        1.456753   -2.012348   -0.000496
      2          6           0        2.490489   -1.080710   -0.000247
      3          6           0        2.187854    0.294026   -0.000055
      4          6           0        0.867580    0.715273   -0.000103
      5          6           0       -0.184669   -0.222869   -0.000332
      6          6           0        0.133900   -1.588699   -0.000539
      7          8           0        3.776912   -1.493297   -0.000201
      8          6           0       -1.553040    0.275673   -0.000333
      9          6           0       -2.688787   -0.448560   -0.000123
     10          8           0        3.290704    1.098948    0.000173
     11          6           0        3.091236    2.501739    0.000512
     12          6           0       -4.068254    0.076848   -0.000111
[...]
 ,-0.00093267,0.00183046,0.00003881,0.00114593,-0.00255572,0.00020595,0
 .00011622,0.00037612,-0.00003412,0.00192466,-0.00195794,-0.00008993,-0
 .00161350,0.00074516,0.00004208,-0.00031668,-0.00005280,0.00007089,0.0
 0022924,0.00007933,-0.00007063,0.00012336,0.00003341,0.00003551,0.0000
 7116,0.00003650,0.00000515,0.07315293,-0.00029677,0.00061685,0.0000741
 2,0.00108322,0.00157246,-0.00026455,0.00035370,-0.00630549,-0.00056824
 ,0.06335676,-0.32690258,-0.01319332,0.00648540,-0.01677557,-0.00080265
 ,-0.00406563,-0.00092028,-0.00024426,0.00027707,-0.00048981,0.00004713
 ,0.00275740,0.00058156,0.00016964,-0.00061901,0.00042051,0.00006530,-0
 .00026648,-0.00066463,0.00011224,-0.00169283,-0.00066404,-0.00000778,0
 .00013784,-0.00023309,-0.00003080,-0.00004887,0.00001957,0.00002368,-0
 .00000626,0.00016749,-0.00000463,0.00006767,-0.00007261,0.00000982,-0.
 06471337,0.35006431,-0.00006696,0.00003539,-0.00106669,-0.00008634,-0.
 00018353,0.00628812,-0.00003946,-0.00017956,0.00414237,0.00258510,-0.0
 1359701,-0.03155749,0.00026235,-0.00096235,0.00197921,-0.00017053,-0.0
 0038454,0.00485572,-0.00001935,0.00005310,-0.00061005,0.00025817,-0.00
 004532,-0.00401781,0.00014487,0.00013441,0.00009886,0.00009114,0.00013
 874,-0.00324806,-0.00010388,-0.00001933,-0.00018710,0.00004258,-0.0000
 5914,0.00038638,-0.00002995,0.00002446,-0.00013718,-0.00002801,0.00005
 322,-0.00009422,0.00000587,0.00001610,-0.00035948,-0.00266523,0.014817
 47,0.02271985,-0.01741409,-0.02184451,-0.00123057,-0.00316902,0.003420
 92,0.00013491,-0.00029432,0.00089602,0.00001622,0.00046725,0.00191055,
 0.00001447,0.00933679,0.00451234,0.00037637,-0.20909959,-0.14259464,-0
 .01051955,-0.00128260,-0.00139095,-0.00010037,-0.00077527,-0.00047716,
 0.00014642,-0.00031883,0.00144102,0.00008545,0.00006548,-0.00027625,-0
 .00000679,-0.00001486,0.00011377,0.00001042,-0.00034556,-0.00001733,0.
 00000722,0.00021854,0.00004598,-0.00007258,0.00013897,-0.00014405,0.00
 004523,0.00107618,0.00012084,0.00004475,0.00030749,0.00043283,0.000040
 45,0.22288382,0.00929688,0.00987028,0.00044666,0.00248725,-0.00000588,
 -0.00038966,0.00092172,-0.00037661,0.00002478,0.00293344,-0.00471073,-
 0.00052979,-0.02356568,-0.01514405,-0.00121855,-0.14384811,-0.19371852
 ,-0.01055889,0.00041193,0.00054087,0.00001749,-0.00187187,0.00086610,0
 .00027047,0.00030544,-0.00048449,0.00015982,-0.00011643,0.00020636,0.0
 0003187,-0.00000349,-0.00008818,0.00000846,0.00046502,0.00035027,0.000
 03679,-0.00011244,0.00002833,0.00002324,-0.00032294,0.00030141,-0.0001
 4722,-0.00024199,0.00075583,0.00028884,-0.00118488,-0.00090110,-0.0000
 6348,0.15295647,0.20189872,0.00047117,0.00018587,0.00327290,0.00000505
 ,-0.00042244,0.00734814,0.00003811,0.00004031,-0.00096144,0.00021051,-
 0.00034889,0.00578229,-0.00171459,-0.00038254,0.00235549,-0.01062015,-
 0.01115432,-0.03542065,0.00005210,0.00000942,0.00018267,0.00058886,0.0
 0039654,-0.00361168,0.00012627,-0.00084547,0.00008245,-0.00002767,0.00
 000445,-0.00044466,-0.00000241,0.00001878,-0.00021409,-0.00020815,0.00
 007168,-0.00014794,0.00005132,0.00007364,-0.00013121,-0.00009918,0.000
 14892,0.00004216,0.00003341,0.00025884,-0.00431608,-0.00002213,-0.0001
 0595,0.00081597,0.01058804,0.01198281,0.02449786,-0.00478935,0.0049335
 9,0.00020768,-0.03697967,-0.03648334,-0.00201560,-0.00185273,-0.001463
 65,-0.00007610,-0.00116529,-0.00116027,-0.00003992,0.00088748,0.000107
 02,0.00003627,-0.00045447,-0.00183695,-0.00013570,-0.18839558,-0.18594
 214,-0.01036860,-0.00072298,0.00022831,0.00003912,0.00071112,-0.000054
 61,0.00005718,-0.00015793,-0.00128087,-0.00006870,0.00111895,0.0014469
 7,0.00010068,-0.00081592,0.00035530,0.00000267,0.00045701,0.00005880,-
 0.00008102,0.00016413,-0.00026749,0.00006815,0.00015410,0.00011024,0.0
 0001630,0.00034066,-0.00015253,-0.00000278,-0.00036341,0.00021857,0.00
 000967,0.23173838,0.00544156,0.00017550,-0.00002789,0.00447601,0.01152
 073,0.00061313,0.01074387,0.00235848,0.00019201,-0.00233459,-0.0006145
 1,-0.00000190,0.00145395,-0.00078251,0.00001426,-0.00125685,0.00089746
 ,-0.00007801,-0.23624606,-0.35529178,-0.01845075,-0.00113171,0.0000823
 1,0.00001126,0.00077688,0.00002534,0.00006938,-0.00212930,0.00081268,0
 .00013705,-0.00209111,-0.00293108,-0.00015129,-0.00068835,0.00043031,-
 0.00004847,0.00033355,0.00001500,-0.00003894,0.00010831,-0.00032799,0.
 00006393,0.00009822,0.00009268,0.00004518,0.00032625,-0.00008764,-0.00
 000939,0.00021274,-0.00004004,0.00000180,0.22223326,0.34202935,0.00014
 826,-0.00007312,0.00213162,0.00008788,0.00044691,-0.00263791,0.0003922
 6,0.00000692,0.00147635,-0.00007979,0.00000764,-0.00065472,0.00004503,
 -0.00000918,-0.00001411,-0.00003247,-0.00006479,0.00166901,-0.01282837
 ,-0.01809343,-0.00857537,-0.00002869,0.00000113,-0.00013148,0.00005955
 ,-0.00003424,0.00001105,-0.00008250,0.00009866,-0.00138796,-0.00006221
 ,-0.00006216,-0.00123224,-0.00006466,-0.00000451,-0.00002035,0.0000339
 4,0.00001303,-0.00001708,-0.00000423,0.00000563,-0.00000584,0.00001037
 ,0.00004365,-0.00057682,0.00002386,-0.00002182,0.00019961,-0.00000629,
 0.00000398,-0.00017403,0.01240544,0.01766769,0.00972789,0.00052594,0.0
 0152912,0.00024141,0.00023033,-0.00014520,-0.00008420,-0.00012071,-0.0
 0015000,-0.00002107,0.00087303,0.00248281,0.00018985,-0.00176762,0.029
 49768,-0.00140297,-0.00573293,0.00001294,-0.00023097,-0.00010736,-0.00
 011534,0.00003498,-0.05845535,0.01835913,-0.00167567,0.00591464,-0.027
 80390,0.00271594,-0.00003377,-0.00023046,-0.00000787,-0.00005366,0.000
 16757,0.00000405,0.00045010,-0.00173138,0.00000087,0.00054463,0.000626
 29,-0.00043658,-0.00146330,0.00129633,0.00033524,-0.00041790,0.0000984
 8,0.00003382,-0.00063397,-0.00114552,-0.00011320,0.00015205,0.00001086
 ,-0.00004676,-0.00002941,0.00003717,-0.00001220,0.06593913,-0.00027734
 ,-0.00061213,-0.00011257,-0.00047641,0.00037804,-0.00003311,0.00007467
 ,-0.00024014,-0.00016997,-0.00227475,0.00116297,-0.00021970,-0.0006292
 4,-0.01191431,0.00066176,0.00212736,0.00114868,0.00039171,0.00046652,-
 0.00002612,0.00004895,0.02031668,-0.31971484,0.01624451,0.00169015,-0.
 01726861,0.00181183,0.00028435,0.00043493,0.00003960,0.00007316,-0.000
 27854,0.00000065,0.00195241,-0.00398918,0.00102673,-0.00014563,0.00131
 045,-0.00038490,0.00208150,0.00334689,-0.00065195,0.00022873,-0.000037
 49,-0.00002052,0.00059370,0.00063910,0.00020626,-0.00016414,0.00009684
 ,0.00003143,-0.00003400,-0.00006142,-0.00000318,-0.02143878,0.34456132
 ,0.00051763,0.00019684,-0.00013633,-0.00022056,-0.00019360,0.00019144,
 0.00007079,-0.00010796,-0.00004095,-0.00010162,0.00001065,-0.00143969,
 0.00176809,-0.00017104,0.00417467,-0.00049141,0.00014933,0.00278152,0.
 00012841,-0.00000166,-0.00003504,-0.00420288,0.01295239,-0.04129610,0.
 00278827,0.00292202,0.00548283,-0.00005165,-0.00002537,0.00000453,-0.0
 0000565,0.00001739,0.00006323,-0.00172751,0.00016500,-0.00756468,0.001
 49369,0.00060234,0.00064868,-0.00118487,-0.00033324,0.00021173,-0.0000
 2410,0.00001458,-0.00033005,-0.00013580,0.00000011,0.00034547,0.000002
 14,0.00005177,-0.00003746,-0.00000957,-0.00002328,0.00002634,0.0015785
 3,-0.01839759,0.02625972,0.00002780,0.00036658,-0.00001137,0.00001706,
 -0.00002207,-0.00002766,-0.00016485,0.00011721,0.00005199,0.00021654,0
 .00012029,-0.00008932,0.00043209,0.00079862,-0.00053587,-0.00103640,-0
 .00111956,-0.00005435,0.00002281,0.00006995,0.00000943,0.00628473,-0.0
 2747526,0.00345686,-0.05425865,0.00730128,0.00211134,0.00020894,0.0002
 3606,0.00001472,0.00003241,-0.00013731,-0.00000446,0.00179214,0.030161
 46,-0.00491591,0.00106624,-0.00233000,-0.00049633,-0.00591325,0.003753
 84,-0.00059128,-0.00002869,-0.00000605,0.00001531,0.00015307,0.0001608
 1,0.00001515,-0.00152326,0.00127047,0.00055056,0.00000346,0.00000250,0
 .00000352,-0.00385619,-0.00255367,0.00091222,0.05707795,0.00004216,0.0
 0039827,-0.00016177,-0.00007390,0.00015280,-0.00002171,0.00005597,-0.0
 0034386,-0.00006190,-0.00042441,-0.00015206,-0.00004763,0.00169494,-0.
 00065036,-0.00098403,0.00055123,0.00033422,-0.00010192,0.00025209,-0.0
 0001183,0.00004992,0.00021503,-0.01245840,0.00220474,0.01039931,-0.339
 54573,0.04172216,0.00009390,0.00021178,0.00002715,0.00002441,-0.000110
 33,0.00000029,-0.00406931,-0.01138633,0.00335276,-0.00020548,0.0022520
 2,-0.00062412,0.00236755,-0.00032141,0.00017203,-0.00001446,-0.0000109
 2,-0.00000088,0.00002895,0.00010087,0.00003287,0.00086794,0.00057305,0
 .00006682,-0.00001813,-0.00003284,0.00001042,-0.00164363,0.00015606,0.
 00176496,-0.01002803,0.36048407,-0.00012413,-0.00013783,-0.00034175,-0
 .00023629,0.00044574,-0.00037606,0.00027854,-0.00061861,0.00001576,-0.
 00073486,-0.00020096,-0.00014572,0.00084068,-0.00097285,-0.00547232,0.
 00040132,0.00071062,-0.00014675,0.00033774,-0.00012617,0.00018756,-0.0
 0273556,0.00259984,0.00453541,0.00302952,0.04537598,-0.04228897,0.0000
 2887,0.00011016,0.00003904,0.00000029,-0.00003765,0.00002868,-0.001858
 47,-0.00038677,0.00226073,0.00064715,-0.00006178,-0.00136021,0.0001174
 8,0.00089921,0.00190596,0.00002729,-0.00001424,0.00011231,-0.00006859,
 -0.00004686,0.00011897,0.00047375,-0.00048952,0.00100091,-0.00004716,-
 0.00004391,0.00003962,0.00105413,0.00029476,0.01012385,-0.00102409,-0.
 04693456,0.02954180,-0.00014288,0.00001746,0.00000811,0.00023900,0.000
 27581,0.00000106,0.00126994,0.00231480,0.00011518,-0.00046466,0.000464
 11,0.00002099,0.00025828,-0.00009463,-0.00001456,-0.00005230,-0.000150
 31,-0.00001242,0.00012779,-0.00018993,-0.00000514,0.00011117,-0.000004
 41,-0.00001767,-0.00012820,0.00000704,0.00000277,0.00899278,0.00350271
 ,0.00026933,-0.29235021,-0.10492107,-0.00736794,0.00020923,-0.00008214
 ,-0.00000453,-0.00011863,-0.00000968,0.00002248,-0.00005276,0.00006555
 ,-0.00002245,0.00001819,0.00001165,0.00000025,0.00027637,-0.00050490,-
 0.00001681,0.00000460,-0.00003970,-0.00000091,-0.00009555,0.00012303,0
 .00000420,0.00002807,0.00000361,0.00000124,0.00000006,0.00000337,0.000
 00645,0.30509067,0.00058956,-0.00040542,-0.00001607,-0.00235324,-0.000
 67907,-0.00006901,0.00353325,-0.00448823,-0.00027426,0.00118290,-0.000
 50204,-0.00002660,-0.00048970,0.00014093,-0.00001636,-0.00007785,0.000
 14570,0.00002035,0.00042978,0.00011540,0.00001350,0.00013420,-0.000125
 81,-0.00001445,-0.00016928,0.00003272,-0.00000029,-0.03545740,-0.03085
 083,-0.00184675,-0.09085399,-0.08354205,-0.00246757,0.00015498,-0.0000
 9983,0.00000551,-0.00007915,0.00000155,0.00001245,-0.00003343,0.000079
 26,-0.00001515,-0.00013987,-0.00011394,-0.00000440,-0.00017168,0.00060
 564,0.00005564,-0.00002529,0.00003459,0.00000157,-0.00021161,-0.000180
 96,-0.00001980,-0.00002999,0.00002554,-0.00000083,0.00001229,0.0000111
 4,0.00000407,0.10913343,0.10945767,0.00003371,-0.00001983,-0.00002254,
 -0.00011662,-0.00005576,0.00032177,0.00018577,-0.00022651,0.00057679,0
 .00005499,-0.00002885,0.00028410,-0.00002355,-0.00000400,0.00014965,-0
 .00000577,0.00001235,-0.00002667,0.00002203,0.00001337,-0.00012421,0.0
 0000610,-0.00000359,0.00003853,-0.00000964,0.00000065,0.00000694,-0.00
 175085,-0.00157355,-0.00001950,-0.00666680,-0.00259298,-0.05100240,0.0
 0000663,-0.00000596,-0.00000804,-0.00000354,-0.00000019,0.00000242,-0.
 00000039,0.00000373,0.00000271,-0.00000670,-0.00000344,-0.00004011,0.0
 0000149,0.00004964,-0.00049479,-0.00000128,0.00000259,-0.00002359,-0.0
 0001213,-0.00001644,0.00016985,0.00000064,-0.00000026,-0.00001292,-0.0
 0000007,-0.00000002,-0.00000194,0.00775480,0.00415619,0.04675098,0.000
 27681,-0.00002601,-0.00005096,0.00034650,-0.00027308,-0.00015217,0.000
 31900,-0.00097025,0.00111525,0.00012154,0.00060127,0.00033399,-0.00014
 442,-0.00029836,-0.00044748,0.00004614,0.00040305,-0.00003224,-0.00030
 538,0.00015805,0.00010379,-0.00009126,0.00004415,0.00003295,0.00015234
 ,-0.00001389,-0.00001105,-0.00076949,0.00755250,-0.00164927,-0.1140327
 4,0.03626802,-0.10457103,-0.00022718,0.00010568,0.00000233,0.00012999,
 0.00000687,-0.00002256,0.00006235,-0.00008630,0.00003001,0.00001643,0.
 00002661,0.00000550,-0.00065684,-0.00082899,0.00099096,0.00000444,0.00
 000989,0.00007950,0.00014888,-0.00024533,-0.00015029,-0.00000515,-0.00
 001526,0.00000961,-0.00001010,-0.00000479,-0.00000231,-0.01145396,0.00
 874538,-0.02419227,0.11769451,0.00077221,0.00024077,-0.00009396,0.0001
 7403,-0.00176431,-0.00068475,0.00598970,0.00480816,0.00168796,-0.00050
 398,0.00073847,-0.00027182,-0.00053379,-0.00051641,-0.00032926,-0.0006
 0329,0.00046799,-0.00004210,-0.00066369,-0.00029838,-0.00012273,0.0002
 0669,-0.00010548,-0.00001195,-0.00020954,0.00002238,-0.00000490,0.0184
 1859,-0.03338815,0.02718835,0.03285490,-0.06889833,0.05784260,0.000180
 42,-0.00010624,0.00000592,-0.00009248,-0.00000449,0.00001491,-0.000037
 34,0.00008244,-0.00002445,-0.00001766,-0.00002173,0.00007443,-0.000887
 87,-0.00041067,0.00092278,-0.00002096,0.00001951,0.00005893,-0.0004392
 9,0.00090808,0.00039392,-0.00002253,0.00002899,0.00001488,0.00001239,0
 .00001049,0.00000777,-0.00496884,0.00579816,-0.01055614,-0.04547668,0.
 08790998,-0.00007364,-0.00012717,-0.00003434,0.00031897,0.00029724,-0.
 00024547,-0.00096603,-0.00085729,0.00059705,-0.00085114,0.00093600,-0.
 00003226,0.00036659,-0.00033122,-0.00012535,0.00004963,-0.00000528,-0.
 00006494,0.00006405,-0.00015245,0.00003995,-0.00005475,0.00011039,0.00
 003516,0.00004960,-0.00002947,-0.00000940,0.00335845,0.00318400,0.0089
 1772,-0.10466286,0.06270770,-0.22855580,0.00000427,0.00008703,-0.00003
 371,-0.00002453,-0.00003083,0.00002150,0.00000171,-0.00007295,0.000016
 68,0.00001419,0.00000866,0.00001868,0.00061738,-0.00024900,-0.00006979
 ,0.00001401,-0.00006254,0.00002765,0.00002166,-0.00008387,-0.00001017,
 0.00005402,-0.00002501,-0.00001228,-0.00001590,-0.00001260,-0.00000127
 ,0.00155364,-0.00085890,0.00090742,0.11441710,-0.07150501,0.23815681,0
 .00027433,-0.00003205,0.00002598,0.00034857,-0.00029028,0.00016565,0.0
 0036747,-0.00086692,-0.00129312,0.00014155,0.00061898,-0.00018346,-0.0
 0015449,-0.00034818,0.00040931,0.00004726,0.00041020,0.00008570,-0.000
 30587,0.00016181,-0.00009390,-0.00009423,0.00004179,-0.00003306,0.0001
 5713,-0.00001611,0.00001799,-0.00079107,0.00732839,0.00234853,-0.11753
 439,0.02622301,0.10991398,-0.00022473,0.00010174,-0.00000681,0.0001306
 8,0.00000678,-0.00002284,0.00005895,-0.00007882,0.00002972,0.00001706,
 0.00002740,0.00000041,-0.00062414,-0.00070456,-0.00104927,0.00000502,0
 .00001836,-0.00007460,0.00014450,-0.00025489,0.00012924,0.00000055,-0.
 00001276,-0.00000885,-0.00000999,-0.00000787,-0.00000374,-0.01179158,0
 .00617428,0.02471985,0.00840505,-0.00413231,-0.01427378,0.12145164,0.0
 0076373,0.00022119,0.00013892,0.00021334,-0.00178346,0.00054101,0.0058
 7435,0.00490031,-0.00111455,-0.00058104,0.00077381,0.00030402,-0.00050
 178,-0.00057942,0.00027494,-0.00060056,0.00046435,0.00007175,-0.000652
 25,-0.00031086,0.00008214,0.00020116,-0.00009399,-0.00002217,-0.000199
 88,0.00001060,0.00001885,0.01911693,-0.02993619,-0.03089970,0.02264973
 ,-0.05807442,-0.03973458,0.00017961,-0.00008747,-0.00001416,-0.0000959
 0,-0.00000994,0.00002107,-0.00003619,0.00007231,-0.00001238,-0.0000108
 2,-0.00001059,-0.00007547,-0.00084554,-0.00033543,-0.00095625,-0.00001
 760,0.00002062,-0.00006054,-0.00042506,0.00091292,-0.00031797,-0.00000
 869,0.00002757,-0.00001021,0.00000856,0.00001034,0.00000837,-0.0049364
 1,0.00456486,0.01084870,-0.00570645,0.00449929,0.00704260,-0.03439553,
 0.07476271,0.00016159,0.00015751,-0.00002514,-0.00030540,-0.00047569,-
 0.00019307,0.00155001,0.00125033,0.00051307,0.00079106,-0.00082449,-0.
 00005751,-0.00041875,0.00026824,-0.00007870,-0.00011249,0.00006106,-0.
 00004136,-0.00013300,0.00012068,0.00005445,0.00006954,-0.00010264,0.00
 002836,-0.00006783,0.00002134,0.00001313,-0.00145975,-0.00689253,0.005
 35460,0.10968139,-0.04465733,-0.23594594,0.00000854,-0.00006386,0.0000
 0727,0.00000830,0.00001883,-0.00000185,0.00000637,0.00005883,0.0000112
 0,-0.00001449,-0.00001112,0.00001209,-0.00072665,0.00019294,-0.0001930
 1,-0.00001783,0.00006211,0.00002302,-0.00005898,0.00017287,-0.00003080
 ,-0.00004970,0.00002303,-0.00002471,0.00001480,0.00001238,-0.00000752,
 -0.00231759,0.00135418,0.00256889,0.01418468,-0.00458057,-0.01954435,-
 0.12078085,0.05385642,0.24758648,-0.00008108,-0.00019545,0.00000514,-0
 .00018966,0.00009241,-0.00005663,-0.00024579,-0.00012054,0.00005323,0.
 00015859,0.00007689,0.00001229,-0.00110275,-0.00100702,0.00035100,0.00
 046671,-0.00004462,-0.00003270,0.00022380,-0.00007345,-0.00000729,0.00
 046846,0.00609193,-0.00062959,-0.00266490,0.00178476,-0.00099774,0.000
 24394,0.00018161,0.00000602,-0.00000089,-0.00009645,-0.00001552,0.0042
 4888,-0.00369888,-0.00235348,0.00380916,0.00379757,-0.00046701,-0.3553
 5426,-0.12137262,0.21276529,0.00005721,-0.00001747,0.00000756,-0.00012
 249,-0.00006695,-0.00004488,-0.00005981,0.00000123,0.00001197,-0.00004
 641,0.00001085,0.00000815,-0.00198116,-0.00187086,-0.00110614,-0.00053
 391,-0.00010684,-0.00040801,0.00002458,0.00000242,0.00000359,-0.000027
 46,0.00000132,0.00001732,-0.00001924,0.00000629,-0.00001297,0.35272849
 ,-0.00021595,-0.00019963,0.00003082,0.00053351,-0.00025270,-0.00005184
 ,0.00013153,0.00059633,0.00007115,0.00009098,0.00032959,0.00000791,-0.
 00015240,-0.00010193,-0.00033420,-0.00006687,-0.00008549,0.00005340,-0
 .00072285,0.00010888,-0.00000075,0.00164305,0.00171288,0.00018192,-0.0
 0044767,-0.00111370,-0.00088805,-0.00035445,-0.00056072,-0.00002051,-0
 .00007414,0.00035199,-0.00000298,-0.03900063,-0.01206247,0.01887847,0.
 00212746,-0.00841746,0.00556605,-0.07988457,-0.07244622,0.06895205,-0.
 00002246,0.00002197,0.00000091,0.00001472,-0.00002541,-0.00003057,0.00
 004145,-0.00009317,-0.00003166,0.00007786,0.00008993,0.00000460,0.0003
 4703,0.00082541,0.00040253,-0.00072035,0.00032896,-0.00038482,-0.00002
 056,-0.00002498,0.00000027,0.00002391,-0.00002054,0.00002996,0.0000275
 4,-0.00001914,-0.00002252,0.11662387,0.09105761,0.00009736,-0.00007659
 ,-0.00005652,-0.00030333,0.00012183,0.00002048,-0.00007879,-0.00024517
 ,0.00000952,-0.00001905,-0.00005789,-0.00019970,-0.00028402,-0.0009583
 1,0.00029998,0.00040266,0.00001494,-0.00000960,0.00035919,-0.00008257,
 -0.00002254,0.00093877,0.00177928,-0.00083374,-0.00089036,-0.00134027,
 -0.00007087,0.00021951,0.00020670,-0.00001155,0.00000979,-0.00011530,0
 .00006501,0.01663320,-0.00025025,-0.01214839,-0.00126838,0.00482538,0.
 00451539,0.19301670,0.08979941,-0.13655079,0.00004886,-0.00002393,0.00
 000826,-0.00010117,-0.00002222,0.00008514,-0.00004459,0.00004799,0.000
 05133,-0.00004857,-0.00001443,0.00001755,-0.00216229,-0.00076245,0.000
 61621,0.00061071,-0.00046537,0.00023191,0.00001950,0.00000700,-0.00000
 332,-0.00002403,0.00001517,0.00000049,-0.00002208,0.00000918,-0.000028
 60,-0.20710957,-0.09241214,0.14401435\\-0.00000400,-0.00000256,-0.0000
 0088,0.00000102,0.00000086,0.00000108,-0.00000239,-0.00000378,0.000003
 21,0.00000226,0.00000266,-0.00000172,0.00000371,0.00000022,0.00000047,
 -0.00000296,-0.00000167,-0.00000185,0.00000034,0.00000235,-0.00000218,
 -0.00000683,0.00000090,0.00000253,-0.00000251,0.00000160,-0.00000041,0
 .00000568,-0.00000282,-0.00000624,-0.00000093,-0.00000482,0.00000337,0
 .00000475,0.00000679,-0.00000698,-0.00000337,0.00000289,0.00000440,-0.
 00000054,-0.00000066,0.00000277,-0.00000249,-0.00000075,-0.00000096,0.
 00000199,-0.00000093,0.00000037,-0.00000229,0.00000158,-0.00000066,-0.
 00000109,-0.00000400,-0.00000018,0.00000218,0.00000049,0.00000068,0.00
 000031,0.00000364,0.00000026,0.00000089,-0.00000323,0.00000064,0.00000
 311,-0.00000058,-0.00000037,0.00000181,-0.00000217,0.00000082,0.000001
 35,0.00000399,0.00000184\\\@


 CHARLIE BROWN -- WHICH DO YOU THINK LASTS LONGER IN LIFE, THE GOOD THINGS 
                  OR THE BAD THINGS?
 LINUS --         GOOD THINGS LAST EIGHT SECONDS ..
                  BAD THINGS LAST THREE WEEKS
 CHARLIE BROWN -- WHAT ABOUT IN BETWEEN?
 SNOOPY --        IN BETWEEN YOU SHOULD TAKE A NAP ...
 Job cpu time:       0 days  1 hours 15 minutes 24.6 seconds.
 File lengths (MBytes):  RWF=    251 Int=      0 D2E=      0 Chk=      9 Scr=      1
 Normal termination of Gaussian 09 at Wed Dec 18 19:22:57 2024.
