 Entering Gaussian System, Link 0=g09
 Input=camb3lypFAyang.gjf
 Output=camb3lypFAyang.log
 Initial command:
 /home/phzd/g09E/g09/l1.exe "/home/phzd/g09E/scratch/Gau-570578.inp" -scrdir="/home/phzd/g09E/scratch/"
 Default is to use a total of  18 processors:
                               18 via shared-memory
                                1 via Linda
 Entering Link 1 = /home/phzd/g09E/g09/l1.exe PID=    570580.
  
 Copyright (c) 1988,1990,1992,1993,1995,1998,2003,2009,2015,
            Gaussian, Inc.  All Rights Reserved.
  
 This is part of the Gaussian(R) 09 program.  It is based on
 the Gaussian(R) 03 system (copyright 2003, Gaussian, Inc.),
 the Gaussian(R) 98 system (copyright 1998, Gaussian, Inc.),
 the Gaussian(R) 94 system (copyright 1995, Gaussian, Inc.),
 the Gaussian 92(TM) system (copyright 1992, Gaussian, Inc.),
 the Gaussian 90(TM) system (copyright 1990, Gaussian, Inc.),
 the Gaussian 88(TM) system (copyright 1988, Gaussian, Inc.),
 the Gaussian 86(TM) system (copyright 1986, Carnegie Mellon
 University), and the Gaussian 82(TM) system (copyright 1983,
 Carnegie Mellon University). Gaussian is a federally registered
 trademark of Gaussian, Inc.
  
 This software contains proprietary and confidential information,
 including trade secrets, belonging to Gaussian, Inc.
  
 This software is provided under written license and may be
 used, copied, transmitted, or stored only in accord with that
 written license.
  
 The following legend is applicable only to US Government
 contracts under FAR:
  
                    RESTRICTED RIGHTS LEGEND
  
 Use, reproduction and disclosure by the US Government is
 subject to restrictions as set forth in subparagraphs (a)
 and (c) of the Commercial Computer Software - Restricted
 Rights clause in FAR 52.227-19.
  
 Gaussian, Inc.
 340 Quinnipiac St., Bldg. 40, Wallingford CT 06492
  
  
 ---------------------------------------------------------------
 Warning -- This program may not be used in any manner that
 competes with the business of Gaussian, Inc. or will provide
 assistance to any competitor of Gaussian, Inc.  The licensee
 of this program is prohibited from giving any competitor of
 Gaussian, Inc. access to this program.  By using this program,
 the user acknowledges that Gaussian, Inc. is engaged in the
 business of creating and licensing software in the field of
 computational chemistry and represents and warrants to the
 licensee that it is not a competitor of Gaussian, Inc. and that
 it will not use this program in any manner prohibited above.
 ---------------------------------------------------------------
  

 Cite this work as:
 Gaussian 09, Revision E.01,
 M. J. Frisch, G. W. Trucks, H. B. Schlegel, G. E. Scuseria, 
 M. A. Robb, J. R. Cheeseman, G. Scalmani, V. Barone, B. Mennucci, 
 G. A. Petersson, H. Nakatsuji, M. Caricato, X. Li, H. P. Hratchian, 
 A. F. Izmaylov, J. Bloino, G. Zheng, J. L. Sonnenberg, M. Hada, 
 M. Ehara, K. Toyota, R. Fukuda, J. Hasegawa, M. Ishida, T. Nakajima, 
 Y. Honda, O. Kitao, H. Nakai, T. Vreven, J. A. Montgomery, Jr., 
 J. E. Peralta, F. Ogliaro, M. Bearpark, J. J. Heyd, E. Brothers, 
 K. N. Kudin, V. N. Staroverov, T. Keith, R. Kobayashi, J. Normand, 
 K. Raghavachari, A. Rendell, J. C. Burant, S. S. Iyengar, J. Tomasi, 
 M. Cossi, N. Rega, J. M. Millam, M. Klene, J. E. Knox, J. B. Cross, 
 V. Bakken, C. Adamo, J. Jaramillo, R. Gomperts, R. E. Stratmann, 
 O. Yazyev, A. J. Austin, R. Cammi, C. Pomelli, J. W. Ochterski, 
 R. L. Martin, K. Morokuma, V. G. Zakrzewski, G. A. Voth, 
 P. Salvador, J. J. Dannenberg, S. Dapprich, A. D. Daniels, 
 O. Farkas, J. B. Foresman, J. V. Ortiz, J. Cioslowski, 
 and D. J. Fox, Gaussian, Inc., Wallingford CT, 2013.
 
 ******************************************
 Gaussian 09:  ES64L-G09RevE.01 30-Nov-2015
                28-May-2024 
 ******************************************
 %chk=camb3lypFAyang.chk
 -----------------------------------------
 # opt freq cam-b3lyp/6-31+g(d,p) em=gd3bj
 -----------------------------------------
 1/14=-1,18=20,19=15,26=3,38=1/1,3;
 2/9=110,12=2,17=6,18=5,40=1/2;
 3/5=1,6=6,7=111,11=2,16=1,25=1,30=1,71=1,74=-40,124=41/1,2,3;
 4//1;
 5/5=2,38=5/2;
 6/7=2,8=2,9=2,10=2,28=1/1;
 7//1,2,3,16;
 1/14=-1,18=20,19=15,26=3/3(2);
 2/9=110/2;
 99//99;
 2/9=110/2;
 3/5=1,6=6,7=111,11=2,16=1,25=1,30=1,71=1,74=-40,124=41/1,2,3;
 4/5=5,16=3,69=1/1;
 5/5=2,38=5/2;
 7//1,2,3,16;
 1/14=-1,18=20,19=15,26=3/3(-5);
 2/9=110/2;
 6/7=2,8=2,9=2,10=2,19=2,28=1/1;
 99/9=1/99;
 ----------
 [No Title]
 ----------
 Symbolic Z-matrix:
 Charge =  1 Multiplicity = 1
 C                    -1.47     -2.03014   0.02367 
 C                    -2.51323  -1.08952   0.01183 
 C                    -2.23182   0.30784  -0.00512 
 C                    -0.92297   0.73727  -0.01182 
 C                     0.14691  -0.20925  -0.00255 
 C                    -0.16138  -1.59778   0.01818 
 O                    -3.77305  -1.51471   0.01798 
 C                     1.473     0.27977  -0.01087 
 C                     2.64514  -0.46845  -0.01751 
 C                     3.89469   0.13472   0.00009 
 O                     4.96722  -0.63418  -0.10651 
 O                     4.01808   1.45002   0.13179 
 O                    -3.34939   1.07443  -0.01323 
 C                    -3.20854   2.50158  -0.0298 
 H                    -1.72486  -3.08349   0.03897 
 H                    -0.69016   1.79541  -0.0251 
 H                     0.63377  -2.33344   0.03022 
 H                    -4.37754  -0.75037   0.00912 
 H                     1.58586   1.36181  -0.01166 
 H                     2.64973  -1.55036  -0.03728 
 H                     5.80557  -0.20339   0.12542 
 H                     4.88566   1.80074  -0.12496 
 H                    -4.22227   2.89775  -0.03239 
 H                    -2.67794   2.84267   0.86502 
 H                    -2.68149   2.82203  -0.93432 
 

 GradGradGradGradGradGradGradGradGradGradGradGradGradGradGradGradGradGrad
 Berny optimization.
 Initialization pass.
                           ----------------------------
                           !    Initial Parameters    !
                           ! (Angstroms and Degrees)  !
 --------------------------                            --------------------------
 ! Name  Definition              Value          Derivative Info.                !
 --------------------------------------------------------------------------------
 ! R1    R(1,2)                  1.4047         estimate D2E/DX2                !
 ! R2    R(1,6)                  1.3782         estimate D2E/DX2                !
 ! R3    R(1,15)                 1.0838         estimate D2E/DX2                !
 ! R4    R(2,3)                  1.4255         estimate D2E/DX2                !
 ! R5    R(2,7)                  1.3297         estimate D2E/DX2                !
 ! R6    R(3,4)                  1.3775         estimate D2E/DX2                !
 ! R7    R(3,13)                 1.3552         estimate D2E/DX2                !
 ! R8    R(4,5)                  1.4285         estimate D2E/DX2                !
 ! R9    R(4,16)                 1.0835         estimate D2E/DX2                !
 ! R10   R(5,6)                  1.4225         estimate D2E/DX2                !
 ! R11   R(5,8)                  1.4134         estimate D2E/DX2                !
 ! R12   R(6,17)                 1.0833         estimate D2E/DX2                !
 ! R13   R(7,18)                 0.9745         estimate D2E/DX2                !
 ! R14   R(8,9)                  1.3906         estimate D2E/DX2                !
 ! R15   R(8,19)                 1.0879         estimate D2E/DX2                !
 ! R16   R(9,10)                 1.3876         estimate D2E/DX2                !
 ! R17   R(9,20)                 1.0821         estimate D2E/DX2                !
 ! R18   R(10,11)                1.324          estimate D2E/DX2                !
 ! R19   R(10,12)                1.3276         estimate D2E/DX2                !
 ! R20   R(11,21)                0.9707         estimate D2E/DX2                !
 ! R21   R(12,22)                0.9704         estimate D2E/DX2                !
 ! R22   R(13,14)                1.4342         estimate D2E/DX2                !
 ! R23   R(14,23)                1.0884         estimate D2E/DX2                !
 ! R24   R(14,24)                1.0948         estimate D2E/DX2                !
 ! R25   R(14,25)                1.0948         estimate D2E/DX2                !
 ! A1    A(2,1,6)              119.674          estimate D2E/DX2                !
 ! A2    A(2,1,15)             118.4411         estimate D2E/DX2                !
 ! A3    A(6,1,15)             121.8848         estimate D2E/DX2                !
 ! A4    A(1,2,3)              120.6559         estimate D2E/DX2                !
 ! A5    A(1,2,7)              119.3074         estimate D2E/DX2                !
 ! A6    A(3,2,7)              120.0367         estimate D2E/DX2                !
 ! A7    A(2,3,4)              119.5521         estimate D2E/DX2                !
 ! A8    A(2,3,13)             113.0643         estimate D2E/DX2                !
 ! A9    A(4,3,13)             127.3836         estimate D2E/DX2                !
 ! A10   A(3,4,5)              120.3327         estimate D2E/DX2                !
 ! A11   A(3,4,16)             120.5738         estimate D2E/DX2                !
 ! A12   A(5,4,16)             119.0935         estimate D2E/DX2                !
 ! A13   A(4,5,6)              118.9832         estimate D2E/DX2                !
 ! A14   A(4,5,8)              118.2542         estimate D2E/DX2                !
 ! A15   A(6,5,8)              122.7623         estimate D2E/DX2                !
 ! A16   A(1,6,5)              120.8015         estimate D2E/DX2                !
 ! A17   A(1,6,17)             118.9375         estimate D2E/DX2                !
 ! A18   A(5,6,17)             120.261          estimate D2E/DX2                !
 ! A19   A(2,7,18)             109.6862         estimate D2E/DX2                !
 ! A20   A(5,8,9)              127.2063         estimate D2E/DX2                !
 ! A21   A(5,8,19)             116.1971         estimate D2E/DX2                !
 ! A22   A(9,8,19)             116.5966         estimate D2E/DX2                !
 ! A23   A(8,9,10)             121.6741         estimate D2E/DX2                !
 ! A24   A(8,9,20)             122.7943         estimate D2E/DX2                !
 ! A25   A(10,9,20)            115.5316         estimate D2E/DX2                !
 ! A26   A(9,10,11)            118.426          estimate D2E/DX2                !
 ! A27   A(9,10,12)            121.0369         estimate D2E/DX2                !
 ! A28   A(11,10,12)           120.5347         estimate D2E/DX2                !
 ! A29   A(10,11,21)           115.0035         estimate D2E/DX2                !
 ! A30   A(10,12,22)           114.5143         estimate D2E/DX2                !
 ! A31   A(3,13,14)            118.8136         estimate D2E/DX2                !
 ! A32   A(13,14,23)           105.7098         estimate D2E/DX2                !
 ! A33   A(13,14,24)           110.3762         estimate D2E/DX2                !
 ! A34   A(13,14,25)           110.3705         estimate D2E/DX2                !
 ! A35   A(23,14,24)           109.8735         estimate D2E/DX2                !
 ! A36   A(23,14,25)           109.8691         estimate D2E/DX2                !
 ! A37   A(24,14,25)           110.5342         estimate D2E/DX2                !
 ! D1    D(6,1,2,3)             -0.0323         estimate D2E/DX2                !
 ! D2    D(6,1,2,7)           -179.963          estimate D2E/DX2                !
 ! D3    D(15,1,2,3)           179.8476         estimate D2E/DX2                !
 ! D4    D(15,1,2,7)            -0.0831         estimate D2E/DX2                !
 ! D5    D(2,1,6,5)             -0.1498         estimate D2E/DX2                !
 ! D6    D(2,1,6,17)           179.8323         estimate D2E/DX2                !
 ! D7    D(15,1,6,5)           179.9745         estimate D2E/DX2                !
 ! D8    D(15,1,6,17)           -0.0434         estimate D2E/DX2                !
 ! D9    D(1,2,3,4)              0.0918         estimate D2E/DX2                !
 ! D10   D(1,2,3,13)          -179.9251         estimate D2E/DX2                !
 ! D11   D(7,2,3,4)           -179.978          estimate D2E/DX2                !
 ! D12   D(7,2,3,13)             0.0051         estimate D2E/DX2                !
 ! D13   D(1,2,7,18)           179.9459         estimate D2E/DX2                !
 ! D14   D(3,2,7,18)             0.0147         estimate D2E/DX2                !
 ! D15   D(2,3,4,5)              0.0311         estimate D2E/DX2                !
 ! D16   D(2,3,4,16)           179.9744         estimate D2E/DX2                !
 ! D17   D(13,3,4,5)          -179.9494         estimate D2E/DX2                !
 ! D18   D(13,3,4,16)           -0.0061         estimate D2E/DX2                !
 ! D19   D(2,3,13,14)          179.9724         estimate D2E/DX2                !
 ! D20   D(4,3,13,14)           -0.046          estimate D2E/DX2                !
 ! D21   D(3,4,5,6)             -0.2078         estimate D2E/DX2                !
 ! D22   D(3,4,5,8)            179.9575         estimate D2E/DX2                !
 ! D23   D(16,4,5,6)           179.8481         estimate D2E/DX2                !
 ! D24   D(16,4,5,8)             0.0134         estimate D2E/DX2                !
 ! D25   D(4,5,6,1)              0.2691         estimate D2E/DX2                !
 ! D26   D(4,5,6,17)          -179.7127         estimate D2E/DX2                !
 ! D27   D(8,5,6,1)           -179.9041         estimate D2E/DX2                !
 ! D28   D(8,5,6,17)             0.1141         estimate D2E/DX2                !
 ! D29   D(4,5,8,9)           -179.3093         estimate D2E/DX2                !
 ! D30   D(4,5,8,19)             0.7238         estimate D2E/DX2                !
 ! D31   D(6,5,8,9)              0.8627         estimate D2E/DX2                !
 ! D32   D(6,5,8,19)          -179.1042         estimate D2E/DX2                !
 ! D33   D(5,8,9,10)          -178.761          estimate D2E/DX2                !
 ! D34   D(5,8,9,20)             1.2854         estimate D2E/DX2                !
 ! D35   D(19,8,9,10)            1.2059         estimate D2E/DX2                !
 ! D36   D(19,8,9,20)         -178.7478         estimate D2E/DX2                !
 ! D37   D(8,9,10,11)         -175.121          estimate D2E/DX2                !
 ! D38   D(8,9,10,12)            5.4388         estimate D2E/DX2                !
 ! D39   D(20,9,10,11)           4.8358         estimate D2E/DX2                !
 ! D40   D(20,9,10,12)        -174.6044         estimate D2E/DX2                !
 ! D41   D(9,10,11,21)        -165.7477         estimate D2E/DX2                !
 ! D42   D(12,10,11,21)         13.6955         estimate D2E/DX2                !
 ! D43   D(9,10,12,22)        -162.8481         estimate D2E/DX2                !
 ! D44   D(11,10,12,22)         17.7235         estimate D2E/DX2                !
 ! D45   D(3,13,14,23)        -179.9282         estimate D2E/DX2                !
 ! D46   D(3,13,14,24)         -61.1657         estimate D2E/DX2                !
 ! D47   D(3,13,14,25)          61.3177         estimate D2E/DX2                !
 --------------------------------------------------------------------------------
 Trust Radius=3.00D-01 FncErr=1.00D-07 GrdErr=1.00D-06
 Number of steps in this run=    119 maximum allowed number of steps=    150.
 GradGradGradGradGradGradGradGradGradGradGradGradGradGradGradGradGradGrad

                          Input orientation:                          
 ---------------------------------------------------------------------
 Center     Atomic      Atomic             Coordinates (Angstroms)
 Number     Number       Type             X           Y           Z
 ---------------------------------------------------------------------
      1          6           0       -1.469995   -2.030139    0.023674
      2          6           0       -2.513225   -1.089521    0.011833
      3          6           0       -2.231818    0.307835   -0.005118
      4          6           0       -0.922965    0.737272   -0.011820
      5          6           0        0.146913   -0.209254   -0.002547
      6          6           0       -0.161381   -1.597781    0.018180
      7          8           0       -3.773054   -1.514712    0.017983
      8          6           0        1.472998    0.279774   -0.010873
      9          6           0        2.645135   -0.468448   -0.017510
     10          6           0        3.894687    0.134717    0.000094
     11          8           0        4.967218   -0.634181   -0.106509
     12          8           0        4.018076    1.450018    0.131794
     13          8           0       -3.349387    1.074433   -0.013231
     14          6           0       -3.208537    2.501577   -0.029802
     15          1           0       -1.724857   -3.083486    0.038972
     16          1           0       -0.690164    1.795406   -0.025097
     17          1           0        0.633773   -2.333436    0.030217
     18          1           0       -4.377544   -0.750374    0.009116
     19          1           0        1.585857    1.361810   -0.011655
     20          1           0        2.649727   -1.550362   -0.037282
     21          1           0        5.805565   -0.203389    0.125423
     22          1           0        4.885657    1.800738   -0.124958
     23          1           0       -4.222270    2.897747   -0.032393
     24          1           0       -2.677939    2.842670    0.865024
     25          1           0       -2.681489    2.822028   -0.934317
 ---------------------------------------------------------------------
                    Distance matrix (angstroms):
                    1          2          3          4          5
     1  C    0.000000
     2  C    1.404718   0.000000
     3  C    2.459131   1.425511   0.000000
     4  C    2.821182   2.422119   1.377519   0.000000
     5  C    2.435303   2.802037   2.434286   1.428508   0.000000
     6  C    1.378200   2.406146   2.814005   2.456295   1.422491
     7  O    2.360038   1.329659   2.386969   3.632537   4.131680
     8  C    3.741403   4.214909   3.704927   2.439251   1.413407
     9  C    4.401689   5.195697   4.938364   3.766315   2.511676
    10  C    5.785064   6.523820   6.128953   4.855202   3.763527
    11  O    6.588122   7.495223   7.261115   6.048480   4.840115
    12  O    6.499393   7.008676   6.354880   4.994248   4.213921
    13  O    3.629303   2.320020   1.355249   2.449735   3.724524
    14  C    4.854054   3.658029   2.401477   2.887375   4.313745
    15  H    1.083849   2.144331   3.429287   3.904331   3.430227
    16  H    3.904524   3.412875   2.142420   1.083522   2.172526
    17  H    2.125529   3.383971   3.897329   3.443029   2.179508
    18  H    3.176767   1.894918   2.392519   3.761336   4.556716
    19  H    4.565610   4.776196   3.960499   2.585389   2.130466
    20  H    4.148013   5.183711   5.223353   4.242410   2.839693
    21  H    7.502076   8.366624   8.054683   6.795351   5.660102
    22  H    7.422400   7.944543   7.273347   5.906255   5.148859
    23  H    5.644663   4.338329   3.266541   3.943791   5.361353
    24  H    5.090311   4.027057   2.716903   2.877758   4.248142
    25  H    5.092052   4.027869   2.717863   2.879169   4.249320
                    6          7          8          9         10
     6  C    0.000000
     7  O    3.612628   0.000000
     8  C    2.489428   5.544554   0.000000
     9  C    3.025425   6.503005   1.390606   0.000000
    10  C    4.410619   7.843162   2.426054   1.387623   0.000000
    11  O    5.219828   8.785396   3.613037   2.329690   1.323968
    12  O    5.173959   8.336923   2.804861   2.363847   1.327624
    13  O    4.159939   2.623764   4.887421   6.189895   7.304783
    14  C    5.108052   4.056050   5.182040   6.564044   7.487237
    15  H    2.156898   2.580039   4.641151   5.092980   6.475926
    16  H    3.434414   4.523599   2.641328   4.031044   4.876411
    17  H    1.083330   4.482252   2.744969   2.743362   4.089773
    18  H    4.300490   0.974525   5.940576   7.028386   8.319451
    19  H    3.436991   6.082202   1.087906   2.114698   2.614688
    20  H    2.812055   6.423118   2.175956   1.082104   2.095427
    21  H    6.128644   9.668560   4.361555   3.174745   1.944602
    22  H    6.086297   9.272859   3.737993   3.190719   1.942495
    23  H    6.058312   4.435553   6.268199   7.648055   8.574403
    24  H    5.173762   4.572038   4.956401   6.330678   7.161042
    25  H    5.176186   4.572276   4.957375   6.327771   7.165253
                   11         12         13         14         15
    11  O    0.000000
    12  O    2.302508   0.000000
    13  O    8.490817   7.378456   0.000000
    14  C    8.756816   7.304507   1.434173   0.000000
    15  H    7.127701   7.317278   4.464316   5.779184   0.000000
    16  H    6.157556   4.723498   2.755251   2.615512   4.987813
    17  H    4.656706   5.077238   5.242234   6.176107   2.475033
    18  H    9.346200   8.680047   2.094642   3.455905   3.532853
    19  H    3.927668   2.438042   4.943604   4.928043   5.542928
    20  H    2.492979   3.302006   6.548244   7.123028   4.636083
    21  H    0.970670   2.434936   9.244739   9.412490   8.062859
    22  H    2.436354   0.970373   8.267766   8.125036   8.220791
    23  H    9.845136   8.368165   2.021575   1.088399   6.482076
    24  H    8.454632   6.878497   2.085386   1.094802   6.058882
    25  H    8.434060   6.921212   2.085324   1.094813   6.061149
                   16         17         18         19         20
    16  H    0.000000
    17  H    4.336266   0.000000
    18  H    4.480953   5.255457   0.000000
    19  H    2.316993   3.816158   6.326445   0.000000
    20  H    4.727492   2.163754   7.072812   3.100520   0.000000
    21  H    6.797965   5.594068  10.198452   4.502730   3.435131
    22  H    5.576718   5.932452   9.609008   3.330792   4.029509
    23  H    3.700133   7.137951   3.651660   6.007818   8.185966
    24  H    2.416677   6.201323   4.065858   4.597985   6.963972
    25  H    2.417852   6.204845   4.065553   4.603671   6.953009
                   21         22         23         24         25
    21  H    0.000000
    22  H    2.219335   0.000000
    23  H   10.497591   9.174221   0.000000
    24  H    9.044077   7.698940   1.786994   0.000000
    25  H    9.072281   7.678528   1.786954   1.799463   0.000000
 Stoichiometry    C10H11O4(1+)
 Framework group  C1[X(C10H11O4)]
 Deg. of freedom    69
 Full point group                 C1      NOp   1
 Largest Abelian subgroup         C1      NOp   1
 Largest concise Abelian subgroup C1      NOp   1
                         Standard orientation:                         
 ---------------------------------------------------------------------
 Center     Atomic      Atomic             Coordinates (Angstroms)
 Number     Number       Type             X           Y           Z
 ---------------------------------------------------------------------
      1          6           0        1.469995   -2.030139   -0.023674
      2          6           0        2.513225   -1.089521   -0.011833
      3          6           0        2.231818    0.307835    0.005118
      4          6           0        0.922965    0.737272    0.011820
      5          6           0       -0.146913   -0.209254    0.002547
      6          6           0        0.161381   -1.597781   -0.018180
      7          8           0        3.773054   -1.514712   -0.017983
      8          6           0       -1.472998    0.279774    0.010873
      9          6           0       -2.645135   -0.468448    0.017510
     10          6           0       -3.894687    0.134717   -0.000094
     11          8           0       -4.967218   -0.634181    0.106509
     12          8           0       -4.018076    1.450018   -0.131794
     13          8           0        3.349387    1.074433    0.013231
     14          6           0        3.208537    2.501577    0.029802
     15          1           0        1.724857   -3.083486   -0.038972
     16          1           0        0.690164    1.795406    0.025097
     17          1           0       -0.633773   -2.333436   -0.030217
     18          1           0        4.377544   -0.750374   -0.009116
     19          1           0       -1.585857    1.361810    0.011655
     20          1           0       -2.649727   -1.550362    0.037282
     21          1           0       -5.805565   -0.203389   -0.125423
     22          1           0       -4.885657    1.800738    0.124958
     23          1           0        4.222270    2.897747    0.032393
     24          1           0        2.677939    2.842670   -0.865024
     25          1           0        2.681489    2.822028    0.934317
 ---------------------------------------------------------------------
 Rotational constants (GHZ):      1.5333472      0.2849645      0.2408013
 Standard basis: 6-31+G(d,p) (6D, 7F)
 There are   321 symmetry adapted cartesian basis functions of A   symmetry.
 There are   321 symmetry adapted basis functions of A   symmetry.
   321 basis functions,   525 primitive gaussians,   321 cartesian basis functions
    51 alpha electrons       51 beta electrons
       nuclear repulsion energy       838.5196916743 Hartrees.
 NAtoms=   25 NActive=   25 NUniq=   25 SFac= 1.00D+00 NAtFMM=   60 NAOKFM=F Big=F
 Integral buffers will be    131072 words long.
 Raffenetti 2 integral format.
 Two-electron integral symmetry is turned on.
 Nuclear repulsion after empirical dispersion term =      838.4990710149 Hartrees.
 One-electron integrals computed using PRISM.
 NBasis=   321 RedAO= T EigKep=  1.40D-06  NBF=   321
 NBsUse=   320 1.00D-06 EigRej=  6.62D-07 NBFU=   320
 ExpMin= 4.38D-02 ExpMax= 5.48D+03 ExpMxC= 8.25D+02 IAcc=2 IRadAn=         4 AccDes= 0.00D+00
 Harris functional with IExCor=20419 and IRadAn=       4 diagonalized for initial guess.
 HarFok:  IExCor=20419 AccDes= 0.00D+00 IRadAn=         4 IDoV= 1 UseB2=F ITyADJ=14
 ICtDFT=  3500011 ScaDFX=  1.000000  1.000000  1.000000  1.000000
 FoFCou: FMM=F IPFlag=           0 FMFlag=      100000 FMFlg1=           0
         NFxFlg=           0 DoJE=T BraDBF=F KetDBF=T FulRan=T
         wScrn=  0.000000 ICntrl=     500 IOpCl=  0 I1Cent=   200000004 NGrid=           0
         NMat0=    1 NMatS0=      1 NMatT0=    0 NMatD0=    1 NMtDS0=    0 NMtDT0=    0
 Petite list used in FoFCou.
 Requested convergence on RMS density matrix=1.00D-08 within 128 cycles.
 Requested convergence on MAX density matrix=1.00D-06.
 Requested convergence on             energy=1.00D-06.
 No special actions if energy rises.
 SCF Done:  E(RCAM-B3LYP) =  -688.061111064     A.U. after   16 cycles
            NFock= 16  Conv=0.57D-08     -V/T= 2.0092

 **********************************************************************

            Population analysis using the SCF density.

 **********************************************************************

 Orbital symmetries:
       Occupied  (A) (A) (A) (A) (A) (A) (A) (A) (A) (A) (A) (A)
                 (A) (A) (A) (A) (A) (A) (A) (A) (A) (A) (A) (A)
                 (A) (A) (A) (A) (A) (A) (A) (A) (A) (A) (A) (A)
                 (A) (A) (A) (A) (A) (A) (A) (A) (A) (A) (A) (A)
                 (A) (A) (A)
       Virtual   (A) (A) (A) (A) (A) (A) (A) (A) (A) (A) (A) (A)
                 (A) (A) (A) (A) (A) (A) (A) (A) (A) (A) (A) (A)
                 (A) (A) (A) (A) (A) (A) (A) (A) (A) (A) (A) (A)
                 (A) (A) (A) (A) (A) (A) (A) (A) (A) (A) (A) (A)
                 (A) (A) (A) (A) (A) (A) (A) (A) (A) (A) (A) (A)
                 (A) (A) (A) (A) (A) (A) (A) (A) (A) (A) (A) (A)
                 (A) (A) (A) (A) (A) (A) (A) (A) (A) (A) (A) (A)
                 (A) (A) (A) (A) (A) (A) (A) (A) (A) (A) (A) (A)
                 (A) (A) (A) (A) (A) (A) (A) (A) (A) (A) (A) (A)
                 (A) (A) (A) (A) (A) (A) (A) (A) (A) (A) (A) (A)
                 (A) (A) (A) (A) (A) (A) (A) (A) (A) (A) (A) (A)
                 (A) (A) (A) (A) (A) (A) (A) (A) (A) (A) (A) (A)
                 (A) (A) (A) (A) (A) (A) (A) (A) (A) (A) (A) (A)
                 (A) (A) (A) (A) (A) (A) (A) (A) (A) (A) (A) (A)
                 (A) (A) (A) (A) (A) (A) (A) (A) (A) (A) (A) (A)
                 (A) (A) (A) (A) (A) (A) (A) (A) (A) (A) (A) (A)
                 (A) (A) (A) (A) (A) (A) (A) (A) (A) (A) (A) (A)
                 (A) (A) (A) (A) (A) (A) (A) (A) (A) (A) (A) (A)
                 (A) (A) (A) (A) (A) (A) (A) (A) (A) (A) (A) (A)
                 (A) (A) (A) (A) (A) (A) (A) (A) (A) (A) (A) (A)
                 (A) (A) (A) (A) (A) (A) (A) (A) (A) (A) (A) (A)
                 (A) (A) (A) (A) (A) (A) (A) (A) (A) (A) (A) (A)
                 (A) (A) (A) (A) (A)
 The electronic state is 1-A.
 Alpha  occ. eigenvalues --  -19.46960 -19.46732 -19.40240 -19.39712 -10.60050
 Alpha  occ. eigenvalues --  -10.48806 -10.46992 -10.46580 -10.43535 -10.42831
 Alpha  occ. eigenvalues --  -10.42588 -10.42257 -10.42158 -10.40581  -1.39990
 Alpha  occ. eigenvalues --   -1.32135  -1.30862  -1.27670  -1.09754  -1.05803
 Alpha  occ. eigenvalues --   -0.99717  -0.98293  -0.93290  -0.90915  -0.87456
 Alpha  occ. eigenvalues --   -0.85838  -0.82728  -0.79588  -0.77531  -0.74815
 Alpha  occ. eigenvalues --   -0.72581  -0.71661  -0.70974  -0.69481  -0.67502
 Alpha  occ. eigenvalues --   -0.66151  -0.65168  -0.63610  -0.62567  -0.62500
 Alpha  occ. eigenvalues --   -0.62157  -0.60361  -0.59894  -0.58843  -0.57598
 Alpha  occ. eigenvalues --   -0.54951  -0.54096  -0.53965  -0.49756  -0.44243
 Alpha  occ. eigenvalues --   -0.40190
 Alpha virt. eigenvalues --   -0.21195  -0.12885  -0.09589  -0.09429  -0.07644
 Alpha virt. eigenvalues --   -0.06718  -0.06320  -0.05945  -0.04516  -0.04185
 Alpha virt. eigenvalues --   -0.03226  -0.03107  -0.02297  -0.02046  -0.01818
 Alpha virt. eigenvalues --   -0.00383  -0.00251   0.00705   0.00943   0.01697
 Alpha virt. eigenvalues --    0.02848   0.03174   0.04808   0.05464   0.05645
 Alpha virt. eigenvalues --    0.05777   0.05982   0.06542   0.06613   0.06941
 Alpha virt. eigenvalues --    0.07266   0.07534   0.08295   0.08484   0.09389
 Alpha virt. eigenvalues --    0.10129   0.10588   0.10854   0.11768   0.11959
 Alpha virt. eigenvalues --    0.12380   0.13080   0.13406   0.13795   0.14505
 Alpha virt. eigenvalues --    0.14816   0.15337   0.16243   0.16802   0.16980
 Alpha virt. eigenvalues --    0.17219   0.17653   0.17884   0.18943   0.19486
 Alpha virt. eigenvalues --    0.20096   0.20454   0.21017   0.21613   0.22265
 Alpha virt. eigenvalues --    0.22826   0.23296   0.23512   0.24477   0.24978
 Alpha virt. eigenvalues --    0.25666   0.26672   0.27036   0.27299   0.27976
 Alpha virt. eigenvalues --    0.29307   0.29605   0.30680   0.31179   0.32562
 Alpha virt. eigenvalues --    0.33244   0.34150   0.34843   0.37713   0.39207
 Alpha virt. eigenvalues --    0.41014   0.42118   0.44257   0.50947   0.54683
 Alpha virt. eigenvalues --    0.57617   0.57884   0.58716   0.59598   0.61426
 Alpha virt. eigenvalues --    0.62532   0.62706   0.63741   0.64920   0.65673
 Alpha virt. eigenvalues --    0.66152   0.66572   0.67923   0.69488   0.70258
 Alpha virt. eigenvalues --    0.70424   0.72288   0.76783   0.77599   0.79020
 Alpha virt. eigenvalues --    0.81517   0.83603   0.84058   0.84537   0.85561
 Alpha virt. eigenvalues --    0.87157   0.88863   0.89718   0.91629   0.95487
 Alpha virt. eigenvalues --    0.95892   0.98752   0.99228   1.00154   1.01818
 Alpha virt. eigenvalues --    1.03097   1.04424   1.05428   1.06774   1.08842
 Alpha virt. eigenvalues --    1.09489   1.10075   1.11123   1.11743   1.12677
 Alpha virt. eigenvalues --    1.14599   1.14869   1.15764   1.16575   1.17128
 Alpha virt. eigenvalues --    1.18101   1.19815   1.20850   1.21837   1.22780
 Alpha virt. eigenvalues --    1.23416   1.24592   1.24762   1.26647   1.28126
 Alpha virt. eigenvalues --    1.30106   1.30709   1.32555   1.33481   1.33997
 Alpha virt. eigenvalues --    1.35421   1.36511   1.38961   1.41097   1.44756
 Alpha virt. eigenvalues --    1.47795   1.49059   1.49675   1.52993   1.53206
 Alpha virt. eigenvalues --    1.55265   1.58320   1.62587   1.67580   1.69984
 Alpha virt. eigenvalues --    1.71293   1.73991   1.74156   1.76604   1.78112
 Alpha virt. eigenvalues --    1.80039   1.80802   1.82915   1.83609   1.83792
 Alpha virt. eigenvalues --    1.84938   1.86849   1.87132   1.89815   1.90777
 Alpha virt. eigenvalues --    1.91416   1.95326   1.97534   1.97932   1.99095
 Alpha virt. eigenvalues --    1.99497   2.01898   2.02125   2.07614   2.08352
 Alpha virt. eigenvalues --    2.10584   2.11569   2.15002   2.15986   2.17844
 Alpha virt. eigenvalues --    2.21270   2.21581   2.22670   2.26345   2.29830
 Alpha virt. eigenvalues --    2.31501   2.32283   2.32710   2.35900   2.39091
 Alpha virt. eigenvalues --    2.40426   2.42093   2.43060   2.43832   2.45630
 Alpha virt. eigenvalues --    2.47264   2.48466   2.49398   2.50575   2.51749
 Alpha virt. eigenvalues --    2.52531   2.54648   2.56403   2.58457   2.59351
 Alpha virt. eigenvalues --    2.60291   2.62495   2.64452   2.65289   2.66220
 Alpha virt. eigenvalues --    2.68645   2.68882   2.70912   2.76709   2.77619
 Alpha virt. eigenvalues --    2.80236   2.81201   2.81397   2.83676   2.89096
 Alpha virt. eigenvalues --    2.91887   2.95914   3.01556   3.04114   3.08779
 Alpha virt. eigenvalues --    3.12191   3.14568   3.17045   3.21774   3.27777
 Alpha virt. eigenvalues --    3.29882   3.34742   3.37141   3.37851   3.42121
 Alpha virt. eigenvalues --    3.44520   3.48962   3.49153   3.55343   3.75202
 Alpha virt. eigenvalues --    4.11932   4.18357   4.20669   4.26587   4.28178
 Alpha virt. eigenvalues --    4.32303   4.37144   4.40355   4.44866   4.46168
 Alpha virt. eigenvalues --    4.52551   4.60155   4.73740   5.02407
          Condensed to atoms (all electrons):
               1          2          3          4          5          6
     1  C   11.102401   0.762489  -1.573531  -1.125372  -0.105875  -2.599601
     2  C    0.762489  13.257628  -2.251830  -3.067470  -0.831850  -0.481840
     3  C   -1.573531  -2.251830  12.538824  -0.194259  -1.055364  -1.049432
     4  C   -1.125372  -3.067470  -0.194259  13.773909   1.189960  -1.387831
     5  C   -0.105875  -0.831850  -1.055364   1.189960   8.484569  -0.337057
     6  C   -2.599601  -0.481840  -1.049432  -1.387831  -0.337057  10.478375
     7  O   -0.405033   0.105260   0.265352   0.050691  -0.021646  -0.020798
     8  C   -0.144086  -0.670803  -0.404494  -1.942717  -0.508671   0.795026
     9  C   -0.261887  -0.203888  -0.489345  -1.496267  -0.161221   0.630949
    10  C   -0.172664  -0.005996   0.102256  -0.386794  -1.083497   0.055207
    11  O    0.001302   0.000437   0.000974   0.006508   0.015099  -0.003469
    12  O   -0.007267  -0.000748   0.001017  -0.016633  -0.008205  -0.002430
    13  O    0.025541  -0.753084   0.447328   0.236712   0.035037  -0.044365
    14  C    0.016769   0.037197  -0.198113   0.056376  -0.038376   0.011029
    15  H    0.264226   0.042408   0.029090   0.018249  -0.007815  -0.004628
    16  H   -0.021031   0.035595  -0.135417   0.322223   0.004210   0.010930
    17  H   -0.005921  -0.027105   0.002718   0.054668   0.109989   0.208849
    18  H    0.141920   0.139656  -0.256146  -0.042769   0.003625   0.000412
    19  H    0.013614   0.004592   0.018395   0.174918   0.033488  -0.024403
    20  H    0.016181  -0.002728   0.003575   0.021237   0.086936  -0.023609
    21  H    0.000302   0.000037  -0.000035   0.001011  -0.000118   0.002343
    22  H   -0.000451  -0.000008   0.000354   0.004989   0.011247  -0.003980
    23  H    0.004156   0.059384   0.090319  -0.127103  -0.013784  -0.000010
    24  H   -0.004518  -0.026788  -0.119050   0.115565   0.017732   0.003613
    25  H   -0.003310  -0.032831  -0.122938   0.119964   0.026883   0.001958
               7          8          9         10         11         12
     1  C   -0.405033  -0.144086  -0.261887  -0.172664   0.001302  -0.007267
     2  C    0.105260  -0.670803  -0.203888  -0.005996   0.000437  -0.000748
     3  C    0.265352  -0.404494  -0.489345   0.102256   0.000974   0.001017
     4  C    0.050691  -1.942717  -1.496267  -0.386794   0.006508  -0.016633
     5  C   -0.021646  -0.508671  -0.161221  -1.083497   0.015099  -0.008205
     6  C   -0.020798   0.795026   0.630949   0.055207  -0.003469  -0.002430
     7  O    8.305352   0.008325   0.000560   0.000391   0.000000  -0.000000
     8  C    0.008325   9.433119  -1.921651   0.884420  -0.110980   0.084363
     9  C    0.000560  -1.921651  12.631038  -2.365566   0.270118  -0.133442
    10  C    0.000391   0.884420  -2.365566   7.991721  -0.042582   0.206661
    11  O    0.000000  -0.110980   0.270118  -0.042582   8.170777  -0.097062
    12  O   -0.000000   0.084363  -0.133442   0.206661  -0.097062   8.229248
    13  O   -0.016815  -0.018061  -0.002853  -0.000211   0.000001  -0.000006
    14  C    0.000535  -0.017072   0.001274  -0.001669  -0.000002  -0.000006
    15  H   -0.006016  -0.008226  -0.001314  -0.000198   0.000000  -0.000000
    16  H   -0.000526   0.075880   0.023010   0.001202   0.000000  -0.000088
    17  H   -0.000547  -0.026413  -0.020129   0.012921   0.000123   0.000031
    18  H    0.206742   0.000218   0.000121   0.000011   0.000000  -0.000000
    19  H   -0.000005   0.270655  -0.124086  -0.071757   0.000798  -0.005751
    20  H   -0.000003  -0.026788   0.336334  -0.089449  -0.010455   0.007863
    21  H   -0.000000   0.054825  -0.061431   0.018708   0.220095  -0.003024
    22  H   -0.000000  -0.001465   0.050723  -0.041539  -0.003533   0.213730
    23  H   -0.000077  -0.002311  -0.000067   0.000004   0.000000  -0.000000
    24  H   -0.000164   0.005111   0.000519   0.000027  -0.000000   0.000001
    25  H   -0.000146   0.003260   0.000482  -0.000083  -0.000000  -0.000001
              13         14         15         16         17         18
     1  C    0.025541   0.016769   0.264226  -0.021031  -0.005921   0.141920
     2  C   -0.753084   0.037197   0.042408   0.035595  -0.027105   0.139656
     3  C    0.447328  -0.198113   0.029090  -0.135417   0.002718  -0.256146
     4  C    0.236712   0.056376   0.018249   0.322223   0.054668  -0.042769
     5  C    0.035037  -0.038376  -0.007815   0.004210   0.109989   0.003625
     6  C   -0.044365   0.011029  -0.004628   0.010930   0.208849   0.000412
     7  O   -0.016815   0.000535  -0.006016  -0.000526  -0.000547   0.206742
     8  C   -0.018061  -0.017072  -0.008226   0.075880  -0.026413   0.000218
     9  C   -0.002853   0.001274  -0.001314   0.023010  -0.020129   0.000121
    10  C   -0.000211  -0.001669  -0.000198   0.001202   0.012921   0.000011
    11  O    0.000001  -0.000002   0.000000   0.000000   0.000123   0.000000
    12  O   -0.000006  -0.000006  -0.000000  -0.000088   0.000031  -0.000000
    13  O    8.611986   0.060852  -0.000453  -0.011247   0.000115   0.038735
    14  C    0.060852   4.958262   0.000153   0.000035   0.000131   0.003975
    15  H   -0.000453   0.000153   0.494265   0.000011  -0.004235  -0.000025
    16  H   -0.011247   0.000035   0.000011   0.541299  -0.000108  -0.000017
    17  H    0.000115   0.000131  -0.004235  -0.000108   0.545100   0.000004
    18  H    0.038735   0.003975  -0.000025  -0.000017   0.000004   0.347680
    19  H    0.000080   0.000825   0.000001   0.003114  -0.000023   0.000000
    20  H    0.000002   0.000034   0.000005  -0.000001   0.000514   0.000000
    21  H    0.000000   0.000000   0.000000   0.000000  -0.000000  -0.000000
    22  H   -0.000000   0.000005  -0.000000  -0.000000   0.000000   0.000000
    23  H   -0.060494   0.420663  -0.000000   0.000066  -0.000000  -0.000059
    24  H   -0.041293   0.408404   0.000000  -0.000678   0.000000   0.000031
    25  H   -0.041522   0.407165   0.000000  -0.000650   0.000000   0.000030
              19         20         21         22         23         24
     1  C    0.013614   0.016181   0.000302  -0.000451   0.004156  -0.004518
     2  C    0.004592  -0.002728   0.000037  -0.000008   0.059384  -0.026788
     3  C    0.018395   0.003575  -0.000035   0.000354   0.090319  -0.119050
     4  C    0.174918   0.021237   0.001011   0.004989  -0.127103   0.115565
     5  C    0.033488   0.086936  -0.000118   0.011247  -0.013784   0.017732
     6  C   -0.024403  -0.023609   0.002343  -0.003980  -0.000010   0.003613
     7  O   -0.000005  -0.000003  -0.000000  -0.000000  -0.000077  -0.000164
     8  C    0.270655  -0.026788   0.054825  -0.001465  -0.002311   0.005111
     9  C   -0.124086   0.336334  -0.061431   0.050723  -0.000067   0.000519
    10  C   -0.071757  -0.089449   0.018708  -0.041539   0.000004   0.000027
    11  O    0.000798  -0.010455   0.220095  -0.003533   0.000000  -0.000000
    12  O   -0.005751   0.007863  -0.003024   0.213730  -0.000000   0.000001
    13  O    0.000080   0.000002   0.000000  -0.000000  -0.060494  -0.041293
    14  C    0.000825   0.000034   0.000000   0.000005   0.420663   0.408404
    15  H    0.000001   0.000005   0.000000  -0.000000  -0.000000   0.000000
    16  H    0.003114  -0.000001   0.000000  -0.000000   0.000066  -0.000678
    17  H   -0.000023   0.000514  -0.000000   0.000000  -0.000000   0.000000
    18  H    0.000000   0.000000  -0.000000   0.000000  -0.000059   0.000031
    19  H    0.526670   0.003235   0.000010  -0.000030   0.000000  -0.000002
    20  H    0.003235   0.506365   0.000104  -0.000164   0.000000  -0.000000
    21  H    0.000010   0.000104   0.370037   0.002519   0.000000  -0.000000
    22  H   -0.000030  -0.000164   0.002519   0.370436  -0.000000   0.000000
    23  H    0.000000   0.000000   0.000000  -0.000000   0.492567  -0.023533
    24  H   -0.000002  -0.000000  -0.000000   0.000000  -0.023533   0.540048
    25  H   -0.000001   0.000000   0.000000  -0.000000  -0.023523  -0.040018
              25
     1  C   -0.003310
     2  C   -0.032831
     3  C   -0.122938
     4  C    0.119964
     5  C    0.026883
     6  C    0.001958
     7  O   -0.000146
     8  C    0.003260
     9  C    0.000482
    10  C   -0.000083
    11  O   -0.000000
    12  O   -0.000001
    13  O   -0.041522
    14  C    0.407165
    15  H    0.000000
    16  H   -0.000650
    17  H    0.000000
    18  H    0.000030
    19  H   -0.000001
    20  H    0.000000
    21  H    0.000000
    22  H   -0.000000
    23  H   -0.023523
    24  H   -0.040018
    25  H    0.540348
 Mulliken charges:
               1
     1  C    0.081646
     2  C   -0.087717
     3  C    0.349753
     4  C   -0.359763
     5  C    0.154703
     6  C   -0.215239
     7  O   -0.471431
     8  C    0.188538
     9  C   -0.701980
    10  C    0.988476
    11  O   -0.418149
    12  O   -0.468253
    13  O   -0.465986
    14  C   -0.128445
    15  H    0.184501
    16  H    0.152188
    17  H    0.149317
    18  H    0.415853
    19  H    0.175662
    20  H    0.170812
    21  H    0.394619
    22  H    0.397167
    23  H    0.183802
    24  H    0.164994
    25  H    0.164932
 Sum of Mulliken charges =   1.00000
 Mulliken charges with hydrogens summed into heavy atoms:
               1
     1  C    0.266147
     2  C   -0.087717
     3  C    0.349753
     4  C   -0.207576
     5  C    0.154703
     6  C   -0.065922
     7  O   -0.055578
     8  C    0.364200
     9  C   -0.531168
    10  C    0.988476
    11  O   -0.023530
    12  O   -0.071085
    13  O   -0.465986
    14  C    0.385283
 Electronic spatial extent (au):  <R**2>=           4164.2859
 Charge=              1.0000 electrons
 Dipole moment (field-independent basis, Debye):
    X=             -8.1502    Y=              3.6242    Z=              0.0682  Tot=              8.9200
 Quadrupole moment (field-independent basis, Debye-Ang):
   XX=              7.5925   YY=            -62.4022   ZZ=            -83.2176
   XY=             -2.2809   XZ=              0.3724   YZ=              1.3074
 Traceless Quadrupole moment (field-independent basis, Debye-Ang):
   XX=             53.6016   YY=            -16.3932   ZZ=            -37.2085
   XY=             -2.2809   XZ=              0.3724   YZ=              1.3074
 Octapole moment (field-independent basis, Debye-Ang**2):
  XXX=           -336.4453  YYY=             22.1968  ZZZ=             -0.0750  XYY=              2.7112
  XXY=             98.6909  XXZ=             -3.7408  XZZ=             -4.0797  YZZ=              5.4480
  YYZ=              1.7036  XYZ=             -5.0693
 Hexadecapole moment (field-independent basis, Debye-Ang**3):
 XXXX=          -1414.9010 YYYY=           -797.8584 ZZZZ=            -94.8573 XXXY=           -244.7696
 XXXZ=             36.0438 YYYX=             29.2917 YYYZ=              4.1619 ZZZX=              0.6953
 ZZZY=              0.0255 XXYY=           -688.4701 XXZZ=           -716.4235 YYZZ=           -177.1897
 XXYZ=             26.8085 YYXZ=             -6.8067 ZZXY=             -3.0819
 N-N= 8.384990710149D+02 E-N=-3.266650310072D+03  KE= 6.818204063010D+02
 Calling FoFJK, ICntrl=      2127 FMM=F ISym2X=0 I1Cent= 0 IOpClX= 0 NMat=1 NMatS=1 NMatT=0.
 ***** Axes restored to original set *****
 -------------------------------------------------------------------
 Center     Atomic                   Forces (Hartrees/Bohr)
 Number     Number              X              Y              Z
 -------------------------------------------------------------------
      1        6           0.000034035    0.004591827   -0.000065733
      2        6           0.000934765   -0.000478496    0.000007120
      3        6           0.001640283   -0.001188904    0.000006121
      4        6          -0.002544087   -0.004411339    0.000045006
      5        6          -0.001536528   -0.001693513    0.000014002
      6        6          -0.002707009    0.004226652   -0.000019107
      7        8           0.004656625    0.003817232   -0.000049145
      8        6           0.000828638   -0.002927045    0.000058036
      9        6           0.001066592    0.002567369    0.000037655
     10        6           0.000499370    0.000533435    0.000087976
     11        8          -0.005788532    0.006532155    0.001247586
     12        8           0.000947772   -0.007888333   -0.001397353
     13        8           0.003147761    0.002328927   -0.000004709
     14        6           0.000025196   -0.004334306    0.000034358
     15        1          -0.000036825    0.000367993   -0.000008999
     16        1          -0.000204087   -0.000012248    0.000004063
     17        1          -0.000165222    0.000083039   -0.000013123
     18        1           0.000782054   -0.001019659    0.000010291
     19        1           0.000099036    0.000026184   -0.000004281
     20        1           0.000080738    0.000411247   -0.000033424
     21        1          -0.000643886   -0.000694740   -0.000431138
     22        1          -0.000878086   -0.000001609    0.000459700
     23        1           0.000593689   -0.000193787    0.000002259
     24        1          -0.000420924   -0.000326627   -0.000443631
     25        1          -0.000411369   -0.000315454    0.000456471
 -------------------------------------------------------------------
 Cartesian Forces:  Max     0.007888333 RMS     0.002061830

 GradGradGradGradGradGradGradGradGradGradGradGradGradGradGradGradGradGrad
 Berny optimization.
 FormGI is forming the generalized inverse of G from B-inverse, IUseBI=4.
 GSVD:  received Info=                   1 from GESDD.
 Internal  Forces:  Max     0.008668617 RMS     0.002158548
 Search for a local minimum.
 Step number   1 out of a maximum of  119
 All quantities printed in internal units (Hartrees-Bohrs-Radians)
 Mixed Optimization -- RFO/linear search
 Second derivative matrix not updated -- first step.
 ITU=  0
     Eigenvalues ---    0.01240   0.01774   0.01830   0.01911   0.01931
     Eigenvalues ---    0.02017   0.02054   0.02063   0.02115   0.02145
     Eigenvalues ---    0.02208   0.02213   0.02231   0.02235   0.02252
     Eigenvalues ---    0.02284   0.02465   0.02622   0.02649   0.02698
     Eigenvalues ---    0.10156   0.10684   0.16000   0.16000   0.16000
     Eigenvalues ---    0.16000   0.16000   0.16000   0.16000   0.16000
     Eigenvalues ---    0.16000   0.16000   0.16000   0.22000   0.22000
     Eigenvalues ---    0.22369   0.23477   0.24604   0.24999   0.25000
     Eigenvalues ---    0.25000   0.25000   0.25000   0.25000   0.34262
     Eigenvalues ---    0.34264   0.34998   0.35056   0.35533   0.35572
     Eigenvalues ---    0.35595   0.35741   0.38889   0.40199   0.40395
     Eigenvalues ---    0.41881   0.43469   0.43790   0.47100   0.47213
     Eigenvalues ---    0.47735   0.49497   0.52463   0.53240   0.53301
     Eigenvalues ---    0.53920   0.59586   0.60070   0.60953
 RFO step:  Lambda=-1.06815630D-03 EMin= 1.23973185D-02
 Linear search not attempted -- first point.
 Iteration  1 RMS(Cart)=  0.01836370 RMS(Int)=  0.00003450
 Iteration  2 RMS(Cart)=  0.00006863 RMS(Int)=  0.00000076
 Iteration  3 RMS(Cart)=  0.00000000 RMS(Int)=  0.00000076
 Variable       Old X    -DE/DX   Delta X   Delta X   Delta X     New X
                                 (Linear)    (Quad)   (Total)
    R1        2.65453  -0.00582   0.00000  -0.01302  -0.01302   2.64151
    R2        2.60442  -0.00471   0.00000  -0.00942  -0.00942   2.59500
    R3        2.04818  -0.00035   0.00000  -0.00098  -0.00098   2.04720
    R4        2.69383  -0.00623   0.00000  -0.01509  -0.01509   2.67873
    R5        2.51269  -0.00605   0.00000  -0.01013  -0.01013   2.50256
    R6        2.60313  -0.00670   0.00000  -0.01358  -0.01357   2.58956
    R7        2.56105  -0.00403   0.00000  -0.00745  -0.00745   2.55359
    R8        2.69949  -0.00439   0.00000  -0.01055  -0.01055   2.68894
    R9        2.04756  -0.00006   0.00000  -0.00016  -0.00016   2.04740
   R10        2.68812  -0.00583   0.00000  -0.01364  -0.01364   2.67447
   R11        2.67095  -0.00405   0.00000  -0.00929  -0.00929   2.66166
   R12        2.04720  -0.00018   0.00000  -0.00050  -0.00050   2.04670
   R13        1.84159  -0.00129   0.00000  -0.00245  -0.00245   1.83914
   R14        2.62786  -0.00477   0.00000  -0.01007  -0.01007   2.61779
   R15        2.05584   0.00004   0.00000   0.00010   0.00010   2.05595
   R16        2.62223  -0.00594   0.00000  -0.01241  -0.01241   2.60982
   R17        2.04488  -0.00041   0.00000  -0.00115  -0.00115   2.04373
   R18        2.50194  -0.00867   0.00000  -0.01420  -0.01420   2.48774
   R19        2.50885  -0.00790   0.00000  -0.01313  -0.01313   2.49572
   R20        1.83430  -0.00097   0.00000  -0.00181  -0.00181   1.83249
   R21        1.83374  -0.00091   0.00000  -0.00170  -0.00170   1.83204
   R22        2.71019  -0.00517   0.00000  -0.01277  -0.01277   2.69743
   R23        2.05678  -0.00062   0.00000  -0.00178  -0.00178   2.05500
   R24        2.06888  -0.00067   0.00000  -0.00195  -0.00195   2.06693
   R25        2.06890  -0.00067   0.00000  -0.00194  -0.00194   2.06695
    A1        2.08871  -0.00057   0.00000  -0.00237  -0.00237   2.08634
    A2        2.06719   0.00016   0.00000   0.00042   0.00042   2.06760
    A3        2.12729   0.00041   0.00000   0.00195   0.00195   2.12924
    A4        2.10584   0.00082   0.00000   0.00296   0.00296   2.10880
    A5        2.08231   0.00072   0.00000   0.00300   0.00299   2.08530
    A6        2.09503  -0.00153   0.00000  -0.00595  -0.00595   2.08908
    A7        2.08658   0.00018   0.00000   0.00037   0.00037   2.08695
    A8        1.97334  -0.00048   0.00000  -0.00175  -0.00175   1.97159
    A9        2.22326   0.00030   0.00000   0.00138   0.00138   2.22464
   A10        2.10020  -0.00047   0.00000  -0.00210  -0.00210   2.09810
   A11        2.10441   0.00004   0.00000  -0.00020  -0.00020   2.10421
   A12        2.07857   0.00044   0.00000   0.00230   0.00230   2.08088
   A13        2.07665   0.00039   0.00000   0.00206   0.00205   2.07870
   A14        2.06393  -0.00024   0.00000  -0.00122  -0.00122   2.06271
   A15        2.14261  -0.00015   0.00000  -0.00084  -0.00084   2.14177
   A16        2.10838  -0.00034   0.00000  -0.00091  -0.00091   2.10748
   A17        2.07585   0.00012   0.00000   0.00013   0.00013   2.07599
   A18        2.09895   0.00022   0.00000   0.00077   0.00077   2.09972
   A19        1.91439   0.00004   0.00000   0.00023   0.00023   1.91461
   A20        2.22017   0.00018   0.00000   0.00083   0.00083   2.22099
   A21        2.02802   0.00001   0.00000   0.00020   0.00020   2.02822
   A22        2.03499  -0.00019   0.00000  -0.00102  -0.00102   2.03397
   A23        2.12361  -0.00247   0.00000  -0.01116  -0.01116   2.11246
   A24        2.14316   0.00132   0.00000   0.00610   0.00610   2.14927
   A25        2.01641   0.00115   0.00000   0.00505   0.00505   2.02146
   A26        2.06692   0.00080   0.00000   0.00319   0.00319   2.07011
   A27        2.11249   0.00031   0.00000   0.00122   0.00122   2.11372
   A28        2.10373  -0.00111   0.00000  -0.00440  -0.00440   2.09933
   A29        2.00719   0.00066   0.00000   0.00407   0.00407   2.01126
   A30        1.99865   0.00069   0.00000   0.00426   0.00426   2.00291
   A31        2.07369  -0.00098   0.00000  -0.00392  -0.00392   2.06977
   A32        1.84498   0.00007   0.00000   0.00033   0.00033   1.84531
   A33        1.92643  -0.00016   0.00000  -0.00094  -0.00094   1.92549
   A34        1.92633  -0.00015   0.00000  -0.00090  -0.00090   1.92543
   A35        1.91765  -0.00000   0.00000  -0.00013  -0.00013   1.91752
   A36        1.91758   0.00000   0.00000  -0.00008  -0.00008   1.91749
   A37        1.92919   0.00024   0.00000   0.00166   0.00166   1.93084
    D1       -0.00056   0.00000   0.00000   0.00010   0.00010  -0.00046
    D2       -3.14095   0.00000   0.00000   0.00015   0.00015  -3.14080
    D3        3.13893   0.00000   0.00000   0.00003   0.00003   3.13896
    D4       -0.00145   0.00000   0.00000   0.00008   0.00008  -0.00137
    D5       -0.00261  -0.00001   0.00000  -0.00038  -0.00038  -0.00299
    D6        3.13867   0.00000   0.00000   0.00011   0.00011   3.13877
    D7        3.14115  -0.00001   0.00000  -0.00031  -0.00031   3.14084
    D8       -0.00076   0.00000   0.00000   0.00018   0.00018  -0.00058
    D9        0.00160   0.00000   0.00000   0.00019   0.00019   0.00180
   D10       -3.14028   0.00000   0.00000   0.00018   0.00018  -3.14011
   D11       -3.14121   0.00000   0.00000   0.00015   0.00015  -3.14106
   D12        0.00009   0.00000   0.00000   0.00014   0.00014   0.00023
   D13        3.14065   0.00000   0.00000   0.00002   0.00002   3.14066
   D14        0.00026   0.00000   0.00000   0.00006   0.00006   0.00032
   D15        0.00054  -0.00000   0.00000  -0.00020  -0.00020   0.00034
   D16        3.14115   0.00000   0.00000   0.00004   0.00004   3.14119
   D17       -3.14071  -0.00000   0.00000  -0.00019  -0.00019  -3.14090
   D18       -0.00011   0.00000   0.00000   0.00006   0.00006  -0.00005
   D19        3.14111   0.00001   0.00000   0.00028   0.00028   3.14139
   D20       -0.00080   0.00001   0.00000   0.00027   0.00027  -0.00054
   D21       -0.00363  -0.00000   0.00000  -0.00007  -0.00007  -0.00370
   D22        3.14085   0.00001   0.00000   0.00036   0.00037   3.14122
   D23        3.13894  -0.00001   0.00000  -0.00031  -0.00031   3.13863
   D24        0.00023   0.00000   0.00000   0.00012   0.00012   0.00036
   D25        0.00470   0.00001   0.00000   0.00037   0.00037   0.00507
   D26       -3.13658  -0.00000   0.00000  -0.00012  -0.00012  -3.13670
   D27       -3.13992  -0.00000   0.00000  -0.00009  -0.00009  -3.14001
   D28        0.00199  -0.00001   0.00000  -0.00058  -0.00058   0.00141
   D29       -3.12954  -0.00000   0.00000  -0.00020  -0.00020  -3.12974
   D30        0.01263   0.00000   0.00000   0.00003   0.00003   0.01266
   D31        0.01506   0.00000   0.00000   0.00025   0.00025   0.01531
   D32       -3.12596   0.00001   0.00000   0.00048   0.00048  -3.12548
   D33       -3.11997   0.00002   0.00000   0.00071   0.00071  -3.11926
   D34        0.02243   0.00001   0.00000   0.00051   0.00051   0.02294
   D35        0.02105   0.00001   0.00000   0.00048   0.00048   0.02152
   D36       -3.11974   0.00001   0.00000   0.00028   0.00028  -3.11946
   D37       -3.05644  -0.00002   0.00000  -0.00088  -0.00088  -3.05732
   D38        0.09492  -0.00004   0.00000  -0.00193  -0.00193   0.09300
   D39        0.08440  -0.00002   0.00000  -0.00070  -0.00070   0.08370
   D40       -3.04742  -0.00004   0.00000  -0.00174  -0.00174  -3.04916
   D41       -2.89284  -0.00013   0.00000  -0.00456  -0.00456  -2.89740
   D42        0.23903  -0.00010   0.00000  -0.00349  -0.00349   0.23554
   D43       -2.84224  -0.00010   0.00000  -0.00375  -0.00375  -2.84599
   D44        0.30933  -0.00014   0.00000  -0.00486  -0.00486   0.30447
   D45       -3.14034  -0.00000   0.00000  -0.00032  -0.00032  -3.14066
   D46       -1.06754  -0.00005   0.00000  -0.00078  -0.00078  -1.06832
   D47        1.07020   0.00004   0.00000   0.00007   0.00007   1.07026
         Item               Value     Threshold  Converged?
 Maximum Force            0.008669     0.000450     NO 
 RMS     Force            0.002159     0.000300     NO 
 Maximum Displacement     0.072174     0.001800     NO 
 RMS     Displacement     0.018372     0.001200     NO 
 Predicted change in Energy=-5.354040D-04
 GradGradGradGradGradGradGradGradGradGradGradGradGradGradGradGradGradGrad

                          Input orientation:                          
 ---------------------------------------------------------------------
 Center     Atomic      Atomic             Coordinates (Angstroms)
 Number     Number       Type             X           Y           Z
 ---------------------------------------------------------------------
      1          6           0       -1.468144   -2.023680    0.023619
      2          6           0       -2.501897   -1.082859    0.011981
      3          6           0       -2.219720    0.306193   -0.004997
      4          6           0       -0.917130    0.731665   -0.012200
      5          6           0        0.145334   -0.214806   -0.003114
      6          6           0       -0.163285   -1.595857    0.017974
      7          8           0       -3.759845   -1.496733    0.018356
      8          6           0        1.467877    0.269602   -0.011500
      9          6           0        2.634491   -0.477364   -0.018061
     10          6           0        3.872195    0.135061    0.000402
     11          8           0        4.948566   -0.615650   -0.104064
     12          8           0        3.983606    1.444654    0.129790
     13          8           0       -3.334082    1.070498   -0.012633
     14          6           0       -3.188421    2.490363   -0.029546
     15          1           0       -1.727336   -3.075436    0.038972
     16          1           0       -0.683165    1.789456   -0.025538
     17          1           0        0.630099   -2.333038    0.029769
     18          1           0       -4.357856   -0.728955    0.009529
     19          1           0        1.583342    1.351419   -0.012186
     20          1           0        2.644192   -1.558632   -0.038123
     21          1           0        5.782578   -0.176597    0.123964
     22          1           0        4.847464    1.805491   -0.122057
     23          1           0       -4.199615    2.890423   -0.032036
     24          1           0       -2.657165    2.828404    0.864787
     25          1           0       -2.661103    2.807322   -0.933889
 ---------------------------------------------------------------------
                    Distance matrix (angstroms):
                    1          2          3          4          5
     1  C    0.000000
     2  C    1.397829   0.000000
     3  C    2.448264   1.417525   0.000000
     4  C    2.810129   2.409267   1.370335   0.000000
     5  C    2.424056   2.785961   2.421761   1.422926   0.000000
     6  C    1.373215   2.394224   2.801294   2.446743   1.415271
     7  O    2.351510   1.324298   2.371302   3.612163   4.110258
     8  C    3.725668   4.193902   3.687785   2.429354   1.408490
     9  C    4.384569   5.172042   4.917063   3.751773   2.503011
    10  C    5.760201   6.489416   6.094321   4.826358   3.743249
    11  O    6.570618   7.466000   7.227997   6.019143   4.820986
    12  O    6.462367   6.961606   6.308369   4.954365   4.183755
    13  O    3.613445   2.308698   1.351304   2.440587   3.709236
    14  C    4.831021   3.638812   2.389473   2.872644   4.293316
    15  H    1.083331   2.137998   3.417571   3.892694   3.419337
    16  H    3.893406   3.399910   2.135765   1.083439   2.168866
    17  H    2.120935   3.372339   3.884356   3.433378   2.173243
    18  H    3.166536   1.889401   2.375577   3.737978   4.532464
    19  H    4.550181   4.755573   3.944088   2.576132   2.126267
    20  H    4.139008   5.168279   5.209253   4.234282   2.837496
    21  H    7.482964   8.334649   8.017885   6.762364   5.638805
    22  H    7.387196   7.897698   7.225420   5.864786   5.119158
    23  H    5.622495   4.321013   3.255605   3.928784   5.340587
    24  H    5.065971   4.006166   2.703596   2.862367   4.227101
    25  H    5.067402   4.006685   2.704312   2.863443   4.227965
                    6          7          8          9         10
     6  C    0.000000
     7  O    3.597926   0.000000
     8  C    2.478205   5.518144   0.000000
     9  C    3.013284   6.475182   1.385276   0.000000
    10  C    4.391069   7.804557   2.408108   1.381056   0.000000
    11  O    5.206412   8.753726   3.592692   2.319798   1.316455
    12  O    5.143338   8.284034   2.780216   2.352897   1.320677
    13  O    4.142987   2.602481   4.868290   6.166018   7.266749
    14  C    5.084378   4.028120   5.158800   6.535583   7.443161
    15  H    2.153102   2.573679   4.626145   5.077279   6.454729
    16  H    3.425276   4.501880   2.633844   4.018130   4.846545
    17  H    1.083067   4.468910   2.734468   2.731923   4.074747
    18  H    4.283225   0.973230   5.910730   6.996927   8.275285
    19  H    3.426085   6.054961   1.087962   2.109360   2.592014
    20  H    2.808284   6.404586   2.174136   1.081497   2.092384
    21  H    6.113822   9.633885   4.339825   3.165609   1.939577
    22  H    6.057754   9.220096   3.713863   3.181114   1.938164
    23  H    6.034996   4.409430   6.244165   7.618871   8.529196
    24  H    5.148846   4.543034   4.932679   6.301520   7.115743
    25  H    5.151032   4.543005   4.933488   6.298510   7.120243
                   11         12         13         14         15
    11  O    0.000000
    12  O    2.287070   0.000000
    13  O    8.453030   7.328632   0.000000
    14  C    8.709961   7.249612   1.427417   0.000000
    15  H    7.116085   7.283840   4.446692   5.754787   0.000000
    16  H    6.124303   4.682069   2.746713   2.601460   4.976105
    17  H    4.649354   5.052423   5.224997   6.152220   2.471586
    18  H    9.307805   8.620849   2.070419   3.425363   3.525121
    19  H    3.899043   2.406266   4.925442   4.905835   5.528133
    20  H    2.490723   3.292712   6.530906   7.100268   4.627839
    21  H    0.969711   2.421732   9.202575   9.360291   8.050422
    22  H    2.423317   0.969474   8.215223   8.065547   8.190077
    23  H    9.797293   8.311531   2.015354   1.087460   6.458226
    24  H    8.405196   6.823110   2.078056   1.093772   6.033397
    25  H    8.385250   6.865890   2.078021   1.093784   6.035331
                   16         17         18         19         20
    16  H    0.000000
    17  H    4.326971   0.000000
    18  H    4.454995   5.239579   0.000000
    19  H    2.308486   3.806003   6.294940   0.000000
    20  H    4.720291   2.158908   7.051192   3.097495   0.000000
    21  H    6.759699   5.586336  10.156111   4.470676   3.433039
    22  H    5.531494   5.910722   9.548751   3.297384   4.022284
    23  H    3.684779   7.114388   3.623074   5.984273   8.162832
    24  H    2.401826   6.176071   4.034677   4.575201   6.940152
    25  H    2.402789   6.179317   4.034137   4.580885   6.928933
                   21         22         23         24         25
    21  H    0.000000
    22  H    2.205365   0.000000
    23  H   10.443903   9.112344   0.000000
    24  H    8.989332   7.638041   1.785299   0.000000
    25  H    9.017681   7.618485   1.785291   1.798804   0.000000
 Stoichiometry    C10H11O4(1+)
 Framework group  C1[X(C10H11O4)]
 Deg. of freedom    69
 Full point group                 C1      NOp   1
 Largest Abelian subgroup         C1      NOp   1
 Largest concise Abelian subgroup C1      NOp   1
                         Standard orientation:                         
 ---------------------------------------------------------------------
 Center     Atomic      Atomic             Coordinates (Angstroms)
 Number     Number       Type             X           Y           Z
 ---------------------------------------------------------------------
      1          6           0        1.467561   -2.023728   -0.023599
      2          6           0        2.501022   -1.082586   -0.011960
      3          6           0        2.218414    0.306378    0.005018
      4          6           0        0.915691    0.731445    0.012221
      5          6           0       -0.146479   -0.215356    0.003135
      6          6           0        0.162569   -1.596311   -0.017953
      7          8           0        3.759099   -1.496068   -0.018336
      8          6           0       -1.469173    0.268642    0.011521
      9          6           0       -2.635554   -0.478687    0.018081
     10          6           0       -3.873448    0.133353   -0.000381
     11          8           0       -4.949586   -0.617692    0.104084
     12          8           0       -3.985267    1.442912   -0.129769
     13          8           0        3.332538    1.071030    0.012654
     14          6           0        3.186435    2.490849    0.029567
     15          1           0        1.727080   -3.075403   -0.038951
     16          1           0        0.681397    1.789163    0.025558
     17          1           0       -0.630586   -2.333739   -0.029748
     18          1           0        4.356871   -0.728105   -0.009508
     19          1           0       -1.584974    1.350423    0.012207
     20          1           0       -2.644919   -1.559958    0.038144
     21          1           0       -5.783734   -0.178898   -0.123944
     22          1           0       -4.849236    1.803480    0.122078
     23          1           0        4.197505    2.891224    0.032057
     24          1           0        2.655074    2.828725   -0.864767
     25          1           0        2.659019    2.807644    0.933910
 ---------------------------------------------------------------------
 Rotational constants (GHZ):      1.5485113      0.2878696      0.2432455
 Standard basis: 6-31+G(d,p) (6D, 7F)
 There are   321 symmetry adapted cartesian basis functions of A   symmetry.
 There are   321 symmetry adapted basis functions of A   symmetry.
   321 basis functions,   525 primitive gaussians,   321 cartesian basis functions
    51 alpha electrons       51 beta electrons
       nuclear repulsion energy       842.4067801154 Hartrees.
 NAtoms=   25 NActive=   25 NUniq=   25 SFac= 1.00D+00 NAtFMM=   60 NAOKFM=F Big=F
 Integral buffers will be    131072 words long.
 Raffenetti 2 integral format.
 Two-electron integral symmetry is turned on.
 Nuclear repulsion after empirical dispersion term =      842.3860735456 Hartrees.
 One-electron integrals computed using PRISM.
 NBasis=   321 RedAO= T EigKep=  1.33D-06  NBF=   321
 NBsUse=   320 1.00D-06 EigRej=  6.32D-07 NBFU=   320
 Initial guess from the checkpoint file:  "camb3lypFAyang.chk"
 B after Tr=    -0.000000   -0.000000    0.000000
         Rot=    1.000000   -0.000039    0.000007   -0.000123 Ang=  -0.01 deg.
 ExpMin= 4.38D-02 ExpMax= 5.48D+03 ExpMxC= 8.25D+02 IAcc=2 IRadAn=         4 AccDes= 0.00D+00
 Harris functional with IExCor=20419 and IRadAn=       4 diagonalized for initial guess.
 HarFok:  IExCor=20419 AccDes= 0.00D+00 IRadAn=         4 IDoV= 1 UseB2=F ITyADJ=14
 ICtDFT=  3500011 ScaDFX=  1.000000  1.000000  1.000000  1.000000
 FoFCou: FMM=F IPFlag=           0 FMFlag=      100000 FMFlg1=           0
         NFxFlg=           0 DoJE=T BraDBF=F KetDBF=T FulRan=T
         wScrn=  0.000000 ICntrl=     500 IOpCl=  0 I1Cent=   200000004 NGrid=           0
         NMat0=    1 NMatS0=      1 NMatT0=    0 NMatD0=    1 NMtDS0=    0 NMtDT0=    0
 Petite list used in FoFCou.
 Requested convergence on RMS density matrix=1.00D-08 within 128 cycles.
 Requested convergence on MAX density matrix=1.00D-06.
 Requested convergence on             energy=1.00D-06.
 No special actions if energy rises.
 SCF Done:  E(RCAM-B3LYP) =  -688.061592930     A.U. after   12 cycles
            NFock= 12  Conv=0.85D-08     -V/T= 2.0088
 Calling FoFJK, ICntrl=      2127 FMM=F ISym2X=0 I1Cent= 0 IOpClX= 0 NMat=1 NMatS=1 NMatT=0.
 ***** Axes restored to original set *****
 -------------------------------------------------------------------
 Center     Atomic                   Forces (Hartrees/Bohr)
 Number     Number              X              Y              Z
 -------------------------------------------------------------------
      1        6          -0.000356705   -0.000640452    0.000010992
      2        6          -0.000893218   -0.001444020    0.000013864
      3        6          -0.000250158    0.000355724   -0.000009847
      4        6           0.000101650    0.000636718   -0.000008974
      5        6          -0.000281547   -0.000121542    0.000003436
      6        6           0.000702404    0.000215627   -0.000006274
      7        8           0.000040862    0.000261627   -0.000003025
      8        6           0.000378698    0.000058071    0.000033736
      9        6          -0.000983184   -0.000824889   -0.000019184
     10        6           0.002017631    0.000672375   -0.000060495
     11        8          -0.000400586    0.000994750    0.000437381
     12        8           0.000526676   -0.000649526   -0.000357675
     13        8           0.000288064    0.001569012   -0.000003322
     14        6          -0.000644159   -0.001707575    0.000010992
     15        1          -0.000041244   -0.000050505    0.000001468
     16        1           0.000124681   -0.000026817   -0.000001078
     17        1           0.000044855   -0.000041423    0.000001184
     18        1          -0.000210333   -0.000222816    0.000002224
     19        1           0.000002259   -0.000071583   -0.000015432
     20        1          -0.000017836    0.000067344   -0.000018431
     21        1           0.000087674   -0.000457630   -0.000262438
     22        1          -0.000286556    0.000251399    0.000262857
     23        1           0.000054228    0.000476969   -0.000006632
     24        1          -0.000003568    0.000350557    0.000039799
     25        1          -0.000000589    0.000348605   -0.000045127
 -------------------------------------------------------------------
 Cartesian Forces:  Max     0.002017631 RMS     0.000519020

 GradGradGradGradGradGradGradGradGradGradGradGradGradGradGradGradGradGrad
 Berny optimization.
 Using GEDIIS/GDIIS optimizer.
 FormGI is forming the generalized inverse of G from B-inverse, IUseBI=4.
 GSVD:  received Info=                   1 from GESDD.
 Internal  Forces:  Max     0.002106839 RMS     0.000430624
 Search for a local minimum.
 Step number   2 out of a maximum of  119
 All quantities printed in internal units (Hartrees-Bohrs-Radians)
 Mixed Optimization -- En-DIIS/RFO-DIIS
 Update second derivatives using D2CorX and points    1    2
 DE= -4.82D-04 DEPred=-5.35D-04 R= 9.00D-01
 TightC=F SS=  1.41D+00  RLast= 4.97D-02 DXNew= 5.0454D-01 1.4917D-01
 Trust test= 9.00D-01 RLast= 4.97D-02 DXMaxT set to 3.00D-01
 ITU=  1  0
 Use linear search instead of GDIIS.
     Eigenvalues ---    0.01240   0.01774   0.01830   0.01911   0.01931
     Eigenvalues ---    0.02017   0.02053   0.02063   0.02115   0.02144
     Eigenvalues ---    0.02208   0.02213   0.02231   0.02235   0.02252
     Eigenvalues ---    0.02284   0.02464   0.02622   0.02645   0.02694
     Eigenvalues ---    0.10162   0.10688   0.15686   0.16000   0.16000
     Eigenvalues ---    0.16000   0.16000   0.16000   0.16000   0.16000
     Eigenvalues ---    0.16000   0.16000   0.16044   0.21841   0.22189
     Eigenvalues ---    0.22379   0.23521   0.24626   0.24876   0.25000
     Eigenvalues ---    0.25000   0.25000   0.25000   0.25337   0.34263
     Eigenvalues ---    0.34278   0.35005   0.35055   0.35535   0.35572
     Eigenvalues ---    0.35596   0.35733   0.38644   0.39560   0.40431
     Eigenvalues ---    0.42408   0.43538   0.44624   0.46935   0.47245
     Eigenvalues ---    0.48611   0.52404   0.52807   0.53162   0.53278
     Eigenvalues ---    0.56090   0.58838   0.60030   0.60577
 RFO step:  Lambda=-4.09110578D-05 EMin= 1.23972488D-02
 Quartic linear search produced a step of -0.09374.
 Iteration  1 RMS(Cart)=  0.00389792 RMS(Int)=  0.00000516
 Iteration  2 RMS(Cart)=  0.00000496 RMS(Int)=  0.00000062
 Iteration  3 RMS(Cart)=  0.00000000 RMS(Int)=  0.00000062
 Variable       Old X    -DE/DX   Delta X   Delta X   Delta X     New X
                                 (Linear)    (Quad)   (Total)
    R1        2.64151   0.00064   0.00122  -0.00042   0.00080   2.64232
    R2        2.59500   0.00110   0.00088   0.00071   0.00160   2.59660
    R3        2.04720   0.00006   0.00009   0.00002   0.00011   2.04731
    R4        2.67873   0.00173   0.00141   0.00182   0.00324   2.68197
    R5        2.50256   0.00015   0.00095  -0.00113  -0.00018   2.50238
    R6        2.58956   0.00104   0.00127   0.00013   0.00140   2.59096
    R7        2.55359   0.00084   0.00070   0.00041   0.00111   2.55471
    R8        2.68894   0.00079   0.00099   0.00029   0.00128   2.69022
    R9        2.04740   0.00000   0.00001  -0.00002  -0.00001   2.04740
   R10        2.67447   0.00030   0.00128  -0.00126   0.00002   2.67450
   R11        2.66166   0.00126   0.00087   0.00139   0.00226   2.66392
   R12        2.04670   0.00006   0.00005   0.00009   0.00014   2.04684
   R13        1.83914  -0.00005   0.00023  -0.00041  -0.00018   1.83896
   R14        2.61779   0.00076   0.00094   0.00011   0.00105   2.61885
   R15        2.05595  -0.00007  -0.00001  -0.00017  -0.00018   2.05577
   R16        2.60982   0.00211   0.00116   0.00234   0.00350   2.61332
   R17        2.04373  -0.00007   0.00011  -0.00033  -0.00022   2.04351
   R18        2.48774  -0.00058   0.00133  -0.00275  -0.00142   2.48632
   R19        2.49572  -0.00038   0.00123  -0.00233  -0.00110   2.49462
   R20        1.83249  -0.00019   0.00017  -0.00057  -0.00040   1.83209
   R21        1.83204  -0.00023   0.00016  -0.00062  -0.00046   1.83158
   R22        2.69743  -0.00059   0.00120  -0.00305  -0.00185   2.69557
   R23        2.05500   0.00013   0.00017   0.00009   0.00025   2.05525
   R24        2.06693   0.00014   0.00018   0.00010   0.00029   2.06722
   R25        2.06695   0.00014   0.00018   0.00010   0.00028   2.06724
    A1        2.08634   0.00014   0.00022   0.00018   0.00040   2.08674
    A2        2.06760  -0.00009  -0.00004  -0.00035  -0.00039   2.06721
    A3        2.12924  -0.00004  -0.00018   0.00017  -0.00001   2.12923
    A4        2.10880  -0.00035  -0.00028  -0.00070  -0.00097   2.10783
    A5        2.08530   0.00000  -0.00028   0.00033   0.00005   2.08535
    A6        2.08908   0.00035   0.00056   0.00036   0.00092   2.09000
    A7        2.08695  -0.00012  -0.00003  -0.00020  -0.00023   2.08672
    A8        1.97159   0.00031   0.00016   0.00081   0.00098   1.97257
    A9        2.22464  -0.00020  -0.00013  -0.00062  -0.00074   2.22390
   A10        2.09810   0.00020   0.00020   0.00052   0.00071   2.09881
   A11        2.10421   0.00003   0.00002   0.00031   0.00032   2.10453
   A12        2.08088  -0.00023  -0.00022  -0.00082  -0.00104   2.07984
   A13        2.07870  -0.00015  -0.00019  -0.00052  -0.00071   2.07799
   A14        2.06271   0.00016   0.00011   0.00055   0.00067   2.06338
   A15        2.14177  -0.00001   0.00008  -0.00004   0.00004   2.14181
   A16        2.10748   0.00027   0.00009   0.00071   0.00080   2.10827
   A17        2.07599  -0.00014  -0.00001  -0.00039  -0.00041   2.07558
   A18        2.09972  -0.00014  -0.00007  -0.00032  -0.00039   2.09933
   A19        1.91461   0.00056  -0.00002   0.00319   0.00317   1.91778
   A20        2.22099   0.00061  -0.00008   0.00261   0.00254   2.22353
   A21        2.02822  -0.00029  -0.00002  -0.00117  -0.00119   2.02703
   A22        2.03397  -0.00031   0.00010  -0.00145  -0.00135   2.03262
   A23        2.11246   0.00036   0.00105  -0.00003   0.00101   2.11347
   A24        2.14927  -0.00020  -0.00057  -0.00001  -0.00058   2.14869
   A25        2.02146  -0.00016  -0.00047   0.00004  -0.00043   2.02103
   A26        2.07011  -0.00011  -0.00030   0.00002  -0.00028   2.06983
   A27        2.11372   0.00008  -0.00011   0.00044   0.00032   2.11404
   A28        2.09933   0.00004   0.00041  -0.00046  -0.00005   2.09928
   A29        2.01126   0.00088  -0.00038   0.00554   0.00516   2.01642
   A30        2.00291   0.00070  -0.00040   0.00458   0.00418   2.00709
   A31        2.06977   0.00121   0.00037   0.00386   0.00422   2.07400
   A32        1.84531   0.00055  -0.00003   0.00314   0.00310   1.84841
   A33        1.92549   0.00031   0.00009   0.00163   0.00171   1.92720
   A34        1.92543   0.00031   0.00008   0.00163   0.00171   1.92714
   A35        1.91752  -0.00041   0.00001  -0.00237  -0.00236   1.91516
   A36        1.91749  -0.00041   0.00001  -0.00235  -0.00235   1.91514
   A37        1.93084  -0.00031  -0.00016  -0.00152  -0.00167   1.92917
    D1       -0.00046  -0.00000  -0.00001   0.00001  -0.00000  -0.00047
    D2       -3.14080  -0.00000  -0.00001   0.00001  -0.00000  -3.14080
    D3        3.13896  -0.00000  -0.00000  -0.00001  -0.00001   3.13895
    D4       -0.00137  -0.00000  -0.00001  -0.00000  -0.00001  -0.00138
    D5       -0.00299   0.00000   0.00004   0.00002   0.00006  -0.00294
    D6        3.13877  -0.00000  -0.00001  -0.00002  -0.00003   3.13874
    D7        3.14084   0.00000   0.00003   0.00003   0.00006   3.14091
    D8       -0.00058  -0.00000  -0.00002  -0.00001  -0.00002  -0.00060
    D9        0.00180  -0.00000  -0.00002   0.00000  -0.00002   0.00178
   D10       -3.14011  -0.00000  -0.00002  -0.00001  -0.00002  -3.14013
   D11       -3.14106  -0.00000  -0.00001  -0.00000  -0.00002  -3.14107
   D12        0.00023  -0.00000  -0.00001  -0.00001  -0.00002   0.00020
   D13        3.14066   0.00000  -0.00000   0.00001   0.00001   3.14068
   D14        0.00032   0.00000  -0.00001   0.00002   0.00001   0.00033
   D15        0.00034   0.00000   0.00002  -0.00004  -0.00002   0.00032
   D16        3.14119   0.00000  -0.00000   0.00002   0.00002   3.14121
   D17       -3.14090  -0.00000   0.00002  -0.00003  -0.00001  -3.14091
   D18       -0.00005   0.00000  -0.00001   0.00003   0.00003  -0.00002
   D19        3.14139   0.00001  -0.00003   0.00035   0.00032  -3.14147
   D20       -0.00054   0.00001  -0.00002   0.00034   0.00032  -0.00022
   D21       -0.00370   0.00000   0.00001   0.00007   0.00007  -0.00362
   D22        3.14122   0.00000  -0.00003   0.00020   0.00016   3.14138
   D23        3.13863   0.00000   0.00003   0.00001   0.00003   3.13866
   D24        0.00036   0.00000  -0.00001   0.00013   0.00012   0.00048
   D25        0.00507  -0.00000  -0.00003  -0.00006  -0.00009   0.00497
   D26       -3.13670   0.00000   0.00001  -0.00002  -0.00000  -3.13671
[...]
 5926,-0.00001030,0.00000165,-0.00012460,-0.00000102,0.00014675,0.00074
 441,-0.00009502,0.00109024,-0.00071000,0.00002369,-0.15457888,0.202160
 13,0.00015393,-0.00009128,0.00611643,0.00003567,0.00014066,0.00906969,
 -0.00000564,-0.00001816,-0.00131653,0.00010240,0.00011653,0.00490076,-
 0.00048437,0.00020000,0.00224875,-0.00241095,0.00261593,-0.03896212,0.
 00001839,-0.00001162,-0.00028843,0.00007867,-0.00010178,-0.00304480,0.
 00004959,0.00014274,0.00015334,-0.00005644,-0.00004465,-0.00032090,0.0
 0003768,-0.00000723,-0.00011279,-0.00001902,0.00002864,0.00017075,0.00
 000523,-0.00001526,-0.00036164,0.00000029,0.00000491,-0.00013651,-0.00
 000001,-0.00008294,-0.00497106,-0.00001192,0.00003162,0.00123307,0.002
 42383,-0.00288192,0.02484967,-0.00231366,-0.00504779,0.00007919,-0.040
 61803,0.03409202,-0.00040917,-0.00091164,0.00201150,-0.00001162,-0.002
 15668,0.00130671,-0.00001238,0.00260880,0.00087200,-0.00000768,-0.0015
 7447,0.00069413,-0.00001380,-0.20169333,0.18724556,-0.00219058,-0.0026
 2538,-0.00013709,0.00001681,0.00226565,0.00003780,0.00001571,-0.002284
 21,-0.00114488,-0.00001971,0.00125573,-0.00040666,-0.00011561,0.000401
 86,0.00103187,0.00013490,-0.00059090,0.00215771,-0.00003250,0.00119900
 ,-0.00143196,0.00001971,0.00010018,-0.00000473,0.00000131,0.00034106,0
 .00007629,-0.00000091,-0.00029198,-0.00017588,0.00000115,0.24710353,-0
 .00777260,0.00050195,0.00005668,-0.00184437,0.01527498,-0.00020738,-0.
 01305066,0.00070057,-0.00000404,0.00442533,-0.00060102,-0.00001241,-0.
 00390281,-0.00166235,0.00002847,0.00285717,0.00231646,-0.00001801,0.23
 429118,-0.33293841,0.00382111,0.00341979,-0.00010286,-0.00001211,-0.00
 237000,0.00003366,-0.00001989,0.00217295,0.00127614,0.00002533,-0.0011
 1480,0.00034633,0.00011135,-0.00034743,-0.00108273,-0.00012894,0.00302
 008,0.00091520,-0.00004524,0.00214501,-0.00327593,0.00003565,-0.000042
 46,0.00002146,-0.00001072,-0.00030130,-0.00004126,0.00000446,-0.000199
 72,-0.00007430,-0.00000468,-0.22199587,0.31667235,0.00008221,0.0000523
 9,0.00437811,0.00007867,-0.00025670,-0.00254408,0.00014739,-0.00000531
 ,0.00017355,-0.00004685,-0.00000372,-0.00069371,0.00003640,0.00001659,
 0.00004959,-0.00002343,0.00000484,0.00164544,-0.00278109,0.00386063,-0
 .01263151,-0.00003461,-0.00000563,-0.00008240,0.00003170,0.00000955,-0
 .00007024,-0.00003174,-0.00001336,-0.00001451,0.00001763,-0.00000450,-
 0.00001704,0.00000112,0.00001761,0.00000398,-0.00003666,-0.00003558,-0
 .00191821,-0.00002490,0.00002547,-0.00111562,0.00000087,-0.00001136,-0
 .00053840,0.00000516,0.00000714,0.00040272,0.00000137,-0.00000664,-0.0
 0050632,0.00258623,-0.00362456,0.01313650,0.00020164,-0.00144790,0.000
 04132,0.00018423,-0.00034494,-0.00001650,0.00000839,0.00060020,0.00000
 226,0.00054576,-0.00222000,0.00001733,-0.00045637,-0.02968238,0.000035
 84,-0.00540905,-0.00000993,-0.00004639,0.00005715,0.00019011,0.0000071
 5,-0.06352037,-0.02894587,0.00007193,0.00534738,0.02874906,0.00021137,
 0.00061560,0.00399558,0.00012332,0.00045176,-0.00067208,-0.00006734,-0
 .00233757,-0.00178403,-0.00055300,0.00010359,0.00004026,-0.00000207,-0
 .00002682,-0.00007511,0.00000177,-0.00036553,-0.00004388,0.00000726,-0
 .00089291,0.00091847,-0.00001064,0.00010531,0.00002230,-0.00000081,-0.
 00005139,-0.00003942,-0.00000098,0.06948035,0.00046673,-0.00055874,0.0
 0003088,-0.00017902,-0.00004801,0.00000068,0.00010491,0.00050469,0.000
 00909,0.00181475,0.00142267,0.00005146,0.00039068,-0.00811780,-0.00005
 788,-0.00156072,0.00065746,-0.00010142,0.00021166,0.00006711,-0.000005
 87,-0.02841871,-0.33931689,0.00016626,-0.00187265,-0.01461848,-0.00017
 564,-0.00031649,-0.00153854,-0.00016588,0.00008970,0.00019639,0.000024
 03,-0.00195972,0.00077531,0.00006780,0.00006191,-0.00010884,-0.0000054
 9,-0.00000623,0.00004394,0.00000028,-0.00013438,0.00000097,0.00000803,
 -0.00028719,0.00068276,-0.00001783,0.00009025,0.00007368,-0.00000243,-
 0.00003426,0.00002743,-0.00000028,0.02977641,0.35893387,0.00011573,-0.
 00005312,-0.00100681,-0.00010301,0.00000960,0.00048441,0.00001793,0.00
 008062,0.00016269,-0.00009351,-0.00001253,-0.00361375,0.00038906,0.000
 36053,0.00863141,-0.00004324,-0.00000951,0.00623042,0.00009994,0.00001
 294,-0.00012390,-0.00055337,0.00009726,-0.05014264,0.00080930,-0.00009
 030,0.00832072,-0.00023528,-0.00041378,-0.00492109,0.00038237,0.000081
 72,0.00007584,-0.00074536,0.00033621,0.00063011,0.00001307,-0.00003128
 ,0.00019893,0.00000157,0.00001821,0.00004601,0.00000040,-0.00000852,-0
 .00066097,-0.00000643,-0.00000228,0.00025530,-0.00000506,-0.00000796,-
 0.00004732,-0.00001059,0.00001375,0.00006603,-0.00010716,0.00009657,0.
 02841749,0.00010911,-0.00040468,0.00003698,0.00013364,0.00040525,0.000
 00136,-0.00043405,-0.00055104,0.00000366,0.00063800,-0.00021387,-0.000
 01611,-0.00007512,-0.00156166,0.00003077,-0.00083779,0.00135470,-0.000
 05707,-0.00012707,-0.00012786,-0.00000218,0.00776038,0.02845676,0.0004
 5708,-0.05913418,0.00472921,-0.00004054,0.00378257,-0.03036625,-0.0008
 2305,0.00010993,0.00023981,0.00002599,-0.00616316,-0.00250338,0.000638
 02,0.00017896,-0.00015177,0.00000265,0.00001974,0.00010971,-0.00000153
 ,-0.00003937,-0.00000674,-0.00000219,0.00015485,-0.00013658,0.00000059
 ,-0.00218969,-0.00139312,0.00009098,0.00001521,-0.00002042,-0.00000111
 ,-0.00413746,0.00192554,-0.00004054,0.05993256,-0.00019135,0.00033626,
 0.00001739,0.00011511,-0.00002480,0.00000731,-0.00001268,-0.00015763,0
 .00000760,0.00024689,-0.00016115,-0.00000049,-0.00146109,-0.00053648,0
 .00011691,-0.00048792,0.00009123,0.00000591,-0.00022316,-0.00001067,-0
 .00000411,0.00149086,-0.01054852,-0.00020863,-0.00266276,-0.35633451,-
 0.00617729,0.00210426,-0.01180577,-0.00043906,0.00161432,0.00072533,0.
 00014991,-0.00163679,0.00090409,0.00043127,-0.00002661,0.00008694,-0.0
 0000215,-0.00000488,-0.00004729,0.00000019,-0.00000309,0.00000230,-0.0
 0000061,-0.00001320,0.00006574,-0.00000297,-0.00158393,0.00067518,0.00
 001043,0.00001577,-0.00002815,-0.00000210,0.00144635,0.00047454,-0.000
 14835,0.00120082,0.37621378,0.00002029,0.00000372,-0.00022807,-0.00008
 007,-0.00007036,-0.00032926,0.00006327,0.00010961,0.00005313,-0.000148
 53,0.00004825,-0.00015297,0.00027784,0.00014515,-0.00374506,-0.0000065
 0,-0.00016400,-0.00048022,0.00007123,0.00002051,0.00012857,-0.00062725
 ,-0.00000241,0.00279129,0.00069405,-0.00608657,-0.03252497,-0.00063078
 ,-0.00092661,0.00003123,0.00044264,0.00001099,-0.00226999,-0.00036389,
 0.00065784,0.00430682,0.00000825,-0.00002680,0.00004021,-0.00000004,0.
 00001015,0.00001894,0.00000215,0.00000169,0.00013133,-0.00000296,0.000
 00125,0.00010165,0.00009171,0.00008579,0.00122774,-0.00000917,0.000010
 29,0.00004782,0.00007066,0.00012005,0.00698526,0.00024432,0.00661212,0
 .02306065,0.00110708,-0.00047546,0.00001270,-0.00163716,-0.00055080,0.
 00000368,0.00013567,0.00156144,0.00000086,-0.00126859,0.00043504,-0.00
 007572,0.00280059,0.00162953,-0.00007528,-0.00076383,-0.00138246,0.000
 05226,0.00161419,0.00028114,-0.00000557,-0.00549440,0.00001765,0.00050
 699,0.00525907,0.00437749,-0.00022833,-0.04006865,-0.02059795,-0.00557
 705,-0.38329406,-0.16868119,-0.07426560,0.00646879,-0.00323190,0.00052
 559,0.00050264,-0.00074006,0.00001677,0.00001304,0.00037520,-0.0000074
 9,0.00001886,-0.00000596,-0.00000042,-0.00004278,-0.00002024,-0.000002
 69,-0.00004623,-0.00003661,-0.00001023,-0.00021934,0.00018298,-0.00000
 324,-0.00013231,0.00005658,-0.00005973,0.00031404,-0.00000245,-0.00014
 346,0.41378829,0.00024926,-0.00010836,0.00001656,-0.00032449,-0.000102
 38,0.00000133,0.00004607,0.00032425,-0.00002749,-0.00027647,0.00014695
 ,0.00006601,0.00077930,0.00016056,0.00025933,-0.00020664,-0.00037546,-
 0.00005652,0.00031431,0.00004368,0.00000002,-0.00063501,0.00106611,-0.
 00052394,0.00352536,-0.00240988,-0.00097771,0.02949521,0.01215678,0.00
 646780,-0.21771611,-0.14697255,-0.05201769,-0.00076387,-0.00018297,-0.
 00068453,0.00009374,-0.00017974,-0.00000703,0.00001441,0.00010648,-0.0
 0000097,0.00000067,0.00000057,-0.00000492,0.00001272,-0.00001603,0.000
 00407,0.00000002,0.00002004,-0.00000133,-0.00003590,0.00004929,-0.0000
 0147,0.00002927,0.00000705,-0.00009846,0.00016616,0.00026890,0.0000354
 9,0.18362599,0.13911550,-0.00026750,0.00012379,-0.00008456,0.00038363,
 0.00012764,0.00004263,-0.00008210,-0.00038557,0.00001625,0.00036534,-0
 .00012134,-0.00037484,-0.00078990,-0.00043491,-0.00059690,0.00023062,0
 .00040468,0.00030719,-0.00036725,-0.00006095,-0.00001867,0.00197566,-0
 .00025485,0.00265934,-0.00090246,-0.00086674,0.00325349,0.00812213,0.0
 0199107,-0.00405582,-0.08812812,-0.04742054,-0.02194083,0.00012748,-0.
 00064829,-0.00367715,-0.00009031,0.00017317,0.00003891,-0.00000493,-0.
 00008608,0.00002415,-0.00000228,0.00000120,0.00001299,-0.00000094,0.00
 001073,-0.00001240,0.00000492,-0.00001317,-0.00002907,0.00004543,-0.00
 004825,0.00000937,-0.00004169,-0.00000544,0.00015097,-0.00003005,-0.00
 006137,-0.00097919,0.07987139,0.04641886,0.02291951,0.00080696,-0.0003
 6967,0.00004961,-0.00121024,-0.00044823,0.00001287,0.00012363,0.001182
 41,-0.00002703,-0.00092464,0.00037180,0.00003041,0.00226129,0.00085478
 ,-0.00015841,-0.00065036,-0.00107166,-0.00011529,0.00120597,0.00021382
 ,-0.00000519,-0.00388648,0.00109812,0.00015445,0.00693545,0.00098402,0
 .00128759,-0.00479171,-0.00191764,-0.00181435,0.00044040,0.00439559,0.
 00017372,-0.43163844,-0.17308742,0.09817706,0.00037817,-0.00055360,0.0
 0000003,0.00000967,0.00028341,0.00000230,0.00000956,-0.00000305,0.0000
 0464,-0.00002632,-0.00002252,0.00000821,-0.00003542,-0.00001156,0.0000
 0239,-0.00016342,0.00013790,0.00000013,0.00023532,-0.00022382,0.000176
 35,0.00000673,0.00007312,0.00002627,0.00098866,0.00161237,-0.00042579,
 0.42995846,0.00070683,-0.00025148,0.00002804,-0.00106645,-0.00032150,0
 .00001334,0.00001654,0.00098232,-0.00000326,-0.00069982,0.00035261,-0.
 00005180,0.00156678,0.00101218,0.00027460,-0.00038676,-0.00087446,-0.0
 0006969,0.00103476,0.00016113,-0.00000995,-0.00172853,0.00055894,0.000
 13988,0.00613555,-0.00486196,-0.00055672,-0.04995728,-0.02369360,0.009
 19609,0.00194506,0.00561307,-0.00088039,-0.12592794,-0.09495714,0.0265
 2488,0.00038886,-0.00060250,0.00000835,0.00003080,0.00033737,-0.000004
 83,0.00001629,-0.00000104,-0.00000389,-0.00003543,0.00000545,-0.000007
 92,-0.00003904,0.00000256,-0.00002636,-0.00013979,0.00013375,-0.000006
 82,-0.00054142,0.00044444,-0.00022640,-0.00113901,-0.00020116,-0.00059
 136,0.00327690,-0.00309595,0.00113321,0.16657402,0.11931994,0.00026331
 ,-0.00013826,-0.00016312,-0.00039763,-0.00018058,-0.00000197,0.0000646
 7,0.00044286,-0.00000423,-0.00037152,0.00013319,-0.00007427,0.00085808
 ,0.00030437,0.00010812,-0.00023282,-0.00043435,0.00022592,0.00040817,0
 .00007608,-0.00000173,-0.00168185,0.00067197,-0.00086120,0.00266726,-0
 .00197019,0.00263504,-0.00779053,-0.00612503,-0.00383569,0.00025002,-0
 .00049714,-0.00348909,0.10427696,0.04186805,-0.02596162,0.00011211,-0.
 00018373,-0.00001498,0.00000533,0.00009399,0.00003547,0.00000167,-0.00
 000078,0.00000677,-0.00000102,-0.00001032,0.00004136,-0.00001120,0.000
 02344,0.00012306,-0.00005336,0.00004896,0.00002369,0.00025629,-0.00003
 632,-0.00009478,-0.00051812,-0.00031196,0.00179459,-0.00053720,0.00113
 225,0.00233884,-0.09755844,-0.03488198,0.02718117,-0.00021162,-0.00002
 166,0.00000410,0.00032759,-0.00032001,0.00000133,0.00127627,-0.0019308
 0,0.00002590,-0.00030614,-0.00041616,0.00000235,0.00012641,0.00005232,
 0.00000175,0.00002881,0.00016837,-0.00000709,0.00002291,0.00013332,-0.
 00000169,0.00017106,-0.00005047,-0.00000084,-0.00015312,0.00000875,0.0
 0000188,0.00018659,0.00007934,0.00000046,-0.00010123,0.00002949,0.0000
 0850,-0.00004053,-0.00007720,-0.00001099,0.00845501,-0.00336387,0.0000
 3382,-0.30897966,0.09920785,-0.00093360,0.00001690,-0.00001647,0.00000
 003,0.00021021,0.00032694,-0.00000445,0.00000654,0.00002107,-0.0000001
 9,-0.00002974,-0.00008593,0.00000122,0.00002483,0.00000213,0.00000083,
 -0.00000039,-0.00000030,0.00000006,0.00001960,0.00000233,-0.00000304,0
 .00001472,0.00001484,0.00000404,0.32077409,-0.00050933,-0.00038703,0.0
 0000919,0.00211011,-0.00077877,0.00000872,-0.00261954,-0.00494008,0.00
 008309,-0.00112255,-0.00049115,0.00001080,0.00058521,0.00026336,-0.000
 00165,0.00002463,0.00010854,-0.00000730,-0.00034903,0.00016411,-0.0000
 0328,-0.00025584,-0.00012565,0.00000135,0.00026803,0.00003023,0.000005
 15,-0.00023905,-0.00015875,-0.00000537,0.00012942,-0.00003776,-0.00001
 201,0.00004253,0.00013875,0.00001513,0.03689370,-0.02896000,0.00032627
 ,0.08308851,-0.07738346,0.00021199,0.00012100,-0.00008229,0.00000070,0
 .00021322,0.00051142,-0.00001295,0.00001964,0.00003348,-0.00000079,0.0
 0021290,-0.00025215,0.00000535,0.00002749,-0.00000194,-0.00000106,-0.0
 0000755,0.00000437,-0.00000113,-0.00001912,-0.00000648,0.00000537,-0.0
 0001448,-0.00001536,-0.00000519,-0.10178166,0.10152352,0.00000727,0.00
 000469,-0.00003038,-0.00002765,0.00001717,0.00029135,0.00003424,0.0000
 7412,0.00056862,0.00001587,0.00000817,0.00019734,-0.00000829,-0.000000
 84,0.00014960,-0.00000061,-0.00000312,-0.00002976,0.00000376,-0.000005
 08,-0.00013305,0.00000241,0.00000233,0.00002258,-0.00000307,-0.0000015
 9,0.00000462,0.00000194,0.00000268,-0.00000720,-0.00000157,0.00000115,
 -0.00000115,0.00000080,-0.00000223,0.00000238,-0.00050525,0.00039765,0
 .00008060,-0.00071829,0.00018281,-0.05235078,-0.00000154,0.00000070,-0
 .00002561,-0.00000256,-0.00001357,-0.00044906,-0.00000042,-0.00000078,
 -0.00001622,-0.00000227,0.00000555,0.00020142,0.00000002,-0.00000035,-
 0.00000844,0.00000016,-0.00000001,-0.00000130,0.00000028,-0.00000015,0
 .00000222,-0.00000036,0.00000065,0.00000011,0.00094426,-0.00056746,0.0
 4736617,0.00021946,0.00003159,-0.00002262,0.00036193,0.00021055,-0.000
 25965,0.00074180,0.00081646,0.00125409,0.00010949,-0.00081160,0.000229
 44,-0.00008934,0.00025226,-0.00039700,0.00004948,-0.00034463,-0.000036
 72,-0.00027516,-0.00011161,0.00010918,-0.00019264,0.00003108,0.0000089
 1,0.00025302,0.00000054,0.00000780,-0.00030236,-0.00013294,0.00000315,
 0.00017060,-0.00004933,-0.00001488,0.00006765,0.00013293,0.00001931,0.
 00030784,-0.00538492,-0.00032190,-0.11676734,-0.03538770,-0.10735842,0
 .00001622,-0.00001266,0.00000879,-0.00059713,0.00077151,0.00094416,0.0
 0000048,-0.00000323,0.00004314,0.00011653,0.00021647,-0.00013806,-0.00
 001621,0.00000163,-0.00000079,-0.00000875,0.00000132,-0.00000135,-0.00
 003178,-0.00000419,0.00000295,-0.00002377,-0.00002316,-0.00000829,-0.0
 1095890,-0.00874619,-0.02514204,0.11809041,-0.00056905,0.00008679,0.00
 007222,-0.00042463,-0.00177153,0.00065972,-0.00591867,0.00475415,-0.00
 158804,0.00046659,0.00069733,0.00029081,0.00066477,-0.00015816,0.00024
 970,0.00039167,0.00030374,0.00006103,0.00084240,-0.00030854,0.00011058
 ,-0.00043618,-0.00013138,-0.00001437,0.00043230,0.00002543,0.00000913,
 -0.00041177,-0.00022862,-0.00000652,0.00023286,-0.00007710,-0.00002019
 ,0.00007182,0.00020705,0.00002831,-0.01728658,-0.03280564,-0.02888951,
 -0.03140821,-0.06870097,-0.05600275,0.00001902,-0.00000742,-0.00007029
 ,0.00074122,-0.00035691,-0.00083438,0.00001535,0.00001544,-0.00004103,
 0.00040052,0.00089344,-0.00034093,0.00000747,-0.00000198,-0.00001261,-
 0.00000227,0.00000375,-0.00000190,-0.00003751,-0.00000829,0.00000819,-
 0.00002899,-0.00002337,-0.00000872,0.00404545,0.00557418,0.00989923,0.
 04294190,0.08680502,-0.00016177,0.00011329,-0.00001623,0.00017180,-0.0
 0055701,-0.00025247,-0.00069839,0.00085922,0.00064735,-0.00089468,-0.0
 0089131,-0.00017259,0.00035358,0.00031490,-0.00011566,0.00005201,0.000
 09725,-0.00005143,0.00018152,0.00018469,0.00002433,-0.00000256,-0.0001
 1017,0.00003009,0.00000642,0.00003127,0.00000359,0.00003241,-0.0000615
 3,-0.00000903,-0.00002850,0.00001736,0.00000329,-0.00000764,0.00004501
 ,0.00000893,0.00317926,-0.00292765,0.00786045,-0.10762390,-0.06224569,
 -0.23847149,0.00000670,-0.00000494,0.00001579,0.00057390,0.00021967,-0
 .00001500,0.00001466,0.00005354,0.00000969,-0.00001949,0.00009756,0.00
 000015,0.00005169,-0.00000720,-0.00001754,-0.00000920,0.00000424,-0.00
 000441,0.00000887,-0.00000489,-0.00000187,0.00000533,-0.00000413,-0.00
 000572,0.00141094,0.00128929,0.00196827,0.11734679,0.07029448,0.247370
 77,0.00022201,0.00003184,0.00001010,0.00036183,0.00022185,0.00025283,0
 .00074269,0.00077136,-0.00127473,0.00011741,-0.00081185,-0.00020168,-0
 .00009056,0.00026465,0.00037554,0.00004862,-0.00034583,0.00006598,-0.0
 0027662,-0.00011567,-0.00010443,-0.00019348,0.00002949,-0.00000386,0.0
 0025388,0.00000114,-0.00001368,-0.00030253,-0.00013268,-0.00000821,0.0
 0016989,-0.00004851,-0.00001290,0.00006778,0.00013189,0.00002207,0.000
 28514,-0.00535699,0.00049523,-0.11606475,-0.03231072,0.10786762,0.0000
 1632,-0.00001299,-0.00000811,-0.00060438,0.00073708,-0.00096021,0.0000
 0050,-0.00000505,-0.00004374,0.00011661,0.00021894,0.00013258,-0.00001
 530,0.00000033,-0.00000246,-0.00000869,0.00000139,0.00000127,-0.000031
 40,-0.00000449,0.00000683,-0.00002419,-0.00002261,-0.00000597,-0.01088
 019,-0.00807206,0.02540291,0.00875845,0.00525053,-0.01394976,0.1173309
 6,-0.00056752,0.00008252,-0.00007885,-0.00043105,-0.00177802,-0.000619
 77,-0.00589674,0.00478435,0.00149071,0.00048473,0.00070895,-0.00031793
 ,0.00065465,-0.00017532,-0.00024470,0.00039203,0.00030233,-0.00006362,
 0.00083712,-0.00031182,-0.00010428,-0.00043576,-0.00012976,0.00002744,
 0.00043285,0.00002460,-0.00001331,-0.00041339,-0.00022771,0.00000240,0
 .00023458,-0.00007745,-0.00002452,0.00007014,0.00020774,0.00002293,-0.
 01725741,-0.03195449,0.03001041,-0.02834622,-0.06562992,0.05143574,0.0
 0001830,-0.00000483,0.00007058,0.00071824,-0.00033504,0.00083437,0.000
 01493,0.00001542,0.00004001,0.00040005,0.00089616,0.00031940,0.0000039
 9,-0.00000107,0.00000875,-0.00000174,0.00000372,-0.00000174,-0.0000382
 6,-0.00000806,0.00000958,-0.00002870,-0.00002423,-0.00001063,0.0039723
 2,0.00526890,-0.01000169,0.00560390,0.00521358,-0.00680725,0.03957896,
 0.08314945,0.00017654,-0.00011630,-0.00001431,-0.00016261,0.00059948,-
 0.00024452,0.00085669,-0.00097768,0.00063146,0.00087891,0.00086970,-0.
 00019534,-0.00037122,-0.00031430,-0.00009649,-0.00006356,-0.00010488,-
 0.00005071,-0.00020361,-0.00017509,0.00003213,0.00001494,0.00011484,0.
 00003357,-0.00001894,-0.00003164,0.00000569,-0.00002123,0.00006399,-0.
 00000428,0.00002013,-0.00001440,0.00000109,0.00000792,-0.00004978,0.00
 000585,-0.00268547,0.00402057,0.00697481,0.10803139,0.05767762,-0.2421
 7233,-0.00000726,0.00000570,0.00001443,-0.00059063,-0.00021563,-0.0000
 2743,-0.00001524,-0.00005345,0.00001075,0.00000838,-0.00012293,-0.0000
 0631,-0.00005164,0.00000690,-0.00001836,0.00000914,-0.00000418,-0.0000
 0380,-0.00000737,0.00000538,-0.00000457,-0.00000651,0.00000647,-0.0000
 0575,-0.00147957,-0.00135422,0.00219766,0.01372402,0.00614785,-0.01880
 926,-0.11804322,-0.06598404,0.25174602\\-0.00003559,0.00001131,0.00000
 143,0.00004210,0.00004097,-0.00000140,0.00003236,-0.00007372,-0.000003
 76,0.00003580,0.00001824,0.00000106,-0.00005152,-0.00003097,-0.0000025
 9,0.00003841,0.00002111,-0.00000012,-0.00004660,-0.00001876,0.00000086
 ,0.00008471,0.00000204,-0.00000381,-0.00009025,0.00001040,-0.00000179,
 0.00005512,0.00003565,0.00000729,-0.00001853,-0.00002218,-0.00000553,-
 0.00002267,-0.00001227,0.00001164,-0.00003052,0.00006525,0.00000702,-0
 .00002087,-0.00008147,-0.00000276,0.00001453,-0.00000314,0.00000058,-0
 .00001080,-0.00000268,-0.00000019,0.00000022,-0.00000511,-0.00000032,-
 0.00000337,0.00000712,0.00000006,-0.00001065,0.00000228,0.00000105,0.0
 0001205,-0.00000629,0.00000237,0.00000521,0.00001450,-0.00000131,0.000
 00888,0.00000379,-0.00000986,-0.00000389,0.00000271,-0.00000022,0.0000
 0716,0.00001109,0.00000419,0.00000868,0.00001014,-0.00000388\\\@


 The impersonal hand of government can
 never replace the helping hand of a neighbor.
                        -- Hubert H. Humphrey
 Job cpu time:       0 days  1 hours 57 minutes 44.2 seconds.
 File lengths (MBytes):  RWF=    264 Int=      0 D2E=      0 Chk=      9 Scr=      1
 Normal termination of Gaussian 09 at Tue May 28 18:15:08 2024.
