 Entering Gaussian System, Link 0=g09
 Input=pbeFAgd3.gjf
 Output=pbeFAgd3.log
 Initial command:
 /home/phzd/g09E/g09/l1.exe "/home/phzd/g09E/scratch/Gau-73164.inp" -scrdir="/home/phzd/g09E/scratch/"
 Default is to use a total of  18 processors:
                               18 via shared-memory
                                1 via Linda
 Entering Link 1 = /home/phzd/g09E/g09/l1.exe PID=     73166.
  
 Copyright (c) 1988,1990,1992,1993,1995,1998,2003,2009,2015,
            Gaussian, Inc.  All Rights Reserved.
  
 This is part of the Gaussian(R) 09 program.  It is based on
 the Gaussian(R) 03 system (copyright 2003, Gaussian, Inc.),
 the Gaussian(R) 98 system (copyright 1998, Gaussian, Inc.),
 the Gaussian(R) 94 system (copyright 1995, Gaussian, Inc.),
 the Gaussian 92(TM) system (copyright 1992, Gaussian, Inc.),
 the Gaussian 90(TM) system (copyright 1990, Gaussian, Inc.),
 the Gaussian 88(TM) system (copyright 1988, Gaussian, Inc.),
 the Gaussian 86(TM) system (copyright 1986, Carnegie Mellon
 University), and the Gaussian 82(TM) system (copyright 1983,
 Carnegie Mellon University). Gaussian is a federally registered
 trademark of Gaussian, Inc.
  
 This software contains proprietary and confidential information,
 including trade secrets, belonging to Gaussian, Inc.
  
 This software is provided under written license and may be
 used, copied, transmitted, or stored only in accord with that
 written license.
  
 The following legend is applicable only to US Government
 contracts under FAR:
  
                    RESTRICTED RIGHTS LEGEND
  
 Use, reproduction and disclosure by the US Government is
 subject to restrictions as set forth in subparagraphs (a)
 and (c) of the Commercial Computer Software - Restricted
 Rights clause in FAR 52.227-19.
  
 Gaussian, Inc.
 340 Quinnipiac St., Bldg. 40, Wallingford CT 06492
  
  
 ---------------------------------------------------------------
 Warning -- This program may not be used in any manner that
 competes with the business of Gaussian, Inc. or will provide
 assistance to any competitor of Gaussian, Inc.  The licensee
 of this program is prohibited from giving any competitor of
 Gaussian, Inc. access to this program.  By using this program,
 the user acknowledges that Gaussian, Inc. is engaged in the
 business of creating and licensing software in the field of
 computational chemistry and represents and warrants to the
 licensee that it is not a competitor of Gaussian, Inc. and that
 it will not use this program in any manner prohibited above.
 ---------------------------------------------------------------
  

 Cite this work as:
 Gaussian 09, Revision E.01,
 M. J. Frisch, G. W. Trucks, H. B. Schlegel, G. E. Scuseria, 
 M. A. Robb, J. R. Cheeseman, G. Scalmani, V. Barone, B. Mennucci, 
 G. A. Petersson, H. Nakatsuji, M. Caricato, X. Li, H. P. Hratchian, 
 A. F. Izmaylov, J. Bloino, G. Zheng, J. L. Sonnenberg, M. Hada, 
 M. Ehara, K. Toyota, R. Fukuda, J. Hasegawa, M. Ishida, T. Nakajima, 
 Y. Honda, O. Kitao, H. Nakai, T. Vreven, J. A. Montgomery, Jr., 
 J. E. Peralta, F. Ogliaro, M. Bearpark, J. J. Heyd, E. Brothers, 
 K. N. Kudin, V. N. Staroverov, T. Keith, R. Kobayashi, J. Normand, 
 K. Raghavachari, A. Rendell, J. C. Burant, S. S. Iyengar, J. Tomasi, 
 M. Cossi, N. Rega, J. M. Millam, M. Klene, J. E. Knox, J. B. Cross, 
 V. Bakken, C. Adamo, J. Jaramillo, R. Gomperts, R. E. Stratmann, 
 O. Yazyev, A. J. Austin, R. Cammi, C. Pomelli, J. W. Ochterski, 
 R. L. Martin, K. Morokuma, V. G. Zakrzewski, G. A. Voth, 
 P. Salvador, J. J. Dannenberg, S. Dapprich, A. D. Daniels, 
 O. Farkas, J. B. Foresman, J. V. Ortiz, J. Cioslowski, 
 and D. J. Fox, Gaussian, Inc., Wallingford CT, 2013.
 
 ******************************************
 Gaussian 09:  ES64L-G09RevE.01 30-Nov-2015
                20-Jun-2024 
 ******************************************
 %chk=pbeFAgd3.chk
 --------------------------------------
 # opt freq pbepbe/6-31+g(d,p) em=gd3bj
 --------------------------------------
 1/14=-1,18=20,19=15,26=3,38=1/1,3;
 2/9=110,12=2,17=6,18=5,40=1/2;
 3/5=1,6=6,7=111,11=2,16=1,25=1,30=1,71=1,74=1009,124=41/1,2,3;
 4//1;
 5/5=2,38=5/2;
 6/7=2,8=2,9=2,10=2,28=1/1;
 7//1,2,3,16;
 1/14=-1,18=20,19=15,26=3/3(2);
 2/9=110/2;
 99//99;
 2/9=110/2;
 3/5=1,6=6,7=111,11=2,16=1,25=1,30=1,71=1,74=1009,124=41/1,2,3;
 4/5=5,16=3,69=1/1;
 5/5=2,38=5/2;
 7//1,2,3,16;
 1/14=-1,18=20,19=15,26=3/3(-5);
 2/9=110/2;
 6/7=2,8=2,9=2,10=2,19=2,28=1/1;
 99/9=1/99;
 ----------
 [No Title]
 ----------
 Symbolic Z-matrix:
 Charge =  0 Multiplicity = 1
 C                     1.49003  -2.02015  -0.0003 
 C                     2.51031  -1.06948  -0.00034 
 C                     2.18567   0.30283  -0.0002 
 C                     0.8551    0.70235  -0.00001 
 C                    -0.18649  -0.25378   0.00002 
 C                     0.15746  -1.61776  -0.00012 
 O                     3.8088   -1.46963  -0.00052 
 C                    -1.5644    0.23008   0.00021 
 C                    -2.69608  -0.50795   0.00012 
 C                    -4.04533   0.06652   0.00033 
 O                    -5.07249  -0.59205   0.00022 
 O                    -4.07796   1.43228   0.00067 
 O                     3.28079   1.1319   -0.00026 
 C                     3.06911   2.54138   0.00004 
 H                     1.76066  -3.07084  -0.00041 
 H                     0.59988   1.75633   0.0001 
 H                    -0.61856  -2.37536  -0.00007 
 H                     4.37138  -0.67887  -0.00051 
 H                    -1.6788    1.31211   0.00045 
 H                    -2.68989  -1.59235  -0.00014 
 H                    -5.01699   1.67928   0.00077 
 H                     4.06151   2.9927    0.00002 
 H                     2.52257   2.85656  -0.89664 
 H                     2.52277   2.85621   0.89697 
 

 GradGradGradGradGradGradGradGradGradGradGradGradGradGradGradGradGradGrad
 Berny optimization.
 Initialization pass.
                           ----------------------------
                           !    Initial Parameters    !
                           ! (Angstroms and Degrees)  !
 --------------------------                            --------------------------
 ! Name  Definition              Value          Derivative Info.                !
 --------------------------------------------------------------------------------
 ! R1    R(1,2)                  1.3945         estimate D2E/DX2                !
 ! R2    R(1,6)                  1.392          estimate D2E/DX2                !
 ! R3    R(1,15)                 1.085          estimate D2E/DX2                !
 ! R4    R(2,3)                  1.4102         estimate D2E/DX2                !
 ! R5    R(2,7)                  1.3588         estimate D2E/DX2                !
 ! R6    R(3,4)                  1.3893         estimate D2E/DX2                !
 ! R7    R(3,13)                 1.3736         estimate D2E/DX2                !
 ! R8    R(4,5)                  1.4139         estimate D2E/DX2                !
 ! R9    R(4,16)                 1.0844         estimate D2E/DX2                !
 ! R10   R(5,6)                  1.4067         estimate D2E/DX2                !
 ! R11   R(5,8)                  1.4604         estimate D2E/DX2                !
 ! R12   R(6,17)                 1.0845         estimate D2E/DX2                !
 ! R13   R(7,18)                 0.9705         estimate D2E/DX2                !
 ! R14   R(8,9)                  1.3511         estimate D2E/DX2                !
 ! R15   R(8,19)                 1.0881         estimate D2E/DX2                !
 ! R16   R(9,10)                 1.4665         estimate D2E/DX2                !
 ! R17   R(9,20)                 1.0844         estimate D2E/DX2                !
 ! R18   R(10,11)                1.2201         estimate D2E/DX2                !
 ! R19   R(10,12)                1.3661         estimate D2E/DX2                !
 ! R20   R(12,21)                0.971          estimate D2E/DX2                !
 ! R21   R(13,14)                1.4253         estimate D2E/DX2                !
 ! R22   R(14,22)                1.0902         estimate D2E/DX2                !
 ! R23   R(14,23)                1.0964         estimate D2E/DX2                !
 ! R24   R(14,24)                1.0964         estimate D2E/DX2                !
 ! A1    A(2,1,6)              120.2205         estimate D2E/DX2                !
 ! A2    A(2,1,15)             118.5329         estimate D2E/DX2                !
 ! A3    A(6,1,15)             121.2466         estimate D2E/DX2                !
 ! A4    A(1,2,3)              119.6676         estimate D2E/DX2                !
 ! A5    A(1,2,7)              119.8951         estimate D2E/DX2                !
 ! A6    A(3,2,7)              120.4372         estimate D2E/DX2                !
 ! A7    A(2,3,4)              120.0228         estimate D2E/DX2                !
 ! A8    A(2,3,13)             113.8182         estimate D2E/DX2                !
 ! A9    A(4,3,13)             126.159          estimate D2E/DX2                !
 ! A10   A(3,4,5)              120.7363         estimate D2E/DX2                !
 ! A11   A(3,4,16)             120.3253         estimate D2E/DX2                !
 ! A12   A(5,4,16)             118.9384         estimate D2E/DX2                !
 ! A13   A(4,5,6)              118.3976         estimate D2E/DX2                !
 ! A14   A(4,5,8)              118.1004         estimate D2E/DX2                !
 ! A15   A(6,5,8)              123.502          estimate D2E/DX2                !
 ! A16   A(1,6,5)              120.9552         estimate D2E/DX2                !
 ! A17   A(1,6,17)             118.8858         estimate D2E/DX2                !
 ! A18   A(5,6,17)             120.159          estimate D2E/DX2                !
 ! A19   A(2,7,18)             108.3019         estimate D2E/DX2                !
 ! A20   A(5,8,9)              127.5404         estimate D2E/DX2                !
 ! A21   A(5,8,19)             115.3844         estimate D2E/DX2                !
 ! A22   A(9,8,19)             117.0753         estimate D2E/DX2                !
 ! A23   A(8,9,10)             123.8265         estimate D2E/DX2                !
 ! A24   A(8,9,20)             122.7832         estimate D2E/DX2                !
 ! A25   A(10,9,20)            113.3903         estimate D2E/DX2                !
 ! A26   A(9,10,11)            124.2708         estimate D2E/DX2                !
 ! A27   A(9,10,12)            114.4315         estimate D2E/DX2                !
 ! A28   A(11,10,12)           121.2977         estimate D2E/DX2                !
 ! A29   A(10,12,21)           106.1056         estimate D2E/DX2                !
 ! A30   A(3,13,14)            118.5869         estimate D2E/DX2                !
 ! A31   A(13,14,22)           105.9139         estimate D2E/DX2                !
 ! A32   A(13,14,23)           110.9862         estimate D2E/DX2                !
 ! A33   A(13,14,24)           110.9861         estimate D2E/DX2                !
 ! A34   A(22,14,23)           109.5572         estimate D2E/DX2                !
 ! A35   A(22,14,24)           109.5574         estimate D2E/DX2                !
 ! A36   A(23,14,24)           109.7613         estimate D2E/DX2                !
 ! D1    D(6,1,2,3)              0.0001         estimate D2E/DX2                !
 ! D2    D(6,1,2,7)            179.9998         estimate D2E/DX2                !
 ! D3    D(15,1,2,3)          -179.9993         estimate D2E/DX2                !
 ! D4    D(15,1,2,7)             0.0004         estimate D2E/DX2                !
 ! D5    D(2,1,6,5)              0.0003         estimate D2E/DX2                !
 ! D6    D(2,1,6,17)          -179.9991         estimate D2E/DX2                !
 ! D7    D(15,1,6,5)           179.9997         estimate D2E/DX2                !
 ! D8    D(15,1,6,17)            0.0003         estimate D2E/DX2                !
 ! D9    D(1,2,3,4)             -0.0001         estimate D2E/DX2                !
 ! D10   D(1,2,3,13)          -179.9999         estimate D2E/DX2                !
 ! D11   D(7,2,3,4)           -179.9998         estimate D2E/DX2                !
 ! D12   D(7,2,3,13)             0.0004         estimate D2E/DX2                !
 ! D13   D(1,2,7,18)          -179.9992         estimate D2E/DX2                !
 ! D14   D(3,2,7,18)             0.0005         estimate D2E/DX2                !
 ! D15   D(2,3,4,5)             -0.0003         estimate D2E/DX2                !
 ! D16   D(2,3,4,16)          -179.9999         estimate D2E/DX2                !
 ! D17   D(13,3,4,5)           179.9995         estimate D2E/DX2                !
 ! D18   D(13,3,4,16)           -0.0002         estimate D2E/DX2                !
 ! D19   D(2,3,13,14)         -179.9926         estimate D2E/DX2                !
 ! D20   D(4,3,13,14)            0.0076         estimate D2E/DX2                !
 ! D21   D(3,4,5,6)              0.0006         estimate D2E/DX2                !
 ! D22   D(3,4,5,8)           -179.9998         estimate D2E/DX2                !
 ! D23   D(16,4,5,6)          -179.9997         estimate D2E/DX2                !
 ! D24   D(16,4,5,8)            -0.0001         estimate D2E/DX2                !
 ! D25   D(4,5,6,1)             -0.0007         estimate D2E/DX2                !
 ! D26   D(4,5,6,17)           179.9987         estimate D2E/DX2                !
 ! D27   D(8,5,6,1)            179.9998         estimate D2E/DX2                !
 ! D28   D(8,5,6,17)            -0.0009         estimate D2E/DX2                !
 ! D29   D(4,5,8,9)            179.9915         estimate D2E/DX2                !
 ! D30   D(4,5,8,19)            -0.008          estimate D2E/DX2                !
 ! D31   D(6,5,8,9)             -0.009          estimate D2E/DX2                !
 ! D32   D(6,5,8,19)           179.9916         estimate D2E/DX2                !
 ! D33   D(5,8,9,10)           179.9997         estimate D2E/DX2                !
 ! D34   D(5,8,9,20)            -0.0007         estimate D2E/DX2                !
 ! D35   D(19,8,9,10)           -0.0008         estimate D2E/DX2                !
 ! D36   D(19,8,9,20)          179.9988         estimate D2E/DX2                !
 ! D37   D(8,9,10,11)          179.9987         estimate D2E/DX2                !
 ! D38   D(8,9,10,12)           -0.0013         estimate D2E/DX2                !
 ! D39   D(20,9,10,11)          -0.0009         estimate D2E/DX2                !
 ! D40   D(20,9,10,12)         179.9991         estimate D2E/DX2                !
 ! D41   D(9,10,12,21)         179.9994         estimate D2E/DX2                !
 ! D42   D(11,10,12,21)         -0.0005         estimate D2E/DX2                !
 ! D43   D(3,13,14,22)         179.9952         estimate D2E/DX2                !
 ! D44   D(3,13,14,23)         -61.1765         estimate D2E/DX2                !
 ! D45   D(3,13,14,24)          61.1666         estimate D2E/DX2                !
 --------------------------------------------------------------------------------
 Trust Radius=3.00D-01 FncErr=1.00D-07 GrdErr=1.00D-06
 Number of steps in this run=    115 maximum allowed number of steps=    144.
 GradGradGradGradGradGradGradGradGradGradGradGradGradGradGradGradGradGrad

                          Input orientation:                          
 ---------------------------------------------------------------------
 Center     Atomic      Atomic             Coordinates (Angstroms)
 Number     Number       Type             X           Y           Z
 ---------------------------------------------------------------------
      1          6           0        1.490026   -2.020146   -0.000302
      2          6           0        2.510307   -1.069476   -0.000343
      3          6           0        2.185666    0.302825   -0.000195
      4          6           0        0.855102    0.702348   -0.000012
      5          6           0       -0.186487   -0.253783    0.000023
      6          6           0        0.157461   -1.617763   -0.000118
      7          8           0        3.808804   -1.469631   -0.000519
      8          6           0       -1.564401    0.230082    0.000213
      9          6           0       -2.696082   -0.507948    0.000116
     10          6           0       -4.045328    0.066523    0.000330
     11          8           0       -5.072485   -0.592045    0.000222
     12          8           0       -4.077956    1.432277    0.000669
     13          8           0        3.280789    1.131895   -0.000257
     14          6           0        3.069111    2.541382    0.000042
     15          1           0        1.760664   -3.070838   -0.000406
     16          1           0        0.599882    1.756325    0.000101
     17          1           0       -0.618557   -2.375362   -0.000074
     18          1           0        4.371384   -0.678867   -0.000509
     19          1           0       -1.678800    1.312110    0.000452
     20          1           0       -2.689887   -1.592350   -0.000137
     21          1           0       -5.016995    1.679278    0.000771
     22          1           0        4.061509    2.992699    0.000019
     23          1           0        2.522569    2.856562   -0.896638
     24          1           0        2.522766    2.856209    0.896966
 ---------------------------------------------------------------------
                    Distance matrix (angstroms):
                    1          2          3          4          5
     1  C    0.000000
     2  C    1.394542   0.000000
     3  C    2.424894   1.410178   0.000000
     4  C    2.795550   2.424678   1.389251   0.000000
     5  C    2.435310   2.817455   2.436580   1.413893   0.000000
     6  C    1.391992   2.415886   2.793255   2.422729   1.406678
     7  O    2.383233   1.358756   2.403368   3.666313   4.176199
     8  C    3.793817   4.276926   3.750772   2.465163   1.460401
     9  C    4.450870   5.236583   4.948618   3.751763   2.522433
    10  C    5.915601   6.653333   6.235473   4.941507   3.872112
    11  O    6.716102   7.597807   7.313108   6.067268   4.897693
    12  O    6.551462   7.047267   6.364638   4.986768   4.241029
    13  O    3.625216   2.332311   1.373554   2.463426   3.733913
    14  C    4.827116   3.653841   2.406577   2.878173   4.290905
    15  H    1.084988   2.137151   3.400328   3.880332   3.424499
    16  H    3.879960   3.410993   2.151133   1.084438   2.158451
    17  H    2.138294   3.390447   3.877674   3.412326   2.165129
    18  H    3.178247   1.901626   2.396056   3.777829   4.577651
    19  H    4.598412   4.818773   3.994090   2.606237   2.163104
    20  H    4.201748   5.226415   5.230937   4.222865   2.838798
    21  H    7.485123   8.013484   7.333004   5.952807   5.202935
    22  H    5.633928   4.348275   3.279361   3.940400   5.346505
    23  H    5.064765   4.027067   2.727396   2.867930   4.221046
    24  H    5.064630   4.026949   2.727325   2.867889   4.220972
                    6          7          8          9         10
     6  C    0.000000
     7  O    3.654347   0.000000
     8  C    2.525736   5.635633   0.000000
     9  C    3.061764   6.575589   1.351070   0.000000
    10  C    4.527721   8.002947   2.486313   1.466452   0.000000
    11  O    5.329581   8.924542   3.603130   2.377891   1.220149
    12  O    5.219339   8.403693   2.786258   2.382026   1.366144
    13  O    4.161225   2.654569   4.928401   6.197747   7.403176
    14  C    5.077026   4.078648   5.177986   6.521952   7.532607
    15  H    2.163721   2.599758   4.685310   5.141108   6.599438
    16  H    3.402970   4.550162   2.648309   3.998789   4.943016
    17  H    1.084509   4.519057   2.771815   2.793447   4.207798
    18  H    4.317253   0.970466   6.004976   7.069532   8.449654
    19  H    3.457746   6.152388   1.088059   2.085060   2.674311
    20  H    2.847461   6.499850   2.141956   1.084420   2.142214
    21  H    6.135591   9.370718   3.744406   3.189137   1.882848
    22  H    6.041353   4.469480   6.267608   7.610490   8.618777
    23  H    5.139754   4.601454   4.940249   6.273628   7.192089
    24  H    5.139635   4.601333   4.940207   6.273617   7.192090
                   11         12         13         14         15
    11  O    0.000000
    12  O    2.255431   0.000000
    13  O    8.529312   7.364873   0.000000
    14  C    8.723758   7.232612   1.425293   0.000000
    15  H    7.268861   7.373434   4.469200   5.762729   0.000000
    16  H    6.139266   4.689048   2.752667   2.591024   4.964768
    17  H    4.797676   5.144469   5.244593   6.145996   2.478786
    18  H    9.444268   8.709092   2.113825   3.473603   3.540817
    19  H    3.891388   2.402164   4.962862   4.904464   5.571368
    20  H    2.584063   3.327928   6.562811   7.088991   4.689705
    21  H    2.272001   0.970981   8.315819   8.131933   8.276489
    22  H    9.812249   8.287690   2.017948   1.090202   6.485397
    23  H    8.389404   6.811804   2.086354   1.096395   6.042996
    24  H    8.389424   6.811788   2.086352   1.096395   6.042844
                   16         17         18         19         20
    16  H    0.000000
    17  H    4.307602   0.000000
    18  H    4.489364   5.270447   0.000000
    19  H    2.321577   3.836869   6.369358   0.000000
    20  H    4.694274   2.214388   7.120112   3.075416   0.000000
    21  H    5.617405   5.982170   9.680006   3.358327   4.014845
    22  H    3.675797   7.121734   3.684619   5.981265   8.161129
    23  H    2.389851   6.167944   4.089061   4.565261   6.911312
    24  H    2.389894   6.167814   4.088962   4.565209   6.911311
                   21         22         23         24
    21  H    0.000000
    22  H    9.173021   0.000000
    23  H    7.683513   1.786299   0.000000
    24  H    7.683510   1.786302   1.793604   0.000000
 Stoichiometry    C10H10O4
 Framework group  C1[X(C10H10O4)]
 Deg. of freedom    66
 Full point group                 C1      NOp   1
 Largest Abelian subgroup         C1      NOp   1
 Largest concise Abelian subgroup C1      NOp   1
                         Standard orientation:                         
 ---------------------------------------------------------------------
 Center     Atomic      Atomic             Coordinates (Angstroms)
 Number     Number       Type             X           Y           Z
 ---------------------------------------------------------------------
      1          6           0        1.490026   -2.020146   -0.000302
      2          6           0        2.510307   -1.069476   -0.000343
      3          6           0        2.185666    0.302825   -0.000195
      4          6           0        0.855102    0.702348   -0.000012
      5          6           0       -0.186487   -0.253783    0.000023
      6          6           0        0.157461   -1.617763   -0.000118
      7          8           0        3.808804   -1.469631   -0.000519
      8          6           0       -1.564401    0.230082    0.000213
      9          6           0       -2.696082   -0.507948    0.000116
     10          6           0       -4.045328    0.066523    0.000330
     11          8           0       -5.072485   -0.592045    0.000222
     12          8           0       -4.077956    1.432277    0.000669
     13          8           0        3.280789    1.131895   -0.000257
     14          6           0        3.069111    2.541382    0.000042
     15          1           0        1.760664   -3.070838   -0.000406
     16          1           0        0.599882    1.756325    0.000101
     17          1           0       -0.618557   -2.375362   -0.000074
     18          1           0        4.371384   -0.678867   -0.000509
     19          1           0       -1.678800    1.312110    0.000452
     20          1           0       -2.689887   -1.592350   -0.000137
     21          1           0       -5.016995    1.679278    0.000771
     22          1           0        4.061509    2.992699    0.000019
     23          1           0        2.522569    2.856562   -0.896638
     24          1           0        2.522766    2.856209    0.896966
 ---------------------------------------------------------------------
 Rotational constants (GHZ):      1.5346188      0.2860907      0.2415104
 Standard basis: 6-31+G(d,p) (6D, 7F)
 There are   316 symmetry adapted cartesian basis functions of A   symmetry.
 There are   316 symmetry adapted basis functions of A   symmetry.
   316 basis functions,   518 primitive gaussians,   316 cartesian basis functions
    51 alpha electrons       51 beta electrons
       nuclear repulsion energy       821.7166551790 Hartrees.
 NAtoms=   24 NActive=   24 NUniq=   24 SFac= 1.00D+00 NAtFMM=   60 NAOKFM=F Big=F
 Integral buffers will be    131072 words long.
 Raffenetti 2 integral format.
 Two-electron integral symmetry is turned on.
 Nuclear repulsion after empirical dispersion term =      821.6911418220 Hartrees.
 One-electron integrals computed using PRISM.
 NBasis=   316 RedAO= T EigKep=  1.45D-06  NBF=   316
 NBsUse=   315 1.00D-06 EigRej=  7.06D-07 NBFU=   315
 ExpMin= 4.38D-02 ExpMax= 5.48D+03 ExpMxC= 8.25D+02 IAcc=2 IRadAn=         4 AccDes= 0.00D+00
 Harris functional with IExCor= 1009 and IRadAn=       4 diagonalized for initial guess.
 HarFok:  IExCor= 1009 AccDes= 0.00D+00 IRadAn=         4 IDoV= 1 UseB2=F ITyADJ=14
 ICtDFT=  3500011 ScaDFX=  1.000000  1.000000  1.000000  1.000000
 FoFCou: FMM=F IPFlag=           0 FMFlag=      100000 FMFlg1=           0
         NFxFlg=           0 DoJE=T BraDBF=F KetDBF=T FulRan=T
         wScrn=  0.000000 ICntrl=     500 IOpCl=  0 I1Cent=   200000004 NGrid=           0
         NMat0=    1 NMatS0=      1 NMatT0=    0 NMatD0=    1 NMtDS0=    0 NMtDT0=    0
 Petite list used in FoFCou.
 Requested convergence on RMS density matrix=1.00D-08 within 128 cycles.
 Requested convergence on MAX density matrix=1.00D-06.
 Requested convergence on             energy=1.00D-06.
 No special actions if energy rises.
 EnCoef did     2 forward-backward iterations
 SCF Done:  E(RPBE-PBE) =  -687.248583805     A.U. after   17 cycles
            NFock= 17  Conv=0.36D-08     -V/T= 2.0091

 **********************************************************************

            Population analysis using the SCF density.

 **********************************************************************

 Orbital symmetries:
       Occupied  (A) (A) (A) (A) (A) (A) (A) (A) (A) (A) (A) (A)
                 (A) (A) (A) (A) (A) (A) (A) (A) (A) (A) (A) (A)
                 (A) (A) (A) (A) (A) (A) (A) (A) (A) (A) (A) (A)
                 (A) (A) (A) (A) (A) (A) (A) (A) (A) (A) (A) (A)
                 (A) (A) (A)
       Virtual   (A) (A) (A) (A) (A) (A) (A) (A) (A) (A) (A) (A)
                 (A) (A) (A) (A) (A) (A) (A) (A) (A) (A) (A) (A)
                 (A) (A) (A) (A) (A) (A) (A) (A) (A) (A) (A) (A)
                 (A) (A) (A) (A) (A) (A) (A) (A) (A) (A) (A) (A)
                 (A) (A) (A) (A) (A) (A) (A) (A) (A) (A) (A) (A)
                 (A) (A) (A) (A) (A) (A) (A) (A) (A) (A) (A) (A)
                 (A) (A) (A) (A) (A) (A) (A) (A) (A) (A) (A) (A)
                 (A) (A) (A) (A) (A) (A) (A) (A) (A) (A) (A) (A)
                 (A) (A) (A) (A) (A) (A) (A) (A) (A) (A) (A) (A)
                 (A) (A) (A) (A) (A) (A) (A) (A) (A) (A) (A) (A)
                 (A) (A) (A) (A) (A) (A) (A) (A) (A) (A) (A) (A)
                 (A) (A) (A) (A) (A) (A) (A) (A) (A) (A) (A) (A)
                 (A) (A) (A) (A) (A) (A) (A) (A) (A) (A) (A) (A)
                 (A) (A) (A) (A) (A) (A) (A) (A) (A) (A) (A) (A)
                 (A) (A) (A) (A) (A) (A) (A) (A) (A) (A) (A) (A)
                 (A) (A) (A) (A) (A) (A) (A) (A) (A) (A) (A) (A)
                 (A) (A) (A) (A) (A) (A) (A) (A) (A) (A) (A) (A)
                 (A) (A) (A) (A) (A) (A) (A) (A) (A) (A) (A) (A)
                 (A) (A) (A) (A) (A) (A) (A) (A) (A) (A) (A) (A)
                 (A) (A) (A) (A) (A) (A) (A) (A) (A) (A) (A) (A)
                 (A) (A) (A) (A) (A) (A) (A) (A) (A) (A) (A) (A)
                 (A) (A) (A) (A) (A) (A) (A) (A) (A) (A) (A) (A)
 The electronic state is 1-A.
 Alpha  occ. eigenvalues --  -18.84425 -18.82978 -18.82190 -18.76383 -10.02175
 Alpha  occ. eigenvalues --   -9.98083  -9.98028  -9.97569  -9.93026  -9.92931
 Alpha  occ. eigenvalues --   -9.92588  -9.91962  -9.91888  -9.91513  -1.01591
 Alpha  occ. eigenvalues --   -1.01175  -0.98792  -0.92322  -0.79929  -0.74040
 Alpha  occ. eigenvalues --   -0.70698  -0.69152  -0.65517  -0.60788  -0.57136
 Alpha  occ. eigenvalues --   -0.55471  -0.53041  -0.52159  -0.48531  -0.46027
 Alpha  occ. eigenvalues --   -0.44315  -0.44250  -0.42371  -0.41402  -0.41204
 Alpha  occ. eigenvalues --   -0.39522  -0.39471  -0.38523  -0.37398  -0.35704
 Alpha  occ. eigenvalues --   -0.34311  -0.33646  -0.32977  -0.32061  -0.31373
 Alpha  occ. eigenvalues --   -0.31266  -0.27551  -0.26020  -0.22948  -0.22808
 Alpha  occ. eigenvalues --   -0.19587
 Alpha virt. eigenvalues --   -0.09719  -0.04710  -0.02445  -0.02023  -0.01761
 Alpha virt. eigenvalues --   -0.00717   0.00274   0.01404   0.02378   0.02507
 Alpha virt. eigenvalues --    0.03478   0.03940   0.04028   0.04869   0.04948
 Alpha virt. eigenvalues --    0.06221   0.06234   0.07400   0.07543   0.08501
 Alpha virt. eigenvalues --    0.08817   0.09036   0.09205   0.11007   0.11167
 Alpha virt. eigenvalues --    0.11644   0.11855   0.12096   0.12658   0.13439
 Alpha virt. eigenvalues --    0.13523   0.14375   0.15024   0.15488   0.16029
 Alpha virt. eigenvalues --    0.16620   0.16946   0.17299   0.17727   0.17976
 Alpha virt. eigenvalues --    0.18414   0.18968   0.19543   0.19558   0.20410
 Alpha virt. eigenvalues --    0.20471   0.20851   0.21254   0.23213   0.23218
 Alpha virt. eigenvalues --    0.23391   0.23707   0.24605   0.25061   0.25694
 Alpha virt. eigenvalues --    0.25890   0.26316   0.26864   0.28007   0.28343
 Alpha virt. eigenvalues --    0.28413   0.28653   0.30371   0.30561   0.30748
 Alpha virt. eigenvalues --    0.31687   0.31808   0.32922   0.33202   0.34515
 Alpha virt. eigenvalues --    0.34883   0.35956   0.36289   0.36801   0.40024
 Alpha virt. eigenvalues --    0.40330   0.42166   0.42762   0.44042   0.44489
 Alpha virt. eigenvalues --    0.44885   0.49805   0.53570   0.56685   0.61002
 Alpha virt. eigenvalues --    0.61189   0.62413   0.63007   0.63546   0.64126
 Alpha virt. eigenvalues --    0.66775   0.67382   0.67836   0.68411   0.68699
 Alpha virt. eigenvalues --    0.70556   0.71792   0.73469   0.74588   0.74875
 Alpha virt. eigenvalues --    0.76346   0.78510   0.79082   0.81482   0.81925
 Alpha virt. eigenvalues --    0.83936   0.86247   0.87334   0.90291   0.91965
 Alpha virt. eigenvalues --    0.94373   0.94796   0.96369   0.99191   1.00108
 Alpha virt. eigenvalues --    1.02686   1.03237   1.03741   1.05540   1.07455
 Alpha virt. eigenvalues --    1.09112   1.09560   1.10334   1.10543   1.11924
 Alpha virt. eigenvalues --    1.14515   1.14704   1.15287   1.15431   1.16592
 Alpha virt. eigenvalues --    1.18280   1.18443   1.19771   1.19909   1.21336
 Alpha virt. eigenvalues --    1.22245   1.23430   1.25523   1.27091   1.27693
 Alpha virt. eigenvalues --    1.28748   1.29050   1.30864   1.30907   1.32464
 Alpha virt. eigenvalues --    1.32745   1.33480   1.35974   1.37903   1.38497
 Alpha virt. eigenvalues --    1.38621   1.39101   1.45726   1.49253   1.50724
 Alpha virt. eigenvalues --    1.51404   1.52963   1.56859   1.60281   1.66536
 Alpha virt. eigenvalues --    1.66625   1.69449   1.70533   1.71054   1.73554
 Alpha virt. eigenvalues --    1.74829   1.75120   1.76547   1.77630   1.78561
 Alpha virt. eigenvalues --    1.80332   1.81762   1.82447   1.84222   1.86813
 Alpha virt. eigenvalues --    1.87768   1.88184   1.89074   1.92332   1.92554
 Alpha virt. eigenvalues --    1.94652   1.96464   1.96869   1.97002   1.99105
 Alpha virt. eigenvalues --    2.01697   2.02124   2.04910   2.07082   2.10914
 Alpha virt. eigenvalues --    2.13934   2.14088   2.14966   2.19377   2.20507
 Alpha virt. eigenvalues --    2.22937   2.27154   2.28739   2.32466   2.32487
 Alpha virt. eigenvalues --    2.37353   2.37937   2.38934   2.40973   2.42697
 Alpha virt. eigenvalues --    2.43175   2.43873   2.44318   2.45778   2.46877
 Alpha virt. eigenvalues --    2.47936   2.50554   2.53418   2.53542   2.54864
 Alpha virt. eigenvalues --    2.55289   2.55716   2.60393   2.61252   2.63708
 Alpha virt. eigenvalues --    2.64085   2.66295   2.66434   2.68126   2.72041
 Alpha virt. eigenvalues --    2.74612   2.76554   2.77389   2.79797   2.85947
 Alpha virt. eigenvalues --    2.88452   2.93509   2.98262   2.99861   3.03373
 Alpha virt. eigenvalues --    3.06875   3.08595   3.12070   3.13855   3.15920
 Alpha virt. eigenvalues --    3.25039   3.26247   3.31264   3.36620   3.38257
 Alpha virt. eigenvalues --    3.40476   3.45003   3.46993   3.50801   3.71521
 Alpha virt. eigenvalues --    4.09231   4.14736   4.19123   4.22874   4.27620
 Alpha virt. eigenvalues --    4.31885   4.33729   4.38562   4.42108   4.45010
 Alpha virt. eigenvalues --    4.50384   4.58560   4.69111   4.96943
          Condensed to atoms (all electrons):
               1          2          3          4          5          6
     1  C   12.320632  -0.725055  -2.668350  -0.746260   0.145012  -2.404828
     2  C   -0.725055  17.902063  -4.136285  -5.296104  -0.709700   0.917025
     3  C   -2.668350  -4.136285  16.219866  -0.820903  -1.520858  -1.013361
     4  C   -0.746260  -5.296104  -0.820903  15.551194   1.543569  -1.743094
     5  C    0.145012  -0.709700  -1.520858   1.543569   7.719732  -0.268627
     6  C   -2.404828   0.917025  -1.013361  -1.743094  -0.268627   9.868470
     7  O   -0.594676   0.072117   0.376255   0.099081  -0.053868   0.017286
     8  C    0.007334  -0.804645  -0.050024  -2.101002  -0.511834   0.409122
     9  C    0.045655  -0.164753  -0.431721  -1.005098  -0.525123   0.644382
    10  C   -0.144617   0.019076   0.068269  -0.132528  -0.471757  -0.050348
    11  O   -0.000717   0.000410   0.000223   0.009620   0.024780  -0.002314
    12  O   -0.002881   0.000048  -0.001843   0.010815   0.054452   0.001661
    13  O    0.089549  -0.896390   0.496457   0.291046   0.009914  -0.064246
    14  C    0.034964  -0.030319  -0.181690   0.035041  -0.019185  -0.002045
    15  H    0.233764   0.080035   0.051940   0.009257  -0.011252  -0.038609
    16  H   -0.024871   0.012408  -0.231876   0.322132   0.067500   0.019047
    17  H   -0.015953  -0.044898   0.007357   0.050933   0.120563   0.195294
    18  H    0.221125   0.159399  -0.348966  -0.033495   0.007221  -0.011481
    19  H    0.021265   0.002007   0.023795   0.146189   0.007925  -0.027419
    20  H    0.035137  -0.001510   0.001652   0.021092   0.089876  -0.024000
    21  H    0.000002  -0.000042   0.000330   0.000719  -0.001880  -0.000094
    22  H    0.004775   0.076052   0.091416  -0.139575  -0.012469  -0.000158
    23  H   -0.003197  -0.035930  -0.115143   0.116804   0.016816   0.002979
    24  H   -0.003214  -0.035864  -0.114999   0.116653   0.016806   0.002993
               7          8          9         10         11         12
     1  C   -0.594676   0.007334   0.045655  -0.144617  -0.000717  -0.002881
     2  C    0.072117  -0.804645  -0.164753   0.019076   0.000410   0.000048
     3  C    0.376255  -0.050024  -0.431721   0.068269   0.000223  -0.001843
     4  C    0.099081  -2.101002  -1.005098  -0.132528   0.009620   0.010815
     5  C   -0.053868  -0.511834  -0.525123  -0.471757   0.024780   0.054452
     6  C    0.017286   0.409122   0.644382  -0.050348  -0.002314   0.001661
     7  O    8.388119   0.007056   0.000541   0.000301   0.000000   0.000000
     8  C    0.007056   9.073246  -1.332940   0.748854   0.067252   0.224196
     9  C    0.000541  -1.332940  11.373282  -1.874024  -0.301806  -0.481226
    10  C    0.000301   0.748854  -1.874024   6.817656   0.463946   0.187749
    11  O    0.000000   0.067252  -0.301806   0.463946   8.343418  -0.151160
    12  O    0.000000   0.224196  -0.481226   0.187749  -0.151160   8.434552
    13  O   -0.013361  -0.028765  -0.003858  -0.000107   0.000001  -0.000003
    14  C    0.002093  -0.021636   0.006076  -0.001996  -0.000003  -0.000000
    15  H   -0.007428  -0.006117  -0.002259  -0.000262   0.000000  -0.000000
    16  H   -0.000523   0.116540   0.023867   0.000293   0.000000  -0.000147
    17  H   -0.000625  -0.016949  -0.013227   0.012618   0.000102   0.000048
    18  H    0.178019   0.000885   0.000167   0.000004   0.000000  -0.000000
    19  H   -0.000007   0.265156  -0.072878  -0.087667   0.000093  -0.002217
    20  H   -0.000003  -0.102175   0.373404  -0.094358  -0.014512   0.009601
    21  H    0.000000  -0.008099   0.121015  -0.068515   0.008076   0.178211
    22  H   -0.000133  -0.002241  -0.000046   0.000003   0.000000  -0.000000
    23  H   -0.000196   0.003715   0.000425  -0.000031  -0.000000   0.000000
    24  H   -0.000195   0.003696   0.000423  -0.000030  -0.000000   0.000000
              13         14         15         16         17         18
     1  C    0.089549   0.034964   0.233764  -0.024871  -0.015953   0.221125
     2  C   -0.896390  -0.030319   0.080035   0.012408  -0.044898   0.159399
     3  C    0.496457  -0.181690   0.051940  -0.231876   0.007357  -0.348966
     4  C    0.291046   0.035041   0.009257   0.322132   0.050933  -0.033495
     5  C    0.009914  -0.019185  -0.011252   0.067500   0.120563   0.007221
     6  C   -0.064246  -0.002045  -0.038609   0.019047   0.195294  -0.011481
     7  O   -0.013361   0.002093  -0.007428  -0.000523  -0.000625   0.178019
     8  C   -0.028765  -0.021636  -0.006117   0.116540  -0.016949   0.000885
     9  C   -0.003858   0.006076  -0.002259   0.023867  -0.013227   0.000167
    10  C   -0.000107  -0.001996  -0.000262   0.000293   0.012618   0.000004
    11  O    0.000001  -0.000003   0.000000   0.000000   0.000102   0.000000
    12  O   -0.000003  -0.000000  -0.000000  -0.000147   0.000048  -0.000000
    13  O    8.579777   0.051742  -0.000720  -0.016234   0.000145   0.042754
    14  C    0.051742   5.098616   0.000182  -0.002710   0.000134   0.003693
    15  H   -0.000720   0.000182   0.541240   0.000015  -0.005758  -0.000080
    16  H   -0.016234  -0.002710   0.000015   0.577571  -0.000153  -0.000026
    17  H    0.000145   0.000134  -0.005758  -0.000153   0.571694   0.000006
    18  H    0.042754   0.003693  -0.000080  -0.000026   0.000006   0.396239
    19  H    0.000060   0.000854   0.000002   0.004426  -0.000036   0.000000
    20  H    0.000003   0.000042   0.000007   0.000003   0.001792   0.000000
    21  H   -0.000000   0.000001  -0.000000  -0.000000   0.000000   0.000000
    22  H   -0.066009   0.408623  -0.000000   0.000108  -0.000000  -0.000068
    23  H   -0.044554   0.409770   0.000000  -0.000620   0.000000   0.000032
    24  H   -0.044563   0.409755   0.000000  -0.000620   0.000000   0.000032
              19         20         21         22         23         24
     1  C    0.021265   0.035137   0.000002   0.004775  -0.003197  -0.003214
     2  C    0.002007  -0.001510  -0.000042   0.076052  -0.035930  -0.035864
     3  C    0.023795   0.001652   0.000330   0.091416  -0.115143  -0.114999
     4  C    0.146189   0.021092   0.000719  -0.139575   0.116804   0.116653
     5  C    0.007925   0.089876  -0.001880  -0.012469   0.016816   0.016806
     6  C   -0.027419  -0.024000  -0.000094  -0.000158   0.002979   0.002993
     7  O   -0.000007  -0.000003   0.000000  -0.000133  -0.000196  -0.000195
     8  C    0.265156  -0.102175  -0.008099  -0.002241   0.003715   0.003696
     9  C   -0.072878   0.373404   0.121015  -0.000046   0.000425   0.000423
    10  C   -0.087667  -0.094358  -0.068515   0.000003  -0.000031  -0.000030
    11  O    0.000093  -0.014512   0.008076   0.000000  -0.000000  -0.000000
    12  O   -0.002217   0.009601   0.178211  -0.000000   0.000000   0.000000
    13  O    0.000060   0.000003  -0.000000  -0.066009  -0.044554  -0.044563
    14  C    0.000854   0.000042   0.000001   0.408623   0.409770   0.409755
    15  H    0.000002   0.000007  -0.000000  -0.000000   0.000000   0.000000
    16  H    0.004426   0.000003  -0.000000   0.000108  -0.000620  -0.000620
    17  H   -0.000036   0.001792   0.000000  -0.000000   0.000000   0.000000
    18  H    0.000000   0.000000   0.000000  -0.000068   0.000032   0.000032
    19  H    0.557396   0.004744  -0.000153   0.000000  -0.000002  -0.000002
    20  H    0.004744   0.553715  -0.000243  -0.000000   0.000000   0.000000
    21  H   -0.000153  -0.000243   0.393986  -0.000000   0.000000   0.000000
    22  H    0.000000  -0.000000  -0.000000   0.519910  -0.027208  -0.027206
    23  H   -0.000002   0.000000   0.000000  -0.027208   0.544034  -0.042363
    24  H   -0.000002   0.000000   0.000000  -0.027206  -0.042363   0.544033
 Mulliken charges:
               1
     1  C    0.175402
     2  C   -0.359146
     3  C    0.298458
     4  C   -0.306086
     5  C    0.282385
     6  C   -0.427635
     7  O   -0.469854
     8  C    0.059376
     9  C   -0.380281
    10  C    0.607472
    11  O   -0.447411
    12  O   -0.461857
    13  O   -0.382639
    14  C   -0.202002
    15  H    0.156044
    16  H    0.133870
    17  H    0.136914
    18  H    0.384542
    19  H    0.156467
    20  H    0.145734
    21  H    0.376688
    22  H    0.174227
    23  H    0.174666
    24  H    0.174665
 Sum of Mulliken charges =  -0.00000
 Mulliken charges with hydrogens summed into heavy atoms:
               1
     1  C    0.331445
     2  C   -0.359146
     3  C    0.298458
     4  C   -0.172216
     5  C    0.282385
     6  C   -0.290721
     7  O   -0.085311
     8  C    0.215843
     9  C   -0.234546
    10  C    0.607472
    11  O   -0.447411
    12  O   -0.085169
    13  O   -0.382639
    14  C    0.321556
 Electronic spatial extent (au):  <R**2>=           4173.2812
 Charge=             -0.0000 electrons
 Dipole moment (field-independent basis, Debye):
    X=              4.1595    Y=              3.6317    Z=              0.0004  Tot=              5.5218
 Quadrupole moment (field-independent basis, Debye-Ang):
   XX=            -91.0995   YY=            -72.2780   ZZ=            -85.1500
   XY=              0.5260   XZ=             -0.0005   YZ=              0.0013
 Traceless Quadrupole moment (field-independent basis, Debye-Ang):
   XX=             -8.2570   YY=             10.5645   ZZ=             -2.3075
   XY=              0.5260   XZ=             -0.0005   YZ=              0.0013
 Octapole moment (field-independent basis, Debye-Ang**2):
  XXX=            111.6510  YYY=             20.2395  ZZZ=              0.0017  XYY=              5.4927
  XXY=             95.0008  XXZ=              0.0103  XZZ=             -1.9144  YZZ=              5.4706
  YYZ=              0.0015  XYZ=             -0.0058
 Hexadecapole moment (field-independent basis, Debye-Ang**3):
 XXXX=          -4458.9993 YYYY=           -877.5375 ZZZZ=           -100.0837 XXXY=           -251.6182
 XXXZ=              0.1160 YYYX=             40.7919 YYYZ=             -0.0439 ZZZX=              0.1834
 ZZZY=             -0.0532 XXYY=           -803.7898 XXZZ=           -734.6836 YYZZ=           -185.8047
 XXYZ=              0.0145 YYXZ=              0.0585 ZZXY=             -0.0192
 N-N= 8.216911418220D+02 E-N=-3.247193171782D+03  KE= 6.810553117439D+02
 Calling FoFJK, ICntrl=      2527 FMM=F ISym2X=0 I1Cent= 0 IOpClX= 0 NMat=1 NMatS=1 NMatT=0.
 ***** Axes restored to original set *****
 -------------------------------------------------------------------
 Center     Atomic                   Forces (Hartrees/Bohr)
 Number     Number              X              Y              Z
 -------------------------------------------------------------------
      1        6          -0.001449189   -0.000503469    0.000000196
      2        6           0.003793284   -0.000535315   -0.000000701
      3        6           0.000173986    0.004668646   -0.000000110
      4        6           0.000039164    0.000036770    0.000000574
      5        6          -0.005747149    0.002430784    0.000001007
      6        6           0.000501823   -0.000707011   -0.000000594
      7        8          -0.000700771   -0.009537613   -0.000000748
      8        6           0.009514438   -0.000599579   -0.000000549
      9        6          -0.006406085    0.000573591    0.000000875
     10        6           0.010528789    0.002376815    0.000000152
     11        8          -0.015011062   -0.010851854   -0.000001842
     12        8           0.010474359    0.007524453    0.000001200
     13        8           0.005322820   -0.002674404   -0.000000323
     14        6          -0.001194419   -0.002815552   -0.000000857
     15        1           0.001455862   -0.005285369   -0.000000486
     16        1          -0.001428168    0.005835046    0.000000628
     17        1          -0.004162675   -0.003820703    0.000000202
     18        1           0.003742796    0.007887267    0.000000344
     19        1          -0.000541592    0.005957634    0.000000842
     20        1           0.000073618   -0.005865210   -0.000001425
     21        1          -0.007906283    0.000655307    0.000000522
     22        1           0.004798399    0.001996157   -0.000000231
     23        1          -0.002936566    0.001627677   -0.004400816
     24        1          -0.002935375    0.001625932    0.004402143
 -------------------------------------------------------------------
 Cartesian Forces:  Max     0.015011062 RMS     0.004360061

 GradGradGradGradGradGradGradGradGradGradGradGradGradGradGradGradGradGrad
 Berny optimization.
 FormGI is forming the generalized inverse of G from B-inverse, IUseBI=4.
 GSVD:  received Info=                   1 from GESDD.
 Internal  Forces:  Max     0.018491481 RMS     0.003363523
 Search for a local minimum.
 Step number   1 out of a maximum of  115
 All quantities printed in internal units (Hartrees-Bohrs-Radians)
 Mixed Optimization -- RFO/linear search
 Second derivative matrix not updated -- first step.
 ITU=  0
     Eigenvalues ---    0.01210   0.01290   0.01357   0.01506   0.01756
     Eigenvalues ---    0.01968   0.02023   0.02036   0.02040   0.02042
     Eigenvalues ---    0.02078   0.02088   0.02096   0.02128   0.02140
     Eigenvalues ---    0.02162   0.02179   0.02237   0.02736   0.10098
     Eigenvalues ---    0.10658   0.16000   0.16000   0.16000   0.16000
     Eigenvalues ---    0.16000   0.16000   0.16000   0.16000   0.16000
     Eigenvalues ---    0.16000   0.22000   0.22000   0.22372   0.23481
     Eigenvalues ---    0.24605   0.25000   0.25000   0.25000   0.25000
     Eigenvalues ---    0.25000   0.25000   0.34084   0.34084   0.34789
     Eigenvalues ---    0.35038   0.35398   0.35455   0.35463   0.35466
     Eigenvalues ---    0.36168   0.36914   0.40817   0.41587   0.41673
     Eigenvalues ---    0.44255   0.44892   0.46344   0.47242   0.50300
     Eigenvalues ---    0.51725   0.53177   0.53200   0.53282   0.54794
     Eigenvalues ---    0.95317
 RFO step:  Lambda=-2.40112562D-03 EMin= 1.20972192D-02
 Linear search not attempted -- first point.
 Iteration  1 RMS(Cart)=  0.01148283 RMS(Int)=  0.00004908
 Iteration  2 RMS(Cart)=  0.00010234 RMS(Int)=  0.00000030
 Iteration  3 RMS(Cart)=  0.00000001 RMS(Int)=  0.00000030
 Variable       Old X    -DE/DX   Delta X   Delta X   Delta X     New X
                                 (Linear)    (Quad)   (Total)
    R1        2.63530   0.00647   0.00000   0.01392   0.01393   2.64923
    R2        2.63048   0.00522   0.00000   0.01106   0.01106   2.64155
    R3        2.05033   0.00548   0.00000   0.01538   0.01538   2.06571
    R4        2.66485   0.00663   0.00000   0.01507   0.01507   2.67992
    R5        2.56768   0.00339   0.00000   0.00635   0.00635   2.57403
    R6        2.62530   0.00546   0.00000   0.01144   0.01144   2.63674
    R7        2.59564   0.00229   0.00000   0.00453   0.00453   2.60017
    R8        2.67187   0.00539   0.00000   0.01226   0.01226   2.68413
    R9        2.04929   0.00601   0.00000   0.01682   0.01682   2.06611
   R10        2.65824   0.00628   0.00000   0.01394   0.01394   2.67218
   R11        2.75976  -0.00075   0.00000  -0.00202  -0.00202   2.75774
   R12        2.04943   0.00565   0.00000   0.01583   0.01583   2.06525
   R13        1.83391   0.00859   0.00000   0.01605   0.01605   1.84997
   R14        2.55315   0.00994   0.00000   0.01807   0.01807   2.57122
   R15        2.05613   0.00598   0.00000   0.01696   0.01696   2.07309
   R16        2.77119   0.00165   0.00000   0.00454   0.00454   2.77573
   R17        2.04926   0.00586   0.00000   0.01642   0.01642   2.06567
   R18        2.30575   0.01849   0.00000   0.01935   0.01935   2.32510
   R19        2.58164   0.00813   0.00000   0.01564   0.01564   2.59728
   R20        1.83489   0.00781   0.00000   0.01463   0.01463   1.84951
   R21        2.69341   0.00273   0.00000   0.00651   0.00651   2.69993
   R22        2.06018   0.00520   0.00000   0.01483   0.01483   2.07502
   R23        2.07189   0.00553   0.00000   0.01611   0.01611   2.08799
   R24        2.07189   0.00553   0.00000   0.01611   0.01611   2.08799
    A1        2.09824  -0.00017   0.00000  -0.00052  -0.00052   2.09772
    A2        2.06879  -0.00000   0.00000  -0.00029  -0.00029   2.06850
    A3        2.11615   0.00018   0.00000   0.00081   0.00081   2.11697
    A4        2.08859  -0.00035   0.00000  -0.00106  -0.00105   2.08754
    A5        2.09257   0.00069   0.00000   0.00254   0.00254   2.09510
    A6        2.10203  -0.00033   0.00000  -0.00148  -0.00149   2.10054
    A7        2.09479   0.00044   0.00000   0.00191   0.00191   2.09670
    A8        1.98650  -0.00048   0.00000  -0.00198  -0.00198   1.98452
    A9        2.20189   0.00004   0.00000   0.00007   0.00007   2.20196
   A10        2.10725  -0.00044   0.00000  -0.00211  -0.00211   2.10513
   A11        2.10007   0.00023   0.00000   0.00114   0.00114   2.10121
   A12        2.07587   0.00021   0.00000   0.00097   0.00097   2.07684
   A13        2.06643   0.00043   0.00000   0.00146   0.00146   2.06789
   A14        2.06124   0.00011   0.00000   0.00055   0.00055   2.06179
   A15        2.15552  -0.00054   0.00000  -0.00201  -0.00201   2.15351
   A16        2.11107   0.00009   0.00000   0.00033   0.00033   2.11139
   A17        2.07495   0.00013   0.00000   0.00095   0.00095   2.07590
   A18        2.09717  -0.00023   0.00000  -0.00128  -0.00128   2.09589
   A19        1.89022  -0.00279   0.00000  -0.01717  -0.01717   1.87305
   A20        2.22600  -0.00059   0.00000  -0.00267  -0.00267   2.22333
   A21        2.01384   0.00020   0.00000   0.00077   0.00077   2.01461
   A22        2.04335   0.00039   0.00000   0.00190   0.00190   2.04525
   A23        2.16118   0.00037   0.00000   0.00167   0.00167   2.16285
   A24        2.14297  -0.00022   0.00000  -0.00108  -0.00108   2.14190
   A25        1.97903  -0.00015   0.00000  -0.00060  -0.00060   1.97844
   A26        2.16894  -0.00004   0.00000  -0.00015  -0.00015   2.16878
   A27        1.99721  -0.00229   0.00000  -0.00909  -0.00909   1.98812
   A28        2.11704   0.00233   0.00000   0.00924   0.00924   2.12628
   A29        1.85189  -0.00252   0.00000  -0.01549  -0.01549   1.83640
   A30        2.06973  -0.00482   0.00000  -0.01909  -0.01909   2.05064
   A31        1.84855  -0.00021   0.00000  -0.00108  -0.00108   1.84746
   A32        1.93707   0.00008   0.00000   0.00036   0.00036   1.93743
   A33        1.93707   0.00008   0.00000   0.00036   0.00036   1.93743
   A34        1.91213   0.00015   0.00000   0.00114   0.00114   1.91327
   A35        1.91214   0.00015   0.00000   0.00114   0.00114   1.91328
   A36        1.91570  -0.00023   0.00000  -0.00182  -0.00182   1.91387
    D1        0.00000   0.00000   0.00000   0.00000   0.00000   0.00000
    D2        3.14159  -0.00000   0.00000  -0.00000  -0.00000   3.14159
    D3       -3.14158  -0.00000   0.00000  -0.00000  -0.00000  -3.14158
    D4        0.00001  -0.00000   0.00000  -0.00000  -0.00000   0.00001
    D5        0.00001  -0.00000   0.00000  -0.00000  -0.00000   0.00000
    D6       -3.14158  -0.00000   0.00000  -0.00000  -0.00000  -3.14158
    D7        3.14159  -0.00000   0.00000  -0.00000  -0.00000   3.14159
    D8        0.00001  -0.00000   0.00000  -0.00000  -0.00000   0.00000
    D9       -0.00000   0.00000   0.00000   0.00000   0.00000  -0.00000
   D10       -3.14159  -0.00000   0.00000  -0.00000  -0.00000  -3.14159
   D11       -3.14159   0.00000   0.00000   0.00000   0.00000  -3.14159
   D12        0.00001  -0.00000   0.00000  -0.00000  -0.00000   0.00001
   D13       -3.14158   0.00000   0.00000   0.00000   0.00000  -3.14158
   D14        0.00001   0.00000   0.00000   0.00000   0.00000   0.00001
   D15       -0.00000  -0.00000   0.00000  -0.00000  -0.00000  -0.00001
   D16       -3.14159  -0.00000   0.00000  -0.00000  -0.00000   3.14159
   D17        3.14158   0.00000   0.00000   0.00000   0.00000   3.14159
   D18       -0.00000   0.00000   0.00000   0.00000   0.00000  -0.00000
   D19       -3.14146  -0.00000   0.00000  -0.00002  -0.00002  -3.14148
   D20        0.00013  -0.00000   0.00000  -0.00002  -0.00002   0.00011
   D21        0.00001  -0.00000   0.00000  -0.00000  -0.00000   0.00001
   D22       -3.14159  -0.00000   0.00000  -0.00000  -0.00000  -3.14159
   D23       -3.14159  -0.00000   0.00000  -0.00000  -0.00000  -3.14159
   D24       -0.00000  -0.00000   0.00000   0.00000   0.00000  -0.00000
   D25       -0.00001   0.00000   0.00000   0.00000   0.00000  -0.00001
   D26        3.14157   0.00000   0.00000   0.00000   0.00000   3.14157
   D27        3.14159   0.00000   0.00000   0.00000   0.00000   3.14159
   D28       -0.00002   0.00000   0.00000   0.00000   0.00000  -0.00001
   D29        3.14144   0.00000   0.00000   0.00003   0.00003   3.14147
   D30       -0.00014   0.00000   0.00000   0.00003   0.00003  -0.00011
   D31       -0.00016   0.00000   0.00000   0.00003   0.00003  -0.00013
   D32        3.14145   0.00000   0.00000   0.00003   0.00003   3.14147
   D33        3.14159  -0.00000   0.00000  -0.00000  -0.00000   3.14159
   D34       -0.00001   0.00000   0.00000   0.00000   0.00000  -0.00001
   D35       -0.00001  -0.00000   0.00000  -0.00000  -0.00000  -0.00001
   D36        3.14157   0.00000   0.00000   0.00000   0.00000   3.14157
   D37        3.14157   0.00000   0.00000   0.00001   0.00001   3.14158
   D38       -0.00002   0.00000   0.00000   0.00001   0.00001  -0.00001
   D39       -0.00002   0.00000   0.00000   0.00000   0.00000  -0.00001
   D40        3.14158   0.00000   0.00000   0.00001   0.00001   3.14158
   D41        3.14158   0.00000   0.00000   0.00000   0.00000   3.14158
   D42       -0.00001   0.00000   0.00000   0.00000   0.00000  -0.00001
   D43        3.14151   0.00000   0.00000   0.00001   0.00001   3.14152
   D44       -1.06773   0.00009   0.00000   0.00093   0.00093  -1.06680
   D45        1.06756  -0.00009   0.00000  -0.00090  -0.00090   1.06666
         Item               Value     Threshold  Converged?
 Maximum Force            0.018491     0.000450     NO 
 RMS     Force            0.003364     0.000300     NO 
 Maximum Displacement     0.033810     0.001800     NO 
 RMS     Displacement     0.011507     0.001200     NO 
 Predicted change in Energy=-1.207473D-03
 GradGradGradGradGradGradGradGradGradGradGradGradGradGradGradGradGradGrad

                          Input orientation:                          
 ---------------------------------------------------------------------
 Center     Atomic      Atomic             Coordinates (Angstroms)
 Number     Number       Type             X           Y           Z
 ---------------------------------------------------------------------
      1          6           0        1.491960   -2.029305   -0.000315
      2          6           0        2.520898   -1.077128   -0.000346
      3          6           0        2.197691    0.303703   -0.000190
      4          6           0        0.863059    0.710678   -0.000008
      5          6           0       -0.185386   -0.247573    0.000017
      6          6           0        0.155396   -1.619950   -0.000134
      7          8           0        3.822251   -1.479424   -0.000518
      8          6           0       -1.561508    0.238162    0.000207
      9          6           0       -2.700417   -0.506289    0.000130
     10          6           0       -4.053434    0.065442    0.000343
     11          8           0       -5.087299   -0.601626    0.000259
     12          8           0       -4.077515    1.439651    0.000649
     13          8           0        3.298329    1.129442   -0.000241
     14          6           0        3.065337    2.539056    0.000045
     15          1           0        1.761310   -3.088729   -0.000425
     16          1           0        0.609078    1.774109    0.000113
     17          1           0       -0.630345   -2.379559   -0.000098
     18          1           0        4.376688   -0.672601   -0.000497
     19          1           0       -1.675926    1.329213    0.000429
     20          1           0       -2.691848   -1.599363   -0.000104
     21          1           0       -5.026272    1.679969    0.000753
     22          1           0        4.058578    3.007230    0.000027
     23          1           0        2.509125    2.848768   -0.903034
     24          1           0        2.509312    2.848430    0.903354
 ---------------------------------------------------------------------
                    Distance matrix (angstroms):
                    1          2          3          4          5
     1  C    0.000000
     2  C    1.401911   0.000000
     3  C    2.437414   1.418153   0.000000
     4  C    2.811231   2.438172   1.395304   0.000000
     5  C    2.447051   2.830572   2.446010   1.420381   0.000000
     6  C    1.397846   2.426984   2.805604   2.435696   1.414055
     7  O    2.394290   1.362116   2.412205   3.681489   4.192685
     8  C    3.803298   4.289059   3.759771   2.470181   1.459332
     9  C    4.460449   5.252427   4.964630   3.765550   2.528302
    10  C    5.927846   6.672878   6.255664   4.958651   3.880692
    11  O    6.732378   7.623041   7.341028   6.093348   4.914682
    12  O    6.561456   7.062098   6.377193   4.994063   4.242097
    13  O    3.638771   2.339519   1.375953   2.471013   3.745990
    14  C    4.831712   3.656939   2.397834   2.862341   4.281648
    15  H    1.093128   2.150235   3.420384   3.904145   3.444095
    16  H    3.904541   3.432872   2.164667   1.093340   2.172182
    17  H    2.151013   3.409789   3.898421   3.432174   2.177923
    18  H    3.187837   1.899369   2.387718   3.776116   4.581831
    19  H    4.616833   4.837749   4.007066   2.613241   2.169784
    20  H    4.205841   5.238840   5.246832   4.239534   2.847750
    21  H    7.499738   8.035009   7.353894   5.968563   5.210527
    22  H    5.652806   4.364223   3.282066   3.935162   5.348363
    23  H    5.064102   4.028356   2.718358   2.845421   4.202764
    24  H    5.063983   4.028253   2.718296   2.845382   4.202696
                    6          7          8          9         10
     6  C    0.000000
     7  O    3.669546   0.000000
     8  C    2.529890   5.651103   0.000000
     9  C    3.065275   6.594860   1.360632   0.000000
    10  C    4.533740   8.025772   2.497904   1.468853   0.000000
    11  O    5.340678   8.952687   3.624423   2.388785   1.230389
    12  O    5.222901   8.421834   2.788165   2.383921   1.374420
    13  O    4.175785   2.660953   4.940891   6.217762   7.428359
    14  C    5.075932   4.089143   5.167380   6.520586   7.536290
    15  H    2.176297   2.614831   4.702056   5.155192   6.615137
    16  H    3.424247   4.572740   2.659056   4.019076   4.965739
    17  H    1.092884   4.542670   2.778403   2.791834   4.206609
    18  H    4.326289   0.978961   6.007634   7.079059   8.462367
    19  H    3.471499   6.174009   1.097034   2.102058   2.692519
    20  H    2.847319   6.515202   2.157351   1.093108   2.150696
    21  H    6.143221   9.395644   3.752785   3.192072   1.884970
    22  H    6.053563   4.492873   6.265231   7.617666   8.628954
    23  H    5.130761   4.612166   4.919468   6.261904   7.185413
    24  H    5.130656   4.612061   4.919426   6.261887   7.185407
                   11         12         13         14         15
    11  O    0.000000
    12  O    2.277384   0.000000
    13  O    8.562438   7.382364   0.000000
    14  C    8.736667   7.226965   1.428740   0.000000
    15  H    7.286228   7.389053   4.489476   5.776889   0.000000
    16  H    6.171939   4.698512   2.765441   2.572616   4.997483
    17  H    4.798487   5.144836   5.267596   6.152303   2.494582
    18  H    9.464253   8.714078   2.100051   3.469060   3.560601
    19  H    3.919898   2.404127   4.978265   4.893189   5.597571
    20  H    2.594930   3.340012   6.582446   7.090253   4.695618
    21  H    2.282411   0.978721   8.342786   8.137086   8.295285
    22  H    9.832137   8.285730   2.025850   1.098051   6.514458
    23  H    8.392068   6.796033   2.096178   1.104918   6.052091
    24  H    8.392077   6.796015   2.096176   1.104918   6.051957
                   16         17         18         19         20
    16  H    0.000000
    17  H    4.334643   0.000000
    18  H    4.492357   5.289999   0.000000
    19  H    2.327913   3.853340   6.375061   0.000000
    20  H    4.719791   2.204200   7.129031   3.099783   0.000000
    21  H    5.636137   5.983639   9.692794   3.368657   4.025364
    22  H    3.663282   7.141673   3.693555   5.974971   8.172451
    23  H    2.362359   6.164979   4.086857   4.543120   6.902990
    24  H    2.362392   6.164863   4.086771   4.543073   6.902982
                   21         22         23         24
    21  H    0.000000
    22  H    9.181293   0.000000
    23  H    7.678876   1.800399   0.000000
    24  H    7.678868   1.800401   1.806388   0.000000
 Stoichiometry    C10H10O4
 Framework group  C1[X(C10H10O4)]
 Deg. of freedom    66
 Full point group                 C1      NOp   1
 Largest Abelian subgroup         C1      NOp   1
 Largest concise Abelian subgroup C1      NOp   1
                         Standard orientation:                         
 ---------------------------------------------------------------------
 Center     Atomic      Atomic             Coordinates (Angstroms)
 Number     Number       Type             X           Y           Z
 ---------------------------------------------------------------------
      1          6           0        1.491326   -2.027419   -0.000317
      2          6           0        2.519607   -1.074532   -0.000348
      3          6           0        2.195447    0.306076   -0.000192
      4          6           0        0.860534    0.712129   -0.000010
      5          6           0       -0.187249   -0.246846    0.000015
      6          6           0        0.154481   -1.618987   -0.000136
      7          8           0        3.821237   -1.475929   -0.000520
      8          6           0       -1.563706    0.237940    0.000205
      9          6           0       -2.702101   -0.507297    0.000128
     10          6           0       -4.055512    0.063500    0.000341
     11          8           0       -5.088916   -0.604282    0.000257
     12          8           0       -4.080541    1.437691    0.000647
     13          8           0        3.295515    1.132574   -0.000243
     14          6           0        3.061550    2.542027    0.000043
     15          1           0        1.761408   -3.086657   -0.000427
     16          1           0        0.605820    1.775385    0.000111
     17          1           0       -0.630737   -2.379138   -0.000100
     18          1           0        4.375118   -0.668723   -0.000499
     19          1           0       -1.678877    1.328911    0.000427
     20          1           0       -2.692777   -1.600365   -0.000106
     21          1           0       -5.029465    1.677354    0.000751
     22          1           0        4.054467    3.010887    0.000025
     23          1           0        2.505123    2.851355   -0.903036
     24          1           0        2.505311    2.851017    0.903352
 ---------------------------------------------------------------------
 Rotational constants (GHZ):      1.5259942      0.2847865      0.2403728
 Standard basis: 6-31+G(d,p) (6D, 7F)
 There are   316 symmetry adapted cartesian basis functions of A   symmetry.
 There are   316 symmetry adapted basis functions of A   symmetry.
   316 basis functions,   518 primitive gaussians,   316 cartesian basis functions
    51 alpha electrons       51 beta electrons
       nuclear repulsion energy       818.9658862227 Hartrees.
 NAtoms=   24 NActive=   24 NUniq=   24 SFac= 1.00D+00 NAtFMM=   60 NAOKFM=F Big=F
 Integral buffers will be    131072 words long.
 Raffenetti 2 integral format.
 Two-electron integral symmetry is turned on.
 Nuclear repulsion after empirical dispersion term =      818.9404272060 Hartrees.
 One-electron integrals computed using PRISM.
 NBasis=   316 RedAO= T EigKep=  1.51D-06  NBF=   316
 NBsUse=   315 1.00D-06 EigRej=  7.25D-07 NBFU=   315
 Initial guess from the checkpoint file:  "pbeFAgd3.chk"
 B after Tr=    -0.000000    0.000000   -0.000000
         Rot=    1.000000    0.000000   -0.000000   -0.000153 Ang=  -0.02 deg.
 ExpMin= 4.38D-02 ExpMax= 5.48D+03 ExpMxC= 8.25D+02 IAcc=2 IRadAn=         4 AccDes= 0.00D+00
 Harris functional with IExCor= 1009 and IRadAn=       4 diagonalized for initial guess.
 HarFok:  IExCor= 1009 AccDes= 0.00D+00 IRadAn=         4 IDoV= 1 UseB2=F ITyADJ=14
 ICtDFT=  3500011 ScaDFX=  1.000000  1.000000  1.000000  1.000000
 FoFCou: FMM=F IPFlag=           0 FMFlag=      100000 FMFlg1=           0
         NFxFlg=           0 DoJE=T BraDBF=F KetDBF=T FulRan=T
         wScrn=  0.000000 ICntrl=     500 IOpCl=  0 I1Cent=   200000004 NGrid=           0
         NMat0=    1 NMatS0=      1 NMatT0=    0 NMatD0=    1 NMtDS0=    0 NMtDT0=    0
 Petite list used in FoFCou.
 Requested convergence on RMS density matrix=1.00D-08 within 128 cycles.
 Requested convergence on MAX density matrix=1.00D-06.
 Requested convergence on             energy=1.00D-06.
 No special actions if energy rises.
 SCF Done:  E(RPBE-PBE) =  -687.249796138     A.U. after   13 cycles
            NFock= 13  Conv=0.52D-08     -V/T= 2.0096
 Calling FoFJK, ICntrl=      2527 FMM=F ISym2X=0 I1Cent= 0 IOpClX= 0 NMat=1 NMatS=1 NMatT=0.
 ***** Axes restored to original set *****
 -------------------------------------------------------------------
 Center     Atomic                   Forces (Hartrees/Bohr)
 Number     Number              X              Y              Z
 -------------------------------------------------------------------
      1        6          -0.000611103    0.000353722    0.000000197
      2        6          -0.000742174    0.000014976   -0.000000009
      3        6          -0.001891243   -0.000118886   -0.000000286
      4        6           0.000465255   -0.000265830    0.000000303
      5        6          -0.001255369    0.000264298    0.000000283
      6        6           0.001014307   -0.000194333   -0.000000326
      7        8          -0.000063224   -0.001091630   -0.000000105
      8        6           0.001649764   -0.000284512   -0.000000223
      9        6          -0.001670874    0.000263530    0.000000525
     10        6           0.003555559   -0.001764523   -0.000000936
     11        8          -0.001588074    0.000019574    0.000000259
     12        8           0.000380558    0.001543065    0.000000304
     13        8           0.001322759   -0.000622755    0.000000544
     14        6           0.000143446    0.001016197   -0.000000212
     15        1           0.000020651    0.000100647    0.000000004
     16        1          -0.000157646   -0.000367766   -0.000000056
     17        1           0.000090947    0.000178738   -0.000000080
     18        1           0.000554776    0.001142371    0.000000067
     19        1          -0.000295410   -0.000121353   -0.000000296
     20        1           0.000258001    0.000110887    0.000000023
     21        1          -0.001143481   -0.000036157    0.000000074
     22        1          -0.000005815    0.000009574   -0.000000081
     23        1          -0.000015897   -0.000074974   -0.000046155
     24        1          -0.000015712   -0.000074861    0.000046181
 -------------------------------------------------------------------
 Cartesian Forces:  Max     0.003555559 RMS     0.000762158

 GradGradGradGradGradGradGradGradGradGradGradGradGradGradGradGradGradGrad
 Berny optimization.
 Using GEDIIS/GDIIS optimizer.
 FormGI is forming the generalized inverse of G from B-inverse, IUseBI=4.
 GSVD:  received Info=                   1 from GESDD.
 Internal  Forces:  Max     0.001531941 RMS     0.000453961
 Search for a local minimum.
 Step number   2 out of a maximum of  115
 All quantities printed in internal units (Hartrees-Bohrs-Radians)
 Mixed Optimization -- En-DIIS/RFO-DIIS
 Update second derivatives using D2CorX and points    1    2
 DE= -1.21D-03 DEPred=-1.21D-03 R= 1.00D+00
 TightC=F SS=  1.41D+00  RLast= 7.59D-02 DXNew= 5.0454D-01 2.2761D-01
 Trust test= 1.00D+00 RLast= 7.59D-02 DXMaxT set to 3.00D-01
 ITU=  1  0
 Use linear search instead of GDIIS.
     Eigenvalues ---    0.01210   0.01290   0.01357   0.01508   0.01757
     Eigenvalues ---    0.01968   0.02024   0.02036   0.02039   0.02042
     Eigenvalues ---    0.02078   0.02089   0.02097   0.02128   0.02140
     Eigenvalues ---    0.02162   0.02179   0.02237   0.02736   0.10098
     Eigenvalues ---    0.10660   0.15728   0.16000   0.16000   0.16000
     Eigenvalues ---    0.16000   0.16000   0.16000   0.16000   0.16000
     Eigenvalues ---    0.16050   0.22000   0.22006   0.22361   0.23484
     Eigenvalues ---    0.24573   0.24609   0.25000   0.25000   0.25000
     Eigenvalues ---    0.25000   0.25716   0.34013   0.34084   0.34741
     Eigenvalues ---    0.35008   0.35331   0.35433   0.35459   0.35490
     Eigenvalues ---    0.36551   0.37391   0.40824   0.41426   0.41642
     Eigenvalues ---    0.44441   0.45275   0.46309   0.48214   0.49585
     Eigenvalues ---    0.50904   0.52595   0.53196   0.53233   0.55170
     Eigenvalues ---    0.93794
 RFO step:  Lambda=-6.30250759D-05 EMin= 1.20972192D-02
 Quartic linear search produced a step of  0.01755.
 Iteration  1 RMS(Cart)=  0.00536753 RMS(Int)=  0.00000826
 Iteration  2 RMS(Cart)=  0.00001642 RMS(Int)=  0.00000006
 Iteration  3 RMS(Cart)=  0.00000000 RMS(Int)=  0.00000006
 Variable       Old X    -DE/DX   Delta X   Delta X   Delta X     New X
                                 (Linear)    (Quad)   (Total)
    R1        2.64923  -0.00043   0.00024  -0.00086  -0.00061   2.64861
    R2        2.64155  -0.00091   0.00019  -0.00190  -0.00171   2.63984
    R3        2.06571  -0.00009   0.00027  -0.00012   0.00015   2.06586
    R4        2.67992  -0.00034   0.00026  -0.00065  -0.00038   2.67954
    R5        2.57403   0.00045   0.00011   0.00093   0.00104   2.57506
    R6        2.63674  -0.00051   0.00020  -0.00097  -0.00077   2.63597
    R7        2.60017   0.00130   0.00008   0.00266   0.00274   2.60292
    R8        2.68413  -0.00017   0.00022  -0.00025  -0.00004   2.68409
    R9        2.06611  -0.00032   0.00030  -0.00077  -0.00048   2.06564
   R10        2.67218  -0.00008   0.00024  -0.00005   0.00019   2.67237
   R11        2.75774  -0.00116  -0.00004  -0.00321  -0.00325   2.75449
   R12        2.06525  -0.00019   0.00028  -0.00040  -0.00012   2.06513
   R13        1.84997   0.00125   0.00028   0.00253   0.00281   1.85278
   R14        2.57122   0.00008   0.00032   0.00032   0.00063   2.57186
   R15        2.07309  -0.00009   0.00030  -0.00010   0.00020   2.07329
   R16        2.77573  -0.00119   0.00008  -0.00332  -0.00324   2.77249
   R17        2.06567  -0.00011   0.00029  -0.00017   0.00011   2.06579
   R18        2.32510   0.00132   0.00034   0.00158   0.00192   2.32702
   R19        2.59728   0.00153   0.00027   0.00315   0.00343   2.60070
   R20        1.84951   0.00110   0.00026   0.00223   0.00249   1.85201
   R21        2.69993   0.00083   0.00011   0.00209   0.00220   2.70213
   R22        2.07502  -0.00000   0.00026   0.00013   0.00039   2.07541
   R23        2.08799   0.00002   0.00028   0.00021   0.00050   2.08849
   R24        2.08799   0.00002   0.00028   0.00021   0.00050   2.08849
    A1        2.09772  -0.00010  -0.00001  -0.00058  -0.00059   2.09713
    A2        2.06850   0.00001  -0.00001   0.00002   0.00002   2.06852
    A3        2.11697   0.00009   0.00001   0.00056   0.00058   2.11754
    A4        2.08754   0.00018  -0.00002   0.00065   0.00064   2.08818
    A5        2.09510   0.00032   0.00004   0.00136   0.00140   2.09651
    A6        2.10054  -0.00050  -0.00003  -0.00201  -0.00204   2.09850
    A7        2.09670  -0.00006   0.00003  -0.00019  -0.00015   2.09655
    A8        1.98452  -0.00110  -0.00003  -0.00453  -0.00457   1.97995
    A9        2.20196   0.00117   0.00000   0.00472   0.00472   2.20669
   A10        2.10513  -0.00006  -0.00004  -0.00017  -0.00021   2.10492
   A11        2.10121   0.00028   0.00002   0.00164   0.00166   2.10288
   A12        2.07684  -0.00021   0.00002  -0.00147  -0.00145   2.07539
   A13        2.06789  -0.00011   0.00003  -0.00034  -0.00031   2.06757
   A14        2.06179  -0.00008   0.00001  -0.00038  -0.00037   2.06142
   A15        2.15351   0.00019  -0.00004   0.00072   0.00068   2.15419
   A16        2.11139   0.00015   0.00001   0.00063   0.00063   2.11202
   A17        2.07590  -0.00000   0.00002   0.00015   0.00016   2.07606
   A18        2.09589  -0.00014  -0.00002  -0.00077  -0.00079   2.09510
   A19        1.87305  -0.00035  -0.00030  -0.00237  -0.00267   1.87038
   A20        2.22333   0.00010  -0.00005   0.00042   0.00038   2.22371
   A21        2.01461   0.00027   0.00001   0.00179   0.00181   2.01641
   A22        2.04525  -0.00036   0.00003  -0.00221  -0.00218   2.04307
   A23        2.16285  -0.00005   0.00003  -0.00020  -0.00017   2.16268
   A24        2.14190  -0.00024  -0.00002  -0.00159  -0.00160   2.14029
   A25        1.97844   0.00029  -0.00001   0.00179   0.00178   1.98022
   A26        2.16878   0.00054  -0.00000   0.00221   0.00221   2.17100
   A27        1.98812   0.00097  -0.00016   0.00384   0.00368   1.99180
   A28        2.12628  -0.00151   0.00016  -0.00606  -0.00590   2.12038
   A29        1.83640  -0.00057  -0.00027  -0.00378  -0.00405   1.83235
   A30        2.05064   0.00051  -0.00034   0.00189   0.00156   2.05220
   A31        1.84746   0.00006  -0.00002   0.00042   0.00040   1.84787
   A32        1.93743  -0.00012   0.00001  -0.00078  -0.00077   1.93666
   A33        1.93743  -0.00012   0.00001  -0.00078  -0.00077   1.93666
   A34        1.91327   0.00005   0.00002   0.00037   0.00039   1.91367
   A35        1.91328   0.00005   0.00002   0.00037   0.00039   1.91367
   A36        1.91387   0.00009  -0.00003   0.00041   0.00037   1.91425
    D1        0.00000  -0.00000   0.00000  -0.00000  -0.00000   0.00000
    D2        3.14159   0.00000  -0.00000   0.00000   0.00000   3.14159
    D3       -3.14158  -0.00000  -0.00000  -0.00000  -0.00000  -3.14158
    D4        0.00001  -0.00000  -0.00000  -0.00000  -0.00000   0.00001
    D5        0.00000  -0.00000  -0.00000  -0.00000  -0.00000   0.00000
    D6       -3.14158  -0.00000  -0.00000  -0.00000  -0.00000  -3.14158
    D7        3.14159   0.00000  -0.00000   0.00000   0.00000   3.14159
    D8        0.00000  -0.00000  -0.00000  -0.00000  -0.00000   0.00000
    D9       -0.00000   0.00000   0.00000   0.00000   0.00000  -0.00000
   D10       -3.14159  -0.00000  -0.00000  -0.00000  -0.00000  -3.14159
   D11       -3.14159  -0.00000   0.00000  -0.00000  -0.00000  -3.14159
   D12        0.00001  -0.00000  -0.00000  -0.00000  -0.00000   0.00001
   D13       -3.14158  -0.00000   0.00000  -0.00000  -0.00000  -3.14158
   D14        0.00001   0.00000   0.00000   0.00000   0.00000   0.00001
   D15       -0.00001   0.00000  -0.00000   0.00000   0.00000  -0.00000
   D16        3.14159   0.00000  -0.00000   0.00000   0.00000   3.14159
   D17        3.14159   0.00000   0.00000   0.00000   0.00000   3.14159
   D18       -0.00000   0.00000   0.00000   0.00000   0.00000  -0.00000
   D19       -3.14148  -0.00000  -0.00000  -0.00002  -0.00002  -3.14150
   D20        0.00011  -0.00000  -0.00000  -0.00002  -0.00002   0.00009
   D21        0.00001  -0.00000  -0.00000  -0.00000  -0.00000   0.00001
   D22       -3.14159  -0.00000  -0.00000  -0.00000  -0.00000  -3.14159
   D23       -3.14159  -0.00000  -0.00000  -0.00000  -0.00000  -3.14159
   D24       -0.00000  -0.00000   0.00000  -0.00000  -0.00000  -0.00000
   D25       -0.00001   0.00000   0.00000   0.00000   0.00000  -0.00001
   D26        3.14157   0.00000   0.00000   0.00000   0.00000   3.14157
   D27        3.14159   0.00000   0.00000   0.00000   0.00000   3.14159
   D28       -0.00001   0.00000   0.00000   0.00000   0.00000  -0.00001
   D29        3.14147   0.00000   0.00000   0.00003   0.00003   3.14150
   D30       -0.00011   0.00000   0.00000   0.00003   0.00003  -0.00009
   D31       -0.00013   0.00000   0.00000   0.00003   0.00003  -0.00010
   D32        3.14147   0.00000   0.00000   0.00003   0.00003   3.14150
   D33        3.14159  -0.00000  -0.00000  -0.00000  -0.00000   3.14159
   D34       -0.00001   0.00000   0.00000   0.00000   0.00000  -0.00001
   D35       -0.00001   0.00000  -0.00000   0.00000   0.00000  -0.00001
   D36        3.14157   0.00000   0.00000   0.00000   0.00000   3.14158
   D37        3.14158   0.00000   0.00000   0.00001   0.00001   3.14159
   D38       -0.00001  -0.00000   0.00000   0.00000   0.00000  -0.00001
   D39       -0.00001   0.00000   0.00000   0.00001   0.00001  -0.00000
   D40        3.14158  -0.00000   0.00000  -0.00000  -0.00000   3.14158
   D41        3.14158   0.00000   0.00000   0.00001   0.00001   3.14159
   D42       -0.00001  -0.00000   0.00000  -0.00000  -0.00000  -0.00001
   D43        3.14152   0.00000   0.00000   0.00001   0.00001   3.14153
   D44       -1.06680   0.00003   0.00002   0.00030   0.00031  -1.06649
   D45        1.06666  -0.00003  -0.00002  -0.00027  -0.00028   1.06637
         Item               Value     Threshold  Converged?
 Maximum Force            0.001532     0.000450     NO 
 RMS     Force            0.000454     0.000300     NO 
 Maximum Displacement     0.022724     0.001800     NO 
 RMS     Displacement     0.005377     0.001200     NO 
 Predicted change in Energy=-3.185280D-05
 GradGradGradGradGradGradGradGradGradGradGradGradGradGradGradGradGradGrad

                          Input orientation:                          
 ---------------------------------------------------------------------
 Center     Atomic      Atomic             Coordinates (Angstroms)
 Number     Number       Type             X           Y           Z
 ---------------------------------------------------------------------
      1          6           0        1.490371   -2.028496   -0.000325
      2          6           0        2.518121   -1.075515   -0.000345
      3          6           0        2.194460    0.305002   -0.000182
      4          6           0        0.860008    0.711170   -0.000005
      5          6           0       -0.187726   -0.247828    0.000010
      6          6           0        0.154506   -1.619948   -0.000148
      7          8           0        3.820961   -1.474845   -0.000513
      8          6           0       -1.562401    0.236844    0.000197
      9          6           0       -2.701604   -0.507769    0.000141
     10          6           0       -4.052931    0.063555    0.000350
     11          8           0       -5.089253   -0.601575    0.000296
     12          8           0       -4.081847    1.439484    0.000630
     13          8           0        3.299726    1.126968   -0.000223
[...]
 0000004,0.00012203,0.00001819,0.,0.00005355,-0.00006534,-0.00000002,0.
 00024378,-0.00114452,-0.00000022,-0.00034570,0.00017733,0.00000013,-0.
 06888682,0.33188203,0.00000986,-0.00003301,-0.03151233,0.00000027,0.00
 000011,0.00436290,0.00000052,-0.00000040,0.00525165,0.,0.00000014,-0.0
 0071023,0.00000137,-0.00000055,0.00666257,0.00000036,-0.00000325,0.001
 79045,-0.00000036,0.00000032,-0.00321053,-0.00000007,-0.00000023,0.000
 54031,0.00000003,0.,0.00002915,-0.00000006,0.00000004,-0.00010829,0.00
 000003,0.,0.00001001,0.00000001,-0.00000002,0.00001535,0.00000002,0.00
 000003,0.00021156,-0.00000004,0.00000009,-0.00034703,-0.00001129,0.000
 03614,0.02230592,-0.00092730,-0.00010940,-0.00000002,-0.00484930,-0.00
 083408,0.00000096,-0.00103481,0.02915890,0.00000342,-0.06812062,0.0636
 6056,0.00001080,0.00771003,-0.01988467,-0.00000268,-0.00314964,-0.0029
 1123,0.00000051,-0.00098576,0.00178405,0.00000024,0.00110210,-0.002683
 84,-0.00000097,0.00010171,0.00041478,0.00000009,-0.00029469,-0.0000868
 3,0.00000003,0.00022020,0.00008501,-0.00000001,0.00010973,-0.00000771,
 -0.00000002,0.00187156,-0.00158378,-0.00000074,-0.00149160,0.00058947,
 0.00000019,0.00006941,0.00004384,-0.00000004,0.07031699,-0.00032418,0.
 00057819,0.00000020,0.00099162,0.00153765,-0.00000054,0.00066535,-0.00
 567400,-0.00000089,0.06427132,-0.30923020,-0.00003530,0.00612165,-0.01
 673446,-0.00000245,-0.00392221,-0.00092718,-0.00000017,0.00015679,-0.0
 0044195,0.,0.00280727,0.00059934,0.00000024,-0.00057968,0.00039560,0.0
 0000007,0.00016236,-0.00024371,-0.00000008,-0.00007742,0.00001237,0.00
 000001,-0.00001086,0.00015506,0.00000003,-0.00040622,-0.00081980,0.000
 00021,-0.00161757,-0.00061527,0.00000004,0.00008395,-0.00008083,0.0000
 0002,-0.06580988,0.33199836,-0.00000002,0.00000018,-0.00094189,0.00000
 123,-0.00000038,0.00577507,0.00000044,-0.00000393,0.00366346,0.0000109
 6,-0.00003508,-0.02819310,0.00000005,0.00000014,0.00170031,0.00000031,
 -0.00000016,0.00435871,0.00000006,-0.00000017,-0.00057710,-0.00000028,
 0.00000084,-0.00376592,-0.00000010,-0.00000007,0.00016811,0.00000006,-
 0.00000005,0.00033103,-0.00000004,0.,-0.00012183,-0.00000002,0.0000000
 2,-0.00007931,-0.00000056,0.00000032,-0.00288006,-0.00000017,-0.000000
 06,-0.00023465,-0.00000004,0.00000002,-0.00036739,-0.00001194,0.000038
 37,0.02036569,-0.01703343,-0.02090902,0.,-0.00293286,0.00334792,0.0000
 0132,-0.00029551,0.00079839,0.00000003,0.00042992,0.00178466,0.0000007
 0,0.00885636,0.00433257,-0.00000029,-0.19422103,-0.13628527,0.00000480
 ,-0.00120820,-0.00138184,0.00000001,-0.00086698,-0.00050710,-0.0000003
 4,-0.00029152,0.00153206,0.00000015,-0.00033586,-0.00002728,0.00000003
 ,0.00022174,0.00003596,-0.00000002,0.00013284,-0.00015608,-0.00000004,
 0.00008948,-0.00025079,-0.00000009,-0.00001452,0.00009843,0.,0.0010452
 4,0.00008409,-0.00000054,0.00026913,0.00044505,0.00000009,0.20809329,0
 .00860642,0.00864113,-0.00000034,0.00220836,0.00007510,-0.00000086,0.0
 0091272,-0.00033550,-0.00000003,0.00293364,-0.00435732,-0.00000120,-0.
 02219584,-0.01498825,0.00000067,-0.13772570,-0.18668169,0.00000013,0.0
 0042372,0.00048915,-0.00000001,-0.00186652,0.00071254,0.00000045,0.000
 28711,-0.00060164,-0.00000010,0.00035073,0.00030353,0.,-0.00004890,0.0
 0007317,0.00000003,-0.00030385,0.00027023,0.00000006,-0.00015340,0.000
 19125,0.00000007,-0.00000760,-0.00009539,0.00000002,-0.00019089,0.0007
 7111,0.00000047,-0.00114766,-0.00091338,-0.00000007,0.14638828,0.19563
 730,0.00000272,0.00000268,0.00266815,0.00000121,-0.00000096,0.00697542
 ,0.00000001,-0.00000006,-0.00082116,0.00000073,-0.00000119,0.00527262,
 -0.00000227,-0.00000260,0.00172887,0.00000464,0.00000035,-0.03141045,0
 .00000015,0.00000016,0.00028517,-0.00000075,0.00000050,-0.00318211,0.0
 0000007,0.00000006,0.00008405,0.00000009,0.00000001,-0.00022360,-0.000
 00005,0.,-0.00013086,-0.00000002,0.00000003,0.00001631,-0.00000004,0.0
 0000012,-0.00048594,-0.00000002,0.00000002,-0.00021520,-0.00000052,0.0
 0000043,-0.00405704,-0.00000008,-0.00000022,0.00086703,-0.00000604,0.0
 0000077,0.02165604,-0.00487453,0.00487251,0.00000113,-0.03533843,-0.03
 586104,-0.00000071,-0.00234268,-0.00140788,0.00000034,-0.00098494,-0.0
 0112398,-0.00000010,0.00076518,-0.00002670,-0.00000009,-0.00045449,-0.
 00181090,0.00000006,-0.16264876,-0.16521878,-0.00000328,-0.00070242,0.
 00018378,0.00000007,0.00071822,-0.00005376,-0.00000008,-0.00083573,0.0
 0038592,0.00000012,0.00047374,0.00006332,-0.00000002,0.00014769,-0.000
 29142,-0.00000006,-0.00012733,-0.00084882,-0.00000032,0.00108478,0.001
 28198,0.00000006,0.00016383,0.00013549,-0.00000007,0.00032451,-0.00013
 771,-0.00000002,-0.00040768,0.00022872,0.00000005,0.20487959,0.0049997
 3,0.00041855,-0.00000080,0.00323387,0.00955307,0.00000098,0.01047259,0
 .00254900,-0.00000093,-0.00252304,-0.00079808,0.00000029,0.00149513,-0
 .00066856,-0.00000023,-0.00125091,0.00077726,0.00000005,-0.21273738,-0
 .33629889,-0.00001534,-0.00122102,0.00004141,0.00000011,0.00088802,0.0
 0004014,-0.00000007,-0.00082791,0.00052074,0.00000014,0.00039814,0.000
 02136,-0.00000002,0.00011741,-0.00038415,-0.00000007,-0.00159768,0.001
 08243,0.00000086,-0.00232612,-0.00280750,-0.00000041,0.00014289,0.0001
 3694,0.00000005,0.00034510,-0.00007671,-0.00000006,0.00018976,-0.00002
 553,0.00000002,0.20059225,0.32421516,0.00000131,-0.00000068,0.00236350
 ,0.00000376,0.00000463,-0.00262782,0.00000134,0.00000031,0.00119480,-0
 .00000025,0.00000006,-0.00072622,0.00000007,-0.00000007,0.00002799,0.0
 0000008,0.00000013,0.00163520,-0.00000844,-0.00001987,-0.00805524,-0.0
 0000006,-0.00000002,-0.00007839,0.,0.00000003,-0.00004472,0.00000003,0
 .,-0.00002519,-0.00000002,0.,-0.00001160,0.,0.,-0.00000668,-0.00000044
 ,0.00000033,-0.00097934,-0.00000039,-0.00000020,-0.00141376,-0.0000000
 6,0.00000004,-0.00058135,0.00000002,-0.00000001,0.00022107,0.00000005,
 0.,-0.00020119,0.00000303,0.00001512,0.00908977,0.00046493,0.00143321,
 0.,0.00011929,-0.00006461,0.00000004,-0.00005428,-0.00023253,-0.000000
 02,0.00085243,0.00239364,-0.00000003,-0.00270428,0.02688522,0.00000465
 ,-0.00519448,-0.00010269,0.00000090,0.00000793,-0.00012914,-0.00000004
 ,-0.05500388,0.02893117,0.00000601,0.00454255,-0.02714314,-0.00000444,
 0.00081110,-0.00371446,-0.00000124,0.00054579,0.00128963,0.00000027,-0
 .00207843,0.00168527,0.00000056,0.00002582,-0.00012803,-0.00000002,-0.
 00004502,0.00011034,0.00000002,-0.00039242,0.00010056,0.,-0.00057459,-
 0.00108319,0.00000005,0.00010487,0.00005605,0.,-0.00004171,0.00002542,
 0.00000001,0.06219772,-0.00028196,-0.00043506,0.00000004,-0.00025319,0
 .00023306,0.00000004,0.00009151,0.00002888,0.00000009,-0.00206660,0.00
 125589,0.00000065,-0.00037764,-0.00880413,-0.00000184,0.00133148,0.001
 10412,-0.00000061,0.00018659,0.00001920,-0.00000004,0.02714214,-0.3145
 1249,-0.00004611,0.00178625,-0.01680422,-0.00000389,0.00048166,-0.0017
 3723,0.00000077,0.00003265,0.00063109,-0.00000007,0.00172647,0.0008201
 8,-0.00000010,0.00013150,0.00020748,0.,0.00004690,-0.00013562,-0.00000
 004,0.00016031,-0.00001795,0.00000004,0.00069205,0.00056004,-0.0000001
 2,-0.00010151,0.00006187,0.00000002,-0.00000107,-0.00003016,0.,-0.0286
 3456,0.33681240,-0.00000036,-0.00000024,-0.00015480,0.00000011,0.00000
 008,0.00022320,-0.00000003,0.00000013,-0.00003915,-0.00000048,0.000000
 12,-0.00165306,-0.00000016,-0.00000399,0.00422265,0.00000113,-0.000000
 32,0.00312844,-0.00000007,0.00000002,-0.00004151,0.00000637,-0.0000457
 8,-0.03993833,-0.00000042,-0.00000168,0.00571303,-0.00000025,0.0000010
 9,-0.00697575,-0.00000009,-0.00000024,0.00107973,0.00000050,-0.0000001
 8,0.00077211,0.00000002,0.00000002,0.00001482,0.00000001,-0.00000002,0
 .00006523,0.00000002,0.00000003,-0.00039084,0.00000043,0.00000001,0.00
 031267,-0.00000003,0.,-0.00006084,0.00000002,0.,0.00003549,-0.00000739
 ,0.00005221,0.02488786,0.00005589,0.00038353,0.00000002,0.00001879,-0.
 00006202,-0.00000003,-0.00014967,0.00015994,0.00000003,0.00020395,0.00
 014067,0.00000002,0.00051935,0.00078695,-0.00000032,-0.00102954,-0.001
 15309,-0.00000005,-0.00000063,0.00007715,0.00000002,0.00605725,-0.0260
 1223,-0.00000455,-0.05160750,0.00148298,0.00000202,0.00191140,0.028291
 71,0.00000475,0.00118951,-0.00167830,-0.00000049,-0.00591464,0.0020062
 4,0.00000095,0.00017781,0.00020490,0.,0.00003301,-0.00012200,-0.000000
 02,-0.00003528,-0.00000352,0.,0.00016066,0.00015449,0.,-0.00164206,0.0
 0126891,0.00000010,0.00001409,0.00000978,0.,-0.00382731,-0.00217775,0.
 00000070,0.05388776,0.00003435,0.00042887,0.00000011,0.00001287,-0.000
 00914,0.00000006,-0.00001991,-0.00013403,0.00000001,-0.00022172,-0.000
 07025,0.00000003,0.00151332,-0.00043061,0.00000070,0.00047361,0.000163
 57,0.00000005,0.00011735,0.00003472,-0.00000005,0.00059184,-0.01283200
 ,-0.00000281,0.00624639,-0.32710635,-0.00005118,-0.00437829,-0.0119400
 1,-0.00000177,-0.00025029,0.00200271,0.00000062,0.00269764,0.00031834,
 -0.00000051,0.00004028,0.00014329,0.,0.00002333,-0.00008044,-0.0000000
 2,-0.00002931,-0.00000729,0.,0.00004833,0.00011430,-0.00000002,0.00063
 531,0.00064271,-0.00000017,0.00000491,-0.00002009,-0.00000001,-0.00207
 115,0.00023657,-0.00000137,-0.00537875,0.34911351,0.00000014,0.0000001
 5,-0.00032469,-0.00000007,-0.00000011,-0.00041278,-0.00000011,0.000000
 10,-0.00001172,0.00000016,0.00000003,-0.00009235,-0.00000059,0.0000008
 9,-0.00499652,-0.00000009,-0.00000003,-0.00019807,0.00000005,0.,0.0002
 0130,0.00000035,-0.00000074,0.00416146,0.00000262,-0.00005096,-0.03294
 462,-0.00000080,-0.00000468,0.00110840,-0.00000024,0.00000078,-0.00141
 490,0.00000110,-0.00000035,0.00182681,0.,0.,0.00003779,0.,-0.00000001,
 0.00002340,0.,-0.00000001,0.00011312,0.00000003,0.,0.00011513,0.000000
 20,-0.00000005,0.00110953,0.,-0.00000001,0.00004883,0.00000068,-0.0000
 0120,0.00920915,-0.00000351,0.00005658,0.02162903,0.00009956,0.0000612
 0,-0.00000005,-0.00018863,0.00009093,0.00000004,-0.00000610,-0.0002145
 5,-0.00000003,-0.00013676,-0.00005166,0.00000002,0.00032106,-0.0001067
 9,-0.00000004,-0.00008849,0.00014016,0.00000010,0.00023045,-0.00004389
 ,-0.00000003,-0.00022192,-0.00031803,-0.00000012,0.00238735,-0.0002464
 2,-0.00000014,-0.00524220,0.01183499,0.00000282,-0.00338829,-0.0060867
 2,-0.00000122,-0.44291369,0.10819807,0.00004807,0.00007248,0.00009764,
 0.,-0.00000018,-0.00004686,0.,0.00000167,-0.00000579,0.,-0.00000819,0.
 00000440,0.,-0.00000534,-0.00001398,0.00000001,-0.00002990,-0.00002192
 ,0.,0.00023150,0.00009653,-0.00000002,-0.00000269,-0.00008051,0.000000
 05,0.44889603,-0.00014319,-0.00001630,0.00000002,0.00032293,-0.0001286
 1,-0.00000003,0.00009051,0.00034935,0.00000001,0.00011889,0.00011230,0
 .00000002,-0.00014420,0.00046865,0.00000006,-0.00005864,-0.00021847,-0
 .00000002,-0.00038871,0.00006459,0.00000004,-0.00093566,-0.00022488,0.
 00000014,-0.00250934,-0.00719630,-0.00000155,0.05680115,-0.01980006,-0
 .00000796,-0.00598387,0.00701226,0.00000248,0.06421313,-0.05927054,-0.
 00001193,-0.00018627,-0.00027303,-0.00000001,-0.00003191,0.00015863,0.
 00000002,-0.00001950,0.00001295,0.,0.00004284,0.00000718,0.,0.00000724
 ,0.00005146,-0.00000002,0.00004883,0.00004638,0.,0.00044338,0.00045691
 ,0.00000009,0.00159113,-0.00059018,-0.00000037,-0.11330237,0.07900751,
 -0.00000004,0.,-0.00014110,0.00000007,-0.00000004,-0.00005530,0.000000
 02,0.00000009,0.00008035,0.00000004,0.00000004,-0.00011844,-0.00000008
 ,0.00000006,0.00011158,0.00000002,-0.00000008,0.00019055,-0.00000010,0
 .00000002,0.00000868,-0.00000010,0.00000007,-0.00039487,-0.00000030,-0
 .00000176,0.00333913,0.00000966,-0.00000453,0.00357481,-0.00000107,0.0
 0000252,-0.00563966,0.00004105,-0.00001527,-0.01247599,-0.00000004,-0.
 00000005,-0.00001119,0.,0.00000003,0.00002686,0.,0.,0.00000369,0.,0.,0
 .00001928,0.00000001,0.,0.00009220,0.00000001,0.,0.00001572,-0.0000000
 2,0.00000013,-0.00035947,0.00000033,-0.00000025,0.00082206,-0.00004946
 ,0.00001903,0.01092327,-0.00014443,0.00003981,0.,0.00028426,0.00027068
 ,0.00000002,0.00113685,0.00234325,0.00000018,-0.00046192,0.00044393,0.
 00000013,0.00026681,-0.00011624,-0.00000006,-0.00006348,-0.00014602,0.
 ,0.00011987,-0.00018935,-0.00000003,0.00011244,0.00001800,-0.00000002,
 -0.00012800,0.00000209,0.00000001,0.00020808,-0.00008807,-0.00000003,-
 0.00012155,-0.00000943,0.,-0.00004868,0.00007469,0.00000002,0.00850488
 ,0.00370405,-0.00000012,-0.27516600,-0.10274488,0.00000638,0.00002404,
 0.00001510,0.,0.00027369,-0.00051309,-0.00000009,0.00000626,-0.0000412
 1,0.,-0.00008774,0.00012360,0.00000004,0.00003079,-0.00000394,0.,-0.00
 000087,-0.00000090,0.,0.00000783,-0.00001642,0.,0.28763002,0.00055070,
 -0.00043188,-0.00000004,-0.00229843,-0.00060349,0.00000006,0.00327253,
 -0.00449030,-0.00000150,0.00118573,-0.00049741,-0.00000014,-0.00048535
 ,0.00018812,0.00000006,-0.00001579,0.00011081,-0.00000001,0.00038093,0
 .00012193,-0.00000002,0.00014696,-0.00010967,-0.00000002,-0.00018346,0
 .00002948,0.00000002,0.00017610,-0.00011491,-0.00000003,-0.00009148,0.
 00000007,0.,-0.00003367,0.00008870,0.00000002,-0.03251210,-0.02971110,
 -0.00000104,-0.08957512,-0.08091573,0.00000324,-0.00014379,-0.00011940
 ,0.00000001,-0.00016787,0.00060049,0.00000015,-0.00002545,0.00003611,0
 .,-0.00018132,-0.00019337,-0.00000003,-0.00002421,0.00001416,0.,0.0000
 1094,0.00000804,0.,0.00000420,-0.00000975,0.,0.10669978,0.10632563,0.0
 0000013,-0.00000006,-0.00000775,-0.00000035,-0.00000022,0.00032387,0.0
 0000052,-0.00000088,0.00060167,0.00000026,-0.00000010,0.00025374,-0.00
 000010,-0.00000002,0.00017584,-0.00000002,0.00000006,-0.00003589,0.000
 00002,0.00000006,-0.00011483,0.00000002,-0.00000002,0.00003597,-0.0000
 0002,0.,0.00000855,0.,0.,-0.00000858,0.,0.,0.00000125,0.,0.,0.00000440
 ,-0.00000611,-0.00000525,-0.00018133,0.00000850,0.00000465,-0.04696096
 ,-0.00000003,-0.00000002,-0.00004324,-0.00000006,0.00000023,-0.0004987
 6,0.,0.00000001,-0.00002560,0.,-0.00000005,0.00016283,0.,0.,-0.0000123
 4,0.,0.,-0.00000180,0.,0.,-0.00000008,-0.00000720,-0.00000060,0.043490
 02,0.00025228,-0.00004239,-0.00004927,0.00032839,-0.00020173,-0.000117
 00,0.00030552,-0.00108522,0.00114567,0.00013608,0.00059695,0.00031728,
 -0.00014780,-0.00032408,-0.00046085,0.00006451,0.00040719,-0.00006352,
 -0.00028731,0.00014986,0.00009433,-0.00012469,0.00003174,0.00000339,0.
 00018838,-0.00001302,0.00000551,-0.00026157,0.00013554,0.00000101,0.00
 014968,0.00000409,0.00000106,0.00006181,-0.00011229,-0.00000302,-0.001
 37884,0.00759862,-0.00226870,-0.10969173,0.02900306,-0.10328267,0.0000
 1354,0.00002633,0.00000189,-0.00054656,-0.00069134,0.00096122,0.000002
 95,0.00001543,0.00008512,0.00015234,-0.00026386,-0.00014249,-0.0000091
 5,-0.00000392,0.00000815,-0.00000964,-0.00000436,0.00000083,-0.0000077
 8,0.00002002,-0.00000128,-0.01119384,0.00665871,-0.02283846,0.11425962
 ,0.00068011,0.00021341,-0.00008938,0.00030290,-0.00172562,-0.00060801,
 0.00579864,0.00465521,0.00133021,-0.00064161,0.00078554,-0.00028289,-0
 .00049384,-0.00045122,-0.00028109,-0.00053619,0.00038887,-0.00007558,-
 0.00070911,-0.00033548,-0.00012348,0.00022934,-0.00008838,0.00001454,-
 0.00023504,0.00001425,-0.00001340,0.00021345,-0.00011914,0.00000599,-0
 .00011386,-0.00001061,-0.00000300,-0.00003571,0.00009421,-0.00000775,0
 .01787816,-0.02991836,0.02701872,0.02576098,-0.05759361,0.04495382,-0.
 00001033,-0.00001280,0.00007250,-0.00081889,-0.00040080,0.00093007,-0.
 00001769,0.00002102,0.00006079,-0.00041715,0.00095035,0.00039945,-0.00
 001309,0.00001750,0.00001515,0.00000916,0.00000689,-0.00000013,0.00000
 569,-0.00001002,0.00000065,-0.00493413,0.00483865,-0.01033750,-0.03740
 733,0.07449187,-0.00009709,-0.00013418,-0.00002962,0.00031012,0.000375
 96,-0.00023008,-0.00122847,-0.00110000,0.00066666,-0.00079322,0.000862
 04,-0.00010223,0.00039807,-0.00033586,-0.00010697,0.00005891,0.0000000
 7,-0.00005497,0.00008126,-0.00015886,0.00005588,-0.00008793,0.00010556
 ,0.00003203,0.00008893,-0.00002369,0.00000584,-0.00003850,0.00009945,-
 0.00000634,-0.00000065,-0.00002576,0.00000338,0.00000570,-0.00007686,0
 .00001232,0.00221750,0.00513355,0.00663401,-0.10316258,0.04933599,-0.2
 2015068,0.00001292,0.00000913,0.00001581,0.00065977,-0.00020958,-0.000
 11879,0.00001588,-0.00006550,0.00002930,0.00004325,-0.00010509,-0.0000
 2180,0.00004786,-0.00001467,-0.00001915,-0.00001547,-0.00001370,-0.000
 00429,0.00000256,0.00000588,-0.00000604,0.00200457,-0.00104160,0.00141
 663,0.11304262,-0.05780525,0.23082508,0.00025234,-0.00004236,0.0000492
 6,0.00032843,-0.00020190,0.00011672,0.00030581,-0.00108467,-0.00114604
 ,0.00013631,0.00059684,-0.00031711,-0.00014786,-0.00032414,0.00046072,
 0.00006451,0.00040721,0.00006354,-0.00028740,0.00014989,-0.00009425,-0
 .00012465,0.00003171,-0.00000332,0.00018835,-0.00001301,-0.00000553,-0
 .00026155,0.00013552,-0.00000093,0.00014968,0.00000409,-0.00000108,0.0
 0006181,-0.00011228,0.00000298,-0.00137922,0.00759629,0.00227324,-0.10
 964960,0.02895909,0.10327009,0.00001354,0.00002633,-0.00000188,-0.0005
 4666,-0.00069089,-0.00096122,0.00000292,0.00001546,-0.00008510,0.00015
 235,-0.00026384,0.00014241,-0.00000916,-0.00000392,-0.00000815,-0.0000
 0964,-0.00000436,-0.00000083,-0.00000778,0.00002002,0.00000128,-0.0111
 8931,0.00665146,0.02284291,0.00774379,-0.00449448,-0.01356601,0.114212
 99,0.00068019,0.00021344,0.00008926,0.00030313,-0.00172567,0.00060769,
 0.00579793,0.00465602,-0.00133021,-0.00064157,0.00078550,0.00028323,-0
 .00049369,-0.00045152,0.00028113,-0.00053623,0.00038891,0.00007582,-0.
 00070894,-0.00033542,0.00012355,0.00022931,-0.00008834,-0.00001462,-0.
 00023500,0.00001425,0.00001342,0.00021343,-0.00011910,-0.00000605,-0.0
 0011385,-0.00001062,0.00000301,-0.00003570,0.00009418,0.00000778,0.017
 87308,-0.02990833,-0.02703423,0.02571780,-0.05756183,-0.04490467,-0.00
 001033,-0.00001278,-0.00007250,-0.00081911,-0.00040031,-0.00092992,-0.
 00001769,0.00002101,-0.00006079,-0.00041717,0.00095025,-0.00039919,-0.
 00001308,0.00001750,-0.00001514,0.00000916,0.00000688,0.00000013,0.000
 00569,-0.00001002,-0.00000065,-0.00493129,0.00483480,0.01033972,-0.004
 49799,0.00418827,0.00518297,-0.03735807,0.07445291,0.00009729,0.000134
 29,-0.00002959,-0.00031022,-0.00037650,-0.00022996,0.00123033,0.001101
 53,0.00066662,0.00079289,-0.00086183,-0.00010238,-0.00039818,0.0003357
 3,-0.00010676,-0.00005917,-0.00000002,-0.00005497,-0.00008139,0.000158
 71,0.00005598,0.00008803,-0.00010560,0.00003199,-0.00008904,0.00002370
 ,0.00000586,0.00003862,-0.00009952,-0.00000637,0.00000058,0.00002576,0
 .00000339,-0.00000573,0.00007691,0.00001234,-0.00220965,-0.00514689,0.
 00662306,0.10314907,-0.04928767,-0.22022357,-0.00001292,-0.00000915,0.
 00001579,-0.00065997,0.00020978,-0.00011876,-0.00001587,0.00006549,0.0
 0002930,-0.00004341,0.00010545,-0.00002191,-0.00004787,0.00001469,-0.0
 0001915,0.00001548,0.00001371,-0.00000428,-0.00000256,-0.00000588,-0.0
 0000604,-0.00200380,0.00104147,0.00141636,0.01355917,-0.00517443,-0.01
 884599,-0.11303169,0.05776028,0.23090903\\-0.00008573,0.00004004,-0.00
 000007,-0.00007382,0.00007151,0.00000008,0.00002805,0.00007020,0.00000
 024,-0.00009880,-0.00009920,-0.00000014,0.00004164,0.00007593,0.000000
 07,0.00009979,-0.00004490,0.00000005,-0.00000896,-0.00025982,-0.000000
 08,-0.00002830,-0.00004686,-0.00000011,0.00010689,0.00008841,-0.000001
 16,0.00006702,0.00027300,0.00000368,-0.00012148,-0.00010731,-0.0000013
 5,0.00020513,-0.00018236,-0.00000107,0.00000396,0.00001301,-0.00000049
 ,0.00002316,-0.00017224,0.00000027,0.00001362,-0.00002758,0.,0.0000199
 3,0.00005098,0.00000002,0.00000762,-0.00001067,0.00000008,0.00003166,0
 .00018146,0.00000003,-0.00000574,0.00003609,0.00000011,-0.00002698,-0.
 00001942,-0.00000016,-0.00014966,0.00001684,-0.00000001,0.00003915,0.0
 0001888,0.00000003,-0.00004403,0.00001704,-0.00004744,-0.00004412,0.00
 001696,0.00004741\\\@


 CURIOUSER AND CURIOUSER

                  -- ALICE, IN WONDERLAND
 Job cpu time:       0 days  0 hours 49 minutes 19.4 seconds.
 File lengths (MBytes):  RWF=    250 Int=      0 D2E=      0 Chk=      9 Scr=      1
 Normal termination of Gaussian 09 at Thu Jun 20 12:04:30 2024.
