 Entering Gaussian System, Link 0=g09
 Input=B2PLYPD3Anthranilicyang.gjf
 Output=B2PLYPD3Anthranilicyang.log
 Initial command:
 /home/phzd/g09E/g09/l1.exe "/home/phzd/g09E/scratch/Gau-1520292.inp" -scrdir="/home/phzd/g09E/scratch/"
 Default is to use a total of  18 processors:
                               18 via shared-memory
                                1 via Linda
 Entering Link 1 = /home/phzd/g09E/g09/l1.exe PID=   1520294.
  
 Copyright (c) 1988,1990,1992,1993,1995,1998,2003,2009,2015,
            Gaussian, Inc.  All Rights Reserved.
  
 This is part of the Gaussian(R) 09 program.  It is based on
 the Gaussian(R) 03 system (copyright 2003, Gaussian, Inc.),
 the Gaussian(R) 98 system (copyright 1998, Gaussian, Inc.),
 the Gaussian(R) 94 system (copyright 1995, Gaussian, Inc.),
 the Gaussian 92(TM) system (copyright 1992, Gaussian, Inc.),
 the Gaussian 90(TM) system (copyright 1990, Gaussian, Inc.),
 the Gaussian 88(TM) system (copyright 1988, Gaussian, Inc.),
 the Gaussian 86(TM) system (copyright 1986, Carnegie Mellon
 University), and the Gaussian 82(TM) system (copyright 1983,
 Carnegie Mellon University). Gaussian is a federally registered
 trademark of Gaussian, Inc.
  
 This software contains proprietary and confidential information,
 including trade secrets, belonging to Gaussian, Inc.
  
 This software is provided under written license and may be
 used, copied, transmitted, or stored only in accord with that
 written license.
  
 The following legend is applicable only to US Government
 contracts under FAR:
  
                    RESTRICTED RIGHTS LEGEND
  
 Use, reproduction and disclosure by the US Government is
 subject to restrictions as set forth in subparagraphs (a)
 and (c) of the Commercial Computer Software - Restricted
 Rights clause in FAR 52.227-19.
  
 Gaussian, Inc.
 340 Quinnipiac St., Bldg. 40, Wallingford CT 06492
  
  
 ---------------------------------------------------------------
 Warning -- This program may not be used in any manner that
 competes with the business of Gaussian, Inc. or will provide
 assistance to any competitor of Gaussian, Inc.  The licensee
 of this program is prohibited from giving any competitor of
 Gaussian, Inc. access to this program.  By using this program,
 the user acknowledges that Gaussian, Inc. is engaged in the
 business of creating and licensing software in the field of
 computational chemistry and represents and warrants to the
 licensee that it is not a competitor of Gaussian, Inc. and that
 it will not use this program in any manner prohibited above.
 ---------------------------------------------------------------
  

 Cite this work as:
 Gaussian 09, Revision E.01,
 M. J. Frisch, G. W. Trucks, H. B. Schlegel, G. E. Scuseria, 
 M. A. Robb, J. R. Cheeseman, G. Scalmani, V. Barone, B. Mennucci, 
 G. A. Petersson, H. Nakatsuji, M. Caricato, X. Li, H. P. Hratchian, 
 A. F. Izmaylov, J. Bloino, G. Zheng, J. L. Sonnenberg, M. Hada, 
 M. Ehara, K. Toyota, R. Fukuda, J. Hasegawa, M. Ishida, T. Nakajima, 
 Y. Honda, O. Kitao, H. Nakai, T. Vreven, J. A. Montgomery, Jr., 
 J. E. Peralta, F. Ogliaro, M. Bearpark, J. J. Heyd, E. Brothers, 
 K. N. Kudin, V. N. Staroverov, T. Keith, R. Kobayashi, J. Normand, 
 K. Raghavachari, A. Rendell, J. C. Burant, S. S. Iyengar, J. Tomasi, 
 M. Cossi, N. Rega, J. M. Millam, M. Klene, J. E. Knox, J. B. Cross, 
 V. Bakken, C. Adamo, J. Jaramillo, R. Gomperts, R. E. Stratmann, 
 O. Yazyev, A. J. Austin, R. Cammi, C. Pomelli, J. W. Ochterski, 
 R. L. Martin, K. Morokuma, V. G. Zakrzewski, G. A. Voth, 
 P. Salvador, J. J. Dannenberg, S. Dapprich, A. D. Daniels, 
 O. Farkas, J. B. Foresman, J. V. Ortiz, J. Cioslowski, 
 and D. J. Fox, Gaussian, Inc., Wallingford CT, 2013.
 
 ******************************************
 Gaussian 09:  ES64L-G09RevE.01 30-Nov-2015
                19-Dec-2024 
 ******************************************
 %chk=B2PLYPD3Anthranilicyang.chk
 -----------------------------------------------------
 # opt freq B2PLYP/6-31+g(d,p) EmpiricalDispersion=GD3
 -----------------------------------------------------
 1/18=20,19=15,38=1/1,3;
 2/9=110,12=2,17=6,18=5,40=1/2;
 3/5=1,6=6,7=111,11=9,16=1,25=1,30=1,71=1,74=-47,124=31/1,2,3;
 4//1;
 5/5=2,38=5/2;
 8/6=4,10=2/1;
 9/15=2,16=-3/6;
 10/5=1/2;
 6/7=2,8=2,9=2,10=2/1;
 7/12=2/1,2,3,16;
 1/18=20,19=15/3(2);
 2/9=110/2;
 99//99;
 2/9=110/2;
 3/5=1,6=6,7=111,11=9,16=1,25=1,30=1,71=1,74=-47,124=31/1,2,3;
 4/5=5,16=3,69=1/1;
 5/5=2,38=5/2;
 8/6=4,10=2/1;
 9/15=2,16=-3/6;
 10/5=1/2;
 7/12=2/1,2,3,16;
 1/18=20,19=15/3(-8);
 2/9=110/2;
 6/7=2,8=2,9=2,10=2/1;
 99//99;
 ----------
 [No Title]
 ----------
 Symbolic Z-matrix:
 Charge =  1 Multiplicity = 1
 C                     1.94172  -1.46615   0. 
 C                     2.61871  -0.24746  -0.00001 
 C                     1.90672   0.95473   0. 
 C                     0.52312   0.91213   0.00001 
 C                    -0.18408  -0.30273   0.00004 
 C                     0.54974  -1.49548   0.00002 
 C                    -1.6661   -0.30605   0.00012 
 O                    -2.21307  -1.50482  -0.00015 
 N                    -0.25197   2.16658  -0.00003 
 O                    -2.34129   0.72879   0.00007 
 H                     2.49908  -2.39715  -0.00001 
 H                     3.70381  -0.22433  -0.00002 
 H                     2.43446   1.90495  -0.00002 
 H                     0.01888  -2.4411    0.00004 
 H                    -3.18236  -1.41785  -0.00023 
 H                    -0.06343   2.73668  -0.82887 
 H                    -1.2872    1.85039  -0.00012 
 H                    -0.06354   2.73666   0.82886 
 

 GradGradGradGradGradGradGradGradGradGradGradGradGradGradGradGradGradGrad
 Berny optimization.
 Initialization pass.
                           ----------------------------
                           !    Initial Parameters    !
                           ! (Angstroms and Degrees)  !
 --------------------------                            --------------------------
 ! Name  Definition              Value          Derivative Info.                !
 --------------------------------------------------------------------------------
 ! R1    R(1,2)                  1.3941         estimate D2E/DX2                !
 ! R2    R(1,6)                  1.3923         estimate D2E/DX2                !
 ! R3    R(1,11)                 1.0851         estimate D2E/DX2                !
 ! R4    R(2,3)                  1.3972         estimate D2E/DX2                !
 ! R5    R(2,12)                 1.0854         estimate D2E/DX2                !
 ! R6    R(3,4)                  1.3843         estimate D2E/DX2                !
 ! R7    R(3,13)                 1.0869         estimate D2E/DX2                !
 ! R8    R(4,5)                  1.4057         estimate D2E/DX2                !
 ! R9    R(4,9)                  1.4746         estimate D2E/DX2                !
 ! R10   R(5,6)                  1.4004         estimate D2E/DX2                !
 ! R11   R(5,7)                  1.482          estimate D2E/DX2                !
 ! R12   R(6,14)                 1.0844         estimate D2E/DX2                !
 ! R13   R(7,8)                  1.3177         estimate D2E/DX2                !
 ! R14   R(7,10)                 1.2356         estimate D2E/DX2                !
 ! R15   R(8,15)                 0.9732         estimate D2E/DX2                !
 ! R16   R(9,16)                 1.0235         estimate D2E/DX2                !
 ! R17   R(9,17)                 1.0824         estimate D2E/DX2                !
 ! R18   R(9,18)                 1.0235         estimate D2E/DX2                !
 ! A1    A(2,1,6)              120.2596         estimate D2E/DX2                !
 ! A2    A(2,1,11)             120.0399         estimate D2E/DX2                !
 ! A3    A(6,1,11)             119.7005         estimate D2E/DX2                !
 ! A4    A(1,2,3)              120.3121         estimate D2E/DX2                !
 ! A5    A(1,2,12)             120.2739         estimate D2E/DX2                !
 ! A6    A(3,2,12)             119.414          estimate D2E/DX2                !
 ! A7    A(2,3,4)              118.8723         estimate D2E/DX2                !
 ! A8    A(2,3,13)             120.3173         estimate D2E/DX2                !
 ! A9    A(4,3,13)             120.8104         estimate D2E/DX2                !
 ! A10   A(3,4,5)              121.9677         estimate D2E/DX2                !
 ! A11   A(3,4,9)              119.9476         estimate D2E/DX2                !
 ! A12   A(5,4,9)              118.0847         estimate D2E/DX2                !
 ! A13   A(4,5,6)              118.1946         estimate D2E/DX2                !
 ! A14   A(4,5,7)              120.3324         estimate D2E/DX2                !
 ! A15   A(6,5,7)              121.473          estimate D2E/DX2                !
 ! A16   A(1,6,5)              120.3938         estimate D2E/DX2                !
 ! A17   A(1,6,14)             120.5164         estimate D2E/DX2                !
 ! A18   A(5,6,14)             119.0898         estimate D2E/DX2                !
 ! A19   A(5,7,8)              114.654          estimate D2E/DX2                !
 ! A20   A(5,7,10)             122.9946         estimate D2E/DX2                !
 ! A21   A(8,7,10)             122.3514         estimate D2E/DX2                !
 ! A22   A(7,8,15)             109.399          estimate D2E/DX2                !
 ! A23   A(4,9,16)             112.1508         estimate D2E/DX2                !
 ! A24   A(4,9,17)             104.727          estimate D2E/DX2                !
 ! A25   A(4,9,18)             112.1511         estimate D2E/DX2                !
 ! A26   A(16,9,17)            109.8046         estimate D2E/DX2                !
 ! A27   A(16,9,18)            108.1598         estimate D2E/DX2                !
 ! A28   A(17,9,18)            109.8065         estimate D2E/DX2                !
 ! D1    D(6,1,2,3)             -0.0004         estimate D2E/DX2                !
 ! D2    D(6,1,2,12)          -180.0            estimate D2E/DX2                !
 ! D3    D(11,1,2,3)          -180.0            estimate D2E/DX2                !
 ! D4    D(11,1,2,12)            0.0004         estimate D2E/DX2                !
 ! D5    D(2,1,6,5)             -0.0002         estimate D2E/DX2                !
 ! D6    D(2,1,6,14)          -179.9991         estimate D2E/DX2                !
 ! D7    D(11,1,6,5)           179.9994         estimate D2E/DX2                !
 ! D8    D(11,1,6,14)            0.0005         estimate D2E/DX2                !
 ! D9    D(1,2,3,4)             -0.0002         estimate D2E/DX2                !
 ! D10   D(1,2,3,13)          -179.9991         estimate D2E/DX2                !
 ! D11   D(12,2,3,4)           179.9994         estimate D2E/DX2                !
 ! D12   D(12,2,3,13)            0.0004         estimate D2E/DX2                !
 ! D13   D(2,3,4,5)              0.0014         estimate D2E/DX2                !
 ! D14   D(2,3,4,9)           -179.9979         estimate D2E/DX2                !
 ! D15   D(13,3,4,5)          -179.9997         estimate D2E/DX2                !
 ! D16   D(13,3,4,9)             0.001          estimate D2E/DX2                !
 ! D17   D(3,4,5,6)             -0.002          estimate D2E/DX2                !
 ! D18   D(3,4,5,7)            179.9969         estimate D2E/DX2                !
 ! D19   D(9,4,5,6)            179.9973         estimate D2E/DX2                !
 ! D20   D(9,4,5,7)             -0.0038         estimate D2E/DX2                !
 ! D21   D(3,4,9,16)            60.9655         estimate D2E/DX2                !
 ! D22   D(3,4,9,17)           179.9939         estimate D2E/DX2                !
 ! D23   D(3,4,9,18)           -60.9754         estimate D2E/DX2                !
 ! D24   D(5,4,9,16)          -119.0338         estimate D2E/DX2                !
 ! D25   D(5,4,9,17)            -0.0055         estimate D2E/DX2                !
 ! D26   D(5,4,9,18)           119.0253         estimate D2E/DX2                !
 ! D27   D(4,5,6,1)              0.0014         estimate D2E/DX2                !
 ! D28   D(4,5,6,14)          -179.9998         estimate D2E/DX2                !
 ! D29   D(7,5,6,1)           -179.9975         estimate D2E/DX2                !
 ! D30   D(7,5,6,14)             0.0013         estimate D2E/DX2                !
 ! D31   D(4,5,7,8)            179.9861         estimate D2E/DX2                !
 ! D32   D(4,5,7,10)             0.0047         estimate D2E/DX2                !
 ! D33   D(6,5,7,8)             -0.015          estimate D2E/DX2                !
 ! D34   D(6,5,7,10)          -179.9964         estimate D2E/DX2                !
 ! D35   D(5,7,8,15)          -179.9903         estimate D2E/DX2                !
 ! D36   D(10,7,8,15)           -0.0088         estimate D2E/DX2                !
 --------------------------------------------------------------------------------
 Trust Radius=3.00D-01 FncErr=1.00D-07 GrdErr=1.00D-07
 Number of steps in this run=     92 maximum allowed number of steps=    108.
 GradGradGradGradGradGradGradGradGradGradGradGradGradGradGradGradGradGrad

                          Input orientation:                          
 ---------------------------------------------------------------------
 Center     Atomic      Atomic             Coordinates (Angstroms)
 Number     Number       Type             X           Y           Z
 ---------------------------------------------------------------------
      1          6           0        1.941720   -1.466149    0.000000
      2          6           0        2.618705   -0.247464   -0.000005
      3          6           0        1.906724    0.954728    0.000003
      4          6           0        0.523117    0.912134    0.000012
      5          6           0       -0.184078   -0.302734    0.000042
      6          6           0        0.549736   -1.495483    0.000021
      7          6           0       -1.666101   -0.306046    0.000119
      8          8           0       -2.213068   -1.504818   -0.000149
      9          7           0       -0.251972    2.166576   -0.000026
     10          8           0       -2.341287    0.728793    0.000074
     11          1           0        2.499082   -2.397147   -0.000006
     12          1           0        3.703814   -0.224327   -0.000022
     13          1           0        2.434464    1.904952   -0.000015
     14          1           0        0.018883   -2.441097    0.000040
     15          1           0       -3.182365   -1.417851   -0.000232
     16          1           0       -0.063428    2.736676   -0.828874
     17          1           0       -1.287195    1.850394   -0.000122
     18          1           0       -0.063544    2.736660    0.828859
 ---------------------------------------------------------------------
                    Distance matrix (angstroms):
                    1          2          3          4          5
     1  C    0.000000
     2  C    1.394095   0.000000
     3  C    2.421130   1.397205   0.000000
     4  C    2.769235   2.395027   1.384262   0.000000
     5  C    2.423335   2.803328   2.439808   1.405713   0.000000
     6  C    1.392293   2.416233   2.800884   2.407764   1.400405
     7  C    3.789751   4.285206   3.788750   2.505322   1.482027
     8  O    4.154968   4.992692   4.798130   3.650803   2.358348
     9  N    4.243698   3.750783   2.475590   1.474581   2.470243
    10  O    4.812683   5.055156   4.254015   2.870266   2.391150
    11  H    1.085085   2.153009   3.403815   3.854319   3.403809
    12  H    2.155713   1.085356   2.149349   3.377629   3.888683
    13  H    3.406922   2.160287   1.086938   2.153819   3.425002
    14  H    2.155882   3.401632   3.885302   3.390931   2.147973
    15  H    5.124313   5.917957   5.614976   4.377148   3.198939
    16  H    4.729840   4.097066   2.782782   2.088071   3.152724
    17  H    4.628752   4.433629   3.317128   2.039010   2.419262
    18  H    4.729873   4.097130   2.782847   2.088074   3.152679
                    6          7          8          9         10
     6  C    0.000000
     7  C    2.514894   0.000000
     8  O    2.762820   1.317660   0.000000
     9  N    3.748788   2.848442   4.162335   0.000000
    10  O    3.647659   1.235624   2.237288   2.536229   0.000000
    11  H    2.147777   4.660628   4.795895   5.328777   5.762003
    12  H    3.400595   5.370537   6.053854   4.622192   6.119778
    13  H    3.887822   4.658663   5.764207   2.699145   4.918450
    14  H    1.084431   2.719855   2.420377   4.615627   3.952038
    15  H    3.732908   1.880204   0.973191   4.629829   2.305535
    16  H    4.355939   3.537506   4.826801   1.023500   3.147601
    17  H    3.816963   2.189476   3.480616   1.082431   1.539188
    18  H    4.355929   3.537380   4.826784   1.023499   3.147464
                   11         12         13         14         15
    11  H    0.000000
    12  H    2.484457   0.000000
    13  H    4.302584   2.478927   0.000000
    14  H    2.480588   4.300324   4.972240   0.000000
    15  H    5.765229   6.988845   6.526085   3.360807   0.000000
    16  H    5.797380   4.862782   2.760115   5.244350   5.260657
    17  H    5.690123   5.405057   3.722059   4.485837   3.777975
    18  H    5.797417   4.862867   2.760220   5.244321   5.260646
                   16         17         18
    16  H    0.000000
    17  H    1.723349   0.000000
    18  H    1.657733   1.723368   0.000000
 Stoichiometry    C7H8NO2(1+)
 Framework group  C1[X(C7H8NO2)]
 Deg. of freedom    48
 Full point group                 C1      NOp   1
 Largest Abelian subgroup         C1      NOp   1
 Largest concise Abelian subgroup C1      NOp   1
                         Standard orientation:                         
 ---------------------------------------------------------------------
 Center     Atomic      Atomic             Coordinates (Angstroms)
 Number     Number       Type             X           Y           Z
 ---------------------------------------------------------------------
      1          6           0       -1.941720   -1.466149   -0.000000
      2          6           0       -2.618705   -0.247464    0.000005
      3          6           0       -1.906724    0.954728   -0.000003
      4          6           0       -0.523117    0.912134   -0.000012
      5          6           0        0.184078   -0.302734   -0.000042
      6          6           0       -0.549736   -1.495483   -0.000021
      7          6           0        1.666101   -0.306046   -0.000119
      8          8           0        2.213068   -1.504818    0.000149
      9          7           0        0.251972    2.166576    0.000026
     10          8           0        2.341287    0.728793   -0.000074
     11          1           0       -2.499082   -2.397147    0.000006
     12          1           0       -3.703814   -0.224327    0.000022
     13          1           0       -2.434464    1.904952    0.000015
     14          1           0       -0.018883   -2.441097   -0.000040
     15          1           0        3.182365   -1.417851    0.000232
     16          1           0        0.063428    2.736676    0.828874
     17          1           0        1.287195    1.850394    0.000122
     18          1           0        0.063544    2.736660   -0.828859
 ---------------------------------------------------------------------
 Rotational constants (GHZ):      2.2524529      1.2092096      0.7902223
 Standard basis: 6-31+G(d,p) (6D, 7F)
 There are   230 symmetry adapted cartesian basis functions of A   symmetry.
 There are   230 symmetry adapted basis functions of A   symmetry.
   230 basis functions,   376 primitive gaussians,   230 cartesian basis functions
    36 alpha electrons       36 beta electrons
       nuclear repulsion energy       515.6376277979 Hartrees.
 NAtoms=   18 NActive=   18 NUniq=   18 SFac= 1.00D+00 NAtFMM=   60 NAOKFM=F Big=F
 Integral buffers will be    131072 words long.
 Regular integral format.
 Two-electron integral symmetry is turned on.
 Nuclear repulsion after empirical dispersion term =      515.6302317000 Hartrees.
 One-electron integrals computed using PRISM.
 NBasis=   230 RedAO= T EigKep=  2.28D-06  NBF=   230
 NBsUse=   230 1.00D-06 EigRej= -1.00D+00 NBFU=   230
 ExpMin= 4.38D-02 ExpMax= 5.48D+03 ExpMxC= 8.25D+02 IAcc=2 IRadAn=         4 AccDes= 0.00D+00
 Harris functional with IExCor=  419 and IRadAn=       4 diagonalized for initial guess.
 HarFok:  IExCor=  419 AccDes= 0.00D+00 IRadAn=         4 IDoV= 1 UseB2=F ITyADJ=14
 ICtDFT=  3500011 ScaDFX=  1.000000  1.000000  1.000000  1.000000
 FoFCou: FMM=F IPFlag=           0 FMFlag=      100000 FMFlg1=           0
         NFxFlg=           0 DoJE=T BraDBF=F KetDBF=T FulRan=T
         wScrn=  0.000000 ICntrl=     500 IOpCl=  0 I1Cent=   200000004 NGrid=           0
         NMat0=    1 NMatS0=      1 NMatT0=    0 NMatD0=    1 NMtDS0=    0 NMtDT0=    0
 Petite list used in FoFCou.
 Keep R1 ints in memory in canonical form, NReq=359209085.
 Requested convergence on RMS density matrix=1.00D-08 within 128 cycles.
 Requested convergence on MAX density matrix=1.00D-06.
 Requested convergence on             energy=1.00D-06.
 No special actions if energy rises.
 SCF Done:  E(RB2PLYP) =  -475.632539400     A.U. after   15 cycles
            NFock= 15  Conv=0.85D-08     -V/T= 2.0068
 DoSCS=T DFT=T ScalE2(SS,OS)=  0.270000  0.270000
 ExpMin= 4.38D-02 ExpMax= 5.48D+03 ExpMxC= 8.25D+02 IAcc=3 IRadAn=         5 AccDes= 0.00D+00
 HarFok:  IExCor=  205 AccDes= 0.00D+00 IRadAn=         5 IDoV=-2 UseB2=F ITyADJ=14
 ICtDFT= 12500011 ScaDFX=  1.000000  1.000000  1.000000  1.000000
 Range of M.O.s used for correlation:    11   230
 NBasis=   230 NAE=    36 NBE=    36 NFC=    10 NFV=     0
 NROrb=    220 NOA=    26 NOB=    26 NVA=   194 NVB=   194

 **** Warning!!: The largest alpha MO coefficient is  0.16066148D+03

 DoSCS=T DFT=T ScalE2(SS,OS)=  0.270000  0.270000
 Fully direct method using O(ONN) memory.
 JobTyp=1 Pass  1:  I=  11 to  17 NPSUse= 18 ParTrn=T ParDer=T DoDerP=T.
 JobTyp=1 Pass  2:  I=  18 to  24 NPSUse= 18 ParTrn=T ParDer=T DoDerP=T.
 JobTyp=1 Pass  3:  I=  25 to  31 NPSUse= 18 ParTrn=T ParDer=T DoDerP=T.
 JobTyp=1 Pass  4:  I=  32 to  36 NPSUse= 18 ParTrn=T ParDer=T DoDerP=T.
 Spin components of T(2) and E(2):
     alpha-alpha T2 =       0.1067199700D+00 E2=     -0.6541356245D-01
     alpha-beta  T2 =       0.5494352443D+00 E2=     -0.3531473776D+00
     beta-beta   T2 =       0.1067199700D+00 E2=     -0.6541356245D-01
 E2(B2PLYP) =    -0.4839745025D+00 E(B2PLYP) =    -0.47611651390255D+03
          IDoAtm=111111111111111111
          Differentiating once with respect to electric field.
                with respect to dipole field.
          Differentiating once with respect to nuclear coordinates.
 Keep R1 ints in memory in canonical form, NReq=359028194.
          There are     1 degrees of freedom in the 1st order CPHF.  IDoFFX=0 NUNeed=     1.
 LinEq1:  Iter=  0 NonCon=     1 RMS=1.78D-03 Max=6.54D-02 NDo=     1
 AX will form     1 AO Fock derivatives at one time.
 LinEq1:  Iter=  1 NonCon=     1 RMS=7.42D-04 Max=1.48D-02 NDo=     1
 LinEq1:  Iter=  2 NonCon=     1 RMS=2.83D-04 Max=7.17D-03 NDo=     1
 LinEq1:  Iter=  3 NonCon=     1 RMS=2.13D-04 Max=6.38D-03 NDo=     1
 LinEq1:  Iter=  4 NonCon=     1 RMS=8.54D-05 Max=2.28D-03 NDo=     1
 LinEq1:  Iter=  5 NonCon=     1 RMS=4.04D-05 Max=1.32D-03 NDo=     1
 LinEq1:  Iter=  6 NonCon=     1 RMS=1.88D-05 Max=7.61D-04 NDo=     1
 LinEq1:  Iter=  7 NonCon=     1 RMS=1.00D-05 Max=3.82D-04 NDo=     1
 LinEq1:  Iter=  8 NonCon=     1 RMS=3.48D-06 Max=9.08D-05 NDo=     1
 LinEq1:  Iter=  9 NonCon=     1 RMS=1.76D-06 Max=3.42D-05 NDo=     1
 LinEq1:  Iter= 10 NonCon=     1 RMS=5.08D-07 Max=9.77D-06 NDo=     1
 LinEq1:  Iter= 11 NonCon=     1 RMS=2.62D-07 Max=1.15D-05 NDo=     1
 LinEq1:  Iter= 12 NonCon=     1 RMS=1.21D-07 Max=3.17D-06 NDo=     1
 LinEq1:  Iter= 13 NonCon=     1 RMS=3.71D-08 Max=7.15D-07 NDo=     1
 LinEq1:  Iter= 14 NonCon=     1 RMS=2.12D-08 Max=5.97D-07 NDo=     1
 LinEq1:  Iter= 15 NonCon=     1 RMS=5.51D-09 Max=1.09D-07 NDo=     1
 LinEq1:  Iter= 16 NonCon=     1 RMS=1.32D-09 Max=1.89D-08 NDo=     1
 LinEq1:  Iter= 17 NonCon=     1 RMS=6.25D-10 Max=8.15D-09 NDo=     1
 LinEq1:  Iter= 18 NonCon=     1 RMS=1.92D-10 Max=3.73D-09 NDo=     1
 LinEq1:  Iter= 19 NonCon=     1 RMS=5.31D-11 Max=1.08D-09 NDo=     1
 LinEq1:  Iter= 20 NonCon=     0 RMS=2.68D-11 Max=6.69D-10 NDo=     1
 Linear equations converged to 1.000D-10 1.000D-09 after    20 iterations.
 End of Minotr F.D. properties file   721 does not exist.
 End of Minotr F.D. properties file   722 does not exist.
 End of Minotr F.D. properties file   788 does not exist.

 **********************************************************************

            Population analysis using the SCF density.

 **********************************************************************

 Orbital symmetries:
       Occupied  (A) (A) (A) (A) (A) (A) (A) (A) (A) (A) (A) (A)
                 (A) (A) (A) (A) (A) (A) (A) (A) (A) (A) (A) (A)
                 (A) (A) (A) (A) (A) (A) (A) (A) (A) (A) (A) (A)
       Virtual   (A) (A) (A) (A) (A) (A) (A) (A) (A) (A) (A) (A)
                 (A) (A) (A) (A) (A) (A) (A) (A) (A) (A) (A) (A)
                 (A) (A) (A) (A) (A) (A) (A) (A) (A) (A) (A) (A)
                 (A) (A) (A) (A) (A) (A) (A) (A) (A) (A) (A) (A)
                 (A) (A) (A) (A) (A) (A) (A) (A) (A) (A) (A) (A)
                 (A) (A) (A) (A) (A) (A) (A) (A) (A) (A) (A) (A)
                 (A) (A) (A) (A) (A) (A) (A) (A) (A) (A) (A) (A)
                 (A) (A) (A) (A) (A) (A) (A) (A) (A) (A) (A) (A)
                 (A) (A) (A) (A) (A) (A) (A) (A) (A) (A) (A) (A)
                 (A) (A) (A) (A) (A) (A) (A) (A) (A) (A) (A) (A)
                 (A) (A) (A) (A) (A) (A) (A) (A) (A) (A) (A) (A)
                 (A) (A) (A) (A) (A) (A) (A) (A) (A) (A) (A) (A)
                 (A) (A) (A) (A) (A) (A) (A) (A) (A) (A) (A) (A)
                 (A) (A) (A) (A) (A) (A) (A) (A) (A) (A) (A) (A)
                 (A) (A) (A) (A) (A) (A) (A) (A) (A) (A) (A) (A)
                 (A) (A) (A) (A) (A) (A) (A) (A) (A) (A) (A) (A)
                 (A) (A)
 The electronic state is 1-A.
 Alpha  occ. eigenvalues --  -19.96931 -19.92329 -15.14341 -10.96116 -10.87346
 Alpha  occ. eigenvalues --  -10.83042 -10.81530 -10.81038 -10.80862 -10.79844
 Alpha  occ. eigenvalues --   -1.44227  -1.34915  -1.30400  -1.16099  -1.06369
 Alpha  occ. eigenvalues --   -1.03701  -0.93889  -0.90155  -0.86880  -0.83195
 Alpha  occ. eigenvalues --   -0.82122  -0.79079  -0.76452  -0.75305  -0.70599
 Alpha  occ. eigenvalues --   -0.70294  -0.68889  -0.68047  -0.64501  -0.60847
 Alpha  occ. eigenvalues --   -0.60305  -0.59161  -0.56686  -0.53839  -0.47171
 Alpha  occ. eigenvalues --   -0.46947
 Alpha virt. eigenvalues --   -0.17445  -0.13433  -0.13079  -0.08485  -0.07953
 Alpha virt. eigenvalues --   -0.06608  -0.06156  -0.05418  -0.05214  -0.04466
 Alpha virt. eigenvalues --   -0.02861  -0.02755  -0.01753  -0.01334  -0.00144
 Alpha virt. eigenvalues --    0.00198   0.01960   0.02197   0.03239   0.04096
 Alpha virt. eigenvalues --    0.04269   0.05222   0.05977   0.06833   0.07289
 Alpha virt. eigenvalues --    0.08147   0.08335   0.08899   0.09533   0.09656
 Alpha virt. eigenvalues --    0.10306   0.10791   0.11606   0.12632   0.12737
 Alpha virt. eigenvalues --    0.13078   0.14149   0.15101   0.15231   0.16485
 Alpha virt. eigenvalues --    0.16640   0.16847   0.17606   0.18779   0.19193
 Alpha virt. eigenvalues --    0.20222   0.20939   0.22028   0.23088   0.24088
 Alpha virt. eigenvalues --    0.25764   0.26470   0.27247   0.28964   0.30122
 Alpha virt. eigenvalues --    0.32256   0.36160   0.36761   0.39410   0.42359
 Alpha virt. eigenvalues --    0.51024   0.55155   0.58774   0.58884   0.60540
 Alpha virt. eigenvalues --    0.62441   0.64618   0.65519   0.66919   0.67075
 Alpha virt. eigenvalues --    0.67767   0.70530   0.70828   0.74443   0.74832
 Alpha virt. eigenvalues --    0.75710   0.77559   0.79665   0.81393   0.84685
 Alpha virt. eigenvalues --    0.87000   0.87246   0.88389   0.89458   0.91977
 Alpha virt. eigenvalues --    0.95017   0.97347   0.98580   1.02783   1.04724
 Alpha virt. eigenvalues --    1.05157   1.07005   1.09150   1.11107   1.11581
 Alpha virt. eigenvalues --    1.13817   1.14372   1.17004   1.17947   1.20999
 Alpha virt. eigenvalues --    1.21934   1.24330   1.25867   1.26537   1.29078
 Alpha virt. eigenvalues --    1.31523   1.31861   1.32201   1.34969   1.35914
 Alpha virt. eigenvalues --    1.37023   1.38406   1.44154   1.52795   1.53352
 Alpha virt. eigenvalues --    1.62108   1.63641   1.65821   1.66867   1.71462
 Alpha virt. eigenvalues --    1.74474   1.76064   1.78631   1.79519   1.82381
 Alpha virt. eigenvalues --    1.85438   1.88991   1.90542   1.93465   1.93617
 Alpha virt. eigenvalues --    1.96104   1.97366   1.98063   1.98697   2.01568
 Alpha virt. eigenvalues --    2.05768   2.06717   2.15081   2.15228   2.23107
 Alpha virt. eigenvalues --    2.25104   2.25671   2.30952   2.32714   2.34405
 Alpha virt. eigenvalues --    2.34753   2.37380   2.38472   2.39202   2.40174
 Alpha virt. eigenvalues --    2.46445   2.48092   2.48961   2.51693   2.53749
 Alpha virt. eigenvalues --    2.55773   2.57538   2.59181   2.61081   2.63520
 Alpha virt. eigenvalues --    2.65912   2.68988   2.71290   2.73191   2.76495
 Alpha virt. eigenvalues --    2.79591   2.84503   2.84969   2.90266   2.95137
 Alpha virt. eigenvalues --    3.03882   3.07721   3.14474   3.16420   3.23174
 Alpha virt. eigenvalues --    3.26387   3.28362   3.32707   3.33357   3.36563
 Alpha virt. eigenvalues --    3.48358   3.49243   3.57429   3.85934   4.22227
 Alpha virt. eigenvalues --    4.28192   4.30255   4.31870   4.38131   4.47995
 Alpha virt. eigenvalues --    4.49657   4.56438   4.82744   4.86465
          Condensed to atoms (all electrons):
               1          2          3          4          5          6
     1  C    7.383693  -0.064170   1.038978  -1.013406   0.460747  -2.085952
     2  C   -0.064170   6.134819  -1.135487   1.513474  -1.443537   1.250513
     3  C    1.038978  -1.135487  13.524782  -4.336042  -0.578314  -3.664638
     4  C   -1.013406   1.513474  -4.336042  16.768948  -4.178278  -0.889990
     5  C    0.460747  -1.443537  -0.578314  -4.178278  11.805159  -1.475666
     6  C   -2.085952   1.250513  -3.664638  -0.889990  -1.475666  14.100334
     7  C   -0.158462  -0.168199   0.519329  -0.673746   0.183593  -0.605186
     8  O    0.102747  -0.004320   0.021318   0.037834   0.005055  -0.164368
     9  N   -0.031137  -0.002065  -0.580636   0.221853   0.188645   0.154926
    10  O    0.043919  -0.009317   0.071073  -0.282747   0.034738  -0.012208
    11  H    0.218577   0.048237  -0.002682  -0.001285   0.010564   0.060686
    12  H    0.072077   0.215244   0.077832  -0.051576   0.036102  -0.015337
    13  H   -0.000257   0.093346   0.258865   0.028802  -0.039690  -0.013004
    14  H    0.084671  -0.025585   0.034680   0.018804   0.113346   0.093376
    15  H   -0.007384  -0.000240   0.003290  -0.006302   0.006664   0.003602
    16  H    0.000459  -0.006236  -0.020494  -0.042823   0.045888   0.001196
    17  H    0.001728  -0.002223   0.168800   0.091059  -0.215487  -0.066350
    18  H    0.000463  -0.006228  -0.020398  -0.042721   0.045724   0.001144
               7          8          9         10         11         12
     1  C   -0.158462   0.102747  -0.031137   0.043919   0.218577   0.072077
     2  C   -0.168199  -0.004320  -0.002065  -0.009317   0.048237   0.215244
     3  C    0.519329   0.021318  -0.580636   0.071073  -0.002682   0.077832
     4  C   -0.673746   0.037834   0.221853  -0.282747  -0.001285  -0.051576
     5  C    0.183593   0.005055   0.188645   0.034738   0.010564   0.036102
     6  C   -0.605186  -0.164368   0.154926  -0.012208   0.060686  -0.015337
     7  C    5.553442   0.145758  -0.087029   0.393204   0.003410   0.002465
     8  O    0.145758   8.242387  -0.008616  -0.127220   0.000059   0.000006
     9  N   -0.087029  -0.008616   6.992187  -0.028911   0.000137  -0.000274
    10  O    0.393204  -0.127220  -0.028911   8.370305   0.000023  -0.000001
    11  H    0.003410   0.000059   0.000137   0.000023   0.471235  -0.003069
    12  H    0.002465   0.000006  -0.000274  -0.000001  -0.003069   0.471527
    13  H    0.004256   0.000012   0.000574   0.000094  -0.000112  -0.003135
    14  H    0.011236   0.000463  -0.000997   0.000099  -0.002994  -0.000110
    15  H    0.023742   0.222921   0.000434   0.000865  -0.000000   0.000000
    16  H    0.004737   0.000130   0.316323   0.001068   0.000000  -0.000002
    17  H    0.020613   0.002363   0.207087   0.082823  -0.000000   0.000001
    18  H    0.004743   0.000130   0.316322   0.001069   0.000000  -0.000002
              13         14         15         16         17         18
     1  C   -0.000257   0.084671  -0.007384   0.000459   0.001728   0.000463
     2  C    0.093346  -0.025585  -0.000240  -0.006236  -0.002223  -0.006228
     3  C    0.258865   0.034680   0.003290  -0.020494   0.168800  -0.020398
     4  C    0.028802   0.018804  -0.006302  -0.042823   0.091059  -0.042721
     5  C   -0.039690   0.113346   0.006664   0.045888  -0.215487   0.045724
     6  C   -0.013004   0.093376   0.003602   0.001196  -0.066350   0.001144
     7  C    0.004256   0.011236   0.023742   0.004737   0.020613   0.004743
     8  O    0.000012   0.000463   0.222921   0.000130   0.002363   0.000130
     9  N    0.000574  -0.000997   0.000434   0.316323   0.207087   0.316322
    10  O    0.000094   0.000099   0.000865   0.001068   0.082823   0.001069
    11  H   -0.000112  -0.002994  -0.000000   0.000000  -0.000000   0.000000
    12  H   -0.003135  -0.000110   0.000000  -0.000002   0.000001  -0.000002
    13  H    0.484925   0.000009  -0.000000   0.000409   0.000040   0.000409
    14  H    0.000009   0.459916   0.000043   0.000002   0.000006   0.000002
    15  H   -0.000000   0.000043   0.325250  -0.000001  -0.000003  -0.000001
    16  H    0.000409   0.000002  -0.000001   0.325691  -0.009355  -0.023548
    17  H    0.000040   0.000006  -0.000003  -0.009355   0.253397  -0.009352
    18  H    0.000409   0.000002  -0.000001  -0.023548  -0.009352   0.325685
 Mulliken charges:
               1
     1  C   -0.047293
     2  C   -0.388027
     3  C    0.619744
     4  C   -1.161859
     5  C    0.994748
     6  C   -0.673078
     7  C    0.822094
     8  O   -0.476663
     9  N   -0.658825
    10  O   -0.538877
    11  H    0.197214
    12  H    0.198250
    13  H    0.184456
    14  H    0.213031
    15  H    0.427118
    16  H    0.406555
    17  H    0.474853
    18  H    0.406559
 Sum of Mulliken charges =   1.00000
 Mulliken charges with hydrogens summed into heavy atoms:
               1
     1  C    0.149921
     2  C   -0.189777
     3  C    0.804200
     4  C   -1.161859
     5  C    0.994748
     6  C   -0.460047
     7  C    0.822094
     8  O   -0.049545
     9  N    0.629142
    10  O   -0.538877
 Electronic spatial extent (au):  <R**2>=           1368.7505
 Charge=              1.0000 electrons
 Dipole moment (field-independent basis, Debye):
    X=             -1.2062    Y=              4.1962    Z=              0.0002  Tot=              4.3661
 Quadrupole moment (field-independent basis, Debye-Ang):
   XX=            -36.6401   YY=            -29.3083   ZZ=            -56.9235
   XY=             -3.5686   XZ=              0.0007   YZ=              0.0005
 Traceless Quadrupole moment (field-independent basis, Debye-Ang):
   XX=              4.3172   YY=             11.6490   ZZ=            -15.9662
   XY=             -3.5686   XZ=              0.0007   YZ=              0.0005
 Octapole moment (field-independent basis, Debye-Ang**2):
  XXX=             10.4822  YYY=             49.9062  ZZZ=              0.0006  XYY=              0.6258
  XXY=            -25.9029  XXZ=              0.0048  XZZ=             11.7931  YZZ=              9.7797
  YYZ=              0.0013  XYZ=             -0.0006
 Hexadecapole moment (field-independent basis, Debye-Ang**3):
 XXXX=           -794.3052 YYYY=           -405.6064 ZZZZ=            -62.3149 XXXY=            -85.6218
 XXXZ=              0.0137 YYYX=              8.5944 YYYZ=              0.0035 ZZZX=             -0.0011
 ZZZY=              0.0028 XXYY=           -226.3482 XXZZ=           -199.3774 YYZZ=            -97.8822
 XXYZ=             -0.0028 YYXZ=              0.0018 ZZXY=             -3.2896
 N-N= 5.156302317000D+02 E-N=-2.128162877176D+03  KE= 4.724185879364D+02
 Calling FoFJK, ICntrl=  10002127 FMM=F ISym2X=0 I1Cent= 0 IOpClX= 0 NMat=1 NMatS=1 NMatT=0.
 ***** Axes restored to original set *****
 -------------------------------------------------------------------
 Center     Atomic                   Forces (Hartrees/Bohr)
 Number     Number              X              Y              Z
 -------------------------------------------------------------------
      1        6           0.002053676   -0.003526837   -0.000000756
      2        6           0.004282355    0.000531237    0.000000132
      3        6           0.002349211    0.003344780   -0.000002475
      4        6           0.000016860   -0.001253557    0.000001899
      5        6           0.000147525   -0.000041771    0.000011982
      6        6          -0.002531302   -0.003738240    0.000002662
      7        6           0.003854888   -0.001375834   -0.000044303
      8        8          -0.000874101   -0.005809229    0.000013415
      9        7          -0.003241257    0.002169967   -0.000007196
     10        8          -0.005421550    0.005419962    0.000012194
     11        1          -0.000948155    0.001556813   -0.000000369
     12        1          -0.001812259   -0.000030512    0.000000515
     13        1          -0.001059610   -0.001300949   -0.000000265
     14        1           0.000913691    0.001548038    0.000000094
     15        1          -0.001059295   -0.000083780    0.000000977
     16        1          -0.000093880   -0.000304566    0.000466439
     17        1           0.003522402    0.003199341    0.000010383
     18        1          -0.000099197   -0.000304863   -0.000465327
 -------------------------------------------------------------------
 Cartesian Forces:  Max     0.005809229 RMS     0.002091765

 GradGradGradGradGradGradGradGradGradGradGradGradGradGradGradGradGradGrad
 Berny optimization.
 FormGI is forming the generalized inverse of G from B-inverse, IUseBI=4.
 Internal  Forces:  Max     0.007500834 RMS     0.002119025
 Search for a local minimum.
 Step number   1 out of a maximum of   92
 All quantities printed in internal units (Hartrees-Bohrs-Radians)
 Mixed Optimization -- RFO/linear search
 Second derivative matrix not updated -- first step.
 ITU=  0
     Eigenvalues ---    0.00705   0.01004   0.01590   0.01591   0.01730
     Eigenvalues ---    0.02063   0.02134   0.02146   0.02160   0.02179
     Eigenvalues ---    0.02192   0.02227   0.02781   0.07033   0.07830
     Eigenvalues ---    0.16000   0.16000   0.16000   0.16000   0.16000
     Eigenvalues ---    0.16000   0.16000   0.16000   0.22000   0.22493
     Eigenvalues ---    0.24484   0.25000   0.25000   0.25000   0.25000
     Eigenvalues ---    0.34339   0.35169   0.35198   0.35355   0.35387
     Eigenvalues ---    0.35464   0.35702   0.41676   0.42397   0.43784
     Eigenvalues ---    0.43784   0.45547   0.45832   0.46607   0.47866
     Eigenvalues ---    0.52730   0.62518   0.88783
 RFO step:  Lambda=-1.08786866D-03 EMin= 7.05223089D-03
 Linear search not attempted -- first point.
 Iteration  1 RMS(Cart)=  0.03659818 RMS(Int)=  0.00038801
 Iteration  2 RMS(Cart)=  0.00056896 RMS(Int)=  0.00000683
 Iteration  3 RMS(Cart)=  0.00000016 RMS(Int)=  0.00000683
 Variable       Old X    -DE/DX   Delta X   Delta X   Delta X     New X
                                 (Linear)    (Quad)   (Total)
    R1        2.63446   0.00186   0.00000   0.00376   0.00376   2.63822
    R2        2.63105   0.00220   0.00000   0.00456   0.00456   2.63561
    R3        2.05051  -0.00182   0.00000  -0.00514  -0.00514   2.04538
    R4        2.64034   0.00158   0.00000   0.00329   0.00329   2.64362
    R5        2.05102  -0.00181   0.00000  -0.00511  -0.00511   2.04591
    R6        2.61588   0.00269   0.00000   0.00566   0.00566   2.62154
    R7        2.05402  -0.00165   0.00000  -0.00468  -0.00468   2.04934
    R8        2.65641   0.00530   0.00000   0.01208   0.01208   2.66850
    R9        2.78655   0.00400   0.00000   0.01134   0.01134   2.79789
   R10        2.64638   0.00255   0.00000   0.00572   0.00572   2.65210
   R11        2.80062   0.00350   0.00000   0.01017   0.01017   2.81079
   R12        2.04928  -0.00180   0.00000  -0.00505  -0.00505   2.04422
   R13        2.49002   0.00617   0.00000   0.00985   0.00985   2.49986
   R14        2.33499   0.00750   0.00000   0.00844   0.00844   2.34343
   R15        1.83906   0.00105   0.00000   0.00198   0.00198   1.84104
   R16        1.93413  -0.00056   0.00000  -0.00129  -0.00129   1.93285
   R17        2.04550  -0.00430   0.00000  -0.01201  -0.01201   2.03349
   R18        1.93413  -0.00057   0.00000  -0.00129  -0.00129   1.93285
    A1        2.09893   0.00013   0.00000  -0.00028  -0.00029   2.09864
    A2        2.09509  -0.00005   0.00000   0.00022   0.00022   2.09531
    A3        2.08917  -0.00008   0.00000   0.00006   0.00007   2.08923
    A4        2.09984  -0.00026   0.00000  -0.00208  -0.00208   2.09776
    A5        2.09917   0.00014   0.00000   0.00110   0.00110   2.10028
    A6        2.08417   0.00012   0.00000   0.00098   0.00098   2.08515
    A7        2.07471   0.00111   0.00000   0.00485   0.00485   2.07956
    A8        2.09993  -0.00025   0.00000  -0.00054  -0.00054   2.09940
    A9        2.10854  -0.00086   0.00000  -0.00431  -0.00431   2.10423
   A10        2.12874  -0.00081   0.00000  -0.00275  -0.00275   2.12599
   A11        2.09348  -0.00526   0.00000  -0.02118  -0.02118   2.07230
   A12        2.06097   0.00607   0.00000   0.02393   0.02393   2.08490
   A13        2.06288  -0.00114   0.00000  -0.00401  -0.00401   2.05887
   A14        2.10020   0.00603   0.00000   0.02373   0.02373   2.12392
   A15        2.12010  -0.00488   0.00000  -0.01971  -0.01972   2.10039
   A16        2.10127   0.00097   0.00000   0.00428   0.00428   2.10555
   A17        2.10341  -0.00053   0.00000  -0.00239  -0.00239   2.10101
   A18        2.07851  -0.00044   0.00000  -0.00188  -0.00188   2.07662
   A19        2.00109  -0.00260   0.00000  -0.01034  -0.01034   1.99075
   A20        2.14666   0.00314   0.00000   0.01251   0.01251   2.15917
   A21        2.13544  -0.00055   0.00000  -0.00218  -0.00218   2.13326
   A22        1.90937   0.00033   0.00000   0.00205   0.00205   1.91142
   A23        1.95740  -0.00049   0.00000  -0.00413  -0.00416   1.95324
   A24        1.82783   0.00311   0.00000   0.02139   0.02138   1.84921
   A25        1.95741  -0.00048   0.00000  -0.00415  -0.00417   1.95323
   A26        1.91645  -0.00102   0.00000  -0.00425  -0.00427   1.91218
   A27        1.88774  -0.00008   0.00000  -0.00412  -0.00416   1.88359
   A28        1.91648  -0.00103   0.00000  -0.00437  -0.00438   1.91210
    D1       -0.00001   0.00000   0.00000   0.00003   0.00003   0.00002
    D2       -3.14159  -0.00000   0.00000  -0.00000  -0.00000   3.14159
    D3       -3.14159   0.00000   0.00000   0.00000   0.00000  -3.14159
    D4        0.00001  -0.00000   0.00000  -0.00002  -0.00002  -0.00002
    D5       -0.00000   0.00000   0.00000   0.00001   0.00002   0.00001
    D6       -3.14158  -0.00000   0.00000  -0.00005  -0.00005   3.14156
    D7        3.14158   0.00000   0.00000   0.00004   0.00004  -3.14157
    D8        0.00001  -0.00000   0.00000  -0.00003  -0.00003  -0.00002
    D9       -0.00000   0.00000   0.00000   0.00000   0.00001   0.00000
   D10       -3.14158  -0.00000   0.00000  -0.00005  -0.00005   3.14156
   D11        3.14158   0.00000   0.00000   0.00003   0.00003  -3.14157
   D12        0.00001  -0.00000   0.00000  -0.00002  -0.00002  -0.00001
   D13        0.00002  -0.00000   0.00000  -0.00008  -0.00008  -0.00006
   D14       -3.14156  -0.00000   0.00000  -0.00012  -0.00012   3.14151
   D15       -3.14159  -0.00000   0.00000  -0.00002  -0.00002   3.14157
   D16        0.00002  -0.00000   0.00000  -0.00006  -0.00006  -0.00004
   D17       -0.00003   0.00000   0.00000   0.00012   0.00012   0.00009
   D18        3.14154   0.00000   0.00000   0.00018   0.00018  -3.14147
   D19        3.14155   0.00000   0.00000   0.00016   0.00016  -3.14148
   D20       -0.00007   0.00000   0.00000   0.00022   0.00022   0.00015
   D21        1.06405  -0.00041   0.00000  -0.00550  -0.00549   1.05856
   D22        3.14149   0.00001   0.00000   0.00030   0.00030  -3.14140
   D23       -1.06422   0.00041   0.00000   0.00595   0.00594  -1.05828
   D24       -2.07753  -0.00041   0.00000  -0.00553  -0.00553  -2.08306
   D25       -0.00010   0.00001   0.00000   0.00026   0.00026   0.00017
   D26        2.07738   0.00041   0.00000   0.00591   0.00591   2.08329
   D27        0.00002  -0.00000   0.00000  -0.00009  -0.00009  -0.00006
   D28       -3.14159  -0.00000   0.00000  -0.00002  -0.00002   3.14158
   D29       -3.14155  -0.00000   0.00000  -0.00014  -0.00014   3.14149
   D30        0.00002  -0.00000   0.00000  -0.00008  -0.00008  -0.00005
   D31        3.14135   0.00001   0.00000   0.00083   0.00084  -3.14100
   D32        0.00008  -0.00001   0.00000  -0.00038  -0.00039  -0.00030
   D33       -0.00026   0.00001   0.00000   0.00089   0.00090   0.00063
   D34       -3.14153  -0.00001   0.00000  -0.00032  -0.00033   3.14133
   D35       -3.14142  -0.00001   0.00000  -0.00064  -0.00063   3.14113
   D36       -0.00015   0.00001   0.00000   0.00057   0.00057   0.00042
         Item               Value     Threshold  Converged?
 Maximum Force            0.007501     0.000450     NO 
 RMS     Force            0.002119     0.000300     NO 
 Maximum Displacement     0.164101     0.001800     NO 
 RMS     Displacement     0.036839     0.001200     NO 
 Predicted change in Energy=-5.460435D-04
 GradGradGradGradGradGradGradGradGradGradGradGradGradGradGradGradGradGrad

                          Input orientation:                          
 ---------------------------------------------------------------------
 Center     Atomic      Atomic             Coordinates (Angstroms)
 Number     Number       Type             X           Y           Z
 ---------------------------------------------------------------------
      1          6           0        1.932389   -1.467468    0.000005
      2          6           0        2.614317   -0.249261    0.000067
      3          6           0        1.902871    0.955268    0.000029
      4          6           0        0.516037    0.920943   -0.000069
      5          6           0       -0.198374   -0.297114   -0.000199
      6          6           0        0.537896   -1.491903   -0.000120
      7          6           0       -1.685399   -0.330846   -0.000462
      8          8           0       -2.197228   -1.550688    0.000162
      9          7           0       -0.227647    2.201199   -0.000003
     10          8           0       -2.396882    0.684838   -0.000273
     11          1           0        2.485117   -2.398064    0.000039
     12          1           0        3.696770   -0.228517    0.000166
     13          1           0        2.431036    1.902421    0.000110
     14          1           0        0.007263   -2.434573   -0.000203
     15          1           0       -3.169905   -1.495528    0.000372
     16          1           0       -0.017154    2.764950   -0.827067
     17          1           0       -1.270843    1.937232    0.000101
     18          1           0       -0.017058    2.764909    0.827065
 ---------------------------------------------------------------------
                    Distance matrix (angstroms):
                    1          2          3          4          5
     1  C    0.000000
     2  C    1.396085   0.000000
     3  C    2.422915   1.398944   0.000000
     4  C    2.776789   2.402531   1.387258   0.000000
     5  C    2.431025   2.813098   2.446158   1.412107   0.000000
     6  C    1.394707   2.419852   2.802107   2.412945   1.403430
     7  C    3.792137   4.300490   3.811794   2.532449   1.487408
     8  O    4.130456   4.984444   4.805271   3.670255   2.359421
     9  N    4.257332   3.752535   2.468087   1.480582   2.498485
    10  O    4.834771   5.097515   4.308248   2.922472   2.407834
    11  H    1.082367   2.152684   3.403505   3.859156   3.408096
    12  H    2.155930   1.082651   2.149284   3.382058   3.895748
    13  H    3.406581   2.159473   1.084461   2.151864   3.428083
    14  H    2.154392   3.401811   3.883858   3.393868   2.147328
    15  H    5.102371   5.916959   5.633778   4.407437   3.204090
    16  H    4.732666   4.085861   2.765055   2.090115   3.176915
    17  H    4.674685   4.458163   3.322155   2.055671   2.478405
    18  H    4.732587   4.085741   2.764944   2.090108   3.176983
                    6          7          8          9         10
     6  C    0.000000
     7  C    2.508206   0.000000
     8  O    2.735757   1.322870   0.000000
     9  N    3.771613   2.921694   4.237442   0.000000
    10  O    3.653920   1.240090   2.244424   2.646683   0.000000
    11  H    2.147742   4.654739   4.758404   5.339693   5.773925
    12  H    3.402150   5.383142   6.040476   4.615688   6.161721
    13  H    3.886568   4.683217   5.774495   2.675419   4.979086
    14  H    1.081757   2.700143   2.375087   4.641721   3.938355
    15  H    3.707803   1.886860   0.974239   4.724688   2.313345
    16  H    4.371810   3.612517   4.905280   1.022819   3.267042
    17  H    3.876920   2.305653   3.608848   1.076074   1.684178
    18  H    4.371802   3.612735   4.905230   1.022818   3.267222
                   11         12         13         14         15
    11  H    0.000000
    12  H    2.484962   0.000000
    13  H    4.300825   2.478503   0.000000
    14  H    2.478123   4.298737   4.968318   0.000000
    15  H    5.726591   6.982588   6.551075   3.313035   0.000000
    16  H    5.796739   4.841321   2.724300   5.264917   5.364343
    17  H    5.736030   5.419192   3.702042   4.554804   3.923045
    18  H    5.796649   4.841165   2.724134   5.264938   5.364250
                   16         17         18
    16  H    0.000000
    17  H    1.714952   0.000000
    18  H    1.654132   1.714903   0.000000
 Stoichiometry    C7H8NO2(1+)
 Framework group  C1[X(C7H8NO2)]
 Deg. of freedom    48
 Full point group                 C1      NOp   1
 Largest Abelian subgroup         C1      NOp   1
 Largest concise Abelian subgroup C1      NOp   1
                         Standard orientation:                         
 ---------------------------------------------------------------------
 Center     Atomic      Atomic             Coordinates (Angstroms)
 Number     Number       Type             X           Y           Z
 ---------------------------------------------------------------------
      1          6           0       -1.903222   -1.507372   -0.000071
      2          6           0       -2.614315   -0.305956   -0.000133
      3          6           0       -1.932109    0.915371   -0.000095
      4          6           0       -0.544852    0.914485    0.000003
      5          6           0        0.198712   -0.285998    0.000133
      6          6           0       -0.508545   -1.498188    0.000054
      7          6           0        1.686118   -0.283877    0.000396
      8          8           0        2.227202   -1.491028   -0.000228
      9          7           0        0.167757    2.212295   -0.000063
     10          8           0        2.372912    0.748662    0.000207
     11          1           0       -2.433358   -2.451022   -0.000105
     12          1           0       -3.696953   -0.311311   -0.000232
     13          1           0       -2.482951    1.849518   -0.000176
     14          1           0        0.044656   -2.427793    0.000137
     15          1           0        3.198266   -1.412438   -0.000438
     16          1           0       -0.056264    2.770808    0.827001
     17          1           0        1.217012    1.973550   -0.000167
     18          1           0       -0.056358    2.770764   -0.827131
 ---------------------------------------------------------------------
 Rotational constants (GHZ):      2.2098172      1.2022837      0.7819708
 Standard basis: 6-31+G(d,p) (6D, 7F)
 There are   230 symmetry adapted cartesian basis functions of A   symmetry.
 There are   230 symmetry adapted basis functions of A   symmetry.
   230 basis functions,   376 primitive gaussians,   230 cartesian basis functions
    36 alpha electrons       36 beta electrons
       nuclear repulsion energy       513.1199985251 Hartrees.
 NAtoms=   18 NActive=   18 NUniq=   18 SFac= 1.00D+00 NAtFMM=   60 NAOKFM=F Big=F
 Integral buffers will be    131072 words long.
 Regular integral format.
 Two-electron integral symmetry is turned on.
 Nuclear repulsion after empirical dispersion term =      513.1125381067 Hartrees.
 One-electron integrals computed using PRISM.
 NBasis=   230 RedAO= T EigKep=  2.30D-06  NBF=   230
 NBsUse=   230 1.00D-06 EigRej= -1.00D+00 NBFU=   230
 Initial guess from the checkpoint file:  "B2PLYPD3Anthranilicyang.chk"
 B after Tr=     0.000000    0.000000   -0.000000
         Rot=    0.999951   -0.000011    0.000014   -0.009885 Ang=  -1.13 deg.
 ExpMin= 4.38D-02 ExpMax= 5.48D+03 ExpMxC= 8.25D+02 IAcc=2 IRadAn=         4 AccDes= 0.00D+00
 Harris functional with IExCor=  419 and IRadAn=       4 diagonalized for initial guess.
 HarFok:  IExCor=  419 AccDes= 0.00D+00 IRadAn=         4 IDoV= 1 UseB2=F ITyADJ=14
 ICtDFT=  3500011 ScaDFX=  1.000000  1.000000  1.000000  1.000000
 FoFCou: FMM=F IPFlag=           0 FMFlag=      100000 FMFlg1=           0
         NFxFlg=           0 DoJE=T BraDBF=F KetDBF=T FulRan=T
         wScrn=  0.000000 ICntrl=     500 IOpCl=  0 I1Cent=   200000004 NGrid=           0
         NMat0=    1 NMatS0=      1 NMatT0=    0 NMatD0=    1 NMtDS0=    0 NMtDT0=    0
 Petite list used in FoFCou.
 Keep R1 ints in memory in canonical form, NReq=359209085.
 Requested convergence on RMS density matrix=1.00D-08 within 128 cycles.
 Requested convergence on MAX density matrix=1.00D-06.
 Requested convergence on             energy=1.00D-06.
 No special actions if energy rises.
 SCF Done:  E(RB2PLYP) =  -475.631753091     A.U. after   14 cycles
            NFock= 14  Conv=0.44D-08     -V/T= 2.0071
 DoSCS=T DFT=T ScalE2(SS,OS)=  0.270000  0.270000
 ExpMin= 4.38D-02 ExpMax= 5.48D+03 ExpMxC= 8.25D+02 IAcc=3 IRadAn=         5 AccDes= 0.00D+00
 HarFok:  IExCor=  205 AccDes= 0.00D+00 IRadAn=         5 IDoV=-2 UseB2=F ITyADJ=14
 ICtDFT= 12500011 ScaDFX=  1.000000  1.000000  1.000000  1.000000
 Range of M.O.s used for correlation:    11   230
 NBasis=   230 NAE=    36 NBE=    36 NFC=    10 NFV=     0
 NROrb=    220 NOA=    26 NOB=    26 NVA=   194 NVB=   194

 **** Warning!!: The largest alpha MO coefficient is  0.16634744D+03

 DoSCS=T DFT=T ScalE2(SS,OS)=  0.270000  0.270000
 Fully direct method using O(ONN) memory.
 JobTyp=1 Pass  1:  I=  11 to  17 NPSUse= 18 ParTrn=T ParDer=T DoDerP=T.
 JobTyp=1 Pass  2:  I=  18 to  24 NPSUse= 18 ParTrn=T ParDer=T DoDerP=T.
 JobTyp=1 Pass  3:  I=  25 to  31 NPSUse= 18 ParTrn=T ParDer=T DoDerP=T.
 JobTyp=1 Pass  4:  I=  32 to  36 NPSUse= 18 ParTrn=T ParDer=T DoDerP=T.
 Spin components of T(2) and E(2):
     alpha-alpha T2 =       0.1071751032D+00 E2=     -0.6539162889D-01
     alpha-beta  T2 =       0.5529885481D+00 E2=     -0.3537245948D+00
     beta-beta   T2 =       0.1071751032D+00 E2=     -0.6539162889D-01
 E2(B2PLYP) =    -0.4845078526D+00 E(B2PLYP) =    -0.47611626094327D+03
          IDoAtm=111111111111111111
          Differentiating once with respect to electric field.
                with respect to dipole field.
          Differentiating once with respect to nuclear coordinates.
 Keep R1 ints in memory in canonical form, NReq=359028194.
          There are     1 degrees of freedom in the 1st order CPHF.  IDoFFX=0 NUNeed=     1.
 LinEq1:  Iter=  0 NonCon=     1 RMS=1.80D-03 Max=6.46D-02 NDo=     1
 AX will form     1 AO Fock derivatives at one time.
 LinEq1:  Iter=  1 NonCon=     1 RMS=7.64D-04 Max=1.62D-02 NDo=     1
 LinEq1:  Iter=  2 NonCon=     1 RMS=2.98D-04 Max=6.25D-03 NDo=     1
 LinEq1:  Iter=  3 NonCon=     1 RMS=2.23D-04 Max=6.36D-03 NDo=     1
 LinEq1:  Iter=  4 NonCon=     1 RMS=9.02D-05 Max=2.18D-03 NDo=     1
 LinEq1:  Iter=  5 NonCon=     1 RMS=4.19D-05 Max=1.36D-03 NDo=     1
 LinEq1:  Iter=  6 NonCon=     1 RMS=2.01D-05 Max=9.35D-04 NDo=     1
 LinEq1:  Iter=  7 NonCon=     1 RMS=1.08D-05 Max=4.74D-04 NDo=     1
 LinEq1:  Iter=  8 NonCon=     1 RMS=3.72D-06 Max=9.84D-05 NDo=     1
 LinEq1:  Iter=  9 NonCon=     1 RMS=1.90D-06 Max=4.32D-05 NDo=     1
 LinEq1:  Iter= 10 NonCon=     1 RMS=5.50D-07 Max=1.30D-05 NDo=     1
 LinEq1:  Iter= 11 NonCon=     1 RMS=2.88D-07 Max=1.41D-05 NDo=     1
 LinEq1:  Iter= 12 NonCon=     1 RMS=1.28D-07 Max=4.06D-06 NDo=     1
 LinEq1:  Iter= 13 NonCon=     1 RMS=4.17D-08 Max=9.68D-07 NDo=     1
 LinEq1:  Iter= 14 NonCon=     1 RMS=2.37D-08 Max=7.68D-07 NDo=     1
 LinEq1:  Iter= 15 NonCon=     1 RMS=5.87D-09 Max=1.11D-07 NDo=     1
 LinEq1:  Iter= 16 NonCon=     1 RMS=1.85D-09 Max=3.36D-08 NDo=     1
 LinEq1:  Iter= 17 NonCon=     1 RMS=8.38D-10 Max=1.28D-08 NDo=     1
 LinEq1:  Iter= 18 NonCon=     1 RMS=2.28D-10 Max=4.05D-09 NDo=     1
 LinEq1:  Iter= 19 NonCon=     1 RMS=9.86D-11 Max=2.21D-09 NDo=     1
 LinEq1:  Iter= 20 NonCon=     0 RMS=3.83D-11 Max=6.37D-10 NDo=     1
 Linear equations converged to 1.000D-10 1.000D-09 after    20 iterations.
 End of Minotr F.D. properties file   721 does not exist.
 End of Minotr F.D. properties file   722 does not exist.
 End of Minotr F.D. properties file   788 does not exist.
 Calling FoFJK, ICntrl=  10002127 FMM=F ISym2X=0 I1Cent= 0 IOpClX= 0 NMat=1 NMatS=1 NMatT=0.
 ***** Axes restored to original set *****
 -------------------------------------------------------------------
 Center     Atomic                   Forces (Hartrees/Bohr)
 Number     Number              X              Y              Z
 -------------------------------------------------------------------
      1        6           0.000187850    0.000311634    0.000002040
      2        6           0.000157435    0.000003230   -0.000000116
      3        6          -0.000190526    0.000352551    0.000005231
      4        6          -0.000007626   -0.005217773   -0.000005091
      5        6           0.000810630    0.001480807   -0.000031410
      6        6           0.000528157    0.000476153   -0.000006949
      7        6          -0.003162640    0.007319897    0.000123157
      8        8          -0.000443502   -0.004012535   -0.000035881
      9        7          -0.013104165   -0.004844543    0.000008846
     10        8           0.007398898    0.001286634   -0.000039441
     11        1           0.000021464   -0.000071574    0.000000905
     12        1           0.000011563    0.000091318   -0.000001200
     13        1           0.000127203    0.000188190    0.000000951
     14        1           0.000050702    0.000201839   -0.000000523
     15        1           0.000367703    0.000685437   -0.000003335
     16        1          -0.000644915   -0.000144928   -0.000718531
     17        1           0.008526670    0.002038212   -0.000016135
     18        1          -0.000634900   -0.000144549    0.000717480
 -------------------------------------------------------------------
 Cartesian Forces:  Max     0.013104165 RMS     0.002860493

 GradGradGradGradGradGradGradGradGradGradGradGradGradGradGradGradGradGrad
 Berny optimization.
 Using GEDIIS/GDIIS optimizer.
 FormGI is forming the generalized inverse of G from B-inverse, IUseBI=4.
 Internal  Forces:  Max     0.015625762 RMS     0.003590070
 Search for a local minimum.
 Step number   2 out of a maximum of   92
 All quantities printed in internal units (Hartrees-Bohrs-Radians)
 Mixed Optimization -- RFO/linear search
 Update second derivatives using D2CorX and points    2    1
 DE=  2.53D-04 DEPred=-5.46D-04 R=-4.63D-01
 Trust test=-4.63D-01 RLast= 6.27D-02 DXMaxT set to 1.50D-01
 ITU= -1  0
 Use linear search instead of GDIIS.
     Eigenvalues ---    0.00705   0.01004   0.01583   0.01588   0.01728
     Eigenvalues ---    0.02064   0.02134   0.02146   0.02160   0.02179
     Eigenvalues ---    0.02192   0.02227   0.02781   0.07087   0.07708
     Eigenvalues ---    0.14792   0.16000   0.16000   0.16000   0.16000
     Eigenvalues ---    0.16000   0.16000   0.16015   0.21962   0.22572
     Eigenvalues ---    0.23618   0.24499   0.25000   0.25000   0.29697
     Eigenvalues ---    0.33715   0.35072   0.35177   0.35331   0.35376
     Eigenvalues ---    0.35453   0.39415   0.42263   0.43729   0.43784
     Eigenvalues ---    0.44459   0.45578   0.46606   0.47459   0.52681
     Eigenvalues ---    0.60069   0.80753   1.02213
 RFO step:  Lambda=-3.15381880D-04 EMin= 7.05223891D-03
 Quartic linear search produced a step of -0.61705.
 Iteration  1 RMS(Cart)=  0.02283647 RMS(Int)=  0.00015644
 Iteration  2 RMS(Cart)=  0.00021260 RMS(Int)=  0.00000410
 Iteration  3 RMS(Cart)=  0.00000001 RMS(Int)=  0.00000410
 Variable       Old X    -DE/DX   Delta X   Delta X   Delta X     New X
                                 (Linear)    (Quad)   (Total)
    R1        2.63822   0.00150  -0.00232   0.00482   0.00250   2.64072
    R2        2.63561   0.00114  -0.00281   0.00506   0.00224   2.63786
    R3        2.04538   0.00007   0.00317  -0.00425  -0.00108   2.04430
    R4        2.64362   0.00058  -0.00203   0.00348   0.00145   2.64508
    R5        2.04591   0.00001   0.00315  -0.00429  -0.00113   2.04478
    R6        2.62154  -0.00082  -0.00349   0.00408   0.00059   2.62213
    R7        2.04934   0.00023   0.00289  -0.00369  -0.00080   2.04853
    R8        2.66850  -0.01104  -0.00746   0.00060  -0.00685   2.66164
    R9        2.79789   0.00027  -0.00700   0.00983   0.00283   2.80073
   R10        2.65210  -0.00092  -0.00353   0.00400   0.00047   2.65257
   R11        2.81079  -0.00428  -0.00627   0.00377  -0.00251   2.80828
   R12        2.04422  -0.00020   0.00312  -0.00447  -0.00135   2.04287
   R13        2.49986   0.00310  -0.00608   0.01058   0.00451   2.50437
   R14        2.34343  -0.00319  -0.00521   0.00620   0.00099   2.34442
   R15        1.84104  -0.00033  -0.00122   0.00149   0.00027   1.84131
   R16        1.93285   0.00037   0.00079  -0.00078   0.00001   1.93286
   R17        2.03349  -0.00877   0.00741  -0.01952  -0.01210   2.02138
   R18        1.93285   0.00037   0.00079  -0.00078   0.00001   1.93286
    A1        2.09864  -0.00013   0.00018   0.00083   0.00101   2.09965
    A2        2.09531   0.00009  -0.00014  -0.00032  -0.00045   2.09486
    A3        2.08923   0.00005  -0.00004  -0.00052  -0.00056   2.08868
    A4        2.09776  -0.00044   0.00128  -0.00116   0.00013   2.09789
    A5        2.10028   0.00031  -0.00068   0.00085   0.00017   2.10044
    A6        2.08515   0.00013  -0.00060   0.00031  -0.00029   2.08485
    A7        2.07956  -0.00251  -0.00299  -0.00043  -0.00342   2.07614
    A8        2.09940   0.00124   0.00033   0.00154   0.00187   2.10127
    A9        2.10423   0.00127   0.00266  -0.00112   0.00154   2.10577
   A10        2.12599   0.00318   0.00170   0.00185   0.00354   2.12953
   A11        2.07230   0.00841   0.01307  -0.00374   0.00933   2.08163
   A12        2.08490  -0.01159  -0.01477   0.00190  -0.01287   2.07203
   A13        2.05887   0.00250   0.00247  -0.00018   0.00229   2.06116
   A14        2.12392  -0.01563  -0.01464  -0.00445  -0.01909   2.10484
   A15        2.10039   0.01313   0.01217   0.00463   0.01680   2.11719
   A16        2.10555  -0.00260  -0.00264  -0.00091  -0.00355   2.10199
   A17        2.10101   0.00135   0.00148   0.00040   0.00188   2.10290
   A18        2.07662   0.00124   0.00116   0.00051   0.00167   2.07830
   A19        1.99075   0.00415   0.00638  -0.00196   0.00442   1.99517
   A20        2.15917  -0.01004  -0.00772  -0.00530  -0.01302   2.14615
   A21        2.13326   0.00589   0.00134   0.00726   0.00861   2.14186
   A22        1.91142  -0.00130  -0.00127  -0.00160  -0.00287   1.90856
   A23        1.95324   0.00027   0.00257  -0.00135   0.00122   1.95447
   A24        1.84921  -0.00052  -0.01319   0.01236  -0.00082   1.84838
   A25        1.95323   0.00026   0.00257  -0.00135   0.00124   1.95447
   A26        1.91218  -0.00028   0.00263  -0.00577  -0.00313   1.90905
   A27        1.88359   0.00049   0.00256   0.00157   0.00415   1.88774
   A28        1.91210  -0.00027   0.00270  -0.00576  -0.00305   1.90905
    D1        0.00002  -0.00000  -0.00002  -0.00003  -0.00005  -0.00003
    D2        3.14159   0.00000   0.00000   0.00001   0.00001  -3.14158
    D3       -3.14159  -0.00000  -0.00000  -0.00001  -0.00001   3.14159
    D4       -0.00002   0.00000   0.00002   0.00003   0.00005   0.00003
    D5        0.00001  -0.00000  -0.00001  -0.00003  -0.00004  -0.00003
    D6        3.14156   0.00000   0.00003   0.00006   0.00010  -3.14153
    D7       -3.14157  -0.00000  -0.00002  -0.00005  -0.00008   3.14154
    D8       -0.00002   0.00000   0.00002   0.00004   0.00006   0.00004
    D9        0.00000  -0.00000  -0.00000  -0.00000  -0.00000  -0.00000
   D10        3.14156   0.00000   0.00003   0.00006   0.00010  -3.14153
   D11       -3.14157  -0.00000  -0.00002  -0.00004  -0.00006   3.14155
   D12       -0.00001   0.00000   0.00001   0.00002   0.00004   0.00002
   D13       -0.00006   0.00000   0.00005   0.00009   0.00014   0.00009
   D14        3.14151   0.00000   0.00007   0.00015   0.00022  -3.14145
   D15        3.14157   0.00000   0.00002   0.00003   0.00004  -3.14157
   D16       -0.00004   0.00000   0.00004   0.00009   0.00013   0.00008
   D17        0.00009  -0.00001  -0.00007  -0.00015  -0.00022  -0.00014
   D18       -3.14147  -0.00001  -0.00011  -0.00024  -0.00035   3.14137
   D19       -3.14148  -0.00001  -0.00010  -0.00021  -0.00031   3.14140
   D20        0.00015  -0.00001  -0.00013  -0.00030  -0.00043  -0.00028
   D21        1.05856   0.00050   0.00339  -0.00093   0.00245   1.06101
   D22       -3.14140  -0.00001  -0.00019  -0.00099  -0.00117   3.14061
   D23       -1.05828  -0.00050  -0.00367  -0.00103  -0.00470  -1.06298
   D24       -2.08306   0.00051   0.00341  -0.00088   0.00253  -2.08053
   D25        0.00017  -0.00001  -0.00016  -0.00093  -0.00109  -0.00093
   D26        2.08329  -0.00050  -0.00365  -0.00098  -0.00462   2.07867
   D27       -0.00006   0.00000   0.00005   0.00012   0.00017   0.00011
   D28        3.14158   0.00000   0.00001   0.00002   0.00004  -3.14157
   D29        3.14149   0.00001   0.00009   0.00021   0.00030  -3.14140
   D30       -0.00005   0.00000   0.00005   0.00012   0.00016   0.00011
   D31       -3.14100  -0.00003  -0.00052  -0.00200  -0.00250   3.13968
   D32       -0.00030   0.00003   0.00024   0.00071   0.00094   0.00063
   D33        0.00063  -0.00003  -0.00055  -0.00209  -0.00264  -0.00200
   D34        3.14133   0.00003   0.00020   0.00061   0.00080  -3.14105
   D35        3.14113   0.00003   0.00039   0.00137   0.00177  -3.14029
   D36        0.00042  -0.00002  -0.00035  -0.00128  -0.00165  -0.00123
         Item               Value     Threshold  Converged?
 Maximum Force            0.015626     0.000450     NO 
 RMS     Force            0.003590     0.000300     NO 
 Maximum Displacement     0.087900     0.001800     NO 
 RMS     Displacement     0.022873     0.001200     NO 
 Predicted change in Energy=-3.296860D-04
 GradGradGradGradGradGradGradGradGradGradGradGradGradGradGradGradGradGrad

                          Input orientation:                          
 ---------------------------------------------------------------------
 Center     Atomic      Atomic             Coordinates (Angstroms)
 Number     Number       Type             X           Y           Z
 ---------------------------------------------------------------------
      1          6           0        1.942794   -1.469717    0.000063
      2          6           0        2.621353   -0.248118   -0.000234
      3          6           0        1.905711    0.954818   -0.000205
      4          6           0        0.518821    0.911362    0.000121
      5          6           0       -0.190063   -0.305725    0.000526
      6          6           0        0.547232   -1.500177    0.000425
      7          6           0       -1.676110   -0.315577    0.001158
      8          8           0       -2.213765   -1.526867   -0.000818
      9          7           0       -0.245906    2.180911   -0.000031
     10          8           0       -2.358055    0.720801    0.000700
     11          1           0        2.498709   -2.397749    0.000036
     12          1           0        3.703128   -0.223649   -0.000523
     13          1           0        2.428896    1.904245   -0.000492
     14          1           0        0.019232   -2.443503    0.000712
     15          1           0       -3.185030   -1.449013   -0.001452
     16          1           0       -0.047182    2.747483   -0.828085
     17          1           0       -1.278357    1.901203   -0.000734
     18          1           0       -0.048202    2.747069    0.828550
 ---------------------------------------------------------------------
                    Distance matrix (angstroms):
                    1          2          3          4          5
     1  C    0.000000
     2  C    1.397407   0.000000
     3  C    2.424818   1.399714   0.000000
     4  C    2.774389   2.401049   1.387570   0.000000
     5  C    2.429805   2.812007   2.445657   1.408480   0.000000
     6  C    1.395894   2.422732   2.805792   2.411706   1.403681
     7  C    3.798487   4.297993   3.800440   2.514578   1.486080
     8  O    4.156951   5.001356   4.809245   3.662238   2.363590
     9  N    4.256465   3.757840   2.476441   1.482081   2.487264
    10  O    4.826558   5.072801   4.270183   2.883180   2.398738
    11  H    1.081798   2.153128   3.404608   3.856186   3.406766
    12  H    2.156725   1.082051   2.149301   3.380541   3.894056
    13  H    3.408799   2.160950   1.084036   2.152720   3.426794
    14  H    2.156004   3.404520   3.886823   3.391859   2.147999
    15  H    5.127866   5.929269   5.629746   4.392025   3.205766
    16  H    4.736096   4.096345   2.777197   2.092278   3.166874
    17  H    4.662501   4.452788   3.321736   2.051740   2.460674
    18  H    4.736216   4.096896   2.777908   2.092280   3.166276
                    6          7          8          9         10
     6  C    0.000000
     7  C    2.519232   0.000000
     8  O    2.761126   1.325255   0.000000
     9  N    3.765565   2.877140   4.197629   0.000000
    10  O    3.656971   1.240616   2.252295   2.567702   0.000000
    11  H    2.147998   4.665249   4.792269   5.338262   5.771785
    12  H    3.404292   5.380023   6.058712   4.623503   6.134323
    13  H    3.889827   4.666764   5.772939   2.689072   4.931069
    14  H    1.081040   2.720708   2.413814   4.632009   3.957816
    15  H    3.732613   1.887200   0.974380   4.670632   2.322065
    16  H    4.368338   3.566985   4.862974   1.022824   3.183466
    17  H    3.860332   2.252182   3.553400   1.069669   1.599718
    18  H    4.368002   3.565735   4.862514   1.022824   3.182219
                   11         12         13         14         15
    11  H    0.000000
    12  H    2.485425   0.000000
    13  H    4.302561   2.480242   0.000000
    14  H    2.479899   4.301029   4.970855   0.000000
    15  H    5.762376   6.996301   6.539152   3.355042   0.000000
    16  H    5.800065   4.855647   2.743524   5.257152   5.304714
    17  H    5.722519   5.415735   3.707254   4.534337   3.854783
    18  H    5.800203   4.856440   2.744755   5.256606   5.304310
                   16         17         18
    16  H    0.000000
    17  H    1.707774   0.000000
    18  H    1.656635   1.707772   0.000000
 Stoichiometry    C7H8NO2(1+)
 Framework group  C1[X(C7H8NO2)]
 Deg. of freedom    48
 Full point group                 C1      NOp   1
 Largest Abelian subgroup         C1      NOp   1
 Largest concise Abelian subgroup C1      NOp   1
                         Standard orientation:                         
 ---------------------------------------------------------------------
 Center     Atomic      Atomic             Coordinates (Angstroms)
 Number     Number       Type             X           Y           Z
 ---------------------------------------------------------------------
      1          6           0       -1.934929   -1.480216    0.000046
      2          6           0       -2.622108   -0.263446    0.000343
      3          6           0       -1.914988    0.944520    0.000314
      4          6           0       -0.527826    0.910870   -0.000012
      5          6           0        0.189645   -0.301174   -0.000417
      6          6           0       -0.539186   -1.500810   -0.000316
      7          6           0        1.675725   -0.300519   -0.001049
      8          8           0        2.221930   -1.507978    0.000927
      9          7           0        0.227906    2.185795    0.000140
     10          8           0        2.350325    0.740654   -0.000591
     11          1           0       -2.484268   -2.412156    0.000073
     12          1           0       -3.704029   -0.246626    0.000632
     13          1           0       -2.444873    1.890224    0.000601
     14          1           0       -0.004530   -2.440379   -0.000603
     15          1           0        3.192620   -1.423259    0.001562
     16          1           0        0.025181    2.750947    0.828194
     17          1           0        1.262309    1.913393    0.000844
     18          1           0        0.026204    2.750541   -0.828441
 ---------------------------------------------------------------------
 Rotational constants (GHZ):      2.2275504      1.2042492      0.7850258
 Standard basis: 6-31+G(d,p) (6D, 7F)
 There are   230 symmetry adapted cartesian basis functions of A   symmetry.
 There are   230 symmetry adapted basis functions of A   symmetry.
   230 basis functions,   376 primitive gaussians,   230 cartesian basis functions
    36 alpha electrons       36 beta electrons
       nuclear repulsion energy       513.9439927086 Hartrees.
 NAtoms=   18 NActive=   18 NUniq=   18 SFac= 1.00D+00 NAtFMM=   60 NAOKFM=F Big=F
 Integral buffers will be    131072 words long.
 Regular integral format.
 Two-electron integral symmetry is turned on.
 Nuclear repulsion after empirical dispersion term =      513.9365565039 Hartrees.
 One-electron integrals computed using PRISM.
 NBasis=   230 RedAO= T EigKep=  2.30D-06  NBF=   230
 NBsUse=   230 1.00D-06 EigRej= -1.00D+00 NBFU=   230
 Lowest energy guess from the checkpoint file:  "B2PLYPD3Anthranilicyang.chk"
 B after Tr=     0.000000    0.000000    0.000000
         Rot=    0.999996    0.000016   -0.000026   -0.002880 Ang=   0.33 deg.
 B after Tr=     0.000000   -0.000000    0.000000
         Rot=    0.999975    0.000027   -0.000041    0.007003 Ang=   0.80 deg.
 Keep R1 ints in memory in canonical form, NReq=359209085.
 Requested convergence on RMS density matrix=1.00D-08 within 128 cycles.
 Requested convergence on MAX density matrix=1.00D-06.
 Requested convergence on             energy=1.00D-06.
 No special actions if energy rises.
 SCF Done:  E(RB2PLYP) =  -475.632320888     A.U. after   12 cycles
            NFock= 12  Conv=0.63D-08     -V/T= 2.0070
 DoSCS=T DFT=T ScalE2(SS,OS)=  0.270000  0.270000
 ExpMin= 4.38D-02 ExpMax= 5.48D+03 ExpMxC= 8.25D+02 IAcc=3 IRadAn=         5 AccDes= 0.00D+00
 HarFok:  IExCor=  205 AccDes= 0.00D+00 IRadAn=         5 IDoV=-2 UseB2=F ITyADJ=14
 ICtDFT= 12500011 ScaDFX=  1.000000  1.000000  1.000000  1.000000
 Range of M.O.s used for correlation:    11   230
 NBasis=   230 NAE=    36 NBE=    36 NFC=    10 NFV=     0
 NROrb=    220 NOA=    26 NOB=    26 NVA=   194 NVB=   194

 **** Warning!!: The largest alpha MO coefficient is  0.16736580D+03

 DoSCS=T DFT=T ScalE2(SS,OS)=  0.270000  0.270000
 Fully direct method using O(ONN) memory.
 JobTyp=1 Pass  1:  I=  11 to  17 NPSUse= 18 ParTrn=T ParDer=T DoDerP=T.
 JobTyp=1 Pass  2:  I=  18 to  24 NPSUse= 18 ParTrn=T ParDer=T DoDerP=T.
 JobTyp=1 Pass  3:  I=  25 to  31 NPSUse= 18 ParTrn=T ParDer=T DoDerP=T.
 JobTyp=1 Pass  4:  I=  32 to  36 NPSUse= 18 ParTrn=T ParDer=T DoDerP=T.
 Spin components of T(2) and E(2):
     alpha-alpha T2 =       0.1071625302D+00 E2=     -0.6543539863D-01
     alpha-beta  T2 =       0.5523516826D+00 E2=     -0.3536762929D+00
     beta-beta   T2 =       0.1071625302D+00 E2=     -0.6543539863D-01
 E2(B2PLYP) =    -0.4845470902D+00 E(B2PLYP) =    -0.47611686797799D+03
          IDoAtm=111111111111111111
          Differentiating once with respect to electric field.
                with respect to dipole field.
          Differentiating once with respect to nuclear coordinates.
 Keep R1 ints in memory in canonical form, NReq=359028194.
          There are     1 degrees of freedom in the 1st order CPHF.  IDoFFX=0 NUNeed=     1.
 LinEq1:  Iter=  0 NonCon=     1 RMS=1.80D-03 Max=6.58D-02 NDo=     1
 AX will form     1 AO Fock derivatives at one time.
 LinEq1:  Iter=  1 NonCon=     1 RMS=7.59D-04 Max=1.57D-02 NDo=     1
 LinEq1:  Iter=  2 NonCon=     1 RMS=2.94D-04 Max=6.91D-03 NDo=     1
 LinEq1:  Iter=  3 NonCon=     1 RMS=2.20D-04 Max=6.26D-03 NDo=     1
 LinEq1:  Iter=  4 NonCon=     1 RMS=8.94D-05 Max=2.26D-03 NDo=     1
 LinEq1:  Iter=  5 NonCon=     1 RMS=4.18D-05 Max=1.30D-03 NDo=     1
 LinEq1:  Iter=  6 NonCon=     1 RMS=2.00D-05 Max=8.70D-04 NDo=     1
 LinEq1:  Iter=  7 NonCon=     1 RMS=1.07D-05 Max=4.35D-04 NDo=     1
 LinEq1:  Iter=  8 NonCon=     1 RMS=3.71D-06 Max=9.82D-05 NDo=     1
 LinEq1:  Iter=  9 NonCon=     1 RMS=1.90D-06 Max=3.88D-05 NDo=     1
 LinEq1:  Iter= 10 NonCon=     1 RMS=5.42D-07 Max=1.10D-05 NDo=     1
 LinEq1:  Iter= 11 NonCon=     1 RMS=2.85D-07 Max=1.31D-05 NDo=     1
 LinEq1:  Iter= 12 NonCon=     1 RMS=1.27D-07 Max=3.56D-06 NDo=     1
 LinEq1:  Iter= 13 NonCon=     1 RMS=4.03D-08 Max=8.33D-07 NDo=     1
 LinEq1:  Iter= 14 NonCon=     1 RMS=2.32D-08 Max=7.00D-07 NDo=     1
 LinEq1:  Iter= 15 NonCon=     1 RMS=5.84D-09 Max=1.16D-07 NDo=     1
 LinEq1:  Iter= 16 NonCon=     1 RMS=1.56D-09 Max=2.56D-08 NDo=     1
 LinEq1:  Iter= 17 NonCon=     1 RMS=7.39D-10 Max=1.04D-08 NDo=     1
 LinEq1:  Iter= 18 NonCon=     1 RMS=2.08D-10 Max=3.91D-09 NDo=     1
 LinEq1:  Iter= 19 NonCon=     1 RMS=7.39D-11 Max=1.66D-09 NDo=     1
 LinEq1:  Iter= 20 NonCon=     0 RMS=3.34D-11 Max=6.18D-10 NDo=     1
 Linear equations converged to 1.000D-10 1.000D-09 after    20 iterations.
 End of Minotr F.D. properties file   721 does not exist.
 End of Minotr F.D. properties file   722 does not exist.
 End of Minotr F.D. properties file   788 does not exist.
 Calling FoFJK, ICntrl=  10002127 FMM=F ISym2X=0 I1Cent= 0 IOpClX= 0 NMat=1 NMatS=1 NMatT=0.
 ***** Axes restored to original set *****
 -------------------------------------------------------------------
 Center     Atomic                   Forces (Hartrees/Bohr)
 Number     Number              X              Y              Z
 -------------------------------------------------------------------
      1        6          -0.000717912    0.001032601   -0.000005752
      2        6          -0.001215361   -0.000077156    0.000001227
      3        6          -0.000544367   -0.000282712   -0.000011110
      4        6           0.000248184   -0.001432498    0.000011305
      5        6           0.000140930    0.000193864    0.000094149
[...]
 3655,0.0000005,0.1778945,-0.0152533,0.000001,-0.0000036,-0.0000103,-0.
 0899319,0.4284404,-0.2020249,0.0000068,-0.0062706,0.4250197,-0.00001,0
 .0000383,0.0000343,-0.0578496,-0.7442119,0.0325312,-0.0000024,-0.06263
 2,-0.0986624,0.0000013,-0.000006,-0.0000125,0.0241953,0.087021,0.11970
 04,0.0000021,-0.0575235,0.0275772,0.0000017,-0.0000006,0.0000035,-0.05
 91977,2.024784,0.0485137,0.0000053,0.2382899,1.7446419,0.0000946,0.000
 035,0.0001171,0.3513408,-0.8671164,-0.5134905,-0.0000357,-0.5362259,-1
 .0477939,-0.0000468,-0.0000706,-0.0000832,-0.3303752,-0.467177,-0.1530
 086,-0.0000271,0.046407,-0.5194987,0.0000131,-0.000077,-0.0000867,-0.0
 465195,-1.0606028,0.1863647,0.0000275,0.0702986,-1.1681636,-0.0000266,
 0.0000564,0.0000444,-0.3400906,0.0663111,0.0222034,0.0000005,0.0284729
 ,0.0413001,-0.0000007,-0.0000018,0.0000002,0.1448012,0.0340287,-0.0025
 481,-0.0000001,-0.0064853,0.0852642,0.0000004,0.0000026,0.0000002,0.14
 19685,0.0924924,-0.0105753,-0.0000011,-0.0219673,-0.0098143,0.0000024,
 -0.0000017,0.0000123,0.1519838,0.0937186,-0.0163061,0.0000008,-0.01604
 77,0.0835765,0.,0.0000094,0.0000014,0.1398699,0.4353525,0.131542,0.000
 0092,0.129958,0.3191086,-0.0000026,0.0000159,0.0000009,0.3673742,0.201
 4504,0.0099968,0.0115703,0.014549,0.2513018,-0.0511787,0.0211034,-0.08
 31963,0.2674122,0.6315081,0.3913879,0.0000055,0.2141989,0.5305029,-0.0
 000411,0.0000113,-0.0000445,0.2009759,0.2014719,0.0100253,-0.0115578,0
 .0145559,0.2512662,0.0511911,-0.0211069,0.0832219,0.2674312\Polar=116.
 0950569,-0.6724992,101.5382275,-0.0003587,0.0004484,48.7882671\PG=C01 
 [X(C7H8N1O2)]\NImag=0\\0.70284043,-0.03882198,0.74464589,-0.00000188,0
 .00000265,0.12192813,-0.18376944,-0.12106468,-0.00000025,0.76389939,-0
 .06138781,-0.29858322,-0.00000140,0.00458856,0.67498232,-0.00000018,-0
 .00000120,-0.05096919,-0.00000255,0.00000176,0.12549904,0.06194963,0.0
 2060083,-0.00000037,-0.18543916,0.06214123,0.00000158,0.70564030,-0.01
 365357,-0.05195582,0.00000002,0.12487807,-0.28700528,-0.00000101,0.035
 62861,0.74499994,-0.00000018,0.00000008,-0.00252263,0.00000040,0.00000
 018,-0.04921085,-0.00000027,-0.00000454,0.11251699,-0.04880246,-0.0274
 9236,0.00000019,-0.02795476,0.07922012,-0.00000065,-0.35184301,-0.0635
 1593,-0.00000068,0.71424645,-0.02795478,-0.01742705,0.00000027,0.02759
 465,0.03114055,-0.00000054,0.01385967,-0.12216734,0.00000085,0.0524352
 1,0.61341929,0.00000027,0.00000006,0.00295761,0.00000014,0.00000010,-0
 .00633296,-0.00000124,0.00000053,-0.04503723,-0.00000204,-0.00000893,0
 .13470414,-0.02735578,0.02724153,0.00000036,0.00055906,-0.00597230,0.0
 0000024,-0.03247296,-0.02058523,-0.00000016,-0.17009525,-0.11662239,0.
 00000484,0.65376491,0.06417225,0.03171079,-0.00000082,0.00256756,-0.05
 753394,0.00000016,-0.06650546,0.02436606,-0.00000033,-0.05783870,-0.25
 595506,0.00000452,-0.00627008,0.70260756,0.00000021,0.00000009,-0.0032
 3500,0.00000003,-0.00000016,0.00316317,-0.00000038,0.00000023,-0.00196
 316,0.00000478,0.00000312,-0.03471257,-0.00000592,0.00000126,0.1017405
 8,-0.35075450,0.02635120,0.00000072,-0.02268884,-0.06843537,0.00000018
 ,-0.04544030,0.01878212,-0.00000001,0.05782603,0.02698269,-0.00000063,
 -0.17246421,0.05875138,0.00000167,0.70782117,-0.03390283,-0.13233908,0
 .00000048,-0.03402441,0.03077670,0.,0.02758749,-0.01226436,0.00000002,
 -0.01879440,-0.05501974,-0.00000020,0.11114992,-0.27785908,-0.00000315
 ,0.04587489,0.73002533,0.00000130,-0.00000034,-0.05056257,0.00000007,0
 .00000064,-0.00303424,0.00000030,-0.00000038,0.00319884,-0.00000071,0.
 00000009,-0.00741703,0.00000231,-0.00000337,-0.04280653,-0.00000545,0.
 00000081,0.12211860,0.00302271,0.00223425,-0.00000002,-0.00027929,0.00
 456837,0.00000025,0.01061063,-0.00398838,0.00000039,-0.02181888,-0.027
 68002,-0.00000023,-0.20407912,-0.00301519,0.00000223,-0.02020833,0.015
 93150,0.00000072,0.71458486,0.00440114,-0.00635614,-0.00000019,0.00049
 400,-0.00336923,-0.00000009,-0.00421648,-0.00711734,-0.00000003,-0.033
 68691,0.01330378,0.00000058,-0.01176043,-0.10231802,0.00000104,0.02757
 231,0.01168512,-0.00000035,-0.09880242,0.86534706,-0.00000022,-0.00000
 023,0.00925304,-0.00000020,0.00000017,-0.00201202,-0.00000003,0.000000
 04,0.00706395,0.00000001,0.00000015,-0.00582973,0.00000015,0.00000199,
 -0.06506828,0.00000026,0.00000004,-0.00423131,0.00000466,0.00003002,0.
 19658050,0.00120766,-0.00057397,0.00000015,-0.00013580,-0.00215363,-0.
 00000011,-0.00309322,-0.00141741,0.00000020,-0.00515432,0.00853586,-0.
 00000007,-0.03041322,-0.04502295,-0.00000324,-0.00472666,-0.00204677,-
 0.00000045,-0.17765360,-0.11317365,-0.00001195,0.67165693,-0.00049313,
 0.00057439,0.00000015,0.00020328,-0.00097890,0.,-0.00163449,0.00173354
 ,-0.00000002,0.00365694,0.00081390,0.00000006,-0.01733727,-0.00541660,
 -0.00000179,0.00190489,-0.00414513,-0.00000004,-0.07139298,-0.29789068
 ,-0.00001867,0.06456311,0.45007667,-0.00000003,-0.00000007,-0.00116164
 ,-0.00000003,0.,0.00012029,0.,0.00000013,-0.00061788,-0.00000028,0.000
 00030,0.00201708,-0.00000132,-0.00000209,0.00830821,0.00000020,-0.0000
 0031,0.00148446,-0.00000932,-0.00002179,-0.06190758,0.00002701,0.00003
 175,0.03951260,0.00095097,0.00043796,0.00000020,-0.00733928,-0.0059807
 0,0.00000063,-0.01997042,0.04791532,-0.00000029,-0.12432476,0.02760215
 ,-0.00000003,0.01405252,-0.00701937,-0.00000029,-0.00080236,-0.0011132
 6,-0.00000047,-0.02155388,0.01461843,0.00000229,0.00259640,-0.00843040
 ,-0.00000161,0.57393042,-0.00204185,-0.00135475,-0.00000016,-0.0006355
 3,0.00556418,0.00000138,0.00777474,-0.00854162,-0.00000003,0.03906375,
 -0.16604284,0.00000306,0.02357214,-0.02913423,0.00000027,-0.00538754,-
 0.00389276,0.00000074,-0.00207870,0.00609390,0.00000050,0.00016995,-0.
 00339885,-0.00000091,0.09145741,0.60624370,0.00000013,-0.00000035,-0.0
 0159212,-0.00000045,-0.00000024,0.00747065,-0.00000134,0.00000165,0.00
 026392,0.00000083,0.00000328,-0.06923528,-0.00000298,0.00000069,-0.003
 71075,0.00000139,0.00000069,0.00832791,-0.00000057,0.00000063,-0.00231
 205,-0.00000053,-0.00000062,-0.00129552,-0.00004118,-0.00000221,0.7195
 6315,-0.00203518,0.00186071,-0.00000003,0.00030871,0.00006930,0.000000
 01,-0.00155987,0.00116633,0.00000031,0.00479507,0.00387578,0.00000013,
 -0.03107494,0.04290604,0.00000131,-0.00526896,-0.00740222,0.00000036,-
 0.28822110,0.24051086,0.00000918,0.03544282,-0.00619024,-0.00000106,-0
 .01603935,-0.02092118,0.00000564,0.32396989,0.00133174,0.00129377,0.00
 000014,-0.00049907,0.00063401,0.00000018,0.00214766,0.00200876,0.00000
 053,0.00193902,-0.01727754,-0.00000007,0.02748795,-0.00483525,-0.00000
 155,-0.00071357,0.00389043,0.00000030,0.22549697,-0.44634270,-0.000010
 23,0.01890304,-0.10413124,-0.00000903,-0.04308227,-0.01683417,0.000001
 64,-0.26607677,0.55662773,0.00000003,-0.00000005,-0.00169059,0.0000000
 8,-0.00000005,0.00025275,0.00000005,-0.00000062,-0.00052612,-0.0000005
 1,0.00000203,0.00044191,0.00000120,-0.00000066,0.01712299,-0.00000034,
 -0.00000009,0.00336048,0.00001096,-0.00001335,-0.07131022,0.00000036,-
 0.00000578,0.02648333,0.00000893,0.00000512,0.00943168,-0.00001263,0.0
 0002222,0.03508362,-0.13854551,0.13064135,0.00000072,0.01255472,-0.016
 03157,-0.00000018,-0.00102626,-0.00362695,0.,-0.00117512,-0.00116694,-
 0.00000003,-0.00507965,-0.00113705,0.00000009,-0.01149189,0.02776503,0
 .00000015,0.00050822,0.00162422,-0.00000001,-0.00014245,-0.00020117,0.
 ,0.00031560,0.00013086,0.00000002,-0.00080771,0.00025883,-0.00000002,0
 .14303098,0.13071559,-0.27895501,-0.00000123,0.01533627,-0.01712149,-0
 .00000016,-0.00313500,-0.00302879,0.,-0.00126702,0.00009851,-0.0000000
 5,-0.00137048,0.00126749,0.00000002,-0.00367747,0.00628482,0.00000004,
 -0.00014945,0.00031572,-0.00000001,0.00002747,0.00000117,0.,0.00028302
 ,0.00005882,0.00000008,-0.00015152,0.00007398,0.,-0.13732553,0.2903822
 5,0.00000063,-0.00000107,-0.03819176,0.00000013,-0.00000021,0.00261634
 ,-0.00000017,-0.00000004,0.00801264,-0.00000004,0.00000005,-0.00054002
 ,0.00000010,0.00000013,0.00804995,0.00000020,-0.00000009,0.00228609,0.
 00000003,0.00000003,0.00030084,-0.00000001,-0.00000003,-0.00004267,-0.
 00000007,-0.00000013,-0.00110079,-0.00000007,-0.00000004,-0.00029090,-
 0.00000078,0.00000132,0.02654557,-0.00814014,0.00242155,0.00000006,-0.
 35673096,-0.00633808,0.00000197,-0.00939884,-0.00251778,0.00000001,0.0
 0091440,0.00202037,0.00000008,0.00094410,-0.00016795,-0.00000002,0.000
 25381,-0.00227442,0.00000008,-0.00036679,-0.00003526,0.,0.00001146,0.0
 0005017,0.,-0.00066075,-0.00013476,-0.00000006,0.00004489,-0.00013871,
 0.00000003,0.00068400,-0.00001629,-0.00000004,0.37206890,-0.02867667,0
 .00487642,0.00000007,-0.00682396,-0.06090566,-0.00000008,0.02890478,0.
 00396506,-0.00000012,0.00168873,-0.00393383,-0.00000005,0.00003814,-0.
 00140945,-0.00000003,-0.00273540,-0.00500203,-0.00000001,0.00019484,-0
 .00035620,0.,-0.00008694,0.00015968,0.00000001,0.00233080,-0.00023136,
 0.00000016,-0.00003081,0.00039186,-0.00000006,0.00021913,0.00079448,0.
 00000003,0.00665513,0.06088869,-0.00000022,-0.00000008,0.00387685,0.00
 000215,-0.00000005,-0.03897128,-0.00000003,0.00000020,0.00276134,0.000
 00009,0.00000008,0.00779877,0.00000004,0.00000005,-0.00126999,0.000000
 08,-0.00000017,0.00805373,-0.00000014,0.00000005,-0.00111620,0.0000000
 1,0.,0.00018509,-0.00000005,-0.00000010,0.00013927,-0.00000001,-0.0000
 0012,0.00013714,0.,0.00000001,-0.00364989,-0.00000209,0.00000010,0.026
 28545,-0.00172785,0.00351481,0.00000010,0.01322843,0.01620579,-0.00000
 032,-0.12874895,-0.12271557,0.00000146,-0.01086563,-0.02891579,0.00000
 015,-0.00493668,0.00212502,0.00000023,-0.00064257,0.00080391,-0.000000
 06,0.00072893,-0.00177996,-0.00000002,-0.00074748,0.00007648,0.0000000
 1,0.00293952,-0.00014218,0.00000066,0.00009271,0.00083130,-0.00000017,
 0.00055428,0.00081615,0.00000002,0.00067839,-0.00015955,0.,0.13198726,
 0.00381957,-0.00285329,0.00000007,-0.01524236,-0.01755366,0.00000013,-
 0.12277247,-0.28056435,0.00000345,0.00373618,0.00275999,-0.00000008,0.
 00072578,0.00133812,0.00000011,0.00102962,-0.00000872,-0.00000005,0.00
 061087,-0.00004396,-0.00000005,0.00000409,0.00007344,0.,0.00016817,0.0
 0154136,0.,-0.00007869,0.00029349,0.,-0.00087459,-0.00081509,-0.000000
 02,-0.00001913,0.00093729,-0.00000002,0.12980439,0.29436239,0.00000029
 ,0.00000015,0.00743199,0.00000029,-0.00000051,0.00245694,0.00000115,0.
 00000371,-0.03328910,-0.00000007,0.00000068,0.00150240,-0.00000002,-0.
 00000007,0.00659226,-0.00000021,0.00000018,-0.00152529,-0.00000011,0.0
 0000004,0.00146053,0.00000005,0.,-0.00024041,-0.00000044,-0.00000099,-
 0.00318923,-0.00000002,-0.00000013,-0.00015432,0.00000001,0.,-0.000173
 98,-0.00000003,0.,-0.00360310,-0.00000151,-0.00000342,0.02403388,-0.00
 891967,-0.02753855,0.00000022,-0.00566062,0.00053846,0.00000010,-0.000
 99666,0.00099552,0.,-0.00171933,0.00234548,0.00000013,0.01180843,0.016
 65492,-0.00000013,-0.12970486,-0.12803277,0.00000160,0.00175111,0.0020
 0895,0.00000019,-0.00434758,0.00037450,-0.00000027,-0.00002629,0.00163
 858,-0.00000024,-0.00000125,-0.00129587,0.00000003,0.00086424,0.000112
 48,-0.00000007,-0.00039694,-0.00133887,-0.00000003,0.00008899,-0.00008
 535,-0.00000002,0.13668591,0.00301018,0.00633344,-0.00000007,0.0012547
 0,0.00094453,0.00000003,0.00034607,0.00028172,0.,0.00358812,-0.0011607
 3,-0.00000010,-0.01291704,-0.01845039,0.00000015,-0.12602435,-0.288521
 33,0.00000175,-0.00116303,-0.00244201,-0.00000018,-0.00062646,0.000994
 21,0.00000006,-0.00025705,-0.00100855,0.00000019,-0.00006152,0.0011494
 5,-0.00000003,-0.00007510,0.00066245,0.,0.00027232,0.00023626,0.,-0.00
 008921,0.00002152,0.,0.13313171,0.30085543,-0.00000021,0.00000011,0.00
 406864,0.,0.00000008,0.00791204,0.00000017,0.00000010,-0.00152907,0.00
 000029,-0.00000009,0.00641190,-0.00000022,0.,0.00177551,0.00000193,0.0
 0000192,-0.03771292,-0.00000007,0.00000005,-0.00385012,-0.00000026,-0.
 00000001,0.00059505,-0.00000024,-0.00000018,0.00101111,0.00000002,-0.0
 0000020,0.00057638,-0.00000002,0.,-0.00374652,0.,0.,-0.00059667,-0.000
 00001,0.,-0.00063621,-0.00000156,-0.00000181,0.02593081,-0.00015600,0.
 00008347,-0.00000003,0.00008016,0.00037252,0.00000001,0.00055707,-0.00
 052076,0.,-0.00115572,0.00012813,-0.00000012,0.00201128,-0.00202137,-0
 .00000046,0.00078320,0.00007997,0.00000007,-0.02549961,-0.00765377,-0.
 00000082,-0.48203547,0.02170596,-0.00001634,0.00130420,0.00049592,0.00
 000020,0.00140300,0.01008739,0.00000025,0.00002198,-0.00000492,0.,-0.0
 0000032,0.00001341,0.,-0.00003133,0.00001117,0.00000002,-0.00007288,0.
 00008487,0.00000003,0.50447400,0.00008200,0.00034796,-0.00000005,0.000
 16794,-0.00001793,0.00000002,-0.00001477,-0.00053771,-0.00000003,-0.00
 165099,0.00085743,0.00000008,-0.00110698,-0.00627084,-0.00000096,0.000
 96192,-0.00043639,0.00000016,-0.05659926,0.00132999,-0.00000206,0.0732
 6647,-0.04964907,-0.00000074,0.00146297,0.00069793,-0.00000008,0.00682
 717,0.00254477,0.00000042,0.00001966,0.00000865,0.,0.00001482,0.000029
 38,0.,-0.00012904,0.00000609,0.00000002,-0.00022099,0.00071181,-0.0000
 0002,-0.02130719,0.05202056,-0.00000007,0.,0.00030940,0.00000003,0.000
 00010,-0.00000817,0.00000011,-0.00000015,-0.00024002,-0.00000040,0.000
 00019,0.00077453,0.00000031,-0.00000085,0.00527091,0.00000021,-0.00000
 003,-0.00064233,-0.00000618,-0.00000047,0.00303388,-0.00001192,-0.0000
 0229,-0.01608386,0.00000044,0.00000018,0.00021963,0.00000085,0.0000009
 0,-0.00574988,0.,0.,0.00003881,0.,0.,-0.00002429,-0.00000002,0.,-0.000
 15272,0.00000002,0.00000003,-0.00024255,0.00001703,0.00000274,0.013530
 38,0.00054967,0.00044435,-0.00019596,-0.00010551,-0.00057334,0.0005854
 9,0.00053693,0.00188160,0.00030193,0.00482744,0.01158964,-0.01606949,-
 0.00150545,0.00014000,-0.00118018,-0.00064328,0.00060330,0.00082260,-0
 .00072527,0.00071805,-0.00044641,0.00005319,-0.00034389,0.00054940,-0.
 07127799,-0.04250197,0.06151057,-0.00265464,-0.00252399,-0.00235742,-0
 .00002980,-0.00007016,-0.00008080,-0.00002229,0.00000127,0.00000147,-0
 .00087861,-0.00037009,-0.00041331,-0.00007904,0.00008466,0.00017883,0.
 00004006,0.00004136,-0.00000316,0.06687420,0.00025841,0.00033575,0.000
 22197,-0.00012899,-0.00108844,-0.00113660,-0.00135027,0.00216976,-0.00
 028485,-0.00535288,-0.01997482,0.01965224,0.00289553,-0.00138611,0.001
 15118,-0.00069378,-0.00061453,-0.00116390,0.00038962,-0.00091853,0.000
 60767,0.00014033,0.00053616,0.00007700,-0.04245441,-0.16150590,0.16099
 528,-0.00029733,0.00083276,-0.00051364,0.00002002,0.00003027,0.0002024
 1,-0.00002777,0.00009222,0.00000539,0.00032202,0.00026275,0.00076798,0
 .00019197,-0.00016689,-0.00020725,-0.00011219,-0.00006590,0.00000108,0
 .04094997,0.17076649,-0.00030357,-0.00042150,0.00000761,0.00001187,0.0
 0048703,0.00030800,0.00059824,-0.00113174,0.00030164,-0.00353153,0.000
 03604,0.00685328,0.00043498,-0.00135130,-0.00029239,0.00018916,-0.0005
 1260,-0.00021069,0.00061635,0.00078282,0.00037881,-0.00035489,-0.00062
 212,-0.00002516,0.05852780,0.15211841,-0.29738624,-0.00139859,-0.00139
 464,-0.00063816,-0.00001175,-0.00002344,-0.00006037,0.00005580,-0.0000
 8215,0.00002502,-0.00033385,0.00014238,-0.00015232,0.00006084,-0.00011
 005,0.00001656,0.00010626,0.00006038,0.00006199,-0.06563440,-0.1664644
 2,0.31047440,-0.00086413,-0.00078465,-0.00000008,-0.00042114,-0.000258
 30,-0.00000014,0.00015893,-0.00058743,-0.00000090,-0.02251613,0.013783
 31,-0.00000241,-0.00215814,0.00154290,-0.00000036,-0.00120391,-0.00280
 785,0.00000014,0.02992124,-0.02155444,-0.00000352,-0.00257137,0.013831
 05,0.00000347,-0.26287369,-0.04804106,-0.00005986,-0.01574269,0.028364
 80,-0.00001093,-0.00020584,-0.00005301,0.00000002,0.00013938,-0.000195
 33,0.00000012,-0.00084124,-0.00009733,0.00000008,0.00080536,-0.0006433
 8,0.00000007,-0.00176360,-0.00185622,-0.00000041,0.00299795,-0.0003323
 0,0.00204695,0.27412944,-0.00111660,-0.00062958,0.00000010,0.00146280,
 0.00120395,-0.00000073,0.00198822,-0.00851037,0.00000039,0.02961100,0.
 01653458,0.00000740,-0.00206182,0.00066473,0.00000069,0.00014914,-0.00
 194486,-0.00000047,0.01505199,-0.03000058,-0.00000075,-0.00064869,0.01
 011083,0.00000272,-0.03557102,-0.06681604,-0.00001377,0.00429100,0.018
 84578,-0.00000992,-0.00026018,-0.00008850,0.00000008,0.00026352,-0.000
 62494,0.,-0.00089020,-0.00001990,0.00000023,0.00032800,-0.00027413,0.0
 0000005,-0.00133041,-0.00151077,-0.00000035,-0.01564505,-0.00429067,-0
 .00072058,0.02001891,0.07164024,0.00000014,0.00000004,0.00008467,0.000
 00010,-0.00000023,0.00043156,0.00000055,-0.00000004,0.00051517,-0.0000
 0035,0.00000010,-0.00121611,0.00000032,-0.00000057,0.00132728,0.000000
 11,0.,-0.00047609,-0.00000141,0.00000298,-0.00081285,0.00000052,-0.000
 00265,0.00269366,-0.00006542,-0.00001844,-0.06909990,-0.00000229,-0.00
 000267,-0.01189137,0.00000003,0.,0.00000702,0.00000002,0.,-0.00005630,
 -0.00000010,-0.00000008,-0.00020878,0.,-0.00000001,-0.00000057,0.00000
 019,0.00000044,-0.00015771,0.03133821,0.00528524,0.00284900,0.00007378
 ,0.00002245,0.07317698,0.00054960,0.00044420,0.00019590,-0.00010567,-0
 .00057324,-0.00058633,0.00053617,0.00188144,-0.00030222,0.00481598,0.0
 1158698,0.01607054,-0.00150490,0.00013804,0.00118044,-0.00064355,0.000
 60290,-0.00082255,-0.00072184,0.00071536,0.00044643,0.00005271,-0.0003
 4280,-0.00054983,-0.07122088,-0.04241859,-0.06141222,-0.00265140,-0.00
 251848,0.00236011,-0.00002980,-0.00007014,0.00008092,-0.00002230,0.000
 00130,-0.00000140,-0.00087818,-0.00036984,0.00041382,-0.00007893,0.000
 08452,-0.00017874,0.00003999,0.00004114,0.00000317,0.00204244,0.005582
 05,0.00892035,0.00300957,-0.01564059,-0.03134442,0.06681098,0.00025832
 ,0.00033551,-0.00022201,-0.00012883,-0.00108849,0.00113673,-0.00135035
 ,0.00216814,0.00028445,-0.00533989,-0.01996906,-0.01965914,0.00289303,
 -0.00138579,-0.00115053,-0.00069269,-0.00061439,0.00116439,0.00039101,
 -0.00092019,-0.00060839,0.00014014,0.00053647,-0.00007703,-0.04236775,
 -0.16143881,-0.16098702,-0.00029691,0.00083409,0.00051447,0.00001997,0
 .00003026,-0.00020244,-0.00002773,0.00009211,-0.00000534,0.00032162,0.
 00026253,-0.00076785,0.00019182,-0.00016681,0.00020723,-0.00011220,-0.
 00006596,-0.00000107,0.00557432,0.01498563,0.01920748,-0.00032965,-0.0
 0428977,-0.00528654,0.04085577,0.17069453,0.00030356,0.00042169,0.0000
 0758,-0.00001181,-0.00048719,0.00030793,-0.00059836,0.00113191,0.00030
 158,0.00353106,-0.00003769,0.00685930,-0.00043424,0.00135125,-0.000292
 19,-0.00018947,0.00051252,-0.00021112,-0.00061754,-0.00078195,0.000378
 81,0.00035514,0.00062207,-0.00002508,-0.05843019,-0.15210650,-0.297505
 47,0.00139688,0.00139279,-0.00063873,0.00001175,0.00002341,-0.00006036
 ,-0.00005580,0.00008214,0.00002506,0.00033345,-0.00014243,-0.00015252,
 -0.00006082,0.00011002,0.00001664,-0.00010629,-0.00006034,0.00006199,-
 0.00890735,-0.01919678,-0.02251100,-0.00204603,0.00071246,0.00283433,0
 .06552604,0.16645261,0.31060326\\0.00000886,0.00000544,-0.00000004,-0.
 00000385,-0.00000932,-0.00000016,-0.00000091,0.00000334,0.00000196,-0.
 00000526,0.00001138,-0.00000057,-0.00002858,0.00001931,-0.00000253,0.0
 0000658,-0.00000877,-0.00000182,0.00002177,-0.00003161,0.00001245,-0.0
 0001437,0.00000865,-0.00000448,0.00002468,0.00000449,0.00000922,-0.000
 01088,0.00001319,0.00000130,0.00000484,-0.00000198,0.00000029,0.000005
 31,0.00000074,-0.00000042,0.00000514,0.00000334,0.00000006,0.00000266,
 -0.00000172,0.00000014,-0.00000043,-0.00000454,-0.00000072,-0.00000245
 ,0.00000440,-0.00000442,-0.00001736,-0.00002148,-0.00001403,0.00000425
 ,0.00000515,0.00000377\\\@


 THE TEST OF A FIRST RATE INTELLIGENCE IS THE ABILITY TO HOLD TWO OPPOSED
 IDEAS IN THE MIND AT THE SAME TIME, AND STILL RETAIN THE ABILITY TO FUNCTION.
 ONE SHOULD, FOR EXAMPLE, BE ABLE TO SEE THAT THINGS ARE HOPELESS AND YET BE
 DETERMINED TO MAKE THEM OTHERWISE.

                                                       -- F. SCOTT FITZGERALD
 Job cpu time:       0 days  4 hours 42 minutes 46.6 seconds.
 File lengths (MBytes):  RWF=  14483 Int=      0 D2E=      0 Chk=      7 Scr=      1
 Normal termination of Gaussian 09 at Thu Dec 19 12:13:50 2024.
