 Entering Gaussian System, Link 0=g09
 Input=B2PLYPD3Anthranilic.gjf
 Output=B2PLYPD3Anthranilic.log
 Initial command:
 /home/phzd/g09E/g09/l1.exe "/home/phzd/g09E/scratch/Gau-1518099.inp" -scrdir="/home/phzd/g09E/scratch/"
 Default is to use a total of  18 processors:
                               18 via shared-memory
                                1 via Linda
 Entering Link 1 = /home/phzd/g09E/g09/l1.exe PID=   1518101.
  
 Copyright (c) 1988,1990,1992,1993,1995,1998,2003,2009,2015,
            Gaussian, Inc.  All Rights Reserved.
  
 This is part of the Gaussian(R) 09 program.  It is based on
 the Gaussian(R) 03 system (copyright 2003, Gaussian, Inc.),
 the Gaussian(R) 98 system (copyright 1998, Gaussian, Inc.),
 the Gaussian(R) 94 system (copyright 1995, Gaussian, Inc.),
 the Gaussian 92(TM) system (copyright 1992, Gaussian, Inc.),
 the Gaussian 90(TM) system (copyright 1990, Gaussian, Inc.),
 the Gaussian 88(TM) system (copyright 1988, Gaussian, Inc.),
 the Gaussian 86(TM) system (copyright 1986, Carnegie Mellon
 University), and the Gaussian 82(TM) system (copyright 1983,
 Carnegie Mellon University). Gaussian is a federally registered
 trademark of Gaussian, Inc.
  
 This software contains proprietary and confidential information,
 including trade secrets, belonging to Gaussian, Inc.
  
 This software is provided under written license and may be
 used, copied, transmitted, or stored only in accord with that
 written license.
  
 The following legend is applicable only to US Government
 contracts under FAR:
  
                    RESTRICTED RIGHTS LEGEND
  
 Use, reproduction and disclosure by the US Government is
 subject to restrictions as set forth in subparagraphs (a)
 and (c) of the Commercial Computer Software - Restricted
 Rights clause in FAR 52.227-19.
  
 Gaussian, Inc.
 340 Quinnipiac St., Bldg. 40, Wallingford CT 06492
  
  
 ---------------------------------------------------------------
 Warning -- This program may not be used in any manner that
 competes with the business of Gaussian, Inc. or will provide
 assistance to any competitor of Gaussian, Inc.  The licensee
 of this program is prohibited from giving any competitor of
 Gaussian, Inc. access to this program.  By using this program,
 the user acknowledges that Gaussian, Inc. is engaged in the
 business of creating and licensing software in the field of
 computational chemistry and represents and warrants to the
 licensee that it is not a competitor of Gaussian, Inc. and that
 it will not use this program in any manner prohibited above.
 ---------------------------------------------------------------
  

 Cite this work as:
 Gaussian 09, Revision E.01,
 M. J. Frisch, G. W. Trucks, H. B. Schlegel, G. E. Scuseria, 
 M. A. Robb, J. R. Cheeseman, G. Scalmani, V. Barone, B. Mennucci, 
 G. A. Petersson, H. Nakatsuji, M. Caricato, X. Li, H. P. Hratchian, 
 A. F. Izmaylov, J. Bloino, G. Zheng, J. L. Sonnenberg, M. Hada, 
 M. Ehara, K. Toyota, R. Fukuda, J. Hasegawa, M. Ishida, T. Nakajima, 
 Y. Honda, O. Kitao, H. Nakai, T. Vreven, J. A. Montgomery, Jr., 
 J. E. Peralta, F. Ogliaro, M. Bearpark, J. J. Heyd, E. Brothers, 
 K. N. Kudin, V. N. Staroverov, T. Keith, R. Kobayashi, J. Normand, 
 K. Raghavachari, A. Rendell, J. C. Burant, S. S. Iyengar, J. Tomasi, 
 M. Cossi, N. Rega, J. M. Millam, M. Klene, J. E. Knox, J. B. Cross, 
 V. Bakken, C. Adamo, J. Jaramillo, R. Gomperts, R. E. Stratmann, 
 O. Yazyev, A. J. Austin, R. Cammi, C. Pomelli, J. W. Ochterski, 
 R. L. Martin, K. Morokuma, V. G. Zakrzewski, G. A. Voth, 
 P. Salvador, J. J. Dannenberg, S. Dapprich, A. D. Daniels, 
 O. Farkas, J. B. Foresman, J. V. Ortiz, J. Cioslowski, 
 and D. J. Fox, Gaussian, Inc., Wallingford CT, 2013.
 
 ******************************************
 Gaussian 09:  ES64L-G09RevE.01 30-Nov-2015
                19-Dec-2024 
 ******************************************
 %chk=B2PLYPD3Anthranilic.chk
 -----------------------------------------------------
 # opt freq B2PLYP/6-31+g(d,p) EmpiricalDispersion=GD3
 -----------------------------------------------------
 1/18=20,19=15,38=1/1,3;
 2/9=110,12=2,17=6,18=5,40=1/2;
 3/5=1,6=6,7=111,11=9,16=1,25=1,30=1,71=1,74=-47,124=31/1,2,3;
 4//1;
 5/5=2,38=5/2;
 8/6=4,10=2/1;
 9/15=2,16=-3/6;
 10/5=1/2;
 6/7=2,8=2,9=2,10=2/1;
 7/12=2/1,2,3,16;
 1/18=20,19=15/3(2);
 2/9=110/2;
 99//99;
 2/9=110/2;
 3/5=1,6=6,7=111,11=9,16=1,25=1,30=1,71=1,74=-47,124=31/1,2,3;
 4/5=5,16=3,69=1/1;
 5/5=2,38=5/2;
 8/6=4,10=2/1;
 9/15=2,16=-3/6;
 10/5=1/2;
 7/12=2/1,2,3,16;
 1/18=20,19=15/3(-8);
 2/9=110/2;
 6/7=2,8=2,9=2,10=2/1;
 99//99;
 ----------
 [No Title]
 ----------
 Symbolic Z-matrix:
 Charge =  0 Multiplicity = 1
 C                    -1.8597   -1.51697  0. 
 C                    -2.58481  -0.31511   0.00006 
 C                    -1.93787   0.90638   0.00006 
 C                    -0.52585   0.98761  -0.00001 
 C                     0.2118   -0.23213  -0.00008 
 C                    -0.47763  -1.46048  -0.00007 
 C                     1.67474  -0.20583  -0.00015 
 O                     2.25067  -1.43093   0.00006 
 N                     0.08522   2.1996   -0.00001 
 O                     2.37545   0.80257   0.00007 
 H                    -2.3729   -2.47295  0. 
 H                    -3.67157  -0.3378    0.00011 
 H                    -2.51344   1.82888   0.00011 
 H                     0.10645  -2.37429  -0.00011 
 H                     3.20723  -1.27408   0.00018 
 H                     1.09659   2.23647  -0.0001 
 H                    -0.46195   3.04264   0. 
 

 GradGradGradGradGradGradGradGradGradGradGradGradGradGradGradGradGradGrad
 Berny optimization.
 Initialization pass.
                           ----------------------------
                           !    Initial Parameters    !
                           ! (Angstroms and Degrees)  !
 --------------------------                            --------------------------
 ! Name  Definition              Value          Derivative Info.                !
 --------------------------------------------------------------------------------
 ! R1    R(1,2)                  1.4037         estimate D2E/DX2                !
 ! R2    R(1,6)                  1.3832         estimate D2E/DX2                !
 ! R3    R(1,11)                 1.085          estimate D2E/DX2                !
 ! R4    R(2,3)                  1.3822         estimate D2E/DX2                !
 ! R5    R(2,12)                 1.087          estimate D2E/DX2                !
 ! R6    R(3,4)                  1.4144         estimate D2E/DX2                !
 ! R7    R(3,13)                 1.0873         estimate D2E/DX2                !
 ! R8    R(4,5)                  1.4254         estimate D2E/DX2                !
 ! R9    R(4,9)                  1.3573         estimate D2E/DX2                !
 ! R10   R(5,6)                  1.4086         estimate D2E/DX2                !
 ! R11   R(5,7)                  1.4632         estimate D2E/DX2                !
 ! R12   R(6,14)                 1.0845         estimate D2E/DX2                !
 ! R13   R(7,8)                  1.3537         estimate D2E/DX2                !
 ! R14   R(7,10)                 1.2279         estimate D2E/DX2                !
 ! R15   R(8,15)                 0.9693         estimate D2E/DX2                !
 ! R16   R(9,16)                 1.012          estimate D2E/DX2                !
 ! R17   R(9,17)                 1.005          estimate D2E/DX2                !
 ! A1    A(2,1,6)              118.7631         estimate D2E/DX2                !
 ! A2    A(2,1,11)             120.668          estimate D2E/DX2                !
 ! A3    A(6,1,11)             120.5689         estimate D2E/DX2                !
 ! A4    A(1,2,3)              120.9891         estimate D2E/DX2                !
 ! A5    A(1,2,12)             119.9074         estimate D2E/DX2                !
 ! A6    A(3,2,12)             119.1035         estimate D2E/DX2                !
 ! A7    A(2,3,4)              121.1994         estimate D2E/DX2                !
 ! A8    A(2,3,13)             120.1315         estimate D2E/DX2                !
 ! A9    A(4,3,13)             118.6691         estimate D2E/DX2                !
 ! A10   A(3,4,5)              117.8717         estimate D2E/DX2                !
 ! A11   A(3,4,9)              120.0487         estimate D2E/DX2                !
 ! A12   A(5,4,9)              122.0796         estimate D2E/DX2                !
 ! A13   A(4,5,6)              119.5321         estimate D2E/DX2                !
 ! A14   A(4,5,7)              120.1338         estimate D2E/DX2                !
 ! A15   A(6,5,7)              120.3341         estimate D2E/DX2                !
 ! A16   A(1,6,5)              121.6447         estimate D2E/DX2                !
 ! A17   A(1,6,14)             120.2449         estimate D2E/DX2                !
 ! A18   A(5,6,14)             118.1104         estimate D2E/DX2                !
 ! A19   A(5,7,8)              114.1485         estimate D2E/DX2                !
 ! A20   A(5,7,10)             125.8246         estimate D2E/DX2                !
 ! A21   A(8,7,10)             120.0269         estimate D2E/DX2                !
 ! A22   A(7,8,15)             105.8662         estimate D2E/DX2                !
 ! A23   A(4,9,16)             118.8439         estimate D2E/DX2                !
 ! A24   A(4,9,17)             120.2582         estimate D2E/DX2                !
 ! A25   A(16,9,17)            120.8978         estimate D2E/DX2                !
 ! D1    D(6,1,2,3)              0.0001         estimate D2E/DX2                !
 ! D2    D(6,1,2,12)          -179.9999         estimate D2E/DX2                !
 ! D3    D(11,1,2,3)           179.9999         estimate D2E/DX2                !
 ! D4    D(11,1,2,12)            0.0            estimate D2E/DX2                !
 ! D5    D(2,1,6,5)             -0.0004         estimate D2E/DX2                !
 ! D6    D(2,1,6,14)           179.9999         estimate D2E/DX2                !
 ! D7    D(11,1,6,5)           179.9998         estimate D2E/DX2                !
 ! D8    D(11,1,6,14)            0.0            estimate D2E/DX2                !
 ! D9    D(1,2,3,4)              0.0001         estimate D2E/DX2                !
 ! D10   D(1,2,3,13)           179.9999         estimate D2E/DX2                !
 ! D11   D(12,2,3,4)          -180.0            estimate D2E/DX2                !
 ! D12   D(12,2,3,13)           -0.0001         estimate D2E/DX2                !
 ! D13   D(2,3,4,5)              0.0001         estimate D2E/DX2                !
 ! D14   D(2,3,4,9)            179.9997         estimate D2E/DX2                !
 ! D15   D(13,3,4,5)          -179.9998         estimate D2E/DX2                !
 ! D16   D(13,3,4,9)            -0.0001         estimate D2E/DX2                !
 ! D17   D(3,4,5,6)             -0.0003         estimate D2E/DX2                !
 ! D18   D(3,4,5,7)            179.9999         estimate D2E/DX2                !
 ! D19   D(9,4,5,6)            180.0            estimate D2E/DX2                !
 ! D20   D(9,4,5,7)              0.0002         estimate D2E/DX2                !
 ! D21   D(3,4,9,16)          -179.9974         estimate D2E/DX2                !
 ! D22   D(3,4,9,17)            -0.0019         estimate D2E/DX2                !
 ! D23   D(5,4,9,16)             0.0023         estimate D2E/DX2                !
 ! D24   D(5,4,9,17)           179.9978         estimate D2E/DX2                !
 ! D25   D(4,5,6,1)              0.0005         estimate D2E/DX2                !
 ! D26   D(4,5,6,14)          -179.9997         estimate D2E/DX2                !
 ! D27   D(7,5,6,1)           -179.9997         estimate D2E/DX2                !
 ! D28   D(7,5,6,14)             0.0001         estimate D2E/DX2                !
 ! D29   D(4,5,7,8)            179.9878         estimate D2E/DX2                !
 ! D30   D(4,5,7,10)             0.0133         estimate D2E/DX2                !
 ! D31   D(6,5,7,8)             -0.0119         estimate D2E/DX2                !
 ! D32   D(6,5,7,10)          -179.9865         estimate D2E/DX2                !
 ! D33   D(5,7,8,15)          -179.988          estimate D2E/DX2                !
 ! D34   D(10,7,8,15)           -0.0118         estimate D2E/DX2                !
 --------------------------------------------------------------------------------
 Trust Radius=3.00D-01 FncErr=1.00D-07 GrdErr=1.00D-07
 Number of steps in this run=     86 maximum allowed number of steps=    102.
 GradGradGradGradGradGradGradGradGradGradGradGradGradGradGradGradGradGrad

                          Input orientation:                          
 ---------------------------------------------------------------------
 Center     Atomic      Atomic             Coordinates (Angstroms)
 Number     Number       Type             X           Y           Z
 ---------------------------------------------------------------------
      1          6           0       -1.859697   -1.516973   -0.000004
      2          6           0       -2.584813   -0.315109    0.000059
      3          6           0       -1.937868    0.906384    0.000058
      4          6           0       -0.525849    0.987607   -0.000008
      5          6           0        0.211799   -0.232130   -0.000075
      6          6           0       -0.477634   -1.460482   -0.000066
      7          6           0        1.674740   -0.205827   -0.000148
      8          8           0        2.250672   -1.430933    0.000055
      9          7           0        0.085220    2.199604   -0.000013
     10          8           0        2.375451    0.802569    0.000072
     11          1           0       -2.372897   -2.472953   -0.000002
     12          1           0       -3.671573   -0.337802    0.000110
     13          1           0       -2.513443    1.828883    0.000106
     14          1           0        0.106448   -2.374294   -0.000113
     15          1           0        3.207233   -1.274077    0.000176
     16          1           0        1.096585    2.236467   -0.000101
     17          1           0       -0.461947    3.042642    0.000002
 ---------------------------------------------------------------------
                    Distance matrix (angstroms):
                    1          2          3          4          5
     1  C    0.000000
     2  C    1.403663   0.000000
     3  C    2.424617   1.382238   0.000000
     4  C    2.837617   2.436473   1.414353   0.000000
     5  C    2.437605   2.797843   2.432546   1.425441   0.000000
     6  C    1.383217   2.398350   2.781068   2.448564   1.408604
     7  C    3.769794   4.260955   3.779940   2.503373   1.463177
     8  O    4.111269   4.962558   4.796553   3.682174   2.365192
     9  N    4.194717   3.667814   2.401105   1.357329   2.435026
    10  O    4.828742   5.084626   4.314568   2.907195   2.398331
    11  H    1.085022   2.168225   3.407223   3.922635   3.420810
    12  H    2.161791   1.086997   2.133947   3.413545   3.884809
    13  H    3.409125   2.145180   1.087332   2.158304   3.416829
    14  H    2.144930   3.388677   3.865498   3.420845   2.144753
    15  H    5.072749   5.870896   5.588065   4.364758   3.171479
    16  H    4.777857   4.479200   3.313159   2.047424   2.622369
    17  H    4.769045   3.972537   2.596525   2.056028   3.343361
                    6          7          8          9         10
     6  C    0.000000
     7  C    2.491360   0.000000
     8  O    2.728466   1.353729   0.000000
     9  N    3.703111   2.883171   4.227290   0.000000
    10  O    3.641633   1.227949   2.236985   2.682697   0.000000
    11  H    2.148748   4.639313   4.739535   5.279690   5.768523
    12  H    3.385507   5.347942   6.022285   4.533423   6.153612
    13  H    3.868390   4.656278   5.772624   2.624973   4.995458
    14  H    1.084529   2.676152   2.342568   4.573947   3.903951
    15  H    3.689579   1.868072   0.969336   4.670484   2.237034
    16  H    4.018158   2.509793   3.844703   1.012037   1.921344
    17  H    4.503151   3.888185   5.231747   1.005040   3.615073
                   11         12         13         14         15
    11  H    0.000000
    12  H    2.499086   0.000000
    13  H    4.304131   2.456784   0.000000
    14  H    2.481307   4.291939   4.952830   0.000000
    15  H    5.707465   6.942232   6.508033   3.290189   0.000000
    16  H    5.849439   5.418689   3.632964   4.715876   4.096188
    17  H    5.837253   4.661448   2.383662   5.446675   5.665417
                   16         17
    16  H    0.000000
    17  H    1.754691   0.000000
 Stoichiometry    C7H7NO2
 Framework group  C1[X(C7H7NO2)]
 Deg. of freedom    45
 Full point group                 C1      NOp   1
 Largest Abelian subgroup         C1      NOp   1
 Largest concise Abelian subgroup C1      NOp   1
                         Standard orientation:                         
 ---------------------------------------------------------------------
 Center     Atomic      Atomic             Coordinates (Angstroms)
 Number     Number       Type             X           Y           Z
 ---------------------------------------------------------------------
      1          6           0       -1.859697   -1.516973   -0.000004
      2          6           0       -2.584813   -0.315109    0.000059
      3          6           0       -1.937868    0.906384    0.000058
      4          6           0       -0.525849    0.987607   -0.000008
      5          6           0        0.211799   -0.232130   -0.000075
      6          6           0       -0.477634   -1.460482   -0.000066
      7          6           0        1.674740   -0.205827   -0.000148
      8          8           0        2.250672   -1.430933    0.000055
      9          7           0        0.085220    2.199604   -0.000013
     10          8           0        2.375451    0.802569    0.000072
     11          1           0       -2.372897   -2.472953   -0.000002
     12          1           0       -3.671573   -0.337802    0.000110
     13          1           0       -2.513443    1.828883    0.000106
     14          1           0        0.106448   -2.374294   -0.000113
     15          1           0        3.207233   -1.274077    0.000176
     16          1           0        1.096585    2.236467   -0.000101
     17          1           0       -0.461947    3.042642    0.000002
 ---------------------------------------------------------------------
 Rotational constants (GHZ):      2.3049809      1.2158566      0.7959829
 Standard basis: 6-31+G(d,p) (6D, 7F)
 There are   225 symmetry adapted cartesian basis functions of A   symmetry.
 There are   225 symmetry adapted basis functions of A   symmetry.
   225 basis functions,   369 primitive gaussians,   225 cartesian basis functions
    36 alpha electrons       36 beta electrons
       nuclear repulsion energy       501.2620394173 Hartrees.
 NAtoms=   17 NActive=   17 NUniq=   17 SFac= 1.00D+00 NAtFMM=   60 NAOKFM=F Big=F
 Integral buffers will be    131072 words long.
 Regular integral format.
 Two-electron integral symmetry is turned on.
 Nuclear repulsion after empirical dispersion term =      501.2551696721 Hartrees.
 One-electron integrals computed using PRISM.
 NBasis=   225 RedAO= T EigKep=  2.72D-06  NBF=   225
 NBsUse=   225 1.00D-06 EigRej= -1.00D+00 NBFU=   225
 ExpMin= 4.38D-02 ExpMax= 5.48D+03 ExpMxC= 8.25D+02 IAcc=2 IRadAn=         4 AccDes= 0.00D+00
 Harris functional with IExCor=  419 and IRadAn=       4 diagonalized for initial guess.
 HarFok:  IExCor=  419 AccDes= 0.00D+00 IRadAn=         4 IDoV= 1 UseB2=F ITyADJ=14
 ICtDFT=  3500011 ScaDFX=  1.000000  1.000000  1.000000  1.000000
 FoFCou: FMM=F IPFlag=           0 FMFlag=      100000 FMFlg1=           0
         NFxFlg=           0 DoJE=T BraDBF=F KetDBF=T FulRan=T
         wScrn=  0.000000 ICntrl=     500 IOpCl=  0 I1Cent=   200000004 NGrid=           0
         NMat0=    1 NMatS0=      1 NMatT0=    0 NMatD0=    1 NMtDS0=    0 NMtDT0=    0
 Petite list used in FoFCou.
 Keep R1 ints in memory in canonical form, NReq=329175655.
 Requested convergence on RMS density matrix=1.00D-08 within 128 cycles.
 Requested convergence on MAX density matrix=1.00D-06.
 Requested convergence on             energy=1.00D-06.
 No special actions if energy rises.
 SCF Done:  E(RB2PLYP) =  -475.278154949     A.U. after   15 cycles
            NFock= 15  Conv=0.60D-08     -V/T= 2.0068
 DoSCS=T DFT=T ScalE2(SS,OS)=  0.270000  0.270000
 ExpMin= 4.38D-02 ExpMax= 5.48D+03 ExpMxC= 8.25D+02 IAcc=3 IRadAn=         5 AccDes= 0.00D+00
 HarFok:  IExCor=  205 AccDes= 0.00D+00 IRadAn=         5 IDoV=-2 UseB2=F ITyADJ=14
 ICtDFT= 12500011 ScaDFX=  1.000000  1.000000  1.000000  1.000000
 Range of M.O.s used for correlation:    11   225
 NBasis=   225 NAE=    36 NBE=    36 NFC=    10 NFV=     0
 NROrb=    215 NOA=    26 NOB=    26 NVA=   189 NVB=   189

 **** Warning!!: The largest alpha MO coefficient is  0.15710758D+03

 DoSCS=T DFT=T ScalE2(SS,OS)=  0.270000  0.270000
 Fully direct method using O(ONN) memory.
 JobTyp=1 Pass  1:  I=  11 to  18 NPSUse= 18 ParTrn=T ParDer=T DoDerP=T.
 JobTyp=1 Pass  2:  I=  19 to  26 NPSUse= 18 ParTrn=T ParDer=T DoDerP=T.
 JobTyp=1 Pass  3:  I=  27 to  34 NPSUse= 18 ParTrn=T ParDer=T DoDerP=T.
 JobTyp=1 Pass  4:  I=  35 to  36 NPSUse= 18 ParTrn=T ParDer=T DoDerP=T.
 Spin components of T(2) and E(2):
     alpha-alpha T2 =       0.1086860308D+00 E2=     -0.6606741500D-01
     alpha-beta  T2 =       0.5547350868D+00 E2=     -0.3528237944D+00
     beta-beta   T2 =       0.1086860308D+00 E2=     -0.6606741500D-01
 E2(B2PLYP) =    -0.4849586244D+00 E(B2PLYP) =    -0.47576311357301D+03
          IDoAtm=11111111111111111
          Differentiating once with respect to electric field.
                with respect to dipole field.
          Differentiating once with respect to nuclear coordinates.
 Keep R1 ints in memory in canonical form, NReq=329001650.
          There are     1 degrees of freedom in the 1st order CPHF.  IDoFFX=0 NUNeed=     1.
 LinEq1:  Iter=  0 NonCon=     1 RMS=2.01D-03 Max=4.82D-02 NDo=     1
 AX will form     1 AO Fock derivatives at one time.
 LinEq1:  Iter=  1 NonCon=     1 RMS=8.60D-04 Max=1.93D-02 NDo=     1
 LinEq1:  Iter=  2 NonCon=     1 RMS=3.51D-04 Max=8.11D-03 NDo=     1
 LinEq1:  Iter=  3 NonCon=     1 RMS=2.75D-04 Max=7.54D-03 NDo=     1
 LinEq1:  Iter=  4 NonCon=     1 RMS=1.03D-04 Max=2.61D-03 NDo=     1
 LinEq1:  Iter=  5 NonCon=     1 RMS=4.82D-05 Max=1.11D-03 NDo=     1
 LinEq1:  Iter=  6 NonCon=     1 RMS=1.85D-05 Max=5.66D-04 NDo=     1
 LinEq1:  Iter=  7 NonCon=     1 RMS=9.14D-06 Max=3.60D-04 NDo=     1
 LinEq1:  Iter=  8 NonCon=     1 RMS=3.71D-06 Max=7.87D-05 NDo=     1
 LinEq1:  Iter=  9 NonCon=     1 RMS=1.91D-06 Max=5.01D-05 NDo=     1
 LinEq1:  Iter= 10 NonCon=     1 RMS=5.89D-07 Max=8.49D-06 NDo=     1
 LinEq1:  Iter= 11 NonCon=     1 RMS=2.15D-07 Max=3.97D-06 NDo=     1
 LinEq1:  Iter= 12 NonCon=     1 RMS=9.22D-08 Max=1.19D-06 NDo=     1
 LinEq1:  Iter= 13 NonCon=     1 RMS=3.16D-08 Max=4.34D-07 NDo=     1
 LinEq1:  Iter= 14 NonCon=     1 RMS=1.64D-08 Max=3.71D-07 NDo=     1
 LinEq1:  Iter= 15 NonCon=     1 RMS=5.38D-09 Max=1.60D-07 NDo=     1
 LinEq1:  Iter= 16 NonCon=     1 RMS=1.84D-09 Max=4.56D-08 NDo=     1
 LinEq1:  Iter= 17 NonCon=     1 RMS=9.30D-10 Max=3.03D-08 NDo=     1
 LinEq1:  Iter= 18 NonCon=     1 RMS=3.15D-10 Max=1.07D-08 NDo=     1
 LinEq1:  Iter= 19 NonCon=     1 RMS=1.67D-10 Max=5.66D-09 NDo=     1
 LinEq1:  Iter= 20 NonCon=     1 RMS=6.11D-11 Max=1.01D-09 NDo=     1
 LinEq1:  Iter= 21 NonCon=     0 RMS=1.43D-11 Max=2.09D-10 NDo=     1
 Linear equations converged to 1.000D-10 1.000D-09 after    21 iterations.
 End of Minotr F.D. properties file   721 does not exist.
 End of Minotr F.D. properties file   722 does not exist.
 End of Minotr F.D. properties file   788 does not exist.

 **********************************************************************

            Population analysis using the SCF density.

 **********************************************************************

 Orbital symmetries:
       Occupied  (A) (A) (A) (A) (A) (A) (A) (A) (A) (A) (A) (A)
                 (A) (A) (A) (A) (A) (A) (A) (A) (A) (A) (A) (A)
                 (A) (A) (A) (A) (A) (A) (A) (A) (A) (A) (A) (A)
       Virtual   (A) (A) (A) (A) (A) (A) (A) (A) (A) (A) (A) (A)
                 (A) (A) (A) (A) (A) (A) (A) (A) (A) (A) (A) (A)
                 (A) (A) (A) (A) (A) (A) (A) (A) (A) (A) (A) (A)
                 (A) (A) (A) (A) (A) (A) (A) (A) (A) (A) (A) (A)
                 (A) (A) (A) (A) (A) (A) (A) (A) (A) (A) (A) (A)
                 (A) (A) (A) (A) (A) (A) (A) (A) (A) (A) (A) (A)
                 (A) (A) (A) (A) (A) (A) (A) (A) (A) (A) (A) (A)
                 (A) (A) (A) (A) (A) (A) (A) (A) (A) (A) (A) (A)
                 (A) (A) (A) (A) (A) (A) (A) (A) (A) (A) (A) (A)
                 (A) (A) (A) (A) (A) (A) (A) (A) (A) (A) (A) (A)
                 (A) (A) (A) (A) (A) (A) (A) (A) (A) (A) (A) (A)
                 (A) (A) (A) (A) (A) (A) (A) (A) (A) (A) (A) (A)
                 (A) (A) (A) (A) (A) (A) (A) (A) (A) (A) (A) (A)
                 (A) (A) (A) (A) (A) (A) (A) (A) (A) (A) (A) (A)
                 (A) (A) (A) (A) (A) (A) (A) (A) (A) (A) (A) (A)
                 (A) (A) (A) (A) (A) (A) (A) (A) (A)
 The electronic state is 1-A.
 Alpha  occ. eigenvalues --  -19.80103 -19.74303 -14.86763 -10.77983 -10.69838
 Alpha  occ. eigenvalues --  -10.64867 -10.64588 -10.64348 -10.63438 -10.62728
 Alpha  occ. eigenvalues --   -1.26404  -1.16347  -1.06563  -0.97402  -0.89093
 Alpha  occ. eigenvalues --   -0.85088  -0.76419  -0.71879  -0.68687  -0.61973
 Alpha  occ. eigenvalues --   -0.60520  -0.59287  -0.58094  -0.53615  -0.53286
 Alpha  occ. eigenvalues --   -0.51572  -0.50510  -0.48156  -0.45716  -0.44453
 Alpha  occ. eigenvalues --   -0.42279  -0.39605  -0.37784  -0.35849  -0.30552
 Alpha  occ. eigenvalues --   -0.24996
 Alpha virt. eigenvalues --   -0.00085   0.02849   0.03787   0.04557   0.04925
 Alpha virt. eigenvalues --    0.05906   0.07084   0.07817   0.08305   0.09561
 Alpha virt. eigenvalues --    0.09741   0.10427   0.10933   0.12300   0.12842
 Alpha virt. eigenvalues --    0.14783   0.15714   0.16450   0.16566   0.16945
 Alpha virt. eigenvalues --    0.17889   0.19409   0.20241   0.20354   0.21284
 Alpha virt. eigenvalues --    0.22095   0.22474   0.22866   0.24156   0.24526
 Alpha virt. eigenvalues --    0.24884   0.25532   0.26163   0.26627   0.27448
 Alpha virt. eigenvalues --    0.27819   0.28448   0.28858   0.29508   0.31132
 Alpha virt. eigenvalues --    0.31409   0.32513   0.32978   0.33739   0.34293
 Alpha virt. eigenvalues --    0.35832   0.36481   0.37624   0.38349   0.39614
 Alpha virt. eigenvalues --    0.40779   0.43757   0.45328   0.47429   0.48670
 Alpha virt. eigenvalues --    0.51680   0.54309   0.54543   0.59239   0.68793
 Alpha virt. eigenvalues --    0.71190   0.75266   0.75765   0.76867   0.80472
 Alpha virt. eigenvalues --    0.81269   0.82198   0.82768   0.83783   0.83987
 Alpha virt. eigenvalues --    0.86584   0.87037   0.90597   0.93359   0.93788
 Alpha virt. eigenvalues --    0.97959   1.00093   1.02712   1.03467   1.05616
 Alpha virt. eigenvalues --    1.05681   1.08248   1.11901   1.13024   1.14326
 Alpha virt. eigenvalues --    1.16275   1.19423   1.20700   1.22438   1.23237
 Alpha virt. eigenvalues --    1.24288   1.26913   1.30326   1.33170   1.33954
 Alpha virt. eigenvalues --    1.34562   1.37140   1.37425   1.41077   1.43700
 Alpha virt. eigenvalues --    1.44027   1.46146   1.46215   1.48456   1.48976
 Alpha virt. eigenvalues --    1.49878   1.51085   1.51243   1.52260   1.57270
 Alpha virt. eigenvalues --    1.58421   1.66388   1.68793   1.73937   1.77614
 Alpha virt. eigenvalues --    1.85440   1.85822   1.90579   1.91674   1.93415
 Alpha virt. eigenvalues --    1.95435   1.98388   2.03130   2.03965   2.04270
 Alpha virt. eigenvalues --    2.08530   2.09251   2.12464   2.12517   2.14874
 Alpha virt. eigenvalues --    2.18346   2.18406   2.21311   2.24316   2.29846
 Alpha virt. eigenvalues --    2.33297   2.34754   2.39132   2.43051   2.46064
 Alpha virt. eigenvalues --    2.50452   2.51651   2.53078   2.53167   2.56609
 Alpha virt. eigenvalues --    2.58195   2.58974   2.63238   2.66256   2.66668
 Alpha virt. eigenvalues --    2.68113   2.70748   2.72204   2.74083   2.75572
 Alpha virt. eigenvalues --    2.76226   2.81649   2.81798   2.87236   2.88119
 Alpha virt. eigenvalues --    2.90208   2.90374   2.95995   3.01971   3.09942
 Alpha virt. eigenvalues --    3.15613   3.20236   3.24609   3.27143   3.35276
 Alpha virt. eigenvalues --    3.39323   3.41572   3.47417   3.50932   3.62577
 Alpha virt. eigenvalues --    3.66093   3.68408   3.84160   4.02897   4.36637
 Alpha virt. eigenvalues --    4.44161   4.46570   4.48262   4.49119   4.62916
 Alpha virt. eigenvalues --    4.66988   4.72295   4.96086   5.05405
          Condensed to atoms (all electrons):
               1          2          3          4          5          6
     1  C    7.826840   0.094660   0.508337  -0.597895   0.028853  -2.093692
     2  C    0.094660   6.040733  -0.669193   1.390634  -1.341847   0.715155
     3  C    0.508337  -0.669193   9.259013  -1.284407  -0.282134  -2.144648
     4  C   -0.597895   1.390634  -1.284407  14.520101  -4.505616  -1.621417
     5  C    0.028853  -1.341847  -0.282134  -4.505616  11.439585  -0.697114
     6  C   -2.093692   0.715155  -2.144648  -1.621417  -0.697114  12.441816
     7  C   -0.149385  -0.151540   0.048976  -0.905091   0.518211  -0.269668
     8  O    0.122316   0.001733  -0.020743  -0.081885  -0.075730  -0.048077
     9  N   -0.015026   0.046214  -0.166346   0.278363  -0.182313   0.145152
    10  O    0.045394  -0.005450   0.016013  -0.295822   0.029449   0.037480
    11  H    0.214587   0.034502   0.001344  -0.000816   0.006125   0.072696
    12  H    0.070001   0.202866   0.090418  -0.052063   0.024776  -0.010634
    13  H   -0.007901   0.082558   0.120568   0.100956   0.042702  -0.010926
    14  H    0.079068  -0.009020   0.011593   0.012088   0.101322   0.122300
    15  H   -0.009924  -0.000806   0.006719   0.008525   0.040576  -0.018243
    16  H    0.003131   0.001242   0.088015   0.109455  -0.168231  -0.041135
    17  H   -0.000677  -0.000238  -0.065769  -0.088254   0.126749   0.017093
               7          8          9         10         11         12
     1  C   -0.149385   0.122316  -0.015026   0.045394   0.214587   0.070001
     2  C   -0.151540   0.001733   0.046214  -0.005450   0.034502   0.202866
     3  C    0.048976  -0.020743  -0.166346   0.016013   0.001344   0.090418
     4  C   -0.905091  -0.081885   0.278363  -0.295822  -0.000816  -0.052063
     5  C    0.518211  -0.075730  -0.182313   0.029449   0.006125   0.024776
     6  C   -0.269668  -0.048077   0.145152   0.037480   0.072696  -0.010634
     7  C    5.523860   0.161122  -0.104301   0.451255   0.002690   0.001737
     8  O    0.161122   8.405135   0.001121  -0.141260   0.000085   0.000008
     9  N   -0.104301   0.001121   7.036022  -0.004626   0.000217  -0.000406
    10  O    0.451255  -0.141260  -0.004626   8.422270   0.000022  -0.000001
    11  H    0.002690   0.000085   0.000217   0.000022   0.530291  -0.003369
    12  H    0.001737   0.000008  -0.000406  -0.000001  -0.003369   0.533492
    13  H    0.009154   0.000019  -0.017601  -0.000011  -0.000137  -0.004187
    14  H    0.009238  -0.003638  -0.000767   0.000063  -0.003516  -0.000142
    15  H    0.001297   0.209660  -0.000234   0.005340  -0.000000   0.000000
    16  H    0.001453   0.000382   0.323532   0.016874  -0.000000   0.000002
    17  H   -0.001735   0.000148   0.327780   0.002525  -0.000000  -0.000009
              13         14         15         16         17
     1  C   -0.007901   0.079068  -0.009924   0.003131  -0.000677
     2  C    0.082558  -0.009020  -0.000806   0.001242  -0.000238
     3  C    0.120568   0.011593   0.006719   0.088015  -0.065769
     4  C    0.100956   0.012088   0.008525   0.109455  -0.088254
     5  C    0.042702   0.101322   0.040576  -0.168231   0.126749
     6  C   -0.010926   0.122300  -0.018243  -0.041135   0.017093
     7  C    0.009154   0.009238   0.001297   0.001453  -0.001735
     8  O    0.000019  -0.003638   0.209660   0.000382   0.000148
     9  N   -0.017601  -0.000767  -0.000234   0.323532   0.327780
    10  O   -0.000011   0.000063   0.005340   0.016874   0.002525
    11  H   -0.000137  -0.003516  -0.000000  -0.000000  -0.000000
    12  H   -0.004187  -0.000142   0.000000   0.000002  -0.000009
    13  H    0.550328   0.000011  -0.000000   0.000024   0.004526
    14  H    0.000011   0.508248   0.000142   0.000000   0.000002
    15  H   -0.000000   0.000142   0.361098   0.000018  -0.000001
    16  H    0.000024   0.000000   0.000018   0.310558  -0.019707
    17  H    0.004526   0.000002  -0.000001  -0.019707   0.382531
 Mulliken charges:
               1
     1  C   -0.118689
     2  C   -0.432203
     3  C    0.482244
     4  C   -0.986856
     5  C    0.894636
     6  C   -0.596139
     7  C    0.852727
     8  O   -0.530395
     9  N   -0.666782
    10  O   -0.579515
    11  H    0.145280
    12  H    0.147511
    13  H    0.129918
    14  H    0.173006
    15  H    0.395833
    16  H    0.374387
    17  H    0.315036
 Sum of Mulliken charges =  -0.00000
 Mulliken charges with hydrogens summed into heavy atoms:
               1
     1  C    0.026591
     2  C   -0.284691
     3  C    0.612162
     4  C   -0.986856
     5  C    0.894636
     6  C   -0.423133
     7  C    0.852727
     8  O   -0.134562
     9  N    0.022642
    10  O   -0.579515
 Electronic spatial extent (au):  <R**2>=           1378.4227
 Charge=             -0.0000 electrons
 Dipole moment (field-independent basis, Debye):
    X=             -1.2885    Y=              0.3836    Z=             -0.0003  Tot=              1.3444
 Quadrupole moment (field-independent basis, Debye-Ang):
   XX=            -52.3578   YY=            -50.9588   ZZ=            -62.8109
   XY=             -5.4608   XZ=             -0.0006   YZ=             -0.0004
 Traceless Quadrupole moment (field-independent basis, Debye-Ang):
   XX=              3.0181   YY=              4.4170   ZZ=             -7.4351
   XY=             -5.4608   XZ=             -0.0006   YZ=             -0.0004
 Octapole moment (field-independent basis, Debye-Ang**2):
  XXX=             19.0775  YYY=             25.0431  ZZZ=              0.0006  XYY=             -3.0479
  XXY=            -17.0753  XXZ=              0.0027  XZZ=             12.7924  YZZ=              0.2952
  YYZ=             -0.0001  XYZ=             -0.0020
 Hexadecapole moment (field-independent basis, Debye-Ang**3):
 XXXX=           -954.5653 YYYY=           -526.9993 ZZZZ=            -71.1755 XXXY=            -78.6954
 XXXZ=              0.0071 YYYX=            -11.2612 YYYZ=             -0.0029 ZZZX=              0.0036
 ZZZY=             -0.0025 XXYY=           -268.4554 XXZZ=           -211.1512 YYZZ=           -132.1503
 XXYZ=             -0.0059 YYXZ=              0.0013 ZZXY=             -5.4240
 N-N= 5.012551696721D+02 E-N=-2.111928138730D+03  KE= 4.720447402222D+02
 Calling FoFJK, ICntrl=  10002127 FMM=F ISym2X=0 I1Cent= 0 IOpClX= 0 NMat=1 NMatS=1 NMatT=0.
 ***** Axes restored to original set *****
 -------------------------------------------------------------------
 Center     Atomic                   Forces (Hartrees/Bohr)
 Number     Number              X              Y              Z
 -------------------------------------------------------------------
      1        6          -0.002049137   -0.002745521    0.000001198
      2        6          -0.004403931   -0.000776983    0.000000238
      3        6          -0.000851159    0.003414722    0.000001152
      4        6          -0.000895536   -0.004008746   -0.000003572
      5        6          -0.001390086    0.001050190   -0.000015109
      6        6           0.002749670   -0.003819585   -0.000002879
      7        6          -0.003755876   -0.001383970    0.000057726
      8        8           0.001014074   -0.005404579   -0.000017144
      9        7           0.003412166    0.004782039   -0.000000286
     10        8           0.004436241    0.006433801   -0.000022602
     11        1           0.000838261    0.001505110    0.000000358
     12        1           0.001725475    0.000044470   -0.000000284
     13        1           0.000823288   -0.001248338    0.000000062
     14        1          -0.001186807    0.001346634   -0.000000273
     15        1           0.001197014   -0.000216117   -0.000000050
     16        1          -0.002096447    0.001311368    0.000001818
     17        1           0.000432791   -0.000284495   -0.000000354
 -------------------------------------------------------------------
 Cartesian Forces:  Max     0.006433801 RMS     0.002202023

 GradGradGradGradGradGradGradGradGradGradGradGradGradGradGradGradGradGrad
 Berny optimization.
 FormGI is forming the generalized inverse of G from B-inverse, IUseBI=4.
 Internal  Forces:  Max     0.007815298 RMS     0.001669432
 Search for a local minimum.
 Step number   1 out of a maximum of   86
 All quantities printed in internal units (Hartrees-Bohrs-Radians)
 Mixed Optimization -- RFO/linear search
 Second derivative matrix not updated -- first step.
 ITU=  0
     Eigenvalues ---    0.01253   0.01573   0.01687   0.01837   0.01974
     Eigenvalues ---    0.02072   0.02089   0.02132   0.02170   0.02191
     Eigenvalues ---    0.02238   0.02256   0.02256   0.02304   0.16000
     Eigenvalues ---    0.16000   0.16000   0.16000   0.16000   0.16000
     Eigenvalues ---    0.16000   0.22000   0.22477   0.24467   0.25000
     Eigenvalues ---    0.25000   0.25000   0.25000   0.35123   0.35162
     Eigenvalues ---    0.35394   0.35453   0.36569   0.39714   0.40969
     Eigenvalues ---    0.43197   0.44424   0.45633   0.46813   0.47140
     Eigenvalues ---    0.48184   0.53491   0.53513   0.54236   0.91946
 RFO step:  Lambda=-4.41996391D-04 EMin= 1.25303931D-02
 Linear search not attempted -- first point.
 Iteration  1 RMS(Cart)=  0.01459107 RMS(Int)=  0.00006980
 Iteration  2 RMS(Cart)=  0.00010131 RMS(Int)=  0.00000014
 Iteration  3 RMS(Cart)=  0.00000000 RMS(Int)=  0.00000014
 Variable       Old X    -DE/DX   Delta X   Delta X   Delta X     New X
                                 (Linear)    (Quad)   (Total)
    R1        2.65254   0.00151   0.00000   0.00336   0.00336   2.65590
    R2        2.61390   0.00225   0.00000   0.00469   0.00469   2.61859
    R3        2.05039  -0.00172   0.00000  -0.00486  -0.00486   2.04553
    R4        2.61205   0.00242   0.00000   0.00492   0.00492   2.61698
    R5        2.05413  -0.00173   0.00000  -0.00490  -0.00490   2.04922
    R6        2.67274   0.00165   0.00000   0.00374   0.00375   2.67649
    R7        2.05476  -0.00150   0.00000  -0.00425  -0.00425   2.05051
    R8        2.69369   0.00222   0.00000   0.00531   0.00531   2.69900
    R9        2.56498   0.00597   0.00000   0.01116   0.01116   2.57614
   R10        2.66188   0.00259   0.00000   0.00588   0.00588   2.66776
   R11        2.76500   0.00288   0.00000   0.00787   0.00787   2.77287
   R12        2.04946  -0.00177   0.00000  -0.00500  -0.00500   2.04447
   R13        2.55818   0.00603   0.00000   0.01110   0.01110   2.56928
   R14        2.32049   0.00782   0.00000   0.00850   0.00850   2.32898
   R15        1.83178   0.00115   0.00000   0.00214   0.00214   1.83392
   R16        1.91247  -0.00205   0.00000  -0.00448  -0.00448   1.90799
   R17        1.89925  -0.00047   0.00000  -0.00101  -0.00101   1.89824
    A1        2.07281   0.00015   0.00000   0.00081   0.00081   2.07361
    A2        2.10605  -0.00005   0.00000  -0.00023  -0.00023   2.10583
    A3        2.10432  -0.00011   0.00000  -0.00058  -0.00058   2.10375
    A4        2.11166  -0.00039   0.00000  -0.00189  -0.00189   2.10977
    A5        2.09278   0.00021   0.00000   0.00099   0.00099   2.09377
    A6        2.07875   0.00019   0.00000   0.00089   0.00089   2.07964
    A7        2.11533   0.00064   0.00000   0.00266   0.00266   2.11799
    A8        2.09669  -0.00028   0.00000  -0.00109  -0.00109   2.09560
    A9        2.07117  -0.00036   0.00000  -0.00157  -0.00157   2.06960
   A10        2.05725  -0.00029   0.00000  -0.00132  -0.00132   2.05593
   A11        2.09524  -0.00234   0.00000  -0.00925  -0.00925   2.08599
   A12        2.13069   0.00263   0.00000   0.01058   0.01058   2.14127
   A13        2.08623  -0.00012   0.00000  -0.00047  -0.00047   2.08576
   A14        2.09673   0.00176   0.00000   0.00700   0.00700   2.10373
   A15        2.10023  -0.00163   0.00000  -0.00653  -0.00653   2.09370
   A16        2.12310   0.00001   0.00000   0.00022   0.00022   2.12332
   A17        2.09867  -0.00029   0.00000  -0.00186  -0.00186   2.09681
   A18        2.06142   0.00027   0.00000   0.00164   0.00164   2.06306
   A19        1.99227  -0.00114   0.00000  -0.00454  -0.00454   1.98772
   A20        2.19605   0.00054   0.00000   0.00214   0.00214   2.19819
   A21        2.09486   0.00060   0.00000   0.00240   0.00240   2.09727
   A22        1.84771   0.00074   0.00000   0.00464   0.00464   1.85235
   A23        2.07422   0.00164   0.00000   0.01020   0.01020   2.08442
   A24        2.09890  -0.00062   0.00000  -0.00387  -0.00387   2.09503
   A25        2.11007  -0.00102   0.00000  -0.00633  -0.00633   2.10373
    D1        0.00000  -0.00000   0.00000  -0.00001  -0.00001  -0.00001
    D2       -3.14159  -0.00000   0.00000  -0.00001  -0.00001   3.14158
    D3        3.14159  -0.00000   0.00000   0.00000   0.00000  -3.14159
    D4       -0.00000  -0.00000   0.00000  -0.00000  -0.00000  -0.00000
    D5       -0.00001   0.00000   0.00000   0.00003   0.00003   0.00003
    D6        3.14159   0.00000   0.00000   0.00001   0.00001  -3.14158
    D7        3.14159   0.00000   0.00000   0.00002   0.00002  -3.14157
    D8       -0.00000   0.00000   0.00000   0.00000   0.00000   0.00000
    D9        0.00000  -0.00000   0.00000  -0.00001  -0.00001  -0.00000
   D10        3.14159   0.00000   0.00000   0.00001   0.00001  -3.14159
   D11       -3.14159  -0.00000   0.00000  -0.00000  -0.00000   3.14159
   D12       -0.00000   0.00000   0.00000   0.00001   0.00001   0.00001
   D13        0.00000  -0.00000   0.00000  -0.00001  -0.00001  -0.00001
   D14        3.14159   0.00000   0.00000   0.00004   0.00004  -3.14156
   D15       -3.14159  -0.00000   0.00000  -0.00002  -0.00002   3.14158
   D16       -0.00000   0.00000   0.00000   0.00003   0.00003   0.00002
   D17       -0.00001   0.00000   0.00000   0.00003   0.00003   0.00003
   D18        3.14159  -0.00000   0.00000  -0.00000  -0.00000   3.14159
   D19        3.14159  -0.00000   0.00000  -0.00002  -0.00002   3.14158
   D20        0.00000  -0.00000   0.00000  -0.00005  -0.00005  -0.00005
   D21       -3.14155  -0.00000   0.00000  -0.00008  -0.00008   3.14156
   D22       -0.00003  -0.00000   0.00000  -0.00003  -0.00003  -0.00007
   D23        0.00004  -0.00000   0.00000  -0.00003  -0.00003   0.00000
   D24        3.14155   0.00000   0.00000   0.00001   0.00001   3.14157
   D25        0.00001  -0.00000   0.00000  -0.00005  -0.00005  -0.00004
   D26       -3.14159  -0.00000   0.00000  -0.00002  -0.00002   3.14157
   D27       -3.14159  -0.00000   0.00000  -0.00001  -0.00001   3.14159
   D28        0.00000   0.00000   0.00000   0.00001   0.00001   0.00001
   D29        3.14138   0.00001   0.00000   0.00091   0.00091  -3.14090
   D30        0.00023  -0.00002   0.00000  -0.00098  -0.00098  -0.00074
   D31       -0.00021   0.00001   0.00000   0.00087   0.00087   0.00066
   D32       -3.14136  -0.00002   0.00000  -0.00101  -0.00101   3.14082
   D33       -3.14138  -0.00001   0.00000  -0.00089  -0.00089   3.14091
   D34       -0.00021   0.00001   0.00000   0.00087   0.00087   0.00067
         Item               Value     Threshold  Converged?
 Maximum Force            0.007815     0.000450     NO 
 RMS     Force            0.001669     0.000300     NO 
 Maximum Displacement     0.072417     0.001800     NO 
 RMS     Displacement     0.014632     0.001200     NO 
 Predicted change in Energy=-2.212557D-04
 GradGradGradGradGradGradGradGradGradGradGradGradGradGradGradGradGradGrad

                          Input orientation:                          
 ---------------------------------------------------------------------
 Center     Atomic      Atomic             Coordinates (Angstroms)
 Number     Number       Type             X           Y           Z
 ---------------------------------------------------------------------
      1          6           0       -1.858518   -1.518600    0.000057
      2          6           0       -2.586376   -0.316317   -0.000111
      3          6           0       -1.937759    0.907238   -0.000097
      4          6           0       -0.523951    0.991810    0.000091
      5          6           0        0.216330   -0.229616    0.000274
      6          6           0       -0.474018   -1.461023    0.000230
      7          6           0        1.683567   -0.212094    0.000466
      8          8           0        2.248949   -1.448567   -0.000235
      9          7           0        0.075687    2.216082    0.000139
     10          8           0        2.395093    0.794211   -0.000253
     11          1           0       -2.369272   -2.472973    0.000045
     12          1           0       -3.670530   -0.339524   -0.000256
     13          1           0       -2.512807    1.827414   -0.000223
     14          1           0        0.107592   -2.373276    0.000353
     15          1           0        3.208907   -1.306119   -0.000663
     16          1           0        1.083644    2.274788    0.000307
     17          1           0       -0.484110    3.050141   -0.000017
 ---------------------------------------------------------------------
                    Distance matrix (angstroms):
                    1          2          3          4          5
     1  C    0.000000
     2  C    1.405440   0.000000
     3  C    2.427132   1.384844   0.000000
     4  C    2.843102   2.442293   1.416335   0.000000
     5  C    2.442637   2.804046   2.435680   1.428250   0.000000
     6  C    1.385696   2.402583   2.784098   2.453342   1.411717
     7  C    3.775357   4.271214   3.790370   2.514462   1.467342
     8  O    4.108064   4.966121   4.803993   3.693835   2.370102
     9  N    4.205829   3.674184   2.401466   1.363234   2.449738
    10  O    4.841725   5.103754   4.334326   2.925724   2.407328
    11  H    1.082450   2.167555   3.407643   3.925549   3.423155
    12  H    2.161853   1.084402   2.134692   3.416637   3.888413
    13  H    3.409385   2.144993   1.085082   2.157262   3.417537
    14  H    2.143842   3.389475   3.865907   3.423836   2.146417
    15  H    5.071878   5.879202   5.602421   4.383459   3.180311
    16  H    4.800636   4.492535   3.316484   2.056792   2.650334
    17  H    4.770995   3.968950   2.589426   2.058716   3.353718
                    6          7          8          9         10
     6  C    0.000000
     7  C    2.492990   0.000000
     8  O    2.722996   1.359604   0.000000
     9  N    3.717967   2.912269   4.260601   0.000000
    10  O    3.649367   1.232445   2.247535   2.720543   0.000000
    11  H    2.148495   4.640806   4.730473   5.288200   5.776994
    12  H    3.387543   5.355613   6.022476   4.534894   6.170667
    13  H    3.869170   4.665742   5.779825   2.617511   5.015475
    14  H    1.081885   2.674772   2.332488   4.589469   3.907127
    15  H    3.686182   1.877114   0.970469   4.714124   2.252483
    16  H    4.047542   2.558220   3.901450   1.009664   1.977880
    17  H    4.511176   3.916759   5.263838   1.004504   3.657736
                   11         12         13         14         15
    11  H    0.000000
    12  H    2.498975   0.000000
    13  H    4.302781   2.456816   0.000000
    14  H    2.478869   4.290729   4.950989   0.000000
    15  H    5.698915   6.947011   6.523576   3.279784   0.000000
    16  H    5.870593   5.425569   3.624169   4.749440   4.164090
    17  H    5.835977   4.652215   2.368686   5.455600   5.710988
                   16         17
    16  H    0.000000
    17  H    1.749007   0.000000
 Stoichiometry    C7H7NO2
 Framework group  C1[X(C7H7NO2)]
 Deg. of freedom    45
 Full point group                 C1      NOp   1
 Largest Abelian subgroup         C1      NOp   1
 Largest concise Abelian subgroup C1      NOp   1
                         Standard orientation:                         
 ---------------------------------------------------------------------
 Center     Atomic      Atomic             Coordinates (Angstroms)
 Number     Number       Type             X           Y           Z
 ---------------------------------------------------------------------
      1          6           0       -1.849838   -1.530596    0.000028
      2          6           0       -2.586291   -0.333559   -0.000140
      3          6           0       -1.946458    0.894612   -0.000126
      4          6           0       -0.533293    0.989312    0.000062
      5          6           0        0.215721   -0.226778    0.000245
      6          6           0       -0.465786   -1.463101    0.000202
      7          6           0        1.682795   -0.198744    0.000437
      8          8           0        2.257022   -1.431134   -0.000264
      9          7           0        0.057559    2.217849    0.000111
     10          8           0        2.387092    0.812634   -0.000282
     11          1           0       -2.353740   -2.488604    0.000016
     12          1           0       -3.670251   -0.364534   -0.000285
     13          1           0       -2.528085    1.810644   -0.000252
     14          1           0        0.122345   -2.371163    0.000324
     15          1           0        3.215935   -1.281812   -0.000691
     16          1           0        1.065068    2.283776    0.000278
     17          1           0       -0.508201    3.047876   -0.000046
 ---------------------------------------------------------------------
 Rotational constants (GHZ):      2.2827470      1.2110327      0.7912581
 Standard basis: 6-31+G(d,p) (6D, 7F)
 There are   225 symmetry adapted cartesian basis functions of A   symmetry.
 There are   225 symmetry adapted basis functions of A   symmetry.
   225 basis functions,   369 primitive gaussians,   225 cartesian basis functions
    36 alpha electrons       36 beta electrons
       nuclear repulsion energy       499.8332921223 Hartrees.
 NAtoms=   17 NActive=   17 NUniq=   17 SFac= 1.00D+00 NAtFMM=   60 NAOKFM=F Big=F
 Integral buffers will be    131072 words long.
 Regular integral format.
 Two-electron integral symmetry is turned on.
 Nuclear repulsion after empirical dispersion term =      499.8263829399 Hartrees.
 One-electron integrals computed using PRISM.
 NBasis=   225 RedAO= T EigKep=  2.75D-06  NBF=   225
 NBsUse=   225 1.00D-06 EigRej= -1.00D+00 NBFU=   225
 Initial guess from the checkpoint file:  "B2PLYPD3Anthranilic.chk"
 B after Tr=    -0.000000    0.000000   -0.000000
         Rot=    0.999995    0.000002   -0.000005   -0.003001 Ang=   0.34 deg.
 ExpMin= 4.38D-02 ExpMax= 5.48D+03 ExpMxC= 8.25D+02 IAcc=2 IRadAn=         4 AccDes= 0.00D+00
 Harris functional with IExCor=  419 and IRadAn=       4 diagonalized for initial guess.
 HarFok:  IExCor=  419 AccDes= 0.00D+00 IRadAn=         4 IDoV= 1 UseB2=F ITyADJ=14
 ICtDFT=  3500011 ScaDFX=  1.000000  1.000000  1.000000  1.000000
 FoFCou: FMM=F IPFlag=           0 FMFlag=      100000 FMFlg1=           0
         NFxFlg=           0 DoJE=T BraDBF=F KetDBF=T FulRan=T
         wScrn=  0.000000 ICntrl=     500 IOpCl=  0 I1Cent=   200000004 NGrid=           0
         NMat0=    1 NMatS0=      1 NMatT0=    0 NMatD0=    1 NMtDS0=    0 NMtDT0=    0
 Petite list used in FoFCou.
 Keep R1 ints in memory in canonical form, NReq=329175655.
 Requested convergence on RMS density matrix=1.00D-08 within 128 cycles.
 Requested convergence on MAX density matrix=1.00D-06.
 Requested convergence on             energy=1.00D-06.
 No special actions if energy rises.
 SCF Done:  E(RB2PLYP) =  -475.277757452     A.U. after   12 cycles
            NFock= 12  Conv=0.60D-08     -V/T= 2.0070
 DoSCS=T DFT=T ScalE2(SS,OS)=  0.270000  0.270000
 ExpMin= 4.38D-02 ExpMax= 5.48D+03 ExpMxC= 8.25D+02 IAcc=3 IRadAn=         5 AccDes= 0.00D+00
 HarFok:  IExCor=  205 AccDes= 0.00D+00 IRadAn=         5 IDoV=-2 UseB2=F ITyADJ=14
 ICtDFT= 12500011 ScaDFX=  1.000000  1.000000  1.000000  1.000000
 Range of M.O.s used for correlation:    11   225
 NBasis=   225 NAE=    36 NBE=    36 NFC=    10 NFV=     0
 NROrb=    215 NOA=    26 NOB=    26 NVA=   189 NVB=   189

 **** Warning!!: The largest alpha MO coefficient is  0.15682661D+03

 DoSCS=T DFT=T ScalE2(SS,OS)=  0.270000  0.270000
 Fully direct method using O(ONN) memory.
 JobTyp=1 Pass  1:  I=  11 to  18 NPSUse= 18 ParTrn=T ParDer=T DoDerP=T.
 JobTyp=1 Pass  2:  I=  19 to  26 NPSUse= 18 ParTrn=T ParDer=T DoDerP=T.
 JobTyp=1 Pass  3:  I=  27 to  34 NPSUse= 18 ParTrn=T ParDer=T DoDerP=T.
 JobTyp=1 Pass  4:  I=  35 to  36 NPSUse= 18 ParTrn=T ParDer=T DoDerP=T.
 Spin components of T(2) and E(2):
     alpha-alpha T2 =       0.1090907364D+00 E2=     -0.6610978085D-01
     alpha-beta  T2 =       0.5571561282D+00 E2=     -0.3532998957D+00
     beta-beta   T2 =       0.1090907364D+00 E2=     -0.6610978085D-01
 E2(B2PLYP) =    -0.4855194574D+00 E(B2PLYP) =    -0.47576327690991D+03
          IDoAtm=11111111111111111
          Differentiating once with respect to electric field.
                with respect to dipole field.
          Differentiating once with respect to nuclear coordinates.
 Keep R1 ints in memory in canonical form, NReq=329001650.
          There are     1 degrees of freedom in the 1st order CPHF.  IDoFFX=0 NUNeed=     1.
 LinEq1:  Iter=  0 NonCon=     1 RMS=2.03D-03 Max=4.89D-02 NDo=     1
 AX will form     1 AO Fock derivatives at one time.
 LinEq1:  Iter=  1 NonCon=     1 RMS=8.71D-04 Max=1.99D-02 NDo=     1
 LinEq1:  Iter=  2 NonCon=     1 RMS=3.59D-04 Max=8.31D-03 NDo=     1
 LinEq1:  Iter=  3 NonCon=     1 RMS=2.82D-04 Max=7.72D-03 NDo=     1
 LinEq1:  Iter=  4 NonCon=     1 RMS=1.06D-04 Max=2.71D-03 NDo=     1
 LinEq1:  Iter=  5 NonCon=     1 RMS=4.97D-05 Max=1.15D-03 NDo=     1
 LinEq1:  Iter=  6 NonCon=     1 RMS=1.94D-05 Max=6.14D-04 NDo=     1
 LinEq1:  Iter=  7 NonCon=     1 RMS=9.79D-06 Max=3.96D-04 NDo=     1
 LinEq1:  Iter=  8 NonCon=     1 RMS=3.90D-06 Max=7.98D-05 NDo=     1
 LinEq1:  Iter=  9 NonCon=     1 RMS=2.03D-06 Max=5.18D-05 NDo=     1
 LinEq1:  Iter= 10 NonCon=     1 RMS=6.06D-07 Max=9.14D-06 NDo=     1
 LinEq1:  Iter= 11 NonCon=     1 RMS=2.22D-07 Max=4.01D-06 NDo=     1
 LinEq1:  Iter= 12 NonCon=     1 RMS=9.40D-08 Max=1.20D-06 NDo=     1
 LinEq1:  Iter= 13 NonCon=     1 RMS=3.22D-08 Max=5.08D-07 NDo=     1
 LinEq1:  Iter= 14 NonCon=     1 RMS=1.63D-08 Max=2.55D-07 NDo=     1
 LinEq1:  Iter= 15 NonCon=     1 RMS=5.68D-09 Max=2.03D-07 NDo=     1
 LinEq1:  Iter= 16 NonCon=     1 RMS=1.95D-09 Max=6.09D-08 NDo=     1
 LinEq1:  Iter= 17 NonCon=     1 RMS=1.03D-09 Max=3.78D-08 NDo=     1
 LinEq1:  Iter= 18 NonCon=     1 RMS=3.91D-10 Max=1.60D-08 NDo=     1
 LinEq1:  Iter= 19 NonCon=     1 RMS=2.27D-10 Max=6.25D-09 NDo=     1
 LinEq1:  Iter= 20 NonCon=     0 RMS=6.25D-11 Max=6.08D-10 NDo=     1
 Linear equations converged to 1.000D-10 1.000D-09 after    20 iterations.
 End of Minotr F.D. properties file   721 does not exist.
 End of Minotr F.D. properties file   722 does not exist.
 End of Minotr F.D. properties file   788 does not exist.
 Calling FoFJK, ICntrl=  10002127 FMM=F ISym2X=0 I1Cent= 0 IOpClX= 0 NMat=1 NMatS=1 NMatT=0.
 ***** Axes restored to original set *****
 -------------------------------------------------------------------
 Center     Atomic                   Forces (Hartrees/Bohr)
 Number     Number              X              Y              Z
 -------------------------------------------------------------------
      1        6           0.000011916    0.000491181   -0.000003566
      2        6          -0.000114646   -0.000241632   -0.000000351
      3        6           0.000530289    0.000211272   -0.000002958
      4        6          -0.000053987   -0.002427390    0.000009918
      5        6          -0.000873447    0.001082541    0.000048415
      6        6           0.000068336   -0.000068410    0.000009083
      7        6           0.000181446    0.002177669   -0.000191831
      8        8           0.000319811   -0.001165702    0.000056105
      9        7           0.001744445   -0.000576336    0.000002535
     10        8          -0.001388116   -0.000098590    0.000076302
     11        1           0.000017445   -0.000085362   -0.000001314
     12        1           0.000018187    0.000050284    0.000000684
     13        1          -0.000034825    0.000018593   -0.000000402
     14        1          -0.000085524    0.000065130    0.000001087
     15        1          -0.000134748    0.000311019    0.000001191
     16        1          -0.000392108    0.000180992   -0.000005128
     17        1           0.000185525    0.000074744    0.000000230
 -------------------------------------------------------------------
 Cartesian Forces:  Max     0.002427390 RMS     0.000633068

 GradGradGradGradGradGradGradGradGradGradGradGradGradGradGradGradGradGrad
 Berny optimization.
 Using GEDIIS/GDIIS optimizer.
 FormGI is forming the generalized inverse of G from B-inverse, IUseBI=4.
 Internal  Forces:  Max     0.003384555 RMS     0.000798517
 Search for a local minimum.
 Step number   2 out of a maximum of   86
 All quantities printed in internal units (Hartrees-Bohrs-Radians)
 Mixed Optimization -- En-DIIS/RFO-DIIS
 Update second derivatives using D2CorX and points    1    2
 DE= -1.63D-04 DEPred=-2.21D-04 R= 7.38D-01
 TightC=F SS=  1.41D+00  RLast= 3.41D-02 DXNew= 5.0454D-01 1.0234D-01
 Trust test= 7.38D-01 RLast= 3.41D-02 DXMaxT set to 3.00D-01
 ITU=  1  0
 Use linear search instead of GDIIS.
     Eigenvalues ---    0.01253   0.01575   0.01686   0.01837   0.01974
     Eigenvalues ---    0.02072   0.02089   0.02132   0.02170   0.02191
     Eigenvalues ---    0.02238   0.02256   0.02256   0.02304   0.15247
     Eigenvalues ---    0.16000   0.16000   0.16000   0.16000   0.16000
     Eigenvalues ---    0.16076   0.21812   0.22531   0.24062   0.24478
     Eigenvalues ---    0.25000   0.25000   0.29557   0.34677   0.35138
     Eigenvalues ---    0.35289   0.35425   0.36826   0.40442   0.41056
     Eigenvalues ---    0.42981   0.45136   0.46448   0.46854   0.47143
     Eigenvalues ---    0.49585   0.53458   0.53781   0.56826   0.94094
 RFO step:  Lambda=-9.15270910D-05 EMin= 1.25304120D-02
 Quartic linear search produced a step of -0.20374.
 Iteration  1 RMS(Cart)=  0.00996993 RMS(Int)=  0.00003057
 Iteration  2 RMS(Cart)=  0.00004990 RMS(Int)=  0.00000174
 Iteration  3 RMS(Cart)=  0.00000000 RMS(Int)=  0.00000174
 Variable       Old X    -DE/DX   Delta X   Delta X   Delta X     New X
                                 (Linear)    (Quad)   (Total)
    R1        2.65590   0.00009  -0.00068   0.00170   0.00102   2.65692
    R2        2.61859   0.00013  -0.00095   0.00221   0.00125   2.61984
    R3        2.04553   0.00007   0.00099  -0.00182  -0.00083   2.04471
    R4        2.61698   0.00013  -0.00100   0.00230   0.00129   2.61827
    R5        2.04922  -0.00002   0.00100  -0.00203  -0.00103   2.04819
    R6        2.67649  -0.00058  -0.00076   0.00037  -0.00040   2.67609
    R7        2.05051   0.00003   0.00087  -0.00164  -0.00078   2.04973
    R8        2.69900  -0.00338  -0.00108  -0.00451  -0.00559   2.69341
    R9        2.57614   0.00039  -0.00227   0.00512   0.00285   2.57899
   R10        2.66776  -0.00027  -0.00120   0.00182   0.00062   2.66838
   R11        2.77287  -0.00101  -0.00160   0.00100  -0.00061   2.77227
   R12        2.04447  -0.00010   0.00102  -0.00225  -0.00123   2.04323
   R13        2.56928   0.00085  -0.00226   0.00578   0.00351   2.57279
   R14        2.32898  -0.00088  -0.00173   0.00271   0.00098   2.32996
   R15        1.83392  -0.00009  -0.00044   0.00074   0.00031   1.83423
   R16        1.90799  -0.00038   0.00091  -0.00249  -0.00157   1.90642
   R17        1.89824  -0.00004   0.00021  -0.00048  -0.00028   1.89796
    A1        2.07361   0.00001  -0.00016   0.00102   0.00086   2.07447
    A2        2.10583   0.00005   0.00005  -0.00016  -0.00011   2.10571
    A3        2.10375  -0.00006   0.00012  -0.00086  -0.00075   2.10300
    A4        2.10977  -0.00026   0.00038  -0.00108  -0.00069   2.10908
    A5        2.09377   0.00018  -0.00020   0.00081   0.00061   2.09438
    A6        2.07964   0.00008  -0.00018   0.00026   0.00008   2.07972
    A7        2.11799  -0.00052  -0.00054  -0.00076  -0.00130   2.11669
    A8        2.09560   0.00024   0.00022   0.00037   0.00059   2.09619
    A9        2.06960   0.00028   0.00032   0.00038   0.00070   2.07030
   A10        2.05593   0.00077   0.00027   0.00149   0.00176   2.05769
   A11        2.08599   0.00156   0.00189   0.00148   0.00336   2.08935
   A12        2.14127  -0.00234  -0.00215  -0.00297  -0.00513   2.13614
   A13        2.08576   0.00069   0.00010   0.00162   0.00172   2.08747
   A14        2.10373  -0.00338  -0.00143  -0.00773  -0.00916   2.09457
   A15        2.09370   0.00268   0.00133   0.00611   0.00744   2.10114
   A16        2.12332  -0.00070  -0.00004  -0.00230  -0.00235   2.12097
   A17        2.09681   0.00031   0.00038   0.00027   0.00065   2.09746
   A18        2.06306   0.00039  -0.00033   0.00204   0.00170   2.06476
   A19        1.98772   0.00092   0.00093   0.00109   0.00201   1.98974
   A20        2.19819  -0.00171  -0.00044  -0.00459  -0.00503   2.19316
   A21        2.09727   0.00080  -0.00049   0.00350   0.00301   2.10028
   A22        1.85235  -0.00060  -0.00095  -0.00115  -0.00209   1.85026
   A23        2.08442   0.00014  -0.00208   0.00472   0.00265   2.08707
   A24        2.09503   0.00012   0.00079  -0.00095  -0.00016   2.09487
   A25        2.10373  -0.00025   0.00129  -0.00377  -0.00248   2.10125
    D1       -0.00001   0.00000   0.00000   0.00001   0.00002   0.00001
    D2        3.14158   0.00000   0.00000   0.00002   0.00002  -3.14158
    D3       -3.14159   0.00000  -0.00000  -0.00000  -0.00000   3.14159
    D4       -0.00000   0.00000   0.00000   0.00001   0.00001   0.00001
    D5        0.00003  -0.00000  -0.00001  -0.00008  -0.00009  -0.00006
    D6       -3.14158  -0.00000  -0.00000  -0.00002  -0.00002   3.14158
    D7       -3.14157  -0.00000  -0.00001  -0.00006  -0.00007   3.14155
    D8        0.00000  -0.00000  -0.00000  -0.00001  -0.00001  -0.00000
    D9       -0.00000   0.00000   0.00000   0.00002   0.00002   0.00001
   D10       -3.14159  -0.00000  -0.00000  -0.00001  -0.00001   3.14159
   D11        3.14159   0.00000   0.00000   0.00001   0.00001  -3.14159
   D12        0.00001  -0.00000  -0.00000  -0.00002  -0.00002  -0.00001
   D13       -0.00001   0.00000   0.00000   0.00002   0.00002   0.00001
   D14       -3.14156  -0.00000  -0.00001  -0.00008  -0.00009   3.14154
   D15        3.14158   0.00000   0.00000   0.00004   0.00005  -3.14156
   D16        0.00002  -0.00000  -0.00001  -0.00005  -0.00006  -0.00003
   D17        0.00003  -0.00000  -0.00001  -0.00008  -0.00008  -0.00006
   D18        3.14159  -0.00000   0.00000  -0.00000  -0.00000   3.14158
   D19        3.14158   0.00000   0.00000   0.00002   0.00002  -3.14159
   D20       -0.00005   0.00000   0.00001   0.00009   0.00010   0.00006
   D21        3.14156   0.00001   0.00002   0.00018   0.00020  -3.14143
   D22       -0.00007   0.00000   0.00001   0.00005   0.00006  -0.00001
   D23        0.00000   0.00000   0.00001   0.00008   0.00009   0.00009
   D24        3.14157  -0.00000  -0.00000  -0.00005  -0.00005   3.14152
   D25       -0.00004   0.00000   0.00001   0.00011   0.00012   0.00008
   D26        3.14157   0.00000   0.00001   0.00006   0.00006  -3.14155
   D27        3.14159   0.00000   0.00000   0.00004   0.00004  -3.14156
   D28        0.00001  -0.00000  -0.00000  -0.00002  -0.00002  -0.00001
   D29       -3.14090  -0.00005  -0.00018  -0.00210  -0.00228   3.14000
   D30       -0.00074   0.00005   0.00020   0.00228   0.00248   0.00174
   D31        0.00066  -0.00005  -0.00018  -0.00203  -0.00220  -0.00154
   D32        3.14082   0.00005   0.00021   0.00236   0.00256  -3.13981
   D33        3.14091   0.00005   0.00018   0.00208   0.00227  -3.14001
   D34        0.00067  -0.00004  -0.00018  -0.00202  -0.00221  -0.00154
         Item               Value     Threshold  Converged?
 Maximum Force            0.003385     0.000450     NO 
 RMS     Force            0.000799     0.000300     NO 
 Maximum Displacement     0.037546     0.001800     NO 
 RMS     Displacement     0.009996     0.001200     NO 
 Predicted change in Energy=-5.697746D-05
 GradGradGradGradGradGradGradGradGradGradGradGradGradGradGradGradGradGrad

                          Input orientation:                          
 ---------------------------------------------------------------------
 Center     Atomic      Atomic             Coordinates (Angstroms)
 Number     Number       Type             X           Y           Z
 ---------------------------------------------------------------------
      1          6           0       -1.863532   -1.520134   -0.000094
      2          6           0       -2.589545   -0.316106    0.000316
      3          6           0       -1.937602    0.906455    0.000291
      4          6           0       -0.523696    0.985708   -0.000161
      5          6           0        0.212624   -0.234658   -0.000607
      6          6           0       -0.478224   -1.466164   -0.000513
      7          6           0        1.679377   -0.206626   -0.001098
      8          8           0        2.256878   -1.439538    0.000482
      9          7           0        0.085313    2.207030   -0.000233
     10          8           0        2.378873    0.808708    0.000568
     11          1           0       -2.375869   -2.473161   -0.000071
     12          1           0       -3.673206   -0.336729    0.000663
     13          1           0       -2.509624    1.828031    0.000604
     14          1           0        0.101233   -2.379014   -0.000819
     15          1           0        3.215328   -1.286251    0.001448
     16          1           0        1.092689    2.261184   -0.000695
     17          1           0       -0.468591    3.044841    0.000027
 ---------------------------------------------------------------------
                    Distance matrix (angstroms):
                    1          2          3          4          5
     1  C    0.000000
     2  C    1.405979   0.000000
     3  C    2.427720   1.385527   0.000000
     4  C    2.841550   2.441813   1.416125   0.000000
     5  C    2.441899   2.803352   2.434258   1.425293   0.000000
     6  C    1.386359   2.404227   2.785518   2.452294   1.412047
     7  C    3.778559   4.270326   3.784374   2.505033   1.467021
     8  O    4.121199   4.974929   4.805970   3.689636   2.372913
     9  N    4.205918   3.677102   2.404928   1.364742   2.445005
    10  O    4.839577   5.094152   4.317582   2.907962   2.404423
    11  H    1.082012   2.167612   3.407915   3.923559   3.422162
    12  H    2.162260   1.083857   2.134907   3.415882   3.887170
    13  H    3.409933   2.145626   1.084670   2.157178   3.415453
    14  H    2.144289   3.390557   3.866673   3.422264   2.147247
    15  H    5.084243   5.885383   5.600058   4.375169   3.181522
    16  H    4.799752   4.494583   3.319331   2.059015   2.646459
    17  H    4.773349   3.974219   2.594357   2.059871   3.349503
                    6          7          8          9         10
     6  C    0.000000
     7  C    2.498335   0.000000
     8  O    2.735232   1.361464   0.000000
     9  N    3.716171   2.892538   4.244191   0.000000
    10  O    3.652129   1.232964   2.251553   2.686210   0.000000
    11  H    2.148278   4.645665   4.746654   5.287873   5.777390
    12  H    3.388736   5.354164   6.031757   4.538411   6.159520
    13  H    3.870182   4.656990   5.778975   2.622467   4.993638
    14  H    1.081233   2.685109   2.351473   4.586072   3.917808
    15  H    3.697932   1.877430   0.970631   4.690417   2.255772
    16  H    4.044861   2.536590   3.879521   1.008831   1.940093
    17  H    4.511016   3.896896   5.247651   1.004359   3.620545
                   11         12         13         14         15
    11  H    0.000000
    12  H    2.499485   0.000000
    13  H    4.303271   2.457663   0.000000
    14  H    2.478891   4.291540   4.951343   0.000000
    15  H    5.715789   6.953668   6.517194   3.300262   0.000000
    16  H    5.868980   5.427975   3.628262   4.744937   4.133993
    17  H    5.838327   4.658817   2.376225   5.453706   5.685914
                   16         17
    16  H    0.000000
    17  H    1.746915   0.000000
 Stoichiometry    C7H7NO2
 Framework group  C1[X(C7H7NO2)]
 Deg. of freedom    45
 Full point group                 C1      NOp   1
 Largest Abelian subgroup         C1      NOp   1
 Largest concise Abelian subgroup C1      NOp   1
                         Standard orientation:                         
 ---------------------------------------------------------------------
 Center     Atomic      Atomic             Coordinates (Angstroms)
 Number     Number       Type             X           Y           Z
 ---------------------------------------------------------------------
      1          6           0       -1.864518   -1.519311   -0.000048
      2          6           0       -2.590427   -0.315220    0.000361
      3          6           0       -1.938379    0.907285    0.000337
      4          6           0       -0.524466    0.986415   -0.000115
      5          6           0        0.211748   -0.234014   -0.000562
      6          6           0       -0.479206   -1.465461   -0.000468
      7          6           0        1.678504   -0.206108   -0.001053
      8          8           0        2.255899   -1.439071    0.000527
      9          7           0        0.084648    2.207685   -0.000188
     10          8           0        2.378088    0.809165    0.000613
     11          1           0       -2.376938   -2.472294   -0.000026
     12          1           0       -3.674090   -0.335750    0.000709
     13          1           0       -2.510321    1.828910    0.000650
     14          1           0        0.100172   -2.378360   -0.000774
     15          1           0        3.214362   -1.285866    0.001494
     16          1           0        1.092029    2.261753   -0.000649
     17          1           0       -0.469183    3.045544    0.000072
 ---------------------------------------------------------------------
 Rotational constants (GHZ):      2.2894865      1.2118370      0.7924103
 Standard basis: 6-31+G(d,p) (6D, 7F)
 There are   225 symmetry adapted cartesian basis functions of A   symmetry.
 There are   225 symmetry adapted basis functions of A   symmetry.
   225 basis functions,   369 primitive gaussians,   225 cartesian basis functions
    36 alpha electrons       36 beta electrons
       nuclear repulsion energy       500.0801030122 Hartrees.
 NAtoms=   17 NActive=   17 NUniq=   17 SFac= 1.00D+00 NAtFMM=   60 NAOKFM=F Big=F
 Integral buffers will be    131072 words long.
 Regular integral format.
 Two-electron integral symmetry is turned on.
 Nuclear repulsion after empirical dispersion term =      500.0732042696 Hartrees.
 One-electron integrals computed using PRISM.
 NBasis=   225 RedAO= T EigKep=  2.74D-06  NBF=   225
 NBsUse=   225 1.00D-06 EigRej= -1.00D+00 NBFU=   225
 Initial guess from the checkpoint file:  "B2PLYPD3Anthranilic.chk"
 B after Tr=     0.000000   -0.000000    0.000000
         Rot=    0.999995   -0.000006    0.000012    0.003021 Ang=  -0.35 deg.
 ExpMin= 4.38D-02 ExpMax= 5.48D+03 ExpMxC= 8.25D+02 IAcc=2 IRadAn=         4 AccDes= 0.00D+00
 Harris functional with IExCor=  419 and IRadAn=       4 diagonalized for initial guess.
 HarFok:  IExCor=  419 AccDes= 0.00D+00 IRadAn=         4 IDoV= 1 UseB2=F ITyADJ=14
 ICtDFT=  3500011 ScaDFX=  1.000000  1.000000  1.000000  1.000000
 FoFCou: FMM=F IPFlag=           0 FMFlag=      100000 FMFlg1=           0
         NFxFlg=           0 DoJE=T BraDBF=F KetDBF=T FulRan=T
         wScrn=  0.000000 ICntrl=     500 IOpCl=  0 I1Cent=   200000004 NGrid=           0
         NMat0=    1 NMatS0=      1 NMatT0=    0 NMatD0=    1 NMtDS0=    0 NMtDT0=    0
 Petite list used in FoFCou.
 Keep R1 ints in memory in canonical form, NReq=329175655.
 Requested convergence on RMS density matrix=1.00D-08 within 128 cycles.
 Requested convergence on MAX density matrix=1.00D-06.
 Requested convergence on             energy=1.00D-06.
 No special actions if energy rises.
 SCF Done:  E(RB2PLYP) =  -475.277637233     A.U. after   12 cycles
            NFock= 12  Conv=0.43D-08     -V/T= 2.0070
 DoSCS=T DFT=T ScalE2(SS,OS)=  0.270000  0.270000
 ExpMin= 4.38D-02 ExpMax= 5.48D+03 ExpMxC= 8.25D+02 IAcc=3 IRadAn=         5 AccDes= 0.00D+00
 HarFok:  IExCor=  205 AccDes= 0.00D+00 IRadAn=         5 IDoV=-2 UseB2=F ITyADJ=14
 ICtDFT= 12500011 ScaDFX=  1.000000  1.000000  1.000000  1.000000
 Range of M.O.s used for correlation:    11   225
 NBasis=   225 NAE=    36 NBE=    36 NFC=    10 NFV=     0
 NROrb=    215 NOA=    26 NOB=    26 NVA=   189 NVB=   189

 **** Warning!!: The largest alpha MO coefficient is  0.16593700D+03

 DoSCS=T DFT=T ScalE2(SS,OS)=  0.270000  0.270000
 Fully direct method using O(ONN) memory.
 JobTyp=1 Pass  1:  I=  11 to  18 NPSUse= 18 ParTrn=T ParDer=T DoDerP=T.
 JobTyp=1 Pass  2:  I=  19 to  26 NPSUse= 18 ParTrn=T ParDer=T DoDerP=T.
 JobTyp=1 Pass  3:  I=  27 to  34 NPSUse= 18 ParTrn=T ParDer=T DoDerP=T.
 JobTyp=1 Pass  4:  I=  35 to  36 NPSUse= 18 ParTrn=T ParDer=T DoDerP=T.
 Spin components of T(2) and E(2):
     alpha-alpha T2 =       0.1091598689D+00 E2=     -0.6613925542D-01
     alpha-beta  T2 =       0.5573610877D+00 E2=     -0.3533783809D+00
     beta-beta   T2 =       0.1091598689D+00 E2=     -0.6613925542D-01
 E2(B2PLYP) =    -0.4856568917D+00 E(B2PLYP) =    -0.47576329412484D+03
          IDoAtm=11111111111111111
          Differentiating once with respect to electric field.
                with respect to dipole field.
          Differentiating once with respect to nuclear coordinates.
 Keep R1 ints in memory in canonical form, NReq=329001650.
          There are     1 degrees of freedom in the 1st order CPHF.  IDoFFX=0 NUNeed=     1.
 LinEq1:  Iter=  0 NonCon=     1 RMS=2.03D-03 Max=4.91D-02 NDo=     1
 AX will form     1 AO Fock derivatives at one time.
 LinEq1:  Iter=  1 NonCon=     1 RMS=8.73D-04 Max=1.99D-02 NDo=     1
 LinEq1:  Iter=  2 NonCon=     1 RMS=3.59D-04 Max=8.23D-03 NDo=     1
 LinEq1:  Iter=  3 NonCon=     1 RMS=2.82D-04 Max=7.66D-03 NDo=     1
 LinEq1:  Iter=  4 NonCon=     1 RMS=1.06D-04 Max=2.73D-03 NDo=     1
 LinEq1:  Iter=  5 NonCon=     1 RMS=4.97D-05 Max=1.16D-03 NDo=     1
 LinEq1:  Iter=  6 NonCon=     1 RMS=1.94D-05 Max=6.24D-04 NDo=     1
 LinEq1:  Iter=  7 NonCon=     1 RMS=9.85D-06 Max=4.01D-04 NDo=     1
 LinEq1:  Iter=  8 NonCon=     1 RMS=3.92D-06 Max=8.04D-05 NDo=     1
 LinEq1:  Iter=  9 NonCon=     1 RMS=2.04D-06 Max=5.23D-05 NDo=     1
 LinEq1:  Iter= 10 NonCon=     1 RMS=6.07D-07 Max=9.14D-06 NDo=     1
 LinEq1:  Iter= 11 NonCon=     1 RMS=2.21D-07 Max=3.97D-06 NDo=     1
 LinEq1:  Iter= 12 NonCon=     1 RMS=9.32D-08 Max=1.16D-06 NDo=     1
 LinEq1:  Iter= 13 NonCon=     1 RMS=3.21D-08 Max=5.27D-07 NDo=     1
 LinEq1:  Iter= 14 NonCon=     1 RMS=1.62D-08 Max=2.50D-07 NDo=     1
 LinEq1:  Iter= 15 NonCon=     1 RMS=5.74D-09 Max=2.18D-07 NDo=     1
 LinEq1:  Iter= 16 NonCon=     1 RMS=2.12D-09 Max=7.67D-08 NDo=     1
 LinEq1:  Iter= 17 NonCon=     1 RMS=1.15D-09 Max=4.59D-08 NDo=     1
 LinEq1:  Iter= 18 NonCon=     1 RMS=4.89D-10 Max=1.93D-08 NDo=     1
 LinEq1:  Iter= 19 NonCon=     1 RMS=2.52D-10 Max=5.83D-09 NDo=     1
 LinEq1:  Iter= 20 NonCon=     0 RMS=6.38D-11 Max=6.27D-10 NDo=     1
 Linear equations converged to 1.000D-10 1.000D-09 after    20 iterations.
 End of Minotr F.D. properties file   721 does not exist.
 End of Minotr F.D. properties file   722 does not exist.
 End of Minotr F.D. properties file   788 does not exist.
 Calling FoFJK, ICntrl=  10002127 FMM=F ISym2X=0 I1Cent= 0 IOpClX= 0 NMat=1 NMatS=1 NMatT=0.
 ***** Axes restored to original set *****
 -------------------------------------------------------------------
 Center     Atomic                   Forces (Hartrees/Bohr)
 Number     Number              X              Y              Z
 -------------------------------------------------------------------
      1        6           0.000594118    0.000780293    0.000008194
      2        6           0.000926089    0.000159861    0.000000438
      3        6           0.000205576   -0.000319558    0.000006965
      4        6           0.000189763    0.000483323   -0.000023193
      5        6           0.000304791   -0.000362870   -0.000113168
      6        6          -0.000366484    0.000735836   -0.000020928
      7        6           0.000175813    0.000951606    0.000445782
      8        8          -0.000156863    0.000719366   -0.000130812
      9        7          -0.001308724   -0.000359052   -0.000003481
     10        8           0.000062535   -0.002262262   -0.000177174
     11        1          -0.000164408   -0.000350799    0.000003106
     12        1          -0.000326785   -0.000005492   -0.000001492
     13        1          -0.000190866    0.000217597    0.000000985
     14        1           0.000316094   -0.000338523   -0.000002515
     15        1          -0.000161573    0.000078235   -0.000002547
     16        1           0.000204375   -0.000203298    0.000010883
     17        1          -0.000303451    0.000075737   -0.000001045
 -------------------------------------------------------------------
 Cartesian Forces:  Max     0.002262262 RMS     0.000497660

 GradGradGradGradGradGradGradGradGradGradGradGradGradGradGradGradGradGrad
 Berny optimization.
 Using GEDIIS/GDIIS optimizer.
 FormGI is forming the generalized inverse of G from B-inverse, IUseBI=4.
 Internal  Forces:  Max     0.002313194 RMS     0.000599903
 Search for a local minimum.
 Step number   3 out of a maximum of   86
 All quantities printed in internal units (Hartrees-Bohrs-Radians)
 Mixed Optimization -- En-DIIS/RFO-DIIS
 Swapping is turned off.
 Update second derivatives using D2CorX and points    1    2    3
 DE= -1.72D-05 DEPred=-5.70D-05 R= 3.02D-01
 Trust test= 3.02D-01 RLast= 1.87D-02 DXMaxT set to 3.00D-01
 ITU=  0  1  0
     Eigenvalues ---    0.01253   0.01597   0.01688   0.01837   0.01974
     Eigenvalues ---    0.02072   0.02089   0.02132   0.02170   0.02191
     Eigenvalues ---    0.02238   0.02256   0.02256   0.02304   0.15124
     Eigenvalues ---    0.16000   0.16000   0.16000   0.16000   0.16020
     Eigenvalues ---    0.16204   0.21647   0.22373   0.24341   0.24627
     Eigenvalues ---    0.25000   0.25420   0.33507   0.35137   0.35263
     Eigenvalues ---    0.35422   0.36511   0.36982   0.40957   0.42970
     Eigenvalues ---    0.44652   0.45412   0.46832   0.47134   0.49051
     Eigenvalues ---    0.50724   0.53502   0.54024   0.67946   0.96519
 En-DIIS/RFO-DIIS IScMMF=        0 using points:     3    2
 RFO step:  Lambda=-3.40918368D-05.
 DidBck=T Rises=F RFO-DIIS coefs:    0.57994    0.42006
 Iteration  1 RMS(Cart)=  0.00404898 RMS(Int)=  0.00000788
 Iteration  2 RMS(Cart)=  0.00001027 RMS(Int)=  0.00000148
 Iteration  3 RMS(Cart)=  0.00000000 RMS(Int)=  0.00000148
 Variable       Old X    -DE/DX   Delta X   Delta X   Delta X     New X
                                 (Linear)    (Quad)   (Total)
[...]
 ! D24   D(5,4,9,17)           179.9966         -DE/DX =    0.0                 !
 ! D25   D(4,5,6,1)              0.0001         -DE/DX =    0.0                 !
 ! D26   D(4,5,6,14)           180.0            -DE/DX =    0.0                 !
 ! D27   D(7,5,6,1)           -179.9995         -DE/DX =    0.0                 !
 ! D28   D(7,5,6,14)             0.0005         -DE/DX =    0.0                 !
 ! D29   D(4,5,7,8)            180.0001         -DE/DX =    0.0                 !
 ! D30   D(4,5,7,10)             0.0004         -DE/DX =    0.0                 !
 ! D31   D(6,5,7,8)             -0.0004         -DE/DX =    0.0                 !
 ! D32   D(6,5,7,10)           179.9999         -DE/DX =    0.0                 !
 ! D33   D(5,7,8,15)           180.0004         -DE/DX =    0.0                 !
 ! D34   D(10,7,8,15)            0.0001         -DE/DX =    0.0                 !
 --------------------------------------------------------------------------------
 GradGradGradGradGradGradGradGradGradGradGradGradGradGradGradGradGradGrad

 1\1\ WCSS.PL-BEM-QINLAB\Freq\RB2PLYP-FC\6-31+G(d,p)\C7H7N1O2\PHZD\19-D
 ec-2024\0\\#N Geom=AllCheck Guess=TCheck SCRF=Check GenChk RB2PLYP(FC)
 /6-31+G(d,p) Freq\\[No Title]\\0,1\C,-1.860807203,-1.5186865332,0.0000
 097349\C,-2.5876695897,-0.315763959,0.0000155247\C,-1.9373474456,0.906
 9907631,0.0000206177\C,-0.523894049,0.9871352094,0.0000172747\C,0.2137
 960257,-0.2324676114,0.0000078324\C,-0.4761864964,-1.4637640767,0.0000
 05123\C,1.6801169089,-0.2081779624,-0.00000931\O,2.2526025263,-1.44284
 91289,-0.0000192082\N,0.0814592536,2.2092695085,0.0000386975\O,2.38555
 42261,0.8016132723,-0.0000105707\H,-2.3725355671,-2.4726904144,0.00000
 73499\H,-3.6718055246,-0.3375911973,0.0000185901\H,-2.5106351445,1.828
 2694597,0.0000293123\H,0.1044104661,-2.3765654648,-0.0000017678\H,3.21
 12844534,-1.292015965,-0.0000239757\H,1.0890266266,2.2652324476,0.0000
 096165\H,-0.4749424667,3.0456376524,-0.0000068412\\Version=ES64L-G09Re
 vE.01\State=1-A\HF=-475.2777967\MP2=-475.7633163\RMSD=4.548e-09\RMSF=2
 .010e-05\ZeroPoint=0.1316944\Thermal=0.1398609\Dipole=-0.4594298,0.214
 8788,-0.0000375\DipoleDeriv=-0.5224188,0.2640751,-0.0000041,0.1885156,
 -0.1675654,-0.0000075,-0.0000133,0.0000232,-0.1928461,0.1630529,0.0096
 756,0.0000004,-0.2689522,0.4679107,0.0000027,-0.0000097,0.0000129,-0.1
 029845,-0.0994187,-0.6359025,-0.0000088,-0.0239726,-0.2064918,-0.00000
 19,0.0000345,-0.0000464,-0.192329,0.3263304,0.811244,0.0000457,0.30765
 92,1.3028612,0.0000107,-0.0000657,0.000121,0.1052371,-0.9717744,0.3067
 773,0.0000078,-0.3257135,-0.3547762,0.0000051,0.0000901,-0.0001157,-0.
 0574017,0.506565,-0.1229469,-0.0000232,0.4171105,0.0228418,0.0000076,-
 0.0000078,0.000011,-0.0946732,2.2942539,-0.3346722,-0.0000231,-0.14313
 61,1.5446783,0.0000088,-0.0000346,0.0000263,0.300578,-0.8672138,0.5504
 183,0.0000061,0.608959,-1.0861277,-0.0000084,0.0000047,-0.0000006,-0.3
 78108,-0.4213541,-0.5519984,-0.0000074,-0.3197917,-1.3073522,-0.000027
 7,-0.0000077,-0.0000842,-0.5648883,-1.1756827,-0.2512461,0.0000065,-0.
 3453501,-0.871932,0.000002,0.000012,-0.0000092,-0.369154,0.0153991,-0.
 0614594,-0.0000002,-0.0723471,-0.0661621,-0.0000011,0.0000004,-0.00000
 2,0.157577,-0.1079115,-0.0042849,0.0000016,-0.0031164,0.0815481,-0.000
 0001,0.0000025,-0.0000019,0.1338538,0.0201128,0.0457357,0.000001,0.082
 805,-0.0893045,-0.0000011,-0.0000005,-0.0000013,0.146635,0.080044,0.05
 02669,-0.000001,0.0449858,0.0049497,0.0000014,-0.0000056,0.0000067,0.1
 327917,0.3154927,-0.0838405,0.0000003,-0.1312794,0.2786707,0.0000007,-
 0.0000005,-0.0000005,0.3420243,0.3249166,-0.0078516,0.0000035,-0.01645
 83,0.2148854,0.0000026,0.0000045,0.000026,0.304962,0.1196066,0.0160095
 ,-0.000005,0.0000824,0.231366,0.0000061,-0.0000033,0.0000346,0.3287257
 \Polar=127.3922095,4.2587365,115.4007473,-0.0003761,0.0004239,54.26926
 91\PG=C01 [X(C7H7N1O2)]\NImag=1\\0.70629296,0.04555740,0.72828967,-0.0
 0000264,0.00000194,0.10107815,-0.17902867,0.11830596,0.00000054,0.7483
 8837,0.05790587,-0.27464831,-0.00000098,0.01730767,0.68890260,0.000001
 65,-0.00000076,-0.04579935,-0.00000118,0.00000268,0.11924646,0.0572281
 2,-0.01583293,0.00000065,-0.18410381,-0.07529032,-0.00000111,0.6677366
 9,0.02143755,-0.05498238,0.00000007,-0.13291687,-0.32436002,-0.0000016
 8,0.00055144,0.76839225,0.00000082,0.00000016,-0.00258827,-0.00000022,
 -0.00000154,-0.03877482,-0.00000202,0.00000470,0.09545964,-0.05210259,
 0.02944355,-0.00000033,-0.01814751,-0.07620432,0.00000048,-0.29406304,
 0.03605852,0.00000115,0.68638803,0.02242145,-0.00456293,0.00000004,-0.
 03677838,0.02145274,0.00000017,-0.01865060,-0.12298319,0.00000008,0.03
 209352,0.72987506,-0.00000058,-0.00000009,0.00600820,-0.00000043,0.000
 00010,-0.01252299,0.00000145,-0.00000004,-0.04376092,-0.00000115,0.000
 00387,0.12021322,-0.03714884,-0.02328341,-0.00000052,-0.00185974,-0.01
 271102,0.00000059,-0.01340759,0.02571040,0.00000073,-0.18232564,0.0788
 1496,-0.00000019,0.63841755,-0.06111465,0.02018509,0.00000082,0.005700
 10,-0.04824758,-0.00000078,0.04700561,0.02730000,-0.00000064,0.0473036
 4,-0.23225567,-0.00000059,0.01258519,0.69142716,0.00000064,0.00000044,
 -0.00405808,-0.00000006,0.00000001,0.00609744,-0.00000016,-0.00000047,
 -0.00913928,0.00000123,-0.00000124,-0.03117146,-0.00000408,0.00000311,
 0.08368408,-0.36863354,-0.04023951,0.00000188,-0.03203852,0.07059850,-
 0.00000068,-0.04216826,-0.02535475,-0.00000049,0.06602072,-0.00792317,
 0.00000084,-0.15206650,-0.05731925,-0.00000026,0.73509642,0.01929511,-
 0.12716378,-0.00000009,0.02792652,0.03094852,-0.00000038,-0.02110347,-
 0.01587392,-0.00000055,0.02298567,-0.05008335,-0.00000011,-0.09503251,
 -0.27471128,-0.00000116,-0.04578920,0.70218694,0.00000065,-0.00000051,
 -0.04433960,0.00000023,-0.00000016,-0.00487004,0.00000046,0.00000011,0
 .00706929,-0.00000011,-0.00000007,-0.01496317,-0.00000019,-0.00000077,
 -0.03183172,-0.00000257,0.00000336,0.11540127,0.01912762,-0.00753941,0
 .00000030,0.00115999,0.01369471,-0.00000036,-0.00881975,-0.00126594,-0
 .00000017,-0.00797499,0.03885515,0.00000069,-0.21210307,0.00432377,0.0
 0000210,-0.03440374,-0.02617807,0.00000020,0.73325459,-0.00233397,-0.0
 0831575,-0.00000009,0.00029396,-0.00071272,0.00000003,0.00104389,-0.00
 668726,-0.00000018,0.03386103,0.01998775,-0.00000002,0.01635629,-0.103
 82906,-0.00000038,-0.03196313,0.00861136,0.00000047,0.15135291,0.77808
 595,-0.00000015,-0.00000003,0.00846095,-0.00000003,-0.00000013,-0.0017
 8271,0.00000020,0.00000011,0.00758168,-0.00000020,-0.00000022,-0.00723
 596,0.00000216,-0.00000021,-0.06217072,0.00000004,0.00000023,-0.008313
 31,-0.00000460,0.00000124,0.19658738,-0.00182175,0.00174105,0.00000003
 ,-0.00074508,-0.00090692,-0.00000004,0.00006142,0.00210118,0.,-0.00668
 750,-0.00999518,0.00000002,-0.03185222,0.04241119,0.00000050,-0.003123
 06,0.00300713,0.00000011,-0.15677588,0.07952410,0.00000121,0.65404073,
 0.00336745,0.00037513,0.00000007,-0.00001100,0.00143236,-0.00000009,-0
 .00039003,0.00082760,-0.00000005,-0.00215361,0.00141271,0.00000016,0.0
 1880348,-0.00339217,-0.00000018,-0.00406358,-0.00621321,0.,0.03653319,
 -0.22184533,-0.00000109,0.00136575,0.38621851,-0.00000017,-0.00000006,
 -0.00123068,0.00000002,0.00000002,0.00005514,0.00000007,0.00000004,-0.
 00065159,0.00000010,0.00000015,0.00228353,0.00000050,-0.00000055,0.010
 20751,0.00000014,0.00000008,0.00180066,0.00000094,-0.00000120,-0.05999
 164,-0.00000397,0.00000164,0.03263910,0.00925925,-0.00833099,-0.000000
 15,-0.00444647,0.01652210,0.00000005,-0.03898715,-0.05754117,-0.000001
 26,-0.17930022,-0.08871596,-0.00000228,0.03040456,0.01809524,0.0000000
 8,-0.01457165,-0.00203330,0.00000018,-0.01895933,-0.00882694,0.0000001
 6,0.00213616,0.00316431,-0.00000008,0.87568817,0.00109779,-0.00778795,
 -0.00000031,0.00585383,0.00761364,0.00000042,-0.02623443,-0.00963963,-
 0.00000048,-0.09479829,-0.32171466,-0.00000434,0.00267989,-0.04776511,
 -0.00000087,0.00020687,0.00045186,-0.00000011,-0.02082003,-0.00522224,
 0.00000008,0.00338511,-0.00255407,-0.00000005,-0.05217223,0.80502409,0
 .00000011,-0.00000054,-0.00204832,0.00000032,0.00000057,0.00563658,-0.
 00000117,-0.00000026,0.00492912,0.00000010,0.00000148,-0.02134510,0.00
 000157,-0.00000087,-0.00041665,-0.00000041,0.00000015,0.00562611,-0.00
 000104,-0.00000046,0.00034635,0.00000024,-0.00000026,-0.00038770,-0.00
 000121,-0.00001965,-0.00282452,-0.00554600,-0.00039196,-0.00000009,-0.
 00001114,-0.00423292,0.00000009,0.00281904,0.00062739,0.00000006,-0.00
 021053,-0.01008711,-0.00000009,-0.03597112,-0.04500147,0.00000029,-0.0
 0253456,0.00945698,0.00000003,-0.29721144,-0.24943649,0.00000098,0.035
 07119,0.00204594,-0.00000015,0.00037749,0.01485146,0.00000006,0.315462
 80,-0.00679574,0.00388919,-0.00000007,0.00013445,-0.00671933,0.0000001
 2,0.00596742,0.00328541,0.00000021,-0.00666455,-0.02128048,-0.00000045
 ,-0.03852200,-0.00451853,0.00000026,0.00605967,0.00615841,-0.00000015,
 -0.23875917,-0.44895346,0.00000045,-0.01759111,-0.10294411,-0.00000040
 ,0.01943994,0.00345614,0.00000063,0.28825596,0.55690264,0.00000015,0.0
 0000008,-0.00151903,0.,-0.00000001,0.00028389,-0.00000010,-0.00000006,
 -0.00074785,0.00000005,-0.00000005,-0.00006032,0.00000033,0.00000040,0
 .01754432,0.00000001,-0.00000016,0.00453320,0.00000090,0.00000047,-0.0
 7308050,-0.00000017,-0.00000056,0.02632507,0.00000014,-0.00000019,0.00
 232379,-0.00000125,-0.00000018,0.03357465,-0.12403351,-0.12108571,-0.0
 0000016,0.01190947,0.01705894,-0.00000009,-0.00154838,0.00305889,-0.00
 000004,-0.00111210,0.00088849,0.00000011,-0.00510215,0.00184124,0.,-0.
 01035471,-0.02997165,-0.00000005,0.00082088,-0.00175553,-0.00000002,-0
 .00024269,0.00030047,0.00000002,0.00040932,-0.00013952,0.,-0.00101912,
 -0.00022533,0.,0.12830729,-0.12137307,-0.28591139,-0.00000050,-0.01549
 480,-0.01790450,-0.00000023,0.00418158,-0.00236989,-0.00000016,0.00092
 292,0.00010438,0.00000016,0.00052376,0.00154795,-0.00000013,0.00270886
 ,0.00345285,0.00000009,0.00047332,-0.00002036,0.,-0.00019340,0.0001311
 3,0.00000003,-0.00025343,0.00012133,0.00000003,-0.00013237,0.00002934,
 -0.00000003,0.12930168,0.30027158,-0.00000032,-0.00000074,-0.02826924,
 -0.00000010,-0.00000007,-0.00089810,0.00000005,-0.00000009,0.00639966,
 0.00000005,-0.00000002,-0.00101852,0.00000004,0.,0.00796807,0.00000006
 ,0.00000020,-0.00058319,0.00000002,0.,0.00134363,0.,0.,-0.00011053,0.,
 -0.00000003,-0.00051130,0.,0.,-0.00058997,0.00000025,0.00000073,0.0230
 1685,-0.01110125,-0.00391919,0.00000006,-0.34639628,-0.00598969,0.0000
 0082,-0.01035320,0.00279672,0.,0.00124892,-0.00212673,0.,0.00071666,-0
 .00007802,-0.00000002,0.00023969,0.00351450,0.00000007,0.00020357,0.00
 003491,-0.00000001,-0.00019981,0.00005868,0.,-0.00096912,-0.00003077,0
 .,-0.00016812,-0.00004508,0.,0.00073848,0.00026461,0.,0.36570972,0.027
 53842,0.00665005,-0.00000002,-0.00505560,-0.06115773,-0.00000010,-0.02
 900326,0.00366926,0.00000009,-0.00218345,-0.00513645,-0.00000010,-0.00
 055745,-0.00120897,-0.00000001,0.00306086,-0.00490005,-0.00000003,0.00
 041796,-0.00022515,0.,-0.00000460,0.00022860,0.,-0.00140724,0.00071423
 ,0.00000008,-0.00007165,0.00002938,0.,-0.00051012,0.00080562,0.0000000
 1,0.00628495,0.05984918,0.00000013,0.00000002,0.00245563,0.00000093,-0
 .00000005,-0.03670731,-0.00000019,-0.00000013,0.00230841,0.00000019,-0
 .00000018,0.00930765,0.00000002,-0.00000001,-0.00118139,-0.00000005,0.
 00000004,0.00706175,-0.00000002,0.00000004,-0.00109490,0.,-0.00000001,
 0.00018154,0.00000002,0.00000003,-0.00018145,0.,-0.00000001,0.00013125
 ,-0.00000002,0.,-0.00298692,-0.00000094,0.00000010,0.02547693,-0.00062
 197,-0.00318566,0.00000032,0.01185018,-0.01479299,-0.00000049,-0.14020
 255,0.12764246,0.00000098,-0.01211332,0.02906045,0.00000066,-0.0048950
 5,-0.00216477,-0.00000019,-0.00118118,-0.00122557,0.00000017,0.0003467
 8,0.00167734,0.,-0.00083677,0.00005085,0.00000006,0.00180986,0.0009569
 3,-0.00000017,-0.00009578,-0.00030245,-0.00000005,0.00046251,-0.000779
 84,0.00000002,0.00087829,0.00020426,-0.00000005,0.14571726,-0.00432349
 ,-0.00275671,-0.00000047,0.01775036,-0.01918607,0.00000029,0.12794624,
 -0.26141166,-0.00000186,-0.00423928,0.00159434,-0.00000030,-0.00032644
 ,0.00134090,0.00000019,-0.00087950,0.00008507,-0.00000019,-0.00100750,
 -0.00013900,-0.00000001,0.00017061,-0.00003758,-0.00000006,-0.00097840
 ,0.00230700,-0.00000006,0.00030091,0.00035889,0.00000007,0.00091843,-0
 .00103989,-0.00000002,-0.00028475,0.00082591,0.00000009,-0.13584065,0.
 27774777,0.00000002,-0.00000008,0.00802805,0.00000009,0.00000002,0.000
 34637,0.00000118,-0.00000233,-0.02875841,0.00000018,-0.00000002,0.0013
 8294,0.,-0.00000003,0.00569993,-0.00000005,0.00000005,-0.00126148,0.,0
 .00000002,0.00007835,0.,0.,-0.00008848,0.00000011,-0.00000011,-0.00221
 039,0.,0.,-0.00000586,0.,0.,0.00053246,-0.00000001,0.00000003,-0.00425
 469,-0.00000145,0.00000231,0.02133960,-0.01034002,0.02741384,0.0000002
 0,-0.00577942,-0.00116283,0.00000003,-0.00059220,-0.00104686,0.0000000
 3,-0.00156133,-0.00330294,0.00000003,0.01133198,-0.01362171,-0.0000001
 4,-0.14242855,0.13417823,0.00000110,0.00148556,-0.00174159,-0.00000001
 ,-0.00529998,-0.00080739,0.00000007,0.00059358,-0.00073763,0.00000003,
 0.00018079,0.00090256,0.,0.00088619,-0.00029713,-0.00000003,-0.0006394
 4,0.00138683,-0.00000001,0.00008367,0.00009123,0.,0.15204162,-0.003726
 96,0.00639421,-0.00000002,-0.00113792,0.00110369,0.00000001,-0.0005005
 4,0.00016925,0.,-0.00416913,-0.00232777,-0.00000011,0.01529087,-0.0185
 5841,-0.00000015,0.13139646,-0.27035530,-0.00000165,0.00233501,-0.0029
 8816,-0.00000003,0.00042257,0.00159301,0.,0.00116264,-0.00087492,0.000
 00004,-0.00022679,0.00099838,0.00000001,0.00027839,0.00076149,0.000000
 03,-0.00028828,0.00020840,0.00000002,0.00011082,0.00000593,0.,-0.14094
 719,0.28346067,-0.00000014,-0.00000005,0.00334793,0.00000004,-0.000000
 13,0.00850275,0.00000015,0.00000016,-0.00147498,-0.00000025,0.00000005
 ,0.00637154,-0.00000007,-0.00000009,0.00107057,0.00000137,-0.00000169,
 -0.03561483,0.00000003,-0.00000002,-0.00317256,0.00000008,0.00000004,0
 .00082733,0.00000005,-0.00000002,0.00029631,0.,-0.00000002,0.00048220,
 0.,0.00000005,-0.00418610,0.,0.,-0.00025419,0.00000004,-0.00000004,-0.
 00070693,-0.00000123,0.00000183,0.02495150,0.00042813,-0.00023400,-0.0
 0000013,0.00011975,0.00027451,0.00000016,-0.00015586,0.00036746,0.0000
 0009,-0.00085187,-0.00007109,-0.00000010,0.00242473,0.00309218,0.00000
 011,0.00044140,-0.00024172,-0.00000008,-0.03214086,0.00426520,0.000000
 30,-0.48265558,-0.05473880,0.00000239,0.00041345,-0.00058875,-0.000000
 06,0.00251662,-0.00886642,-0.00000008,0.00002277,0.00002574,0.,0.00003
 302,0.00000332,0.00000002,-0.00005700,-0.00003358,0.,-0.00009281,0.000
 00824,-0.00000003,0.50999288,-0.00024808,0.00042308,-0.00000006,-0.000
 16115,-0.00015515,0.00000008,0.00011170,-0.00045920,0.00000003,0.00159
 409,0.00085084,-0.00000004,0.00123565,-0.00691084,-0.00000009,-0.00095
 458,-0.00068332,0.,0.05559754,0.00645368,-0.00000034,-0.10582327,-0.05
 992921,0.00000044,-0.00050781,0.00024160,0.,-0.00759411,0.00131490,0.0
 0000007,-0.00003108,-0.00001969,0.,-0.00004262,0.00003703,0.,0.0001358
 7,0.00001600,0.,0.00007025,0.00075941,-0.00000001,0.05615160,0.0586941
 5,0.,-0.00000003,0.00044636,0.,0.00000001,-0.00002237,-0.00000005,-0.0
 0000009,-0.00031265,0.00000021,-0.00000005,0.00117660,0.00000002,-0.00
 000007,0.00360151,-0.00000009,0.00000007,-0.00065534,0.00000051,-0.000
 00008,0.00338406,0.00000214,0.00000019,-0.01267004,-0.00000002,0.,-0.0
 0007855,-0.00000008,0.00000009,-0.00562168,0.,-0.00000001,0.00001055,0
 .,0.,-0.00002802,0.,0.00000002,-0.00002163,-0.00000002,0.00000001,-0.0
 0044217,-0.00000261,-0.00000008,0.01115309,-0.00228718,0.00215018,0.00
 000016,-0.00062151,-0.00321342,-0.00000017,0.00581483,0.00131491,0.000
 00006,-0.01212162,-0.01054415,0.00000044,-0.00614055,0.00122381,-0.000
 00020,0.00137839,0.00161829,0.00000003,0.01543925,0.01041912,-0.000000
 05,-0.00148529,-0.00443167,0.00000012,-0.45687346,-0.02323024,0.000011
 91,-0.01193183,-0.00750701,-0.00000008,-0.00008967,0.00003649,0.,0.000
 08597,-0.00010924,-0.00000002,-0.00007287,0.00006343,0.00000002,0.0002
 3202,0.00023918,0.,-0.00052103,0.00063247,0.,0.47017343,0.00194926,-0.
 00107217,-0.00000025,-0.00156868,0.00288240,0.00000026,-0.00271259,-0.
 00746168,0.00000015,-0.03305970,0.00898933,0.00000087,0.00414735,0.000
 50655,0.00000026,-0.00159243,-0.00139708,-0.00000019,-0.00843317,-0.01
 374670,-0.00000003,0.00052991,0.00404837,-0.00000005,-0.02497212,-0.07
 683039,0.00000214,0.00231115,0.00725284,0.00000008,0.00013082,-0.00002
 590,-0.00000001,-0.00021875,-0.00043693,0.00000004,-0.00010990,0.00019
 774,0.,-0.00007408,-0.00004612,-0.00000003,0.00048282,-0.00055791,0.,0
 .03631540,0.07028978,-0.00000017,0.00000009,0.00008732,-0.00000009,-0.
 00000019,0.00227341,0.00000023,-0.00000021,0.00392469,-0.00000168,-0.0
 0000104,-0.00701577,-0.00000020,0.00000023,0.00010180,0.00000008,0.000
 00016,-0.00075959,0.00000009,-0.00000003,-0.00077022,-0.00000003,0.000
 00005,0.00132015,0.00001669,0.00000336,0.00300151,0.00000002,-0.000000
 07,-0.00422827,0.,0.,-0.00015967,0.,-0.00000002,-0.00040422,0.00000005
 ,0.,-0.00085226,-0.00000001,0.00000002,-0.00002437,0.00000002,0.,0.000
 10414,-0.00001264,-0.00000176,0.00969429,0.00032924,-0.00056921,-0.000
 00012,-0.00024960,0.00114212,0.00000024,0.00074170,-0.00354133,0.00000
 029,0.01491460,-0.01393870,0.00000057,-0.00042302,-0.00428209,0.000000
 17,0.00032765,-0.00040695,-0.00000022,-0.00344919,-0.00277110,0.000000
 03,0.00041612,0.00090595,-0.00000006,-0.20698443,0.18972004,-0.0000102
 9,-0.00172830,0.00451886,0.00000016,-0.00005458,0.00008507,-0.00000002
 ,-0.00002711,0.00000599,0.00000001,-0.00107208,0.00067238,-0.00000006,
 -0.00010165,-0.00024736,-0.00000003,0.00008227,-0.00016647,0.00000001,
 -0.00097888,0.02687467,-0.00000236,0.19825726,-0.00065435,0.00099494,-
 0.00000009,-0.00014844,-0.00124455,-0.00000003,0.00291026,0.00258505,0
 .00000004,0.01920938,-0.02392266,0.00000103,-0.00571502,-0.00091003,0.
 00000040,0.00204789,-0.00051372,-0.00000020,0.00041973,-0.00045353,0.0
 0000001,-0.00014412,0.00064826,-0.00000004,0.18735537,-0.34754092,0.00
 001698,-0.00067493,0.00074037,0.00000006,-0.00005841,0.00006594,0.0000
 0002,0.00006952,0.00004760,0.00000003,-0.00143716,0.00009135,0.0000001
 3,-0.00030360,-0.00030377,-0.00000003,0.00010328,-0.00007538,0.,-0.004
 97753,0.00740786,-0.00000058,-0.19800187,0.36238320,0.00000001,0.00000
 016,-0.00006000,-0.00000005,-0.00000015,-0.00106435,0.00000036,0.00000
 019,-0.00146371,-0.00000002,-0.00000296,-0.00764947,-0.00000071,0.0000
 0007,0.00399407,0.00000018,-0.00000019,0.00169999,0.00000042,0.0000002
 1,-0.00016989,-0.00000010,0.00000007,-0.00050938,-0.00001250,0.0000222
 5,0.00784421,0.00000014,-0.00000038,0.00065511,0.,0.,0.00004232,0.,-0.
 00000001,0.00016990,0.00000012,0.00000004,0.00075244,-0.00000002,-0.00
 000004,0.00002599,0.00000001,0.,-0.00002386,0.00000044,-0.00000149,-0.
 00629293,0.00001169,-0.00001775,0.00204958\\0.00000010,0.00001245,0.,0
 .00000263,-0.00001031,-0.00000004,0.00001455,0.00000035,0.,-0.00000249
 ,-0.00001523,0.00000013,-0.00001256,0.00001864,0.00000017,0.00000684,0
 .00001237,0.00000016,-0.00002393,-0.00010833,-0.00000080,-0.00001397,0
 .00006929,0.00000011,0.00000041,0.00000210,-0.00000075,0.00003061,0.00
 002769,0.00000025,0.00000044,-0.00000579,0.,-0.00000218,0.00000308,0.0
 0000002,-0.00000430,0.00000281,0.00000001,0.00000033,-0.00000503,0.,0.
 00000638,-0.00000203,0.00000008,0.00000124,-0.00000097,0.00000045,-0.0
 0000410,-0.00000109,0.00000023\\\@


 THE WORLD IS MADE UP OF THE WILLS, THE WON'TS, AND THE CANT'S:
 THE WILLS DO EVERYTHING,
 THE WON'TS DO NOTHING,
 THE CAN'TS CAN'T DO ANYTHING.

                               -- FROM WALT DISNEY'S "BLACK HOLE"
 Job cpu time:       0 days  4 hours 17 minutes 13.5 seconds.
 File lengths (MBytes):  RWF=  13539 Int=      0 D2E=      0 Chk=      6 Scr=      1
 Normal termination of Gaussian 09 at Thu Dec 19 11:37:05 2024.
