 Entering Gaussian System, Link 0=g09
 Input=b3lypD3Anthranilicyang.gjf
 Output=b3lypD3Anthranilicyang.log
 Initial command:
 /home/c612/g09E/g09/l1.exe "/mnt/ja_sm883/scratch/Gau-1846438.inp" -scrdir="/mnt/ja_sm883/scratch/"
 Default is to use a total of  18 processors:
                               18 via shared-memory
                                1 via Linda
 Entering Link 1 = /home/c612/g09E/g09/l1.exe PID=   1846440.
  
 Copyright (c) 1988,1990,1992,1993,1995,1998,2003,2009,2015,
            Gaussian, Inc.  All Rights Reserved.
  
 This is part of the Gaussian(R) 09 program.  It is based on
 the Gaussian(R) 03 system (copyright 2003, Gaussian, Inc.),
 the Gaussian(R) 98 system (copyright 1998, Gaussian, Inc.),
 the Gaussian(R) 94 system (copyright 1995, Gaussian, Inc.),
 the Gaussian 92(TM) system (copyright 1992, Gaussian, Inc.),
 the Gaussian 90(TM) system (copyright 1990, Gaussian, Inc.),
 the Gaussian 88(TM) system (copyright 1988, Gaussian, Inc.),
 the Gaussian 86(TM) system (copyright 1986, Carnegie Mellon
 University), and the Gaussian 82(TM) system (copyright 1983,
 Carnegie Mellon University). Gaussian is a federally registered
 trademark of Gaussian, Inc.
  
 This software contains proprietary and confidential information,
 including trade secrets, belonging to Gaussian, Inc.
  
 This software is provided under written license and may be
 used, copied, transmitted, or stored only in accord with that
 written license.
  
 The following legend is applicable only to US Government
 contracts under FAR:
  
                    RESTRICTED RIGHTS LEGEND
  
 Use, reproduction and disclosure by the US Government is
 subject to restrictions as set forth in subparagraphs (a)
 and (c) of the Commercial Computer Software - Restricted
 Rights clause in FAR 52.227-19.
  
 Gaussian, Inc.
 340 Quinnipiac St., Bldg. 40, Wallingford CT 06492
  
  
 ---------------------------------------------------------------
 Warning -- This program may not be used in any manner that
 competes with the business of Gaussian, Inc. or will provide
 assistance to any competitor of Gaussian, Inc.  The licensee
 of this program is prohibited from giving any competitor of
 Gaussian, Inc. access to this program.  By using this program,
 the user acknowledges that Gaussian, Inc. is engaged in the
 business of creating and licensing software in the field of
 computational chemistry and represents and warrants to the
 licensee that it is not a competitor of Gaussian, Inc. and that
 it will not use this program in any manner prohibited above.
 ---------------------------------------------------------------
  

 Cite this work as:
 Gaussian 09, Revision E.01,
 M. J. Frisch, G. W. Trucks, H. B. Schlegel, G. E. Scuseria, 
 M. A. Robb, J. R. Cheeseman, G. Scalmani, V. Barone, B. Mennucci, 
 G. A. Petersson, H. Nakatsuji, M. Caricato, X. Li, H. P. Hratchian, 
 A. F. Izmaylov, J. Bloino, G. Zheng, J. L. Sonnenberg, M. Hada, 
 M. Ehara, K. Toyota, R. Fukuda, J. Hasegawa, M. Ishida, T. Nakajima, 
 Y. Honda, O. Kitao, H. Nakai, T. Vreven, J. A. Montgomery, Jr., 
 J. E. Peralta, F. Ogliaro, M. Bearpark, J. J. Heyd, E. Brothers, 
 K. N. Kudin, V. N. Staroverov, T. Keith, R. Kobayashi, J. Normand, 
 K. Raghavachari, A. Rendell, J. C. Burant, S. S. Iyengar, J. Tomasi, 
 M. Cossi, N. Rega, J. M. Millam, M. Klene, J. E. Knox, J. B. Cross, 
 V. Bakken, C. Adamo, J. Jaramillo, R. Gomperts, R. E. Stratmann, 
 O. Yazyev, A. J. Austin, R. Cammi, C. Pomelli, J. W. Ochterski, 
 R. L. Martin, K. Morokuma, V. G. Zakrzewski, G. A. Voth, 
 P. Salvador, J. J. Dannenberg, S. Dapprich, A. D. Daniels, 
 O. Farkas, J. B. Foresman, J. V. Ortiz, J. Cioslowski, 
 and D. J. Fox, Gaussian, Inc., Wallingford CT, 2013.
 
 ******************************************
 Gaussian 09:  ES64L-G09RevE.01 30-Nov-2015
                17-Dec-2024 
 ******************************************
 %chk=b3lypD3Anthranilicyang.chk
 ----------------------------------------------------
 # opt freq b3lyp/6-31+g(d,p) EmpiricalDispersion=GD3
 ----------------------------------------------------
 1/14=-1,18=20,19=15,26=3,38=1/1,3;
 2/9=110,12=2,17=6,18=5,40=1/2;
 3/5=1,6=6,7=111,11=2,16=1,25=1,30=1,71=1,74=-5,124=31/1,2,3;
 4//1;
 5/5=2,38=5/2;
 6/7=2,8=2,9=2,10=2,28=1/1;
 7//1,2,3,16;
 1/14=-1,18=20,19=15,26=3/3(2);
 2/9=110/2;
 99//99;
 2/9=110/2;
 3/5=1,6=6,7=111,11=2,16=1,25=1,30=1,71=1,74=-5,124=31/1,2,3;
 4/5=5,16=3,69=1/1;
 5/5=2,38=5/2;
 7//1,2,3,16;
 1/14=-1,18=20,19=15,26=3/3(-5);
 2/9=110/2;
 6/7=2,8=2,9=2,10=2,19=2,28=1/1;
 99/9=1/99;
 ----------
 [No Title]
 ----------
 Symbolic Z-matrix:
 Charge =  1 Multiplicity = 1
 C                     1.94172  -1.46615   0. 
 C                     2.61871  -0.24746  -0.00001 
 C                     1.90672   0.95473   0. 
 C                     0.52312   0.91213   0.00001 
 C                    -0.18408  -0.30273   0.00004 
 C                     0.54974  -1.49548   0.00002 
 C                    -1.6661   -0.30605   0.00012 
 O                    -2.21307  -1.50482  -0.00015 
 N                    -0.25197   2.16658  -0.00003 
 O                    -2.34129   0.72879   0.00007 
 H                     2.49908  -2.39715  -0.00001 
 H                     3.70381  -0.22433  -0.00002 
 H                     2.43446   1.90495  -0.00002 
 H                     0.01888  -2.4411    0.00004 
 H                    -3.18236  -1.41785  -0.00023 
 H                    -0.06343   2.73668  -0.82887 
 H                    -1.2872    1.85039  -0.00012 
 H                    -0.06354   2.73666   0.82886 
 

 GradGradGradGradGradGradGradGradGradGradGradGradGradGradGradGradGradGrad
 Berny optimization.
 Initialization pass.
                           ----------------------------
                           !    Initial Parameters    !
                           ! (Angstroms and Degrees)  !
 --------------------------                            --------------------------
 ! Name  Definition              Value          Derivative Info.                !
 --------------------------------------------------------------------------------
 ! R1    R(1,2)                  1.3941         estimate D2E/DX2                !
 ! R2    R(1,6)                  1.3923         estimate D2E/DX2                !
 ! R3    R(1,11)                 1.0851         estimate D2E/DX2                !
 ! R4    R(2,3)                  1.3972         estimate D2E/DX2                !
 ! R5    R(2,12)                 1.0854         estimate D2E/DX2                !
 ! R6    R(3,4)                  1.3843         estimate D2E/DX2                !
 ! R7    R(3,13)                 1.0869         estimate D2E/DX2                !
 ! R8    R(4,5)                  1.4057         estimate D2E/DX2                !
 ! R9    R(4,9)                  1.4746         estimate D2E/DX2                !
 ! R10   R(5,6)                  1.4004         estimate D2E/DX2                !
 ! R11   R(5,7)                  1.482          estimate D2E/DX2                !
 ! R12   R(6,14)                 1.0844         estimate D2E/DX2                !
 ! R13   R(7,8)                  1.3177         estimate D2E/DX2                !
 ! R14   R(7,10)                 1.2356         estimate D2E/DX2                !
 ! R15   R(8,15)                 0.9732         estimate D2E/DX2                !
 ! R16   R(9,16)                 1.0235         estimate D2E/DX2                !
 ! R17   R(9,17)                 1.0824         estimate D2E/DX2                !
 ! R18   R(9,18)                 1.0235         estimate D2E/DX2                !
 ! A1    A(2,1,6)              120.2596         estimate D2E/DX2                !
 ! A2    A(2,1,11)             120.0399         estimate D2E/DX2                !
 ! A3    A(6,1,11)             119.7005         estimate D2E/DX2                !
 ! A4    A(1,2,3)              120.3121         estimate D2E/DX2                !
 ! A5    A(1,2,12)             120.2739         estimate D2E/DX2                !
 ! A6    A(3,2,12)             119.414          estimate D2E/DX2                !
 ! A7    A(2,3,4)              118.8723         estimate D2E/DX2                !
 ! A8    A(2,3,13)             120.3173         estimate D2E/DX2                !
 ! A9    A(4,3,13)             120.8104         estimate D2E/DX2                !
 ! A10   A(3,4,5)              121.9677         estimate D2E/DX2                !
 ! A11   A(3,4,9)              119.9476         estimate D2E/DX2                !
 ! A12   A(5,4,9)              118.0847         estimate D2E/DX2                !
 ! A13   A(4,5,6)              118.1946         estimate D2E/DX2                !
 ! A14   A(4,5,7)              120.3324         estimate D2E/DX2                !
 ! A15   A(6,5,7)              121.473          estimate D2E/DX2                !
 ! A16   A(1,6,5)              120.3938         estimate D2E/DX2                !
 ! A17   A(1,6,14)             120.5164         estimate D2E/DX2                !
 ! A18   A(5,6,14)             119.0898         estimate D2E/DX2                !
 ! A19   A(5,7,8)              114.654          estimate D2E/DX2                !
 ! A20   A(5,7,10)             122.9946         estimate D2E/DX2                !
 ! A21   A(8,7,10)             122.3514         estimate D2E/DX2                !
 ! A22   A(7,8,15)             109.399          estimate D2E/DX2                !
 ! A23   A(4,9,16)             112.1508         estimate D2E/DX2                !
 ! A24   A(4,9,17)             104.727          estimate D2E/DX2                !
 ! A25   A(4,9,18)             112.1511         estimate D2E/DX2                !
 ! A26   A(16,9,17)            109.8046         estimate D2E/DX2                !
 ! A27   A(16,9,18)            108.1598         estimate D2E/DX2                !
 ! A28   A(17,9,18)            109.8065         estimate D2E/DX2                !
 ! D1    D(6,1,2,3)             -0.0004         estimate D2E/DX2                !
 ! D2    D(6,1,2,12)          -180.0            estimate D2E/DX2                !
 ! D3    D(11,1,2,3)          -180.0            estimate D2E/DX2                !
 ! D4    D(11,1,2,12)            0.0004         estimate D2E/DX2                !
 ! D5    D(2,1,6,5)             -0.0002         estimate D2E/DX2                !
 ! D6    D(2,1,6,14)          -179.9991         estimate D2E/DX2                !
 ! D7    D(11,1,6,5)           179.9994         estimate D2E/DX2                !
 ! D8    D(11,1,6,14)            0.0005         estimate D2E/DX2                !
 ! D9    D(1,2,3,4)             -0.0002         estimate D2E/DX2                !
 ! D10   D(1,2,3,13)          -179.9991         estimate D2E/DX2                !
 ! D11   D(12,2,3,4)           179.9994         estimate D2E/DX2                !
 ! D12   D(12,2,3,13)            0.0004         estimate D2E/DX2                !
 ! D13   D(2,3,4,5)              0.0014         estimate D2E/DX2                !
 ! D14   D(2,3,4,9)           -179.9979         estimate D2E/DX2                !
 ! D15   D(13,3,4,5)          -179.9997         estimate D2E/DX2                !
 ! D16   D(13,3,4,9)             0.001          estimate D2E/DX2                !
 ! D17   D(3,4,5,6)             -0.002          estimate D2E/DX2                !
 ! D18   D(3,4,5,7)            179.9969         estimate D2E/DX2                !
 ! D19   D(9,4,5,6)            179.9973         estimate D2E/DX2                !
 ! D20   D(9,4,5,7)             -0.0038         estimate D2E/DX2                !
 ! D21   D(3,4,9,16)            60.9655         estimate D2E/DX2                !
 ! D22   D(3,4,9,17)           179.9939         estimate D2E/DX2                !
 ! D23   D(3,4,9,18)           -60.9754         estimate D2E/DX2                !
 ! D24   D(5,4,9,16)          -119.0338         estimate D2E/DX2                !
 ! D25   D(5,4,9,17)            -0.0055         estimate D2E/DX2                !
 ! D26   D(5,4,9,18)           119.0253         estimate D2E/DX2                !
 ! D27   D(4,5,6,1)              0.0014         estimate D2E/DX2                !
 ! D28   D(4,5,6,14)          -179.9998         estimate D2E/DX2                !
 ! D29   D(7,5,6,1)           -179.9975         estimate D2E/DX2                !
 ! D30   D(7,5,6,14)             0.0013         estimate D2E/DX2                !
 ! D31   D(4,5,7,8)            179.9861         estimate D2E/DX2                !
 ! D32   D(4,5,7,10)             0.0047         estimate D2E/DX2                !
 ! D33   D(6,5,7,8)             -0.015          estimate D2E/DX2                !
 ! D34   D(6,5,7,10)          -179.9964         estimate D2E/DX2                !
 ! D35   D(5,7,8,15)          -179.9903         estimate D2E/DX2                !
 ! D36   D(10,7,8,15)           -0.0088         estimate D2E/DX2                !
 --------------------------------------------------------------------------------
 Trust Radius=3.00D-01 FncErr=1.00D-07 GrdErr=1.00D-06
 Number of steps in this run=     92 maximum allowed number of steps=    108.
 GradGradGradGradGradGradGradGradGradGradGradGradGradGradGradGradGradGrad

                          Input orientation:                          
 ---------------------------------------------------------------------
 Center     Atomic      Atomic             Coordinates (Angstroms)
 Number     Number       Type             X           Y           Z
 ---------------------------------------------------------------------
      1          6           0        1.941720   -1.466149    0.000000
      2          6           0        2.618705   -0.247464   -0.000005
      3          6           0        1.906724    0.954728    0.000003
      4          6           0        0.523117    0.912134    0.000012
      5          6           0       -0.184078   -0.302734    0.000042
      6          6           0        0.549736   -1.495483    0.000021
      7          6           0       -1.666101   -0.306046    0.000119
      8          8           0       -2.213068   -1.504818   -0.000149
      9          7           0       -0.251972    2.166576   -0.000026
     10          8           0       -2.341287    0.728793    0.000074
     11          1           0        2.499082   -2.397147   -0.000006
     12          1           0        3.703814   -0.224327   -0.000022
     13          1           0        2.434464    1.904952   -0.000015
     14          1           0        0.018883   -2.441097    0.000040
     15          1           0       -3.182365   -1.417851   -0.000232
     16          1           0       -0.063428    2.736676   -0.828874
     17          1           0       -1.287195    1.850394   -0.000122
     18          1           0       -0.063544    2.736660    0.828859
 ---------------------------------------------------------------------
                    Distance matrix (angstroms):
                    1          2          3          4          5
     1  C    0.000000
     2  C    1.394095   0.000000
     3  C    2.421130   1.397205   0.000000
     4  C    2.769235   2.395027   1.384262   0.000000
     5  C    2.423335   2.803328   2.439808   1.405713   0.000000
     6  C    1.392293   2.416233   2.800884   2.407764   1.400405
     7  C    3.789751   4.285206   3.788750   2.505322   1.482027
     8  O    4.154968   4.992692   4.798130   3.650803   2.358348
     9  N    4.243698   3.750783   2.475590   1.474581   2.470243
    10  O    4.812683   5.055156   4.254015   2.870266   2.391150
    11  H    1.085085   2.153009   3.403815   3.854319   3.403809
    12  H    2.155713   1.085356   2.149349   3.377629   3.888683
    13  H    3.406922   2.160287   1.086938   2.153819   3.425002
    14  H    2.155882   3.401632   3.885302   3.390931   2.147973
    15  H    5.124313   5.917957   5.614976   4.377148   3.198939
    16  H    4.729840   4.097066   2.782782   2.088071   3.152724
    17  H    4.628752   4.433629   3.317128   2.039010   2.419262
    18  H    4.729873   4.097130   2.782847   2.088074   3.152679
                    6          7          8          9         10
     6  C    0.000000
     7  C    2.514894   0.000000
     8  O    2.762820   1.317660   0.000000
     9  N    3.748788   2.848442   4.162335   0.000000
    10  O    3.647659   1.235624   2.237288   2.536229   0.000000
    11  H    2.147777   4.660628   4.795895   5.328777   5.762003
    12  H    3.400595   5.370537   6.053854   4.622192   6.119778
    13  H    3.887822   4.658663   5.764207   2.699145   4.918450
    14  H    1.084431   2.719855   2.420377   4.615627   3.952038
    15  H    3.732908   1.880204   0.973191   4.629829   2.305535
    16  H    4.355939   3.537506   4.826801   1.023500   3.147601
    17  H    3.816963   2.189476   3.480616   1.082431   1.539188
    18  H    4.355929   3.537380   4.826784   1.023499   3.147464
                   11         12         13         14         15
    11  H    0.000000
    12  H    2.484457   0.000000
    13  H    4.302584   2.478927   0.000000
    14  H    2.480588   4.300324   4.972240   0.000000
    15  H    5.765229   6.988845   6.526085   3.360807   0.000000
    16  H    5.797380   4.862782   2.760115   5.244350   5.260657
    17  H    5.690123   5.405057   3.722059   4.485837   3.777975
    18  H    5.797417   4.862867   2.760220   5.244321   5.260646
                   16         17         18
    16  H    0.000000
    17  H    1.723349   0.000000
    18  H    1.657733   1.723368   0.000000
 Stoichiometry    C7H8NO2(1+)
 Framework group  C1[X(C7H8NO2)]
 Deg. of freedom    48
 Full point group                 C1      NOp   1
 Largest Abelian subgroup         C1      NOp   1
 Largest concise Abelian subgroup C1      NOp   1
                         Standard orientation:                         
 ---------------------------------------------------------------------
 Center     Atomic      Atomic             Coordinates (Angstroms)
 Number     Number       Type             X           Y           Z
 ---------------------------------------------------------------------
      1          6           0       -1.941720   -1.466149   -0.000000
      2          6           0       -2.618705   -0.247464    0.000005
      3          6           0       -1.906724    0.954728   -0.000003
      4          6           0       -0.523117    0.912134   -0.000012
      5          6           0        0.184078   -0.302734   -0.000042
      6          6           0       -0.549736   -1.495483   -0.000021
      7          6           0        1.666101   -0.306046   -0.000119
      8          8           0        2.213068   -1.504818    0.000149
      9          7           0        0.251972    2.166576    0.000026
     10          8           0        2.341287    0.728793   -0.000074
     11          1           0       -2.499082   -2.397147    0.000006
     12          1           0       -3.703814   -0.224327    0.000022
     13          1           0       -2.434464    1.904952    0.000015
     14          1           0       -0.018883   -2.441097   -0.000040
     15          1           0        3.182365   -1.417851    0.000232
     16          1           0        0.063428    2.736676    0.828874
     17          1           0        1.287195    1.850394    0.000122
     18          1           0        0.063544    2.736660   -0.828859
 ---------------------------------------------------------------------
 Rotational constants (GHZ):      2.2524529      1.2092096      0.7902223
 Standard basis: 6-31+G(d,p) (6D, 7F)
 There are   230 symmetry adapted cartesian basis functions of A   symmetry.
 There are   230 symmetry adapted basis functions of A   symmetry.
   230 basis functions,   376 primitive gaussians,   230 cartesian basis functions
    36 alpha electrons       36 beta electrons
       nuclear repulsion energy       515.6376277979 Hartrees.
 NAtoms=   18 NActive=   18 NUniq=   18 SFac= 1.00D+00 NAtFMM=   60 NAOKFM=F Big=F
 Integral buffers will be    131072 words long.
 Raffenetti 2 integral format.
 Two-electron integral symmetry is turned on.
 Nuclear repulsion after empirical dispersion term =      515.6246835403 Hartrees.
 One-electron integrals computed using PRISM.
 NBasis=   230 RedAO= T EigKep=  2.28D-06  NBF=   230
 NBsUse=   230 1.00D-06 EigRej= -1.00D+00 NBFU=   230
 ExpMin= 4.38D-02 ExpMax= 5.48D+03 ExpMxC= 8.25D+02 IAcc=2 IRadAn=         4 AccDes= 0.00D+00
 Harris functional with IExCor=  402 and IRadAn=       4 diagonalized for initial guess.
 HarFok:  IExCor=  402 AccDes= 0.00D+00 IRadAn=         4 IDoV= 1 UseB2=F ITyADJ=14
 ICtDFT=  3500011 ScaDFX=  1.000000  1.000000  1.000000  1.000000
 FoFCou: FMM=F IPFlag=           0 FMFlag=      100000 FMFlg1=           0
         NFxFlg=           0 DoJE=T BraDBF=F KetDBF=T FulRan=T
         wScrn=  0.000000 ICntrl=     500 IOpCl=  0 I1Cent=   200000004 NGrid=           0
         NMat0=    1 NMatS0=      1 NMatT0=    0 NMatD0=    1 NMtDS0=    0 NMtDT0=    0
 Petite list used in FoFCou.
 Keep R1 ints in memory in canonical form, NReq=359209085.
 Requested convergence on RMS density matrix=1.00D-08 within 128 cycles.
 Requested convergence on MAX density matrix=1.00D-06.
 Requested convergence on             energy=1.00D-06.
 No special actions if energy rises.
 SCF Done:  E(RB3LYP) =  -476.589924697     A.U. after   14 cycles
            NFock= 14  Conv=0.85D-08     -V/T= 2.0093

 **********************************************************************

            Population analysis using the SCF density.

 **********************************************************************

 Orbital symmetries:
       Occupied  (A) (A) (A) (A) (A) (A) (A) (A) (A) (A) (A) (A)
                 (A) (A) (A) (A) (A) (A) (A) (A) (A) (A) (A) (A)
                 (A) (A) (A) (A) (A) (A) (A) (A) (A) (A) (A) (A)
       Virtual   (A) (A) (A) (A) (A) (A) (A) (A) (A) (A) (A) (A)
                 (A) (A) (A) (A) (A) (A) (A) (A) (A) (A) (A) (A)
                 (A) (A) (A) (A) (A) (A) (A) (A) (A) (A) (A) (A)
                 (A) (A) (A) (A) (A) (A) (A) (A) (A) (A) (A) (A)
                 (A) (A) (A) (A) (A) (A) (A) (A) (A) (A) (A) (A)
                 (A) (A) (A) (A) (A) (A) (A) (A) (A) (A) (A) (A)
                 (A) (A) (A) (A) (A) (A) (A) (A) (A) (A) (A) (A)
                 (A) (A) (A) (A) (A) (A) (A) (A) (A) (A) (A) (A)
                 (A) (A) (A) (A) (A) (A) (A) (A) (A) (A) (A) (A)
                 (A) (A) (A) (A) (A) (A) (A) (A) (A) (A) (A) (A)
                 (A) (A) (A) (A) (A) (A) (A) (A) (A) (A) (A) (A)
                 (A) (A) (A) (A) (A) (A) (A) (A) (A) (A) (A) (A)
                 (A) (A) (A) (A) (A) (A) (A) (A) (A) (A) (A) (A)
                 (A) (A) (A) (A) (A) (A) (A) (A) (A) (A) (A) (A)
                 (A) (A) (A) (A) (A) (A) (A) (A) (A) (A) (A) (A)
                 (A) (A) (A) (A) (A) (A) (A) (A) (A) (A) (A) (A)
                 (A) (A)
 The electronic state is 1-A.
 Alpha  occ. eigenvalues --  -19.37791 -19.33305 -14.62512 -10.51307 -10.43341
 Alpha  occ. eigenvalues --  -10.39339 -10.37841 -10.37188 -10.37075 -10.36214
 Alpha  occ. eigenvalues --   -1.29697  -1.21076  -1.17459  -1.03914  -0.95117
 Alpha  occ. eigenvalues --   -0.92702  -0.84390  -0.81099  -0.78174  -0.75716
 Alpha  occ. eigenvalues --   -0.74055  -0.71404  -0.68604  -0.66979  -0.63430
 Alpha  occ. eigenvalues --   -0.63001  -0.61668  -0.60983  -0.57215  -0.54632
 Alpha  occ. eigenvalues --   -0.54256  -0.52910  -0.50351  -0.47193  -0.43731
 Alpha  occ. eigenvalues --   -0.43519
 Alpha virt. eigenvalues --   -0.23096  -0.19134  -0.16945  -0.12608  -0.12308
 Alpha virt. eigenvalues --   -0.11381  -0.10163  -0.09551  -0.08319  -0.07381
 Alpha virt. eigenvalues --   -0.06354  -0.06108  -0.05088  -0.04157  -0.04053
 Alpha virt. eigenvalues --   -0.02951  -0.01478  -0.01166  -0.00661  -0.00048
 Alpha virt. eigenvalues --    0.00623   0.00724   0.01003   0.02434   0.03690
 Alpha virt. eigenvalues --    0.04204   0.04564   0.04748   0.05538   0.05946
 Alpha virt. eigenvalues --    0.06247   0.06641   0.07488   0.08250   0.08762
 Alpha virt. eigenvalues --    0.08845   0.09720   0.10407   0.10841   0.12107
 Alpha virt. eigenvalues --    0.12489   0.13197   0.13462   0.14365   0.15314
 Alpha virt. eigenvalues --    0.16036   0.16214   0.16427   0.17579   0.18708
 Alpha virt. eigenvalues --    0.20094   0.20711   0.21746   0.22828   0.24298
 Alpha virt. eigenvalues --    0.26600   0.28022   0.30848   0.33594   0.34031
 Alpha virt. eigenvalues --    0.42319   0.45455   0.48452   0.49799   0.52089
 Alpha virt. eigenvalues --    0.53251   0.55653   0.56312   0.57379   0.57517
 Alpha virt. eigenvalues --    0.58167   0.60873   0.61266   0.65008   0.65023
 Alpha virt. eigenvalues --    0.65674   0.68435   0.70076   0.71471   0.75091
 Alpha virt. eigenvalues --    0.77349   0.78364   0.78890   0.80013   0.82848
 Alpha virt. eigenvalues --    0.85443   0.88239   0.88667   0.93460   0.95170
 Alpha virt. eigenvalues --    0.95886   0.97780   0.98976   0.99875   1.02079
 Alpha virt. eigenvalues --    1.03527   1.04255   1.06380   1.07912   1.10433
 Alpha virt. eigenvalues --    1.10755   1.14248   1.15120   1.16486   1.18151
 Alpha virt. eigenvalues --    1.20836   1.20917   1.21451   1.23756   1.24696
 Alpha virt. eigenvalues --    1.25110   1.27747   1.33315   1.41690   1.41980
 Alpha virt. eigenvalues --    1.50533   1.52032   1.54091   1.54826   1.59718
 Alpha virt. eigenvalues --    1.62510   1.64024   1.66793   1.67297   1.69873
 Alpha virt. eigenvalues --    1.73177   1.76397   1.78283   1.81133   1.81261
 Alpha virt. eigenvalues --    1.83866   1.84730   1.85488   1.86366   1.89310
 Alpha virt. eigenvalues --    1.92936   1.93752   2.02187   2.02224   2.09771
 Alpha virt. eigenvalues --    2.12392   2.12559   2.17381   2.19198   2.21460
 Alpha virt. eigenvalues --    2.21577   2.24121   2.25323   2.26181   2.27119
 Alpha virt. eigenvalues --    2.32970   2.34886   2.35578   2.38230   2.40751
 Alpha virt. eigenvalues --    2.42412   2.44293   2.45764   2.47245   2.50104
 Alpha virt. eigenvalues --    2.52416   2.55079   2.57616   2.59581   2.63144
 Alpha virt. eigenvalues --    2.65856   2.70846   2.71105   2.75838   2.80806
 Alpha virt. eigenvalues --    2.89240   2.92842   3.00155   3.01822   3.08585
 Alpha virt. eigenvalues --    3.11667   3.13430   3.17493   3.18176   3.21421
 Alpha virt. eigenvalues --    3.33139   3.33823   3.41986   3.69955   4.05069
 Alpha virt. eigenvalues --    4.11062   4.13046   4.14657   4.21023   4.30836
 Alpha virt. eigenvalues --    4.32502   4.39402   4.65168   4.69109
          Condensed to atoms (all electrons):
               1          2          3          4          5          6
     1  C    7.197974   0.222715   0.775980  -0.845637   0.075160  -1.779334
     2  C    0.222715   5.870190  -0.824181   1.353009  -1.377413   1.031588
     3  C    0.775980  -0.824181  13.579735  -4.109644  -1.180151  -3.348144
     4  C   -0.845637   1.353009  -4.109644  19.777130  -4.760611  -3.580506
     5  C    0.075160  -1.377413  -1.180151  -4.760611  13.422039  -1.427359
     6  C   -1.779334   1.031588  -3.348144  -3.580506  -1.427359  16.249964
     7  C   -0.151987  -0.162024   0.527457  -0.662085  -0.057469  -0.370975
     8  O    0.113545  -0.004481   0.034117  -0.007475  -0.060582  -0.100420
     9  N   -0.034854  -0.004708  -0.682741   0.049939   0.372410   0.186124
    10  O    0.043734  -0.008510   0.076904  -0.142578  -0.009449  -0.122160
    11  H    0.234114   0.016600   0.006529  -0.003876   0.012206   0.056821
    12  H    0.052596   0.231755   0.055629  -0.042105   0.023098  -0.000616
    13  H    0.015714   0.060718   0.324423  -0.023885  -0.038064  -0.027129
    14  H    0.069031  -0.014692   0.029601   0.044154   0.072728   0.122949
    15  H   -0.007604  -0.000221   0.002365  -0.010987   0.028901   0.003104
    16  H    0.000998  -0.005342  -0.001392  -0.045373   0.028179   0.003197
    17  H    0.003092  -0.003266   0.179826   0.078478  -0.218370  -0.068536
    18  H    0.001002  -0.005334  -0.001314  -0.045265   0.028030   0.003148
               7          8          9         10         11         12
     1  C   -0.151987   0.113545  -0.034854   0.043734   0.234114   0.052596
     2  C   -0.162024  -0.004481  -0.004708  -0.008510   0.016600   0.231755
     3  C    0.527457   0.034117  -0.682741   0.076904   0.006529   0.055629
     4  C   -0.662085  -0.007475   0.049939  -0.142578  -0.003876  -0.042105
     5  C   -0.057469  -0.060582   0.372410  -0.009449   0.012206   0.023098
     6  C   -0.370975  -0.100420   0.186124  -0.122160   0.056821  -0.000616
     7  C    5.680065   0.129123  -0.107547   0.340198   0.000525   0.001673
     8  O    0.129123   8.281681  -0.013779  -0.152228   0.000110   0.000005
     9  N   -0.107547  -0.013779   7.156759  -0.041637   0.000135  -0.000356
    10  O    0.340198  -0.152228  -0.041637   8.393128   0.000024  -0.000003
    11  H    0.000525   0.000110   0.000135   0.000024   0.508971  -0.004626
    12  H    0.001673   0.000005  -0.000356  -0.000003  -0.004626   0.509716
    13  H    0.002937   0.000010   0.000723   0.000113  -0.000139  -0.004749
    14  H   -0.013547   0.004059  -0.001447   0.000074  -0.004572  -0.000138
    15  H    0.016851   0.202273   0.000741   0.001613  -0.000000   0.000000
    16  H    0.001857   0.000197   0.307869   0.001521   0.000000  -0.000002
    17  H    0.032895   0.003691   0.178385   0.094078  -0.000000   0.000002
    18  H    0.001858   0.000196   0.307870   0.001521   0.000000  -0.000002
              13         14         15         16         17         18
     1  C    0.015714   0.069031  -0.007604   0.000998   0.003092   0.001002
     2  C    0.060718  -0.014692  -0.000221  -0.005342  -0.003266  -0.005334
     3  C    0.324423   0.029601   0.002365  -0.001392   0.179826  -0.001314
     4  C   -0.023885   0.044154  -0.010987  -0.045373   0.078478  -0.045265
     5  C   -0.038064   0.072728   0.028901   0.028179  -0.218370   0.028030
     6  C   -0.027129   0.122949   0.003104   0.003197  -0.068536   0.003148
     7  C    0.002937  -0.013547   0.016851   0.001857   0.032895   0.001858
     8  O    0.000010   0.004059   0.202273   0.000197   0.003691   0.000196
     9  N    0.000723  -0.001447   0.000741   0.307869   0.178385   0.307870
    10  O    0.000113   0.000074   0.001613   0.001521   0.094078   0.001521
    11  H   -0.000139  -0.004572  -0.000000   0.000000  -0.000000   0.000000
    12  H   -0.004749  -0.000138   0.000000  -0.000002   0.000002  -0.000002
    13  H    0.523625   0.000012  -0.000000   0.000507   0.000078   0.000507
    14  H    0.000012   0.499776  -0.000023   0.000003   0.000008   0.000003
    15  H   -0.000000  -0.000023   0.345246  -0.000001  -0.000027  -0.000001
    16  H    0.000507   0.000003  -0.000001   0.338067  -0.009149  -0.024063
    17  H    0.000078   0.000008  -0.000027  -0.009149   0.288133  -0.009147
    18  H    0.000507   0.000003  -0.000001  -0.024063  -0.009147   0.338061
 Mulliken charges:
               1
     1  C    0.013760
     2  C   -0.376400
     3  C    0.555003
     4  C   -1.022683
     5  C    1.066717
     6  C   -0.831716
     7  C    0.790194
     8  O   -0.430040
     9  N   -0.673884
    10  O   -0.476343
    11  H    0.177180
    12  H    0.178125
    13  H    0.164601
    14  H    0.192024
    15  H    0.417771
    16  H    0.402928
    17  H    0.449831
    18  H    0.402931
 Sum of Mulliken charges =   1.00000
 Mulliken charges with hydrogens summed into heavy atoms:
               1
     1  C    0.190940
     2  C   -0.198275
     3  C    0.719604
     4  C   -1.022683
     5  C    1.066717
     6  C   -0.639692
     7  C    0.790194
     8  O   -0.012269
     9  N    0.581806
    10  O   -0.476343
 Electronic spatial extent (au):  <R**2>=           1368.3739
 Charge=              1.0000 electrons
 Dipole moment (field-independent basis, Debye):
    X=             -1.0834    Y=              4.1160    Z=              0.0002  Tot=              4.2562
 Quadrupole moment (field-independent basis, Debye-Ang):
   XX=            -36.3742   YY=            -29.4743   ZZ=            -56.5169
   XY=             -3.5243   XZ=              0.0008   YZ=              0.0004
 Traceless Quadrupole moment (field-independent basis, Debye-Ang):
   XX=              4.4143   YY=             11.3142   ZZ=            -15.7285
   XY=             -3.5243   XZ=              0.0008   YZ=              0.0004
 Octapole moment (field-independent basis, Debye-Ang**2):
  XXX=             11.5846  YYY=             48.9867  ZZZ=              0.0007  XYY=              1.0082
  XXY=            -25.7184  XXZ=              0.0047  XZZ=             11.2226  YZZ=              9.5200
  YYZ=              0.0013  XYZ=             -0.0007
 Hexadecapole moment (field-independent basis, Debye-Ang**3):
 XXXX=           -798.4235 YYYY=           -410.9396 ZZZZ=            -61.9039 XXXY=            -84.1660
 XXXZ=              0.0135 YYYX=              8.1237 YYYZ=              0.0034 ZZZX=             -0.0010
 ZZZY=              0.0028 XXYY=           -226.7944 XXZZ=           -198.2708 YYZZ=            -97.9676
 XXYZ=             -0.0030 YYXZ=              0.0018 ZZXY=             -3.0349
 N-N= 5.156246835403D+02 E-N=-2.128401886913D+03  KE= 4.722089535255D+02
 Calling FoFJK, ICntrl=      2127 FMM=F ISym2X=0 I1Cent= 0 IOpClX= 0 NMat=1 NMatS=1 NMatT=0.
 ***** Axes restored to original set *****
 -------------------------------------------------------------------
 Center     Atomic                   Forces (Hartrees/Bohr)
 Number     Number              X              Y              Z
 -------------------------------------------------------------------
      1        6           0.001245849   -0.002392902   -0.000000801
      2        6           0.002885921    0.000129593    0.000000236
      3        6           0.000985573    0.002197954   -0.000002601
      4        6           0.001526419   -0.001582271    0.000001987
      5        6           0.000108538   -0.000220834    0.000012843
      6        6          -0.001218939   -0.002614336    0.000002447
      7        6           0.002708559   -0.000040888   -0.000045942
      8        8          -0.001250500   -0.003883973    0.000014332
      9        7          -0.001711837    0.002715340   -0.000007068
     10        8          -0.003465248    0.002923411    0.000012491
     11        1          -0.000144443    0.000221801   -0.000000344
     12        1          -0.000255591   -0.000028527    0.000000491
     13        1          -0.000381542   -0.000101004   -0.000000268
     14        1           0.000351874    0.000357847    0.000000074
     15        1          -0.001906265   -0.000737773    0.000000728
     16        1           0.000106474    0.000636250   -0.000725169
     17        1           0.000314016    0.001784415    0.000010204
     18        1           0.000101142    0.000635899    0.000726361
 -------------------------------------------------------------------
 Cartesian Forces:  Max     0.003883973 RMS     0.001356582

 GradGradGradGradGradGradGradGradGradGradGradGradGradGradGradGradGradGrad
 Berny optimization.
 FormGI is forming the generalized inverse of G from B-inverse, IUseBI=4.
 Internal  Forces:  Max     0.005537856 RMS     0.001719323
 Search for a local minimum.
 Step number   1 out of a maximum of   92
 All quantities printed in internal units (Hartrees-Bohrs-Radians)
 Mixed Optimization -- RFO/linear search
 Second derivative matrix not updated -- first step.
 ITU=  0
     Eigenvalues ---    0.00705   0.01004   0.01590   0.01591   0.01730
     Eigenvalues ---    0.02063   0.02134   0.02146   0.02160   0.02179
     Eigenvalues ---    0.02192   0.02227   0.02781   0.07033   0.07830
     Eigenvalues ---    0.16000   0.16000   0.16000   0.16000   0.16000
     Eigenvalues ---    0.16000   0.16000   0.16000   0.22000   0.22493
     Eigenvalues ---    0.24484   0.25000   0.25000   0.25000   0.25000
     Eigenvalues ---    0.34339   0.35169   0.35198   0.35355   0.35387
     Eigenvalues ---    0.35464   0.35702   0.41676   0.42397   0.43784
     Eigenvalues ---    0.43784   0.45547   0.45832   0.46607   0.47866
     Eigenvalues ---    0.52730   0.62518   0.88783
 RFO step:  Lambda=-7.06627375D-04 EMin= 7.05223089D-03
 Linear search not attempted -- first point.
 Iteration  1 RMS(Cart)=  0.02729553 RMS(Int)=  0.00020353
 Iteration  2 RMS(Cart)=  0.00037197 RMS(Int)=  0.00000429
 Iteration  3 RMS(Cart)=  0.00000008 RMS(Int)=  0.00000429
 Variable       Old X    -DE/DX   Delta X   Delta X   Delta X     New X
                                 (Linear)    (Quad)   (Total)
    R1        2.63446   0.00196   0.00000   0.00399   0.00399   2.63845
    R2        2.63105   0.00212   0.00000   0.00443   0.00443   2.63548
    R3        2.05051  -0.00027   0.00000  -0.00075  -0.00075   2.04977
    R4        2.64034   0.00217   0.00000   0.00457   0.00457   2.64490
    R5        2.05102  -0.00026   0.00000  -0.00072  -0.00072   2.05030
    R6        2.61588   0.00222   0.00000   0.00467   0.00468   2.62055
    R7        2.05402  -0.00027   0.00000  -0.00077  -0.00077   2.05324
    R8        2.65641   0.00535   0.00000   0.01218   0.01218   2.66859
    R9        2.78655   0.00554   0.00000   0.01570   0.01570   2.80226
   R10        2.64638   0.00300   0.00000   0.00672   0.00672   2.65310
   R11        2.80062   0.00391   0.00000   0.01138   0.01138   2.81200
   R12        2.04928  -0.00049   0.00000  -0.00137  -0.00137   2.04791
   R13        2.49002   0.00552   0.00000   0.00882   0.00882   2.49883
   R14        2.33499   0.00434   0.00000   0.00488   0.00488   2.33988
   R15        1.83906   0.00183   0.00000   0.00347   0.00347   1.84253
   R16        1.93413   0.00096   0.00000   0.00219   0.00219   1.93632
   R17        2.04550  -0.00082   0.00000  -0.00229  -0.00229   2.04321
   R18        1.93413   0.00096   0.00000   0.00219   0.00219   1.93632
    A1        2.09893   0.00002   0.00000  -0.00068  -0.00068   2.09824
    A2        2.09509  -0.00000   0.00000   0.00039   0.00039   2.09548
    A3        2.08917  -0.00002   0.00000   0.00029   0.00030   2.08946
    A4        2.09984  -0.00014   0.00000  -0.00152  -0.00152   2.09832
    A5        2.09917   0.00005   0.00000   0.00063   0.00063   2.09981
    A6        2.08417   0.00009   0.00000   0.00089   0.00089   2.08506
    A7        2.07471   0.00107   0.00000   0.00457   0.00457   2.07929
    A8        2.09993  -0.00024   0.00000  -0.00045  -0.00045   2.09948
    A9        2.10854  -0.00083   0.00000  -0.00412  -0.00412   2.10442
   A10        2.12874  -0.00082   0.00000  -0.00288  -0.00288   2.12586
   A11        2.09348  -0.00393   0.00000  -0.01587  -0.01587   2.07761
   A12        2.06097   0.00475   0.00000   0.01875   0.01875   2.07971
   A13        2.06288  -0.00099   0.00000  -0.00342  -0.00341   2.05947
   A14        2.10020   0.00411   0.00000   0.01613   0.01612   2.11632
   A15        2.12010  -0.00312   0.00000  -0.01271  -0.01271   2.10739
   A16        2.10127   0.00087   0.00000   0.00392   0.00392   2.10519
   A17        2.10341  -0.00057   0.00000  -0.00281  -0.00281   2.10059
   A18        2.07851  -0.00030   0.00000  -0.00111  -0.00111   2.07740
   A19        2.00109  -0.00055   0.00000  -0.00221  -0.00221   1.99888
   A20        2.14666   0.00180   0.00000   0.00719   0.00719   2.15385
   A21        2.13544  -0.00125   0.00000  -0.00498  -0.00498   2.13046
   A22        1.90937   0.00167   0.00000   0.01039   0.01039   1.91976
   A23        1.95740  -0.00023   0.00000  -0.00228  -0.00230   1.95510
   A24        1.82783   0.00241   0.00000   0.01657   0.01656   1.84439
   A25        1.95741  -0.00023   0.00000  -0.00230  -0.00231   1.95509
   A26        1.91645  -0.00087   0.00000  -0.00384  -0.00386   1.91259
   A27        1.88774  -0.00020   0.00000  -0.00393  -0.00395   1.88380
   A28        1.91648  -0.00088   0.00000  -0.00396  -0.00397   1.91251
    D1       -0.00001   0.00000   0.00000   0.00003   0.00003   0.00002
    D2       -3.14159  -0.00000   0.00000  -0.00000  -0.00000   3.14159
    D3       -3.14159   0.00000   0.00000   0.00000   0.00000  -3.14159
    D4        0.00001  -0.00000   0.00000  -0.00003  -0.00003  -0.00002
    D5       -0.00000   0.00000   0.00000   0.00001   0.00001   0.00001
    D6       -3.14158  -0.00000   0.00000  -0.00006  -0.00006   3.14155
    D7        3.14158   0.00000   0.00000   0.00004   0.00004  -3.14157
    D8        0.00001  -0.00000   0.00000  -0.00003  -0.00003  -0.00002
    D9       -0.00000   0.00000   0.00000   0.00001   0.00001   0.00000
   D10       -3.14158  -0.00000   0.00000  -0.00005  -0.00005   3.14156
   D11        3.14158   0.00000   0.00000   0.00004   0.00004  -3.14157
   D12        0.00001  -0.00000   0.00000  -0.00002  -0.00002  -0.00002
   D13        0.00002  -0.00000   0.00000  -0.00008  -0.00008  -0.00006
   D14       -3.14156  -0.00000   0.00000  -0.00012  -0.00012   3.14151
   D15       -3.14159  -0.00000   0.00000  -0.00002  -0.00002   3.14157
   D16        0.00002  -0.00000   0.00000  -0.00006  -0.00006  -0.00005
   D17       -0.00003   0.00000   0.00000   0.00012   0.00012   0.00009
   D18        3.14154   0.00000   0.00000   0.00019   0.00019  -3.14146
   D19        3.14155   0.00000   0.00000   0.00016   0.00016  -3.14148
   D20       -0.00007   0.00000   0.00000   0.00023   0.00023   0.00016
   D21        1.06405  -0.00030   0.00000  -0.00400  -0.00400   1.06005
   D22        3.14149   0.00001   0.00000   0.00032   0.00032  -3.14138
   D23       -1.06422   0.00030   0.00000   0.00449   0.00449  -1.05973
   D24       -2.07753  -0.00030   0.00000  -0.00403  -0.00404  -2.08157
   D25       -0.00010   0.00001   0.00000   0.00028   0.00028   0.00019
   D26        2.07738   0.00030   0.00000   0.00445   0.00445   2.08184
   D27        0.00002  -0.00000   0.00000  -0.00008  -0.00008  -0.00006
   D28       -3.14159  -0.00000   0.00000  -0.00002  -0.00002   3.14158
   D29       -3.14155  -0.00000   0.00000  -0.00015  -0.00015   3.14148
   D30        0.00002  -0.00000   0.00000  -0.00008  -0.00008  -0.00006
   D31        3.14135   0.00001   0.00000   0.00088   0.00088  -3.14095
   D32        0.00008  -0.00001   0.00000  -0.00040  -0.00040  -0.00032
   D33       -0.00026   0.00001   0.00000   0.00095   0.00095   0.00069
   D34       -3.14153  -0.00001   0.00000  -0.00033  -0.00033   3.14132
   D35       -3.14142  -0.00001   0.00000  -0.00067  -0.00066   3.14110
   D36       -0.00015   0.00001   0.00000   0.00060   0.00060   0.00045
         Item               Value     Threshold  Converged?
 Maximum Force            0.005538     0.000450     NO 
 RMS     Force            0.001719     0.000300     NO 
 Maximum Displacement     0.127992     0.001800     NO 
 RMS     Displacement     0.027548     0.001200     NO 
 Predicted change in Energy=-3.541917D-04
 GradGradGradGradGradGradGradGradGradGradGradGradGradGradGradGradGradGrad

                          Input orientation:                          
 ---------------------------------------------------------------------
 Center     Atomic      Atomic             Coordinates (Angstroms)
 Number     Number       Type             X           Y           Z
 ---------------------------------------------------------------------
      1          6           0        1.938337   -1.469095    0.000005
      2          6           0        2.618190   -0.249589    0.000073
      3          6           0        1.904961    0.954672    0.000032
      4          6           0        0.518701    0.918324   -0.000072
      5          6           0       -0.193792   -0.300916   -0.000207
      6          6           0        0.543950   -1.495419   -0.000128
      7          6           0       -1.681633   -0.325726   -0.000489
      8          8           0       -2.210429   -1.537716    0.000178
      9          7           0       -0.234821    2.195496   -0.000002
     10          8           0       -2.380500    0.696402   -0.000293
     11          1           0        2.493728   -2.400810    0.000040
     12          1           0        3.702937   -0.227412    0.000177
     13          1           0        2.432922    1.904305    0.000118
     14          1           0        0.014036   -2.440732   -0.000218
     15          1           0       -3.183555   -1.476875    0.000398
     16          1           0       -0.030045    2.762399   -0.828624
     17          1           0       -1.279856    1.918124    0.000119
     18          1           0       -0.029925    2.762365    0.828612
 ---------------------------------------------------------------------
                    Distance matrix (angstroms):
                    1          2          3          4          5
     1  C    0.000000
     2  C    1.396207   0.000000
     3  C    2.423997   1.399622   0.000000
     4  C    2.777613   2.402473   1.386737   0.000000
     5  C    2.431176   2.812451   2.445663   1.412159   0.000000
     6  C    1.394635   2.419621   2.802731   2.413875   1.403959
     7  C    3.796244   4.300497   3.808290   2.527673   1.488047
     8  O    4.149333   4.997483   4.811282   3.671550   2.365692
     9  N    4.260497   3.757407   2.473522   1.482890   2.496749
    10  O    4.831328   5.087416   4.293237   2.907682   2.403401
    11  H    1.084690   2.154818   3.406744   3.862302   3.410618
    12  H    2.157682   1.084974   2.151753   3.384091   3.897422
    13  H    3.409464   2.161848   1.086529   2.153230   3.429669
    14  H    2.155693   3.403340   3.886433   3.396755   2.149884
    15  H    5.121897   5.930133   5.639629   4.409498   3.212718
    16  H    4.739904   4.095358   2.774670   2.094811   3.177576
    17  H    4.672261   4.460241   3.327357   2.057768   2.470562
    18  H    4.739821   4.095225   2.774543   2.094802   3.177655
                    6          7          8          9         10
     6  C    0.000000
     7  C    2.514239   0.000000
     8  O    2.754704   1.322326   0.000000
     9  N    3.772179   2.906858   4.223730   0.000000
    10  O    3.654653   1.238209   2.240582   2.617484   0.000000
    11  H    2.149736   4.662575   4.782680   5.345185   5.775017
    12  H    3.403974   5.385467   6.056797   4.623464   6.153181
    13  H    3.889260   4.680021   5.779984   2.683587   4.962666
    14  H    1.083709   2.710819   2.400767   4.642901   3.946570
    15  H    3.727551   1.892330   0.975026   4.709707   2.316901
    16  H    4.375487   3.598620   4.892032   1.024659   3.237146
    17  H    3.870213   2.279537   3.578938   1.081219   1.644391
    18  H    4.375486   3.598869   4.891993   1.024658   3.237358
                   11         12         13         14         15
    11  H    0.000000
    12  H    2.487136   0.000000
    13  H    4.305544   2.481362   0.000000
    14  H    2.480013   4.301950   4.972962   0.000000
    15  H    5.751973   6.998923   6.555699   3.339702   0.000000
    16  H    5.806447   4.853971   2.736666   5.268849   5.348209
    17  H    5.735253   5.425086   3.712803   4.546843   3.892311
    18  H    5.806353   4.853796   2.736473   5.268881   5.348128
                   16         17         18
    16  H    0.000000
    17  H    1.720942   0.000000
    18  H    1.657236   1.720892   0.000000
 Stoichiometry    C7H8NO2(1+)
 Framework group  C1[X(C7H8NO2)]
 Deg. of freedom    48
 Full point group                 C1      NOp   1
 Largest Abelian subgroup         C1      NOp   1
 Largest concise Abelian subgroup C1      NOp   1
                         Standard orientation:                         
 ---------------------------------------------------------------------
 Center     Atomic      Atomic             Coordinates (Angstroms)
 Number     Number       Type             X           Y           Z
 ---------------------------------------------------------------------
      1          6           0       -1.917461   -1.497682   -0.000074
      2          6           0       -2.618447   -0.290200   -0.000142
      3          6           0       -1.926297    0.926299   -0.000100
      4          6           0       -0.539613    0.914096    0.000003
      5          6           0        0.194003   -0.292553    0.000138
      6          6           0       -0.522827   -1.499721    0.000059
      7          6           0        1.682050   -0.291450    0.000420
      8          8           0        2.231871   -1.494048   -0.000247
      9          7           0        0.191554    2.204195   -0.000067
     10          8           0        2.363012    0.742693    0.000224
     11          1           0       -2.456543   -2.438927   -0.000109
     12          1           0       -3.703415   -0.286915   -0.000246
     13          1           0       -2.470713    1.866594   -0.000187
     14          1           0        0.023468   -2.435663    0.000149
     15          1           0        3.203790   -1.416271   -0.000467
     16          1           0       -0.023063    2.767446    0.828555
     17          1           0        1.241261    1.945064   -0.000188
     18          1           0       -0.023182    2.767411   -0.828681
 ---------------------------------------------------------------------
 Rotational constants (GHZ):      2.2164188      1.2009502      0.7822429
 Standard basis: 6-31+G(d,p) (6D, 7F)
 There are   230 symmetry adapted cartesian basis functions of A   symmetry.
 There are   230 symmetry adapted basis functions of A   symmetry.
   230 basis functions,   376 primitive gaussians,   230 cartesian basis functions
    36 alpha electrons       36 beta electrons
       nuclear repulsion energy       513.2183474072 Hartrees.
 NAtoms=   18 NActive=   18 NUniq=   18 SFac= 1.00D+00 NAtFMM=   60 NAOKFM=F Big=F
 Integral buffers will be    131072 words long.
 Raffenetti 2 integral format.
 Two-electron integral symmetry is turned on.
 Nuclear repulsion after empirical dispersion term =      513.2053413353 Hartrees.
 One-electron integrals computed using PRISM.
 NBasis=   230 RedAO= T EigKep=  2.31D-06  NBF=   230
 NBsUse=   230 1.00D-06 EigRej= -1.00D+00 NBFU=   230
 Initial guess from the checkpoint file:  "b3lypD3Anthranilicyang.chk"
 B after Tr=     0.000000    0.000000    0.000000
         Rot=    0.999974   -0.000011    0.000015   -0.007249 Ang=  -0.83 deg.
 ExpMin= 4.38D-02 ExpMax= 5.48D+03 ExpMxC= 8.25D+02 IAcc=2 IRadAn=         4 AccDes= 0.00D+00
 Harris functional with IExCor=  402 and IRadAn=       4 diagonalized for initial guess.
 HarFok:  IExCor=  402 AccDes= 0.00D+00 IRadAn=         4 IDoV= 1 UseB2=F ITyADJ=14
 ICtDFT=  3500011 ScaDFX=  1.000000  1.000000  1.000000  1.000000
 FoFCou: FMM=F IPFlag=           0 FMFlag=      100000 FMFlg1=           0
         NFxFlg=           0 DoJE=T BraDBF=F KetDBF=T FulRan=T
         wScrn=  0.000000 ICntrl=     500 IOpCl=  0 I1Cent=   200000004 NGrid=           0
         NMat0=    1 NMatS0=      1 NMatT0=    0 NMatD0=    1 NMtDS0=    0 NMtDT0=    0
 Petite list used in FoFCou.
 Keep R1 ints in memory in canonical form, NReq=359209085.
 Requested convergence on RMS density matrix=1.00D-08 within 128 cycles.
 Requested convergence on MAX density matrix=1.00D-06.
 Requested convergence on             energy=1.00D-06.
 No special actions if energy rises.
 SCF Done:  E(RB3LYP) =  -476.589763953     A.U. after   13 cycles
            NFock= 13  Conv=0.49D-08     -V/T= 2.0096
 Calling FoFJK, ICntrl=      2127 FMM=F ISym2X=0 I1Cent= 0 IOpClX= 0 NMat=1 NMatS=1 NMatT=0.
 ***** Axes restored to original set *****
 -------------------------------------------------------------------
 Center     Atomic                   Forces (Hartrees/Bohr)
 Number     Number              X              Y              Z
 -------------------------------------------------------------------
      1        6           0.000229175    0.000324430    0.000002399
      2        6           0.000133901   -0.000112317   -0.000000450
      3        6          -0.000367321    0.000367712    0.000006149
      4        6           0.000286827   -0.004203972   -0.000005424
      5        6           0.000474417    0.000734399   -0.000036479
      6        6           0.000170457    0.000661179   -0.000006681
      7        6          -0.003038788    0.005700852    0.000136575
      8        8           0.000200797   -0.003003420   -0.000040919
      9        7          -0.009869614   -0.003167736    0.000010456
     10        8           0.005979896    0.001120684   -0.000042611
     11        1          -0.000028451    0.000004456    0.000000822
     12        1          -0.000061302    0.000093955   -0.000001277
     13        1           0.000081021    0.000089881    0.000000909
     14        1          -0.000054113    0.000152669   -0.000000387
     15        1           0.000528847    0.000699050   -0.000003410
     16        1          -0.000418918   -0.000174929   -0.000536837
     17        1           0.006161550    0.000887387   -0.000018317
     18        1          -0.000408381   -0.000174280    0.000535481
 -------------------------------------------------------------------
 Cartesian Forces:  Max     0.009869614 RMS     0.002174241

 GradGradGradGradGradGradGradGradGradGradGradGradGradGradGradGradGradGrad
 Berny optimization.
 Using GEDIIS/GDIIS optimizer.
 FormGI is forming the generalized inverse of G from B-inverse, IUseBI=4.
 Internal  Forces:  Max     0.012502245 RMS     0.002887648
 Search for a local minimum.
 Step number   2 out of a maximum of   92
 All quantities printed in internal units (Hartrees-Bohrs-Radians)
 Mixed Optimization -- RFO/linear search
 Update second derivatives using D2CorX and points    2    1
 DE=  1.61D-04 DEPred=-3.54D-04 R=-4.54D-01
 Trust test=-4.54D-01 RLast= 4.99D-02 DXMaxT set to 1.50D-01
 ITU= -1  0
 Use linear search instead of GDIIS.
 Energy rises -- skip Quadratic/GDIIS search.
 Quartic linear search produced a step of -0.60871.
 Iteration  1 RMS(Cart)=  0.01677213 RMS(Int)=  0.00007844
 Iteration  2 RMS(Cart)=  0.00010180 RMS(Int)=  0.00000102
 Iteration  3 RMS(Cart)=  0.00000000 RMS(Int)=  0.00000102
 Variable       Old X    -DE/DX   Delta X   Delta X   Delta X     New X
                                 (Linear)    (Quad)   (Total)
    R1        2.63845   0.00116  -0.00243   0.00000  -0.00243   2.63602
    R2        2.63548   0.00095  -0.00269   0.00000  -0.00269   2.63278
    R3        2.04977  -0.00002   0.00045   0.00000   0.00045   2.05022
    R4        2.64490   0.00048  -0.00278   0.00000  -0.00278   2.64212
    R5        2.05030  -0.00006   0.00044   0.00000   0.00044   2.05074
    R6        2.62055  -0.00095  -0.00285   0.00000  -0.00285   2.61771
    R7        2.05324   0.00012   0.00047   0.00000   0.00047   2.05371
    R8        2.66859  -0.00893  -0.00742   0.00000  -0.00742   2.66118
    R9        2.80226   0.00004  -0.00956   0.00000  -0.00956   2.79270
   R10        2.65310  -0.00121  -0.00409   0.00000  -0.00409   2.64901
   R11        2.81200  -0.00375  -0.00693   0.00000  -0.00693   2.80508
   R12        2.04791  -0.00011   0.00083   0.00000   0.00083   2.04874
   R13        2.49883   0.00182  -0.00537   0.00000  -0.00537   2.49347
   R14        2.33988  -0.00245  -0.00297   0.00000  -0.00297   2.33690
   R15        1.84253  -0.00048  -0.00211   0.00000  -0.00211   1.84042
   R16        1.93632   0.00025  -0.00133   0.00000  -0.00133   1.93499
   R17        2.04321  -0.00618   0.00139   0.00000   0.00139   2.04460
   R18        1.93632   0.00025  -0.00133   0.00000  -0.00133   1.93499
    A1        2.09824  -0.00009   0.00042   0.00000   0.00042   2.09866
    A2        2.09548   0.00007  -0.00024   0.00000  -0.00024   2.09524
    A3        2.08946   0.00002  -0.00018   0.00000  -0.00018   2.08928
    A4        2.09832  -0.00036   0.00093   0.00000   0.00093   2.09925
    A5        2.09981   0.00028  -0.00039   0.00000  -0.00039   2.09942
    A6        2.08506   0.00008  -0.00054   0.00000  -0.00054   2.08452
    A7        2.07929  -0.00215  -0.00278   0.00000  -0.00278   2.07650
    A8        2.09948   0.00105   0.00028   0.00000   0.00028   2.09976
    A9        2.10442   0.00110   0.00251   0.00000   0.00251   2.10693
   A10        2.12586   0.00268   0.00175   0.00000   0.00175   2.12761
   A11        2.07761   0.00712   0.00966   0.00000   0.00966   2.08727
   A12        2.07971  -0.00980  -0.01141   0.00000  -0.01141   2.06830
   A13        2.05947   0.00208   0.00208   0.00000   0.00208   2.06155
   A14        2.11632  -0.01250  -0.00981   0.00000  -0.00981   2.10651
   A15        2.10739   0.01042   0.00774   0.00000   0.00774   2.11513
   A16        2.10519  -0.00216  -0.00239   0.00000  -0.00239   2.10280
   A17        2.10059   0.00120   0.00171   0.00000   0.00171   2.10231
   A18        2.07740   0.00095   0.00068   0.00000   0.00068   2.07807
   A19        1.99888   0.00259   0.00135   0.00000   0.00135   2.00022
   A20        2.15385  -0.00781  -0.00438   0.00000  -0.00438   2.14947
   A21        2.13046   0.00522   0.00303   0.00000   0.00303   2.13349
   A22        1.91976  -0.00135  -0.00632   0.00000  -0.00632   1.91344
   A23        1.95510   0.00025   0.00140   0.00000   0.00140   1.95651
   A24        1.84439  -0.00131  -0.01008   0.00000  -0.01008   1.83431
   A25        1.95509   0.00025   0.00141   0.00000   0.00141   1.95650
   A26        1.91259   0.00015   0.00235   0.00000   0.00235   1.91495
   A27        1.88380   0.00045   0.00240   0.00000   0.00241   1.88620
   A28        1.91251   0.00017   0.00242   0.00000   0.00242   1.91493
    D1        0.00002  -0.00000  -0.00002   0.00000  -0.00002   0.00000
    D2        3.14159   0.00000   0.00000   0.00000   0.00000  -3.14159
    D3       -3.14159  -0.00000  -0.00000   0.00000  -0.00000  -3.14159
    D4       -0.00002   0.00000   0.00002   0.00000   0.00002  -0.00000
    D5        0.00001  -0.00000  -0.00001   0.00000  -0.00001   0.00000
    D6        3.14155   0.00000   0.00003   0.00000   0.00003   3.14159
    D7       -3.14157  -0.00000  -0.00002   0.00000  -0.00002  -3.14159
    D8       -0.00002   0.00000   0.00002   0.00000   0.00002  -0.00000
    D9        0.00000  -0.00000  -0.00000   0.00000  -0.00000  -0.00000
   D10        3.14156   0.00000   0.00003   0.00000   0.00003   3.14159
   D11       -3.14157  -0.00000  -0.00002   0.00000  -0.00002  -3.14159
   D12       -0.00002   0.00000   0.00001   0.00000   0.00001  -0.00000
   D13       -0.00006   0.00000   0.00005   0.00000   0.00005  -0.00001
   D14        3.14151   0.00000   0.00008   0.00000   0.00008   3.14158
   D15        3.14157   0.00000   0.00001   0.00000   0.00001   3.14159
   D16       -0.00005   0.00000   0.00004   0.00000   0.00004  -0.00001
   D17        0.00009  -0.00001  -0.00007   0.00000  -0.00007   0.00001
   D18       -3.14146  -0.00001  -0.00011   0.00000  -0.00012  -3.14157
   D19       -3.14148  -0.00001  -0.00010   0.00000  -0.00010  -3.14158
   D20        0.00016  -0.00001  -0.00014   0.00000  -0.00014   0.00002
   D21        1.06005   0.00048   0.00243   0.00000   0.00243   1.06249
   D22       -3.14138  -0.00001  -0.00020   0.00000  -0.00020  -3.14157
   D23       -1.05973  -0.00048  -0.00273   0.00000  -0.00273  -1.06246
   D24       -2.08157   0.00048   0.00246   0.00000   0.00246  -2.07911
   D25        0.00019  -0.00001  -0.00017   0.00000  -0.00017   0.00002
   D26        2.08184  -0.00048  -0.00271   0.00000  -0.00271   2.07913
   D27       -0.00006   0.00000   0.00005   0.00000   0.00005  -0.00001
   D28        3.14158   0.00000   0.00001   0.00000   0.00001   3.14159
   D29        3.14148   0.00001   0.00009   0.00000   0.00009   3.14158
   D30       -0.00006   0.00000   0.00005   0.00000   0.00005  -0.00001
   D31       -3.14095  -0.00004  -0.00054   0.00000  -0.00054  -3.14149
   D32       -0.00032   0.00003   0.00024   0.00000   0.00024  -0.00007
   D33        0.00069  -0.00004  -0.00058   0.00000  -0.00058   0.00011
   D34        3.14132   0.00003   0.00020   0.00000   0.00020   3.14153
   D35        3.14110   0.00003   0.00040   0.00000   0.00040   3.14150
   D36        0.00045  -0.00003  -0.00037   0.00000  -0.00036   0.00008
         Item               Value     Threshold  Converged?
 Maximum Force            0.012502     0.000450     NO 
 RMS     Force            0.002888     0.000300     NO 
 Maximum Displacement     0.077922     0.001800     NO 
 RMS     Displacement     0.016770     0.001200     NO 
 Predicted change in Energy=-1.076667D-04
 GradGradGradGradGradGradGradGradGradGradGradGradGradGradGradGradGradGrad

                          Input orientation:                          
 ---------------------------------------------------------------------
 Center     Atomic      Atomic             Coordinates (Angstroms)
 Number     Number       Type             X           Y           Z
 ---------------------------------------------------------------------
      1          6           0        1.940437   -1.467324    0.000002
      2          6           0        2.618547   -0.248319    0.000025
      3          6           0        1.906081    0.954685    0.000014
      4          6           0        0.521433    0.914537   -0.000020
      5          6           0       -0.187836   -0.302042   -0.000055
      6          6           0        0.547511   -1.495479   -0.000037
      7          6           0       -1.672173   -0.313742   -0.000118
      8          8           0       -2.212067   -1.517717   -0.000022
      9          7           0       -0.245286    2.177917   -0.000017
     10          8           0       -2.356650    0.716190   -0.000067
     11          1           0        2.497025   -2.398605    0.000012
     12          1           0        3.703514   -0.225561    0.000056
     13          1           0        2.433911    1.904676    0.000037
     14          1           0        0.017024   -2.440974   -0.000061
     15          1           0       -3.182946   -1.440952    0.000012
     16          1           0       -0.050386    2.746819   -0.828778
     17          1           0       -1.284523    1.876890   -0.000028
     18          1           0       -0.050410    2.746798    0.828764
 ---------------------------------------------------------------------
                    Distance matrix (angstroms):
                    1          2          3          4          5
     1  C    0.000000
     2  C    1.394922   0.000000
     3  C    2.422253   1.398151   0.000000
     4  C    2.772514   2.397941   1.385230   0.000000
     5  C    2.426403   2.806897   2.442100   1.408235   0.000000
     6  C    1.393210   2.417560   2.801610   2.410157   1.401795
     7  C    3.792321   4.291218   3.796421   2.514075   1.484382
     8  O    4.152809   4.994617   4.803324   3.658945   2.361223
     9  N    4.250314   3.753420   2.474809   1.477832   2.480624
    10  O    4.820030   5.067826   4.269398   2.884909   2.395944
    11  H    1.084930   2.153716   3.404962   3.857444   3.406473
    12  H    2.156483   1.085206   2.150290   3.380157   3.892102
    13  H    3.407918   2.160898   1.086778   2.153589   3.426830
    14  H    2.155808   3.402302   3.885748   3.393212   2.148721
    15  H    5.123450   5.922811   5.624702   4.389846   3.204340
    16  H    4.733842   4.096458   2.779641   2.090711   3.162472
    17  H    4.645872   4.444149   3.321207   2.046362   2.439357
    18  H    4.733830   4.096446   2.779632   2.090710   3.162475
                    6          7          8          9         10
     6  C    0.000000
     7  C    2.514657   0.000000
     8  O    2.759668   1.319485   0.000000
     9  N    3.757974   2.871301   4.186399   0.000000
    10  O    3.650429   1.236636   2.238581   2.567976   0.000000
    11  H    2.148544   4.661423   4.790774   5.335243   5.767158
    12  H    3.401918   5.376410   6.055061   4.622740   6.132902
    13  H    3.888388   4.667044   5.770432   2.693094   4.935785
    14  H    1.084148   2.716340   2.412727   4.626334   3.949939
    15  H    3.730856   1.884951   0.973909   4.661122   2.309984
    16  H    4.363644   3.561447   4.852419   1.023953   3.182620
    17  H    3.837867   2.224666   3.519047   1.081957   1.580088
    18  H    4.363638   3.561469   4.852394   1.023953   3.182620
                   11         12         13         14         15
    11  H    0.000000
    12  H    2.485505   0.000000
    13  H    4.303743   2.479880   0.000000
    14  H    2.480363   4.300961   4.972527   0.000000
    15  H    5.760136   6.992890   6.537760   3.352589   0.000000
    16  H    5.800998   4.859401   2.750976   5.254000   5.295021
    17  H    5.707886   5.413022   3.718538   4.509764   3.822575
    18  H    5.800985   4.859385   2.750965   5.253996   5.294984
                   16         17         18
    16  H    0.000000
    17  H    1.722410   0.000000
    18  H    1.657542   1.722402   0.000000
 Stoichiometry    C7H8NO2(1+)
 Framework group  C1[X(C7H8NO2)]
 Deg. of freedom    48
 Full point group                 C1      NOp   1
 Largest Abelian subgroup         C1      NOp   1
 Largest concise Abelian subgroup C1      NOp   1
                         Standard orientation:                         
 ---------------------------------------------------------------------
 Center     Atomic      Atomic             Coordinates (Angstroms)
 Number     Number       Type             X           Y           Z
 ---------------------------------------------------------------------
      1          6           0       -1.932468   -1.478360   -0.000029
      2          6           0       -2.618745   -0.263934   -0.000052
      3          6           0       -1.914372    0.943826   -0.000041
      4          6           0       -0.529485    0.912973   -0.000006
      5          6           0        0.187935   -0.298817    0.000028
      6          6           0       -0.539385   -1.497164    0.000010
      7          6           0        1.672317   -0.300553    0.000091
      8          8           0        2.220281   -1.500876   -0.000004
      9          7           0        0.228736    2.181471   -0.000010
     10          8           0        2.349865    0.733951    0.000040
     11          1           0       -2.482793   -2.413355   -0.000039
     12          1           0       -3.703841   -0.248459   -0.000082
     13          1           0       -2.448566    1.890252   -0.000064
     14          1           0       -0.002563   -2.439077    0.000034
     15          1           0        3.190622   -1.417596   -0.000039
     16          1           0        0.030022    2.749052    0.828752
     17          1           0        1.269970    1.887427    0.000002
     18          1           0        0.030046    2.749031   -0.828790
 ---------------------------------------------------------------------
 Rotational constants (GHZ):      2.2381687      1.2059810      0.7870822
 Standard basis: 6-31+G(d,p) (6D, 7F)
 There are   230 symmetry adapted cartesian basis functions of A   symmetry.
 There are   230 symmetry adapted basis functions of A   symmetry.
   230 basis functions,   376 primitive gaussians,   230 cartesian basis functions
    36 alpha electrons       36 beta electrons
       nuclear repulsion energy       514.6797392135 Hartrees.
 NAtoms=   18 NActive=   18 NUniq=   18 SFac= 1.00D+00 NAtFMM=   60 NAOKFM=F Big=F
 Integral buffers will be    131072 words long.
 Raffenetti 2 integral format.
 Two-electron integral symmetry is turned on.
 Nuclear repulsion after empirical dispersion term =      514.6667705582 Hartrees.
 One-electron integrals computed using PRISM.
 NBasis=   230 RedAO= T EigKep=  2.29D-06  NBF=   230
 NBsUse=   230 1.00D-06 EigRej= -1.00D+00 NBFU=   230
 Lowest energy guess from the checkpoint file:  "b3lypD3Anthranilicyang.chk"
 B after Tr=     0.000000   -0.000000    0.000000
         Rot=    0.999996   -0.000004    0.000006   -0.002786 Ang=  -0.32 deg.
 B after Tr=    -0.000000   -0.000000    0.000000
         Rot=    0.999990    0.000007   -0.000009    0.004463 Ang=   0.51 deg.
 Keep R1 ints in memory in canonical form, NReq=359209085.
 Requested convergence on RMS density matrix=1.00D-08 within 128 cycles.
 Requested convergence on MAX density matrix=1.00D-06.
 Requested convergence on             energy=1.00D-06.
 No special actions if energy rises.
 SCF Done:  E(RB3LYP) =  -476.590060287     A.U. after    9 cycles
            NFock=  9  Conv=0.72D-08     -V/T= 2.0094
 Calling FoFJK, ICntrl=      2127 FMM=F ISym2X=0 I1Cent= 0 IOpClX= 0 NMat=1 NMatS=1 NMatT=0.
 ***** Axes restored to original set *****
 -------------------------------------------------------------------
 Center     Atomic                   Forces (Hartrees/Bohr)
 Number     Number              X              Y              Z
 -------------------------------------------------------------------
      1        6           0.000851333   -0.001323904    0.000000492
      2        6           0.001805460    0.000030359    0.000000039
      3        6           0.000448645    0.001484778    0.000000913
      4        6           0.001016695   -0.002647922   -0.000000927
      5        6           0.000257107    0.000179291   -0.000006821
      6        6          -0.000680330   -0.001313391   -0.000001192
      7        6           0.000461810    0.002313053    0.000024867
      8        8          -0.000672126   -0.003546043   -0.000007405
      9        7          -0.005178246    0.000224695    0.000000302
     10        8           0.000442768    0.002373395   -0.000008529
     11        1          -0.000098382    0.000137179    0.000000116
     12        1          -0.000180369    0.000020210   -0.000000216
     13        1          -0.000200712   -0.000025657    0.000000176
     14        1           0.000191862    0.000278819   -0.000000103
     15        1          -0.000937871   -0.000183581   -0.000000453
     16        1          -0.000104853    0.000317345   -0.000658157
     17        1           0.002680907    0.001363818   -0.000001419
     18        1          -0.000103698    0.000317557    0.000658315
 -------------------------------------------------------------------
 Cartesian Forces:  Max     0.005178246 RMS     0.001224947

 GradGradGradGradGradGradGradGradGradGradGradGradGradGradGradGradGradGrad
 Berny optimization.
 Using GEDIIS/GDIIS optimizer.
 FormGI is forming the generalized inverse of G from B-inverse, IUseBI=4.
 Internal  Forces:  Max     0.004063907 RMS     0.001022797
 Search for a local minimum.
 Step number   3 out of a maximum of   92
 All quantities printed in internal units (Hartrees-Bohrs-Radians)
 Mixed Optimization -- RFO/linear search
 Update second derivatives using D2CorX and points    2    1    3
 ITU=  0 -1  0
 Use linear search instead of GDIIS.
     Eigenvalues ---    0.00705   0.01004   0.01588   0.01590   0.01729
     Eigenvalues ---    0.02064   0.02134   0.02146   0.02160   0.02179
     Eigenvalues ---    0.02192   0.02227   0.02781   0.07075   0.07792
     Eigenvalues ---    0.15044   0.16000   0.16000   0.16000   0.16000
     Eigenvalues ---    0.16000   0.16000   0.16003   0.21980   0.22545
     Eigenvalues ---    0.23886   0.24491   0.25000   0.25000   0.29671
     Eigenvalues ---    0.33917   0.35110   0.35170   0.35355   0.35387
     Eigenvalues ---    0.35463   0.39352   0.42245   0.43115   0.43784
     Eigenvalues ---    0.44104   0.45528   0.46603   0.47525   0.52531
     Eigenvalues ---    0.60010   0.85208   1.07013
 RFO step:  Lambda=-2.46707726D-04 EMin= 7.05224886D-03
 Quartic linear search produced a step of -0.00434.
 Iteration  1 RMS(Cart)=  0.00787162 RMS(Int)=  0.00002445
 Iteration  2 RMS(Cart)=  0.00003389 RMS(Int)=  0.00000125
 Iteration  3 RMS(Cart)=  0.00000000 RMS(Int)=  0.00000125
 Variable       Old X    -DE/DX   Delta X   Delta X   Delta X     New X
                                 (Linear)    (Quad)   (Total)
    R1        2.63602   0.00174  -0.00001   0.00531   0.00530   2.64132
    R2        2.63278   0.00171  -0.00001   0.00530   0.00530   2.63808
    R3        2.05022  -0.00017   0.00000  -0.00074  -0.00074   2.04948
    R4        2.64212   0.00156  -0.00001   0.00505   0.00504   2.64716
    R5        2.05074  -0.00018   0.00000  -0.00076  -0.00076   2.04998
    R6        2.61771   0.00093  -0.00001   0.00344   0.00344   2.62114
    R7        2.05371  -0.00012   0.00000  -0.00061  -0.00061   2.05310
    R8        2.66118  -0.00071  -0.00002   0.00253   0.00251   2.66369
    R9        2.79270   0.00331  -0.00003   0.01489   0.01487   2.80756
   R10        2.64901   0.00128  -0.00001   0.00511   0.00510   2.65411
   R11        2.80508   0.00070  -0.00002   0.00604   0.00602   2.81110
   R12        2.04874  -0.00034   0.00000  -0.00143  -0.00143   2.04732
   R13        2.49347   0.00406  -0.00001   0.00959   0.00957   2.50304
   R14        2.33690   0.00173  -0.00001   0.00367   0.00366   2.34056
   R15        1.84042   0.00092  -0.00001   0.00296   0.00296   1.84338
   R16        1.93499   0.00069  -0.00000   0.00234   0.00234   1.93733
   R17        2.04460  -0.00295   0.00000  -0.00904  -0.00904   2.03557
   R18        1.93499   0.00069  -0.00000   0.00234   0.00234   1.93733
    A1        2.09866  -0.00003   0.00000   0.00035   0.00035   2.09901
    A2        2.09524   0.00003  -0.00000  -0.00008  -0.00008   2.09516
    A3        2.08928   0.00000  -0.00000  -0.00027  -0.00027   2.08901
    A4        2.09925  -0.00023   0.00000  -0.00094  -0.00094   2.09831
    A5        2.09942   0.00014  -0.00000   0.00059   0.00059   2.10001
    A6        2.08452   0.00009  -0.00000   0.00035   0.00035   2.08487
    A7        2.07650  -0.00033  -0.00001   0.00008   0.00007   2.07657
    A8        2.09976   0.00034   0.00000   0.00165   0.00166   2.10141
    A9        2.10693  -0.00000   0.00001  -0.00173  -0.00173   2.10520
   A10        2.12761   0.00068   0.00000   0.00118   0.00118   2.12879
   A11        2.08727   0.00094   0.00003  -0.00161  -0.00159   2.08569
   A12        2.06830  -0.00162  -0.00003   0.00044   0.00040   2.06871
   A13        2.06155   0.00038   0.00001  -0.00012  -0.00011   2.06144
   A14        2.10651  -0.00319  -0.00003  -0.00676  -0.00679   2.09972
   A15        2.11513   0.00280   0.00002   0.00688   0.00690   2.12203
   A16        2.10280  -0.00047  -0.00001  -0.00055  -0.00056   2.10224
   A17        2.10231   0.00020   0.00000  -0.00023  -0.00022   2.10208
   A18        2.07807   0.00027   0.00000   0.00078   0.00078   2.07886
   A19        2.00022   0.00089   0.00000   0.00277   0.00278   2.00300
   A20        2.14947  -0.00241  -0.00001  -0.00705  -0.00706   2.14241
   A21        2.13349   0.00152   0.00001   0.00428   0.00429   2.13778
   A22        1.91344   0.00048  -0.00002   0.00662   0.00661   1.92004
   A23        1.95651  -0.00001   0.00000  -0.00074  -0.00074   1.95577
   A24        1.83431   0.00074  -0.00003   0.01024   0.01021   1.84452
   A25        1.95650  -0.00001   0.00000  -0.00075  -0.00075   1.95576
   A26        1.91495  -0.00041   0.00001  -0.00408  -0.00408   1.91087
   A27        1.88620   0.00006   0.00001  -0.00067  -0.00066   1.88554
   A28        1.91493  -0.00040   0.00001  -0.00410  -0.00410   1.91084
    D1        0.00000  -0.00000  -0.00000   0.00000   0.00000   0.00001
    D2       -3.14159   0.00000   0.00000   0.00000   0.00000  -3.14159
    D3       -3.14159  -0.00000  -0.00000  -0.00000  -0.00000  -3.14159
    D4       -0.00000   0.00000   0.00000  -0.00000  -0.00000  -0.00001
    D5        0.00000  -0.00000  -0.00000  -0.00000  -0.00000  -0.00000
    D6        3.14159   0.00000   0.00000  -0.00001  -0.00001   3.14158
    D7       -3.14159  -0.00000  -0.00000   0.00000   0.00000  -3.14159
    D8       -0.00000   0.00000   0.00000  -0.00000  -0.00000  -0.00001
    D9       -0.00000  -0.00000  -0.00000   0.00000   0.00000   0.00000
   D10        3.14159   0.00000   0.00000  -0.00001  -0.00001   3.14158
   D11       -3.14159  -0.00000  -0.00000   0.00000   0.00000  -3.14159
   D12       -0.00000   0.00000   0.00000  -0.00001  -0.00001  -0.00001
   D13       -0.00001   0.00000   0.00000  -0.00001  -0.00001  -0.00002
   D14        3.14158   0.00000   0.00000  -0.00002  -0.00002   3.14156
   D15        3.14159   0.00000   0.00000   0.00000   0.00000   3.14159
   D16       -0.00001   0.00000   0.00000  -0.00001  -0.00001  -0.00002
   D17        0.00001  -0.00000  -0.00000   0.00001   0.00001   0.00002
   D18       -3.14157  -0.00000  -0.00000   0.00002   0.00002  -3.14155
   D19       -3.14158  -0.00000  -0.00000   0.00002   0.00002  -3.14155
   D20        0.00002  -0.00000  -0.00000   0.00004   0.00004   0.00006
   D21        1.06249   0.00004   0.00001  -0.00092  -0.00091   1.06157
   D22       -3.14157  -0.00000  -0.00000   0.00007   0.00007  -3.14150
   D23       -1.06246  -0.00004  -0.00001   0.00103   0.00103  -1.06144
   D24       -2.07911   0.00004   0.00001  -0.00093  -0.00093  -2.08004
   D25        0.00002  -0.00000  -0.00000   0.00006   0.00006   0.00007
   D26        2.07913  -0.00004  -0.00001   0.00102   0.00101   2.08014
   D27       -0.00001   0.00000   0.00000  -0.00000  -0.00000  -0.00001
   D28        3.14159   0.00000   0.00000   0.00000   0.00000  -3.14159
   D29        3.14158   0.00000   0.00000  -0.00001  -0.00001   3.14156
   D30       -0.00001   0.00000   0.00000  -0.00001  -0.00001  -0.00002
   D31       -3.14149  -0.00001  -0.00000  -0.00010  -0.00010  -3.14159
   D32       -0.00007   0.00001   0.00000   0.00021   0.00021   0.00013
   D33        0.00011  -0.00001  -0.00000  -0.00008  -0.00009   0.00002
   D34        3.14153   0.00001   0.00000   0.00022   0.00022  -3.14144
   D35        3.14150   0.00001   0.00000   0.00015   0.00016  -3.14153
   D36        0.00008  -0.00001  -0.00000  -0.00014  -0.00015  -0.00006
         Item               Value     Threshold  Converged?
 Maximum Force            0.004064     0.000450     NO 
 RMS     Force            0.001023     0.000300     NO 
 Maximum Displacement     0.028549     0.001800     NO 
 RMS     Displacement     0.007880     0.001200     NO 
 Predicted change in Energy=-1.235101D-04
 GradGradGradGradGradGradGradGradGradGradGradGradGradGradGradGradGradGrad

                          Input orientation:                          
 ---------------------------------------------------------------------
 Center     Atomic      Atomic             Coordinates (Angstroms)
 Number     Number       Type             X           Y           Z
 ---------------------------------------------------------------------
      1          6           0        1.947885   -1.471774    0.000017
      2          6           0        2.624969   -0.248992   -0.000005
      3          6           0        1.907661    0.954237   -0.000018
      4          6           0        0.521314    0.910125   -0.000009
      5          6           0       -0.186627   -0.308764   -0.000005
      6          6           0        0.552227   -1.503207    0.000014
      7          6           0       -1.674189   -0.312829   -0.000048
      8          8           0       -2.225718   -1.517092   -0.000036
      9          7           0       -0.251055    2.179277    0.000021
     10          8           0       -2.347088    0.727012   -0.000225
     11          1           0        2.506168   -2.401585    0.000028
     12          1           0        3.709473   -0.223485   -0.000005
     13          1           0        2.431008    1.906336   -0.000021
     14          1           0        0.024503   -2.449383    0.000017
     15          1           0       -3.198053   -1.438921   -0.000125
     16          1           0       -0.055520    2.748973   -0.829572
     17          1           0       -1.288346    1.888872    0.000119
     18          1           0       -0.055405    2.748995    0.829573
 ---------------------------------------------------------------------
                    Distance matrix (angstroms):
                    1          2          3          4          5
     1  C    0.000000
     2  C    1.397727   0.000000
[...]
 022,0.0075477,0.4276015,0.0000672,-0.0001768,0.0000317,-0.0516427,-0.7
 850864,0.0293698,-0.0000361,-0.0665201,-0.0943877,-0.00001,-0.0000695,
 0.0000105,0.0260642,0.1171295,0.1266788,0.0000053,-0.0715683,0.0284781
 ,-0.0000049,-0.0000203,-0.0000072,-0.0530784,2.0913405,0.0278472,0.000
 0944,0.2170407,1.7603063,-0.0004616,-0.0000718,-0.0005082,0.3537945,-0
 .8746982,-0.5063401,0.000145,-0.5724174,-1.0368061,0.0001859,0.0003516
 ,0.0004497,-0.3280503,-0.4831721,-0.1685536,0.0000004,0.0377434,-0.526
 1253,-0.0000483,0.0001277,0.0000441,-0.047193,-1.1106756,0.2019935,-0.
 0002019,0.121307,-1.2025305,0.000193,-0.0001195,-0.0001148,-0.3422117,
 0.0668945,0.0234027,-0.000006,0.029887,0.0397549,0.0000037,0.0000063,0
 .0000059,0.1418224,0.0325648,-0.0026548,-0.0000051,-0.006218,0.0858474
 ,-0.000002,-0.0000187,0.0000037,0.1384748,0.0935055,-0.0118129,-0.0000
 014,-0.0231314,-0.011111,-0.0000082,0.0000157,-0.0000353,0.1484172,0.0
 934804,-0.0178285,-0.0000083,-0.0166332,0.0826351,-0.000003,-0.0000393
 ,-0.0000014,0.1364592,0.4334194,0.125948,-0.0000412,0.131622,0.3227256
 ,0.0000171,-0.0000733,0.0000015,0.3664733,0.2004794,0.0093215,0.013265
 2,0.0155549,0.2444519,-0.0465379,0.0211807,-0.0789876,0.2617237,0.6510
 304,0.4123576,0.0000706,0.230879,0.5436364,0.0001071,0.0000775,0.00014
 7,0.1989251,0.2004564,0.0092872,-0.0132956,0.0155413,0.2444502,0.04651
 37,-0.0212001,0.0789498,0.2617021\Polar=118.0062603,-0.4957236,102.288
 1211,0.0038888,-0.0017654,48.8299539\PG=C01 [X(C7H8N1O2)]\NImag=0\\0.6
 9115750,-0.03887218,0.73300693,0.00003925,-0.00000980,0.13784855,-0.18
 158241,-0.11955404,-0.00000564,0.75165236,-0.05714247,-0.29333945,0.00
 000223,0.00535128,0.66273947,-0.00000552,-0.00000298,-0.06411227,0.000
 04185,-0.00000442,0.14103206,0.06451935,0.02237876,0.00000571,-0.18282
 416,0.05670671,-0.00001203,0.69682519,-0.01545230,-0.05288179,-0.00000
 082,0.12245756,-0.27994986,0.00000836,0.03685186,0.73182297,0.00000520
 ,0.00000138,0.00668966,-0.00000767,-0.00000067,-0.06258564,0.00003381,
 0.00002094,0.13009848,-0.05138859,-0.02892273,-0.00000390,-0.02826287,
 0.08316536,0.00000054,-0.34620229,-0.06457584,-0.00001466,0.70483104,-
 0.02969972,-0.01811875,-0.00000354,0.02754936,0.03238107,0.00000339,0.
 01501566,-0.12229372,-0.00000141,0.05110166,0.60012392,-0.00000346,-0.
 00000181,-0.00511556,-0.00000132,0.00000542,0.00345177,-0.00001572,-0.
 00000564,-0.06154858,0.00003940,0.00003574,0.15903637,-0.02810937,0.02
 634670,-0.00000507,0.00040783,-0.00661602,0.00000082,-0.03401787,-0.01
 924346,-0.00000437,-0.16661076,-0.11295762,-0.00002192,0.64096021,0.06
 727345,0.03313101,0.00000946,0.00261400,-0.06009471,-0.00000048,-0.069
 57613,0.02521190,-0.00000462,-0.05256013,-0.24919662,-0.00001634,-0.00
 811268,0.69143246,-0.00000310,0.00000429,0.00715137,0.00000100,0.00000
 083,-0.00543364,-0.00000046,-0.00000537,0.00975283,-0.00002600,-0.0000
 1550,-0.05779277,0.00005877,-0.00000874,0.13569997,-0.34316626,0.02844
 756,-0.00001943,-0.02302300,-0.07189777,-0.00000281,-0.04768822,0.0194
 5160,-0.00000305,0.05999339,0.02903338,0.00000382,-0.16966443,0.054381
 16,-0.00001605,0.69668639,-0.03456434,-0.13191687,-0.00000645,-0.03387
 833,0.03165597,-0.00000187,0.02889157,-0.01268404,0.00000255,-0.020222
 46,-0.05632085,-0.00000153,0.10881008,-0.27288924,0.00001464,0.0453590
 5,0.72002668,-0.00002419,0.00000086,-0.06516294,-0.00000274,-0.0000064
 2,0.00652036,-0.00000398,0.00000226,-0.00502336,0.00000502,0.00000210,
 0.00452910,-0.00001271,0.00001022,-0.06221805,0.00005851,0.00000686,0.
 14205297,0.00343437,0.00288230,0.00000034,-0.00015268,0.00509996,-0.00
 000033,0.01176698,-0.00504178,-0.00000008,-0.02389049,-0.02940365,-0.0
 0000060,-0.19291956,-0.00292718,-0.00003383,-0.02209201,0.01732765,-0.
 00000471,0.70630333,0.00438842,-0.00615323,0.00000060,0.00047926,-0.00
 347797,0.00000028,-0.00450725,-0.00678185,-0.00000077,-0.03327855,0.01
 394602,-0.00000593,-0.01151001,-0.10239069,-0.00000491,0.02732592,0.01
 104855,0.00000600,-0.09787198,0.86376911,0.00000016,0.00000026,0.00848
 657,0.00000125,-0.00000057,-0.00132444,0.00000011,0.00000049,0.0060401
 6,0.00000121,-0.00000038,-0.00153131,-0.00001337,-0.00000437,-0.075788
 25,0.00000002,-0.00000134,-0.00067224,-0.00004415,-0.00012694,0.206132
 70,0.00108189,-0.00059739,-0.00000026,-0.00010961,-0.00221388,0.000000
 12,-0.00323147,-0.00117913,-0.00000125,-0.00471594,0.00858509,-0.00000
 065,-0.03147834,-0.04458846,0.00001869,-0.00464105,-0.00234776,0.00000
 114,-0.17868252,-0.11170587,0.00006351,0.66879207,-0.00054966,0.000466
 41,-0.00000057,0.00021571,-0.00117630,0.00000004,-0.00199650,0.0019968
 7,-0.00000028,0.00402728,0.00116165,0.00000003,-0.01923478,-0.00518062
 ,0.00001079,0.00237715,-0.00447534,-0.00000064,-0.07282715,-0.29383167
 ,0.00010119,0.06489986,0.44882377,-0.00000002,0.00000018,-0.00061515,0
 .,0.00000069,-0.00006267,0.00000067,-0.00000104,-0.00059925,-0.0000011
 4,-0.00000116,0.00210399,0.00000356,0.00000632,0.00928690,-0.00000097,
 0.00000175,0.00045820,0.00004953,0.00012244,-0.06409201,-0.00011640,-0
 .00016958,0.04144228,0.00100319,0.00057517,-0.00000016,-0.00713322,-0.
 00579180,-0.00000158,-0.02020071,0.04736937,0.00000134,-0.12142653,0.0
 2415015,0.00000061,0.01421723,-0.00618458,0.00000294,-0.00059203,-0.00
 099052,0.00000007,-0.02303053,0.01570289,-0.00000732,0.00271502,-0.008
 86185,0.00000670,0.54445716,-0.00205395,-0.00151227,0.00000009,-0.0006
 3665,0.00593306,-0.00000177,0.00903361,-0.00863161,-0.00000043,0.03571
 888,-0.15870283,-0.00000682,0.02284211,-0.03010237,-0.00000064,-0.0052
 2578,-0.00380204,-0.00000241,-0.00214119,0.00629644,-0.00000218,0.0000
 6424,-0.00362794,0.00000386,0.08885260,0.59410311,-0.00000149,-0.00000
 016,-0.00123679,-0.00000093,0.00000165,0.00711187,0.00000209,-0.000000
 91,0.00184206,-0.00000070,-0.00001192,-0.07254897,0.00000840,0.0000013
 6,-0.00093096,-0.00000159,-0.00000234,0.00741846,-0.00000061,0.0000008
 2,-0.00276002,0.00000144,-0.00000007,-0.00128683,0.00003933,-0.0000153
 5,0.70696602,-0.00212657,0.00158691,-0.00000033,0.00025921,-0.00013480
 ,0.,-0.00192429,0.00149276,-0.00000058,0.00480152,0.00410082,-0.000000
 48,-0.03268511,0.04286641,-0.00000185,-0.00475339,-0.00750200,-0.00000
 092,-0.28805764,0.23987656,-0.00001446,0.03607285,-0.00556796,0.000003
 78,-0.01780186,-0.02259828,-0.00001497,0.32746502,0.00157671,0.0016637
 0,-0.00000013,-0.00046846,0.00089815,-0.00000042,0.00280753,0.00164770
 ,-0.00000079,0.00141891,-0.01881412,0.00000087,0.03034564,-0.00481905,
 0.00000366,-0.00142894,0.00464269,-0.00000082,0.22435457,-0.44791865,0
 .00001745,0.01743514,-0.10730137,0.00003776,-0.04661659,-0.01787769,-0
 .00000870,-0.26533792,0.56175688,0.00000018,0.00000037,-0.00186960,-0.
 00000035,0.00000016,0.00035571,0.00000011,0.00000147,-0.00054496,0.000
 00101,-0.00000598,-0.00012777,-0.00000876,0.00000358,0.01888938,0.,0.0
 0000063,0.00338026,-0.00001022,0.00001903,-0.07422525,-0.00000427,0.00
 003657,0.02679570,-0.00002512,-0.00001395,0.01012249,0.00002609,-0.000
 06061,0.03714679,-0.13581555,0.12747105,-0.00000690,0.01243215,-0.0154
 0699,0.00000088,-0.00098164,-0.00346669,-0.00000036,-0.00104499,-0.001
 07393,0.00000001,-0.00491548,-0.00123642,-0.00000156,-0.01165900,0.027
 37938,-0.00000117,0.00050065,0.00153774,0.00000016,-0.00013484,-0.0001
 9868,0.,0.00030541,0.00012442,0.,-0.00077927,0.00027273,0.00000005,0.1
 4051443,0.12755033,-0.27274096,0.00001024,0.01495218,-0.01740203,0.000
 00126,-0.00317718,-0.00290429,-0.00000014,-0.00119066,0.00012291,-0.00
 000003,-0.00125350,0.00128110,-0.00000027,-0.00304424,0.00604702,-0.00
 000017,-0.00017680,0.00030703,0.00000002,0.00002396,0.00000604,-0.0000
 0004,0.00026914,0.00006373,-0.00000011,-0.00012050,0.00004966,0.,-0.13
 442496,0.28468982,-0.00000685,0.00000957,-0.04041728,0.00000025,0.0000
 0004,0.00431185,0.00000020,-0.00000033,0.00715659,-0.00000012,-0.00000
 026,0.00002567,-0.00000106,-0.00000028,0.00710241,-0.00000168,0.000001
 95,0.00404340,-0.00000013,-0.00000019,0.00032790,0.00000010,0.00000009
 ,0.00001649,0.00000011,0.00000021,-0.00108402,0.00000012,0.00000008,-0
 .00026920,0.00000832,-0.00001084,0.02699369,-0.00845938,0.00193042,-0.
 00000109,-0.34872104,-0.00620843,-0.00002320,-0.00969727,-0.00206977,-
 0.00000098,0.00094425,0.00207057,-0.00000037,0.00092507,-0.00015429,0.
 00000009,0.00029711,-0.00234040,-0.00000056,-0.00034876,-0.00003116,0.
 00000005,0.00001826,0.00004641,0.,-0.00064958,-0.00014316,0.,0.0000413
 3,-0.00013974,-0.00000008,0.00063842,-0.00009397,0.00000037,0.36466801
 ,-0.02815471,0.00479731,-0.00000177,-0.00667595,-0.06004330,-0.0000000
 4,0.02833336,0.00395630,0.00000193,0.00153577,-0.00382482,0.00000005,0
 .00004797,-0.00125019,0.00000007,-0.00259058,-0.00487752,-0.00000006,0
 .00018937,-0.00034489,0.00000006,-0.00007586,0.00015219,-0.00000005,0.
 00225537,-0.00023991,-0.00000008,-0.00003180,0.00039718,0.00000014,0.0
 0012055,0.00064074,-0.00000009,0.00658802,0.06004490,0.00000032,0.0000
 0054,0.00562446,-0.00002403,-0.00000003,-0.04131841,-0.00000010,-0.000
 00114,0.00450258,-0.00000116,-0.00000015,0.00700475,-0.00000009,-0.000
 00032,-0.00082169,-0.00000105,0.00000086,0.00726998,0.00000029,-0.0000
 0009,-0.00113553,0.,-0.00000001,0.00019876,0.00000012,-0.00000003,0.00
 015071,-0.00000003,0.00000034,0.00013559,0.00000022,-0.00000006,-0.003
 93589,0.00002542,0.00000004,0.02674533,-0.00168366,0.00334545,-0.00000
 060,0.01309905,0.01568897,0.00000143,-0.12676432,-0.12016093,-0.000009
 28,-0.01090816,-0.02855462,-0.00000214,-0.00479300,0.00225244,-0.00000
 151,-0.00049818,0.00071088,0.00000006,0.00071537,-0.00174354,0.0000001
 6,-0.00071403,0.00007897,-0.00000006,0.00272897,-0.00010102,-0.0000003
 7,0.00009705,0.00087408,0.00000045,0.00052138,0.00077554,-0.00000005,0
 .00063579,-0.00006320,0.00000023,0.13008231,0.00383881,-0.00274120,0.0
 0000014,-0.01478543,-0.01783879,-0.00000186,-0.12017385,-0.27432508,-0
 .00001742,0.00304883,0.00252767,0.00000018,0.00060491,0.00139045,-0.00
 000009,0.00098928,0.00000344,0.00000004,0.00063784,-0.00006612,0.00000
 018,-0.00000821,0.00005367,0.00000002,0.00023950,0.00144133,0.00000013
 ,-0.00008625,0.00031446,0.,-0.00083260,-0.00080418,0.00000004,0.000062
 91,0.00078015,0.00000015,0.12739036,0.28872823,-0.00000148,-0.00000013
 ,0.00664755,-0.00000037,0.00000245,0.00404113,-0.00000819,-0.00001874,
 -0.03595860,-0.00000157,-0.00000276,0.00357079,-0.00000043,-0.00000022
 ,0.00586750,0.00000057,-0.00000041,-0.00101422,0.00000004,0.00000013,0
 .00143814,-0.00000014,-0.00000003,-0.00023375,0.00000069,0.00000136,-0
 .00359987,0.00000011,0.00000019,-0.00014726,0.,0.00000005,-0.00010868,
 0.00000032,0.00000006,-0.00385689,0.00001115,0.00001835,0.02469405,-0.
 00904705,-0.02721816,-0.00000225,-0.00555530,0.00064504,-0.00000112,-0
 .00083796,0.00093738,-0.00000006,-0.00167361,0.00217523,-0.00000084,0.
 01181592,0.01613164,0.00000147,-0.12736643,-0.12497876,-0.00001303,0.0
 0151634,0.00212533,-0.00000061,-0.00439079,0.00053999,0.00000113,-0.00
 009965,0.00156509,0.00000038,0.00002416,-0.00133866,-0.00000001,0.0006
 6826,0.00009524,0.00000047,-0.00039832,-0.00128255,0.00000023,0.000078
 70,-0.00008992,0.00000009,0.13463864,0.00240578,0.00604825,0.00000034,
 0.00111623,0.00096851,-0.00000004,0.00028645,0.00031605,-0.00000004,0.
 00365285,-0.00106305,0.00000043,-0.01253898,-0.01854724,-0.00000162,-0
 .12303603,-0.28278306,-0.00001688,-0.00117601,-0.00258588,0.00000085,-
 0.00041258,0.00098880,-0.00000038,-0.00021292,-0.00096583,-0.00000028,
 -0.00002177,0.00111770,0.00000003,-0.00006895,0.00066469,0.00000004,0.
 00025023,0.00021397,-0.00000001,-0.00008584,0.00001172,0.00000002,0.13
 020921,0.29556594,0.00000084,-0.00000232,0.00581654,-0.00000099,-0.000
 00100,0.00710559,-0.00000106,0.00000007,-0.00096159,-0.00000083,0.0000
 0076,0.00557817,0.00000150,-0.00000124,0.00364925,-0.00001504,-0.00001
 531,-0.04036141,0.00000022,0.00000001,-0.00416314,0.00000090,0.0000002
 0,0.00037528,0.00000049,0.00000047,0.00106329,-0.00000008,0.00000063,0
 .00059067,0.00000044,0.00000003,-0.00406967,0.00000001,-0.00000018,-0.
 00054084,0.00000007,0.,-0.00067837,0.00001407,0.00001775,0.02669949,-0
 .00007798,0.00014277,0.00000004,0.00005090,0.00034443,0.,0.00057408,-0
 .00054478,-0.00000009,-0.00117663,0.00014401,0.00000061,0.00243158,-0.
 00192770,0.00000320,0.00064220,0.00012116,-0.00000029,-0.02598511,-0.0
 0880572,0.00000242,-0.47793364,0.02335835,0.00006417,0.00134093,0.0005
 3753,-0.00000021,0.00167436,0.00952609,-0.00000124,0.00001571,-0.00000
 233,0.00000001,-0.00000220,0.00001352,0.00000001,-0.00003801,0.0000092
 1,-0.00000011,-0.00006211,0.00012033,-0.00000011,0.50027353,0.00007057
 ,0.00033237,0.00000009,0.00016100,-0.00000076,-0.00000002,0.00001475,-
 0.00054419,-0.00000013,-0.00162514,0.00086417,-0.00000022,-0.00086433,
 -0.00601159,0.00000475,0.00086923,-0.00036793,-0.00000044,-0.05568858,
 0.00195866,0.00000901,0.07251501,-0.04950185,0.00000927,0.00154747,0.0
 0072997,0.00000052,0.00670539,0.00215798,-0.00000353,0.00001931,0.0000
 0866,-0.00000002,0.00001331,0.00002616,0.00000001,-0.00012557,0.000005
 13,-0.00000008,-0.00024654,0.00065768,0.00000014,-0.02148749,0.0514070
 7,0.00000038,-0.00000009,0.00006709,-0.00000019,-0.00000050,0.00008449
 ,-0.00000063,0.00000084,-0.00031152,0.00000184,-0.00000078,0.00077678,
 -0.00000301,0.00000438,0.00533020,-0.00000095,0.00000025,-0.00036517,0
 .00003667,0.00000315,0.00299959,0.00003835,0.00001358,-0.01653446,-0.0
 0000147,-0.00000073,0.00023455,-0.00000463,-0.00000311,-0.00566716,0.0
 0000002,0.00000001,0.00002641,0.,-0.00000003,-0.00002396,0.00000011,0.
 ,-0.00015233,-0.00000004,-0.00000018,-0.00014144,-0.00006787,-0.000018
 02,0.01374211,0.00057815,0.00048766,-0.00020198,-0.00006273,-0.0006088
 1,0.00066654,0.00034707,0.00191971,0.00019395,0.00479734,0.01126443,-0
 .01616849,-0.00139224,0.00008570,-0.00110616,-0.00072639,0.00060332,0.
 00080006,-0.00070913,0.00072934,-0.00047221,0.00004099,-0.00033156,0.0
 0057042,-0.06860672,-0.04095722,0.06011156,-0.00278506,-0.00258710,-0.
 00242203,-0.00002754,-0.00006953,-0.00007877,-0.00001748,0.00000140,-0
 .00000537,-0.00084270,-0.00036409,-0.00043668,-0.00007081,0.00007784,0
 .00017646,0.00004145,0.00003939,-0.00000660,0.06426850,0.00029601,0.00
 036457,0.00022716,-0.00012639,-0.00118146,-0.00116367,-0.00134900,0.00
 213339,-0.00024020,-0.00477284,-0.02001219,0.01907952,0.00281966,-0.00
 120693,0.00116619,-0.00064964,-0.00060041,-0.00111932,0.00044044,-0.00
 099687,0.00056980,0.00012890,0.00052556,0.00009350,-0.04050831,-0.1588
 5094,0.15841393,-0.00032297,0.00091209,-0.00054843,0.00002039,0.000024
 44,0.00019578,-0.00002265,0.00008864,0.00000790,0.00031980,0.00027070,
 0.00079121,0.00018366,-0.00016457,-0.00021248,-0.00011271,-0.00006725,
 0.00000174,0.03896395,0.16808886,-0.00031988,-0.00044874,0.00001286,0.
 00000012,0.00053513,0.00028250,0.00067086,-0.00108988,0.00038740,-0.00
 388265,0.00072354,0.00678769,0.00036206,-0.00142485,-0.00035967,0.0002
 0889,-0.00049090,-0.00020390,0.00055984,0.00080122,0.00038413,-0.00034
 974,-0.00062103,-0.00002184,0.05609539,0.14935021,-0.29171780,-0.00143
 683,-0.00150099,-0.00064716,-0.00001230,-0.00001974,-0.00005897,0.0000
 4888,-0.00008077,0.00002183,-0.00032832,0.00011760,-0.00015123,0.00005
 611,-0.00009949,0.00001863,0.00010758,0.00006232,0.00006184,-0.0631472
 4,-0.16392887,0.30484626,-0.00089646,-0.00091837,0.00000013,-0.0004122
 9,-0.00037137,0.00000020,-0.00000970,-0.00066558,0.00000138,-0.0228752
 1,0.01523303,0.00000199,-0.00277927,0.00157615,-0.00000134,-0.00102211
 ,-0.00298260,-0.00000056,0.03234508,-0.02344521,0.00001165,-0.00273037
 ,0.01435800,-0.00001224,-0.23857803,-0.04386620,0.00005346,-0.01673112
 ,0.03190166,0.00002719,-0.00021057,-0.00004317,0.00000002,0.00014327,-
 0.00021200,-0.00000026,-0.00087342,-0.00011692,-0.00000017,0.00083088,
 -0.00064379,-0.00000015,-0.00181051,-0.00195752,0.00000154,0.00341394,
 -0.00075626,0.00285823,0.24879597,-0.00120668,-0.00077076,-0.00000013,
 0.00135549,0.00110970,0.00000085,0.00180838,-0.00822389,-0.00000051,0.
 02826449,0.01723684,-0.00000626,-0.00230922,0.00044793,-0.00000110,0.0
 0028952,-0.00210613,0.00000011,0.01588393,-0.03178395,0.00000477,-0.00
 065211,0.01039527,-0.00000965,-0.03122457,-0.06539520,0.00001649,0.005
 41961,0.02026333,0.00002291,-0.00025679,-0.00007883,-0.00000006,0.0002
 6438,-0.00060566,-0.00000002,-0.00092208,-0.00002254,-0.00000027,0.000
 36297,-0.00027900,-0.00000011,-0.00132396,-0.00158716,0.00000122,-0.01
 471108,-0.00429470,-0.00039560,0.01367062,0.06998983,-0.00000042,-0.00
 000020,0.00017202,-0.00000003,0.00000034,0.00025705,-0.00000053,-0.000
 00096,0.00067597,0.00000224,0.00000288,-0.00097972,-0.00000157,0.00000
 202,0.00097439,-0.00000045,-0.00000035,-0.00044801,0.00000672,-0.00001
 232,-0.00050115,-0.00000112,0.00000864,0.00279116,0.00006864,0.0000244
 2,-0.06807989,0.00000641,0.00001177,-0.01327361,-0.00000011,0.,-0.0000
 0170,0.00000002,-0.00000009,-0.00004257,-0.00000010,0.00000009,-0.0002
 0682,0.00000013,-0.00000009,0.00000100,-0.00000060,-0.00000131,-0.0001
 8900,0.03004635,0.00518054,0.00283048,-0.00008127,-0.00003189,0.073179
 58,0.00057884,0.00048813,0.00020214,-0.00006219,-0.00060942,-0.0006657
 8,0.00034722,0.00192003,-0.00019323,0.00480853,0.01126616,0.01616954,-
 0.00139241,0.00008662,0.00110569,-0.00072659,0.00060409,-0.00080001,-0
 .00071370,0.00073383,0.00047142,0.00004152,-0.00033358,-0.00056912,-0.
 06864904,-0.04101503,-0.06019578,-0.00279120,-0.00259566,0.00241701,-0
 .00002753,-0.00006955,0.00007869,-0.00001746,0.00000133,0.00000526,-0.
 00084312,-0.00036440,0.00043617,-0.00007088,0.00007794,-0.00017675,0.0
 0004144,0.00003974,0.00000647,0.00175337,0.00544797,0.00850899,0.00339
 992,-0.01471290,-0.03004430,0.06432327,0.00029593,0.00036472,-0.000227
 12,-0.00012683,-0.00118130,0.00116341,-0.00134872,0.00213514,0.0002406
 0,-0.00478568,-0.02001731,-0.01907768,0.00282351,-0.00120560,-0.001166
 98,-0.00065086,-0.00060092,0.00111871,0.00043827,-0.00099404,-0.000568
 30,0.00012905,0.00052488,-0.00009390,-0.04057053,-0.15885900,-0.158394
 99,-0.00032419,0.00090936,0.00054762,0.00002044,0.00002444,-0.00019573
 ,-0.00002268,0.00008875,-0.00000797,0.00032030,0.00027096,-0.00079117,
 0.00018381,-0.00016467,0.00021257,-0.00011270,-0.00006712,-0.00000175,
 0.00545665,0.01496706,0.01851086,-0.00076047,-0.00429507,-0.00518351,0
 .03903470,0.16809972,0.00032007,0.00044877,0.00001291,-0.00000018,-0.0
 0053532,0.00028269,-0.00067085,0.00109039,0.00038777,0.00388146,-0.000
 72458,0.00677959,-0.00036275,0.00142415,-0.00035918,-0.00020876,0.0004
 9101,-0.00020344,-0.00055899,-0.00080254,0.00038415,0.00034959,0.00062
 108,-0.00002279,-0.05618079,-0.14933631,-0.29166431,0.00143865,0.00150
 281,-0.00064463,0.00001231,0.00001977,-0.00005901,-0.00004890,0.000080
 80,0.00002179,0.00032879,-0.00011754,-0.00015114,-0.00005611,0.0000995
 2,0.00001854,-0.00010752,-0.00006234,0.00006199,-0.00851981,-0.0185143
 0,-0.02247305,-0.00285980,0.00039927,0.00284080,0.06324360,0.16391535,
 0.30478733\\0.00000370,0.00001083,-0.00000133,-0.00000476,-0.00001201,
 0.00000025,-0.00000935,0.00001619,-0.00000731,0.00002463,-0.00003718,0
 .00000390,-0.00002277,0.00000875,0.00002990,0.00000411,0.00000243,0.00
 000662,0.00001255,0.00002008,-0.00010986,-0.00000300,-0.00001548,0.000
 03530,-0.00004204,0.00002883,-0.00002198,0.00000511,-0.00001084,0.0000
 2549,0.00000193,-0.00000030,-0.00000099,0.00000149,0.00000124,0.000001
 51,-0.00000057,0.00000111,-0.00000067,0.00000169,-0.00000218,0.0000000
 3,0.00000222,0.00000121,0.00000279,0.00000994,-0.00000619,0.00000397,0
 .00002310,0.00000180,0.00003351,-0.00000800,-0.00000828,-0.00000113\\\
 @


 REFRAIN FROM ILLUSIONS, INSIST ON WORK AND NOT WORDS,
 PATIENTLY SEEK DIVINE AND SCIENTIFIC TRUTH.
 LAST WORDS OF MARIA MENDELEEVA TO HER SON DMITRI, C. 1850
 Job cpu time:       0 days  0 hours 11 minutes 34.7 seconds.
 File lengths (MBytes):  RWF=    100 Int=      0 D2E=      0 Chk=      5 Scr=      1
 Normal termination of Gaussian 09 at Tue Dec 17 20:49:02 2024.
