 Entering Gaussian System, Link 0=g09
 Input=B3PWD3Anthranilic.gjf
 Output=B3PWD3Anthranilic.log
 Initial command:
 /home/c612/g09E/g09/l1.exe "/mnt/ja_sm883/scratch/Gau-1966288.inp" -scrdir="/mnt/ja_sm883/scratch/"
 Default is to use a total of  18 processors:
                               18 via shared-memory
                                1 via Linda
 Entering Link 1 = /home/c612/g09E/g09/l1.exe PID=   1966290.
  
 Copyright (c) 1988,1990,1992,1993,1995,1998,2003,2009,2015,
            Gaussian, Inc.  All Rights Reserved.
  
 This is part of the Gaussian(R) 09 program.  It is based on
 the Gaussian(R) 03 system (copyright 2003, Gaussian, Inc.),
 the Gaussian(R) 98 system (copyright 1998, Gaussian, Inc.),
 the Gaussian(R) 94 system (copyright 1995, Gaussian, Inc.),
 the Gaussian 92(TM) system (copyright 1992, Gaussian, Inc.),
 the Gaussian 90(TM) system (copyright 1990, Gaussian, Inc.),
 the Gaussian 88(TM) system (copyright 1988, Gaussian, Inc.),
 the Gaussian 86(TM) system (copyright 1986, Carnegie Mellon
 University), and the Gaussian 82(TM) system (copyright 1983,
 Carnegie Mellon University). Gaussian is a federally registered
 trademark of Gaussian, Inc.
  
 This software contains proprietary and confidential information,
 including trade secrets, belonging to Gaussian, Inc.
  
 This software is provided under written license and may be
 used, copied, transmitted, or stored only in accord with that
 written license.
  
 The following legend is applicable only to US Government
 contracts under FAR:
  
                    RESTRICTED RIGHTS LEGEND
  
 Use, reproduction and disclosure by the US Government is
 subject to restrictions as set forth in subparagraphs (a)
 and (c) of the Commercial Computer Software - Restricted
 Rights clause in FAR 52.227-19.
  
 Gaussian, Inc.
 340 Quinnipiac St., Bldg. 40, Wallingford CT 06492
  
  
 ---------------------------------------------------------------
 Warning -- This program may not be used in any manner that
 competes with the business of Gaussian, Inc. or will provide
 assistance to any competitor of Gaussian, Inc.  The licensee
 of this program is prohibited from giving any competitor of
 Gaussian, Inc. access to this program.  By using this program,
 the user acknowledges that Gaussian, Inc. is engaged in the
 business of creating and licensing software in the field of
 computational chemistry and represents and warrants to the
 licensee that it is not a competitor of Gaussian, Inc. and that
 it will not use this program in any manner prohibited above.
 ---------------------------------------------------------------
  

 Cite this work as:
 Gaussian 09, Revision E.01,
 M. J. Frisch, G. W. Trucks, H. B. Schlegel, G. E. Scuseria, 
 M. A. Robb, J. R. Cheeseman, G. Scalmani, V. Barone, B. Mennucci, 
 G. A. Petersson, H. Nakatsuji, M. Caricato, X. Li, H. P. Hratchian, 
 A. F. Izmaylov, J. Bloino, G. Zheng, J. L. Sonnenberg, M. Hada, 
 M. Ehara, K. Toyota, R. Fukuda, J. Hasegawa, M. Ishida, T. Nakajima, 
 Y. Honda, O. Kitao, H. Nakai, T. Vreven, J. A. Montgomery, Jr., 
 J. E. Peralta, F. Ogliaro, M. Bearpark, J. J. Heyd, E. Brothers, 
 K. N. Kudin, V. N. Staroverov, T. Keith, R. Kobayashi, J. Normand, 
 K. Raghavachari, A. Rendell, J. C. Burant, S. S. Iyengar, J. Tomasi, 
 M. Cossi, N. Rega, J. M. Millam, M. Klene, J. E. Knox, J. B. Cross, 
 V. Bakken, C. Adamo, J. Jaramillo, R. Gomperts, R. E. Stratmann, 
 O. Yazyev, A. J. Austin, R. Cammi, C. Pomelli, J. W. Ochterski, 
 R. L. Martin, K. Morokuma, V. G. Zakrzewski, G. A. Voth, 
 P. Salvador, J. J. Dannenberg, S. Dapprich, A. D. Daniels, 
 O. Farkas, J. B. Foresman, J. V. Ortiz, J. Cioslowski, 
 and D. J. Fox, Gaussian, Inc., Wallingford CT, 2013.
 
 ******************************************
 Gaussian 09:  ES64L-G09RevE.01 30-Nov-2015
                19-Dec-2024 
 ******************************************
 %chk=B3PWD3Anthranilic.chk
 -----------------------------------------------------
 # opt freq b3pw91/6-31+g(d,p) EmpiricalDispersion=GD3
 -----------------------------------------------------
 1/14=-1,18=20,19=15,26=3,38=1/1,3;
 2/9=110,12=2,17=6,18=5,40=1/2;
 3/5=1,6=6,7=111,11=2,16=1,25=1,30=1,71=1,74=-6,124=31/1,2,3;
 4//1;
 5/5=2,38=5/2;
 6/7=2,8=2,9=2,10=2,28=1/1;
 7//1,2,3,16;
 1/14=-1,18=20,19=15,26=3/3(2);
 2/9=110/2;
 99//99;
 2/9=110/2;
 3/5=1,6=6,7=111,11=2,16=1,25=1,30=1,71=1,74=-6,124=31/1,2,3;
 4/5=5,16=3,69=1/1;
 5/5=2,38=5/2;
 7//1,2,3,16;
 1/14=-1,18=20,19=15,26=3/3(-5);
 2/9=110/2;
 6/7=2,8=2,9=2,10=2,19=2,28=1/1;
 99/9=1/99;
 ----------
 [No Title]
 ----------
 Symbolic Z-matrix:
 Charge =  0 Multiplicity = 1
 C                    -1.8597   -1.51697  0. 
 C                    -2.58481  -0.31511   0.00006 
 C                    -1.93787   0.90638   0.00006 
 C                    -0.52585   0.98761  -0.00001 
 C                     0.2118   -0.23213  -0.00008 
 C                    -0.47763  -1.46048  -0.00007 
 C                     1.67474  -0.20583  -0.00015 
 O                     2.25067  -1.43093   0.00006 
 N                     0.08522   2.1996   -0.00001 
 O                     2.37545   0.80257   0.00007 
 H                    -2.3729   -2.47295  0. 
 H                    -3.67157  -0.3378    0.00011 
 H                    -2.51344   1.82888   0.00011 
 H                     0.10645  -2.37429  -0.00011 
 H                     3.20723  -1.27408   0.00018 
 H                     1.09659   2.23647  -0.0001 
 H                    -0.46195   3.04264   0. 
 

 GradGradGradGradGradGradGradGradGradGradGradGradGradGradGradGradGradGrad
 Berny optimization.
 Initialization pass.
                           ----------------------------
                           !    Initial Parameters    !
                           ! (Angstroms and Degrees)  !
 --------------------------                            --------------------------
 ! Name  Definition              Value          Derivative Info.                !
 --------------------------------------------------------------------------------
 ! R1    R(1,2)                  1.4037         estimate D2E/DX2                !
 ! R2    R(1,6)                  1.3832         estimate D2E/DX2                !
 ! R3    R(1,11)                 1.085          estimate D2E/DX2                !
 ! R4    R(2,3)                  1.3822         estimate D2E/DX2                !
 ! R5    R(2,12)                 1.087          estimate D2E/DX2                !
 ! R6    R(3,4)                  1.4144         estimate D2E/DX2                !
 ! R7    R(3,13)                 1.0873         estimate D2E/DX2                !
 ! R8    R(4,5)                  1.4254         estimate D2E/DX2                !
 ! R9    R(4,9)                  1.3573         estimate D2E/DX2                !
 ! R10   R(5,6)                  1.4086         estimate D2E/DX2                !
 ! R11   R(5,7)                  1.4632         estimate D2E/DX2                !
 ! R12   R(6,14)                 1.0845         estimate D2E/DX2                !
 ! R13   R(7,8)                  1.3537         estimate D2E/DX2                !
 ! R14   R(7,10)                 1.2279         estimate D2E/DX2                !
 ! R15   R(8,15)                 0.9693         estimate D2E/DX2                !
 ! R16   R(9,16)                 1.012          estimate D2E/DX2                !
 ! R17   R(9,17)                 1.005          estimate D2E/DX2                !
 ! A1    A(2,1,6)              118.7631         estimate D2E/DX2                !
 ! A2    A(2,1,11)             120.668          estimate D2E/DX2                !
 ! A3    A(6,1,11)             120.5689         estimate D2E/DX2                !
 ! A4    A(1,2,3)              120.9891         estimate D2E/DX2                !
 ! A5    A(1,2,12)             119.9074         estimate D2E/DX2                !
 ! A6    A(3,2,12)             119.1035         estimate D2E/DX2                !
 ! A7    A(2,3,4)              121.1994         estimate D2E/DX2                !
 ! A8    A(2,3,13)             120.1315         estimate D2E/DX2                !
 ! A9    A(4,3,13)             118.6691         estimate D2E/DX2                !
 ! A10   A(3,4,5)              117.8717         estimate D2E/DX2                !
 ! A11   A(3,4,9)              120.0487         estimate D2E/DX2                !
 ! A12   A(5,4,9)              122.0796         estimate D2E/DX2                !
 ! A13   A(4,5,6)              119.5321         estimate D2E/DX2                !
 ! A14   A(4,5,7)              120.1338         estimate D2E/DX2                !
 ! A15   A(6,5,7)              120.3341         estimate D2E/DX2                !
 ! A16   A(1,6,5)              121.6447         estimate D2E/DX2                !
 ! A17   A(1,6,14)             120.2449         estimate D2E/DX2                !
 ! A18   A(5,6,14)             118.1104         estimate D2E/DX2                !
 ! A19   A(5,7,8)              114.1485         estimate D2E/DX2                !
 ! A20   A(5,7,10)             125.8246         estimate D2E/DX2                !
 ! A21   A(8,7,10)             120.0269         estimate D2E/DX2                !
 ! A22   A(7,8,15)             105.8662         estimate D2E/DX2                !
 ! A23   A(4,9,16)             118.8439         estimate D2E/DX2                !
 ! A24   A(4,9,17)             120.2582         estimate D2E/DX2                !
 ! A25   A(16,9,17)            120.8978         estimate D2E/DX2                !
 ! D1    D(6,1,2,3)              0.0001         estimate D2E/DX2                !
 ! D2    D(6,1,2,12)          -179.9999         estimate D2E/DX2                !
 ! D3    D(11,1,2,3)           179.9999         estimate D2E/DX2                !
 ! D4    D(11,1,2,12)            0.0            estimate D2E/DX2                !
 ! D5    D(2,1,6,5)             -0.0004         estimate D2E/DX2                !
 ! D6    D(2,1,6,14)           179.9999         estimate D2E/DX2                !
 ! D7    D(11,1,6,5)           179.9998         estimate D2E/DX2                !
 ! D8    D(11,1,6,14)            0.0            estimate D2E/DX2                !
 ! D9    D(1,2,3,4)              0.0001         estimate D2E/DX2                !
 ! D10   D(1,2,3,13)           179.9999         estimate D2E/DX2                !
 ! D11   D(12,2,3,4)          -180.0            estimate D2E/DX2                !
 ! D12   D(12,2,3,13)           -0.0001         estimate D2E/DX2                !
 ! D13   D(2,3,4,5)              0.0001         estimate D2E/DX2                !
 ! D14   D(2,3,4,9)            179.9997         estimate D2E/DX2                !
 ! D15   D(13,3,4,5)          -179.9998         estimate D2E/DX2                !
 ! D16   D(13,3,4,9)            -0.0001         estimate D2E/DX2                !
 ! D17   D(3,4,5,6)             -0.0003         estimate D2E/DX2                !
 ! D18   D(3,4,5,7)            179.9999         estimate D2E/DX2                !
 ! D19   D(9,4,5,6)            180.0            estimate D2E/DX2                !
 ! D20   D(9,4,5,7)              0.0002         estimate D2E/DX2                !
 ! D21   D(3,4,9,16)          -179.9974         estimate D2E/DX2                !
 ! D22   D(3,4,9,17)            -0.0019         estimate D2E/DX2                !
 ! D23   D(5,4,9,16)             0.0023         estimate D2E/DX2                !
 ! D24   D(5,4,9,17)           179.9978         estimate D2E/DX2                !
 ! D25   D(4,5,6,1)              0.0005         estimate D2E/DX2                !
 ! D26   D(4,5,6,14)          -179.9997         estimate D2E/DX2                !
 ! D27   D(7,5,6,1)           -179.9997         estimate D2E/DX2                !
 ! D28   D(7,5,6,14)             0.0001         estimate D2E/DX2                !
 ! D29   D(4,5,7,8)            179.9878         estimate D2E/DX2                !
 ! D30   D(4,5,7,10)             0.0133         estimate D2E/DX2                !
 ! D31   D(6,5,7,8)             -0.0119         estimate D2E/DX2                !
 ! D32   D(6,5,7,10)          -179.9865         estimate D2E/DX2                !
 ! D33   D(5,7,8,15)          -179.988          estimate D2E/DX2                !
 ! D34   D(10,7,8,15)           -0.0118         estimate D2E/DX2                !
 --------------------------------------------------------------------------------
 Trust Radius=3.00D-01 FncErr=1.00D-07 GrdErr=1.00D-06
 Number of steps in this run=     86 maximum allowed number of steps=    102.
 GradGradGradGradGradGradGradGradGradGradGradGradGradGradGradGradGradGrad

                          Input orientation:                          
 ---------------------------------------------------------------------
 Center     Atomic      Atomic             Coordinates (Angstroms)
 Number     Number       Type             X           Y           Z
 ---------------------------------------------------------------------
      1          6           0       -1.859697   -1.516973   -0.000004
      2          6           0       -2.584813   -0.315109    0.000059
      3          6           0       -1.937868    0.906384    0.000058
      4          6           0       -0.525849    0.987607   -0.000008
      5          6           0        0.211799   -0.232130   -0.000075
      6          6           0       -0.477634   -1.460482   -0.000066
      7          6           0        1.674740   -0.205827   -0.000148
      8          8           0        2.250672   -1.430933    0.000055
      9          7           0        0.085220    2.199604   -0.000013
     10          8           0        2.375451    0.802569    0.000072
     11          1           0       -2.372897   -2.472953   -0.000002
     12          1           0       -3.671573   -0.337802    0.000110
     13          1           0       -2.513443    1.828883    0.000106
     14          1           0        0.106448   -2.374294   -0.000113
     15          1           0        3.207233   -1.274077    0.000176
     16          1           0        1.096585    2.236467   -0.000101
     17          1           0       -0.461947    3.042642    0.000002
 ---------------------------------------------------------------------
                    Distance matrix (angstroms):
                    1          2          3          4          5
     1  C    0.000000
     2  C    1.403663   0.000000
     3  C    2.424617   1.382238   0.000000
     4  C    2.837617   2.436473   1.414353   0.000000
     5  C    2.437605   2.797843   2.432546   1.425441   0.000000
     6  C    1.383217   2.398350   2.781068   2.448564   1.408604
     7  C    3.769794   4.260955   3.779940   2.503373   1.463177
     8  O    4.111269   4.962558   4.796553   3.682174   2.365192
     9  N    4.194717   3.667814   2.401105   1.357329   2.435026
    10  O    4.828742   5.084626   4.314568   2.907195   2.398331
    11  H    1.085022   2.168225   3.407223   3.922635   3.420810
    12  H    2.161791   1.086997   2.133947   3.413545   3.884809
    13  H    3.409125   2.145180   1.087332   2.158304   3.416829
    14  H    2.144930   3.388677   3.865498   3.420845   2.144753
    15  H    5.072749   5.870896   5.588065   4.364758   3.171479
    16  H    4.777857   4.479200   3.313159   2.047424   2.622369
    17  H    4.769045   3.972537   2.596525   2.056028   3.343361
                    6          7          8          9         10
     6  C    0.000000
     7  C    2.491360   0.000000
     8  O    2.728466   1.353729   0.000000
     9  N    3.703111   2.883171   4.227290   0.000000
    10  O    3.641633   1.227949   2.236985   2.682697   0.000000
    11  H    2.148748   4.639313   4.739535   5.279690   5.768523
    12  H    3.385507   5.347942   6.022285   4.533423   6.153612
    13  H    3.868390   4.656278   5.772624   2.624973   4.995458
    14  H    1.084529   2.676152   2.342568   4.573947   3.903951
    15  H    3.689579   1.868072   0.969336   4.670484   2.237034
    16  H    4.018158   2.509793   3.844703   1.012037   1.921344
    17  H    4.503151   3.888185   5.231747   1.005040   3.615073
                   11         12         13         14         15
    11  H    0.000000
    12  H    2.499086   0.000000
    13  H    4.304131   2.456784   0.000000
    14  H    2.481307   4.291939   4.952830   0.000000
    15  H    5.707465   6.942232   6.508033   3.290189   0.000000
    16  H    5.849439   5.418689   3.632964   4.715876   4.096188
    17  H    5.837253   4.661448   2.383662   5.446675   5.665417
                   16         17
    16  H    0.000000
    17  H    1.754691   0.000000
 Stoichiometry    C7H7NO2
 Framework group  C1[X(C7H7NO2)]
 Deg. of freedom    45
 Full point group                 C1      NOp   1
 Largest Abelian subgroup         C1      NOp   1
 Largest concise Abelian subgroup C1      NOp   1
                         Standard orientation:                         
 ---------------------------------------------------------------------
 Center     Atomic      Atomic             Coordinates (Angstroms)
 Number     Number       Type             X           Y           Z
 ---------------------------------------------------------------------
      1          6           0       -1.859697   -1.516973   -0.000004
      2          6           0       -2.584813   -0.315109    0.000059
      3          6           0       -1.937868    0.906384    0.000058
      4          6           0       -0.525849    0.987607   -0.000008
      5          6           0        0.211799   -0.232130   -0.000075
      6          6           0       -0.477634   -1.460482   -0.000066
      7          6           0        1.674740   -0.205827   -0.000148
      8          8           0        2.250672   -1.430933    0.000055
      9          7           0        0.085220    2.199604   -0.000013
     10          8           0        2.375451    0.802569    0.000072
     11          1           0       -2.372897   -2.472953   -0.000002
     12          1           0       -3.671573   -0.337802    0.000110
     13          1           0       -2.513443    1.828883    0.000106
     14          1           0        0.106448   -2.374294   -0.000113
     15          1           0        3.207233   -1.274077    0.000176
     16          1           0        1.096585    2.236467   -0.000101
     17          1           0       -0.461947    3.042642    0.000002
 ---------------------------------------------------------------------
 Rotational constants (GHZ):      2.3049809      1.2158566      0.7959829
 Standard basis: 6-31+G(d,p) (6D, 7F)
 There are   225 symmetry adapted cartesian basis functions of A   symmetry.
 There are   225 symmetry adapted basis functions of A   symmetry.
   225 basis functions,   369 primitive gaussians,   225 cartesian basis functions
    36 alpha electrons       36 beta electrons
       nuclear repulsion energy       501.2620394173 Hartrees.
 NAtoms=   17 NActive=   17 NUniq=   17 SFac= 1.00D+00 NAtFMM=   60 NAOKFM=F Big=F
 Integral buffers will be    131072 words long.
 Raffenetti 2 integral format.
 Two-electron integral symmetry is turned on.
 Nuclear repulsion after empirical dispersion term =      501.2486486711 Hartrees.
 One-electron integrals computed using PRISM.
 NBasis=   225 RedAO= T EigKep=  2.72D-06  NBF=   225
 NBsUse=   225 1.00D-06 EigRej= -1.00D+00 NBFU=   225
 ExpMin= 4.38D-02 ExpMax= 5.48D+03 ExpMxC= 8.25D+02 IAcc=2 IRadAn=         4 AccDes= 0.00D+00
 Harris functional with IExCor=  408 and IRadAn=       4 diagonalized for initial guess.
 HarFok:  IExCor=  408 AccDes= 0.00D+00 IRadAn=         4 IDoV= 1 UseB2=F ITyADJ=14
 ICtDFT=  3500011 ScaDFX=  1.000000  1.000000  1.000000  1.000000
 FoFCou: FMM=F IPFlag=           0 FMFlag=      100000 FMFlg1=           0
         NFxFlg=           0 DoJE=T BraDBF=F KetDBF=T FulRan=T
         wScrn=  0.000000 ICntrl=     500 IOpCl=  0 I1Cent=   200000004 NGrid=           0
         NMat0=    1 NMatS0=      1 NMatT0=    0 NMatD0=    1 NMtDS0=    0 NMtDT0=    0
 Petite list used in FoFCou.
 Keep R1 ints in memory in canonical form, NReq=329175655.
 Requested convergence on RMS density matrix=1.00D-08 within 128 cycles.
 Requested convergence on MAX density matrix=1.00D-06.
 Requested convergence on             energy=1.00D-06.
 No special actions if energy rises.
 SCF Done:  E(RB3PW91) =  -476.052347616     A.U. after   15 cycles
            NFock= 15  Conv=0.28D-08     -V/T= 2.0093

 **********************************************************************

            Population analysis using the SCF density.

 **********************************************************************

 Orbital symmetries:
       Occupied  (A) (A) (A) (A) (A) (A) (A) (A) (A) (A) (A) (A)
                 (A) (A) (A) (A) (A) (A) (A) (A) (A) (A) (A) (A)
                 (A) (A) (A) (A) (A) (A) (A) (A) (A) (A) (A) (A)
       Virtual   (A) (A) (A) (A) (A) (A) (A) (A) (A) (A) (A) (A)
                 (A) (A) (A) (A) (A) (A) (A) (A) (A) (A) (A) (A)
                 (A) (A) (A) (A) (A) (A) (A) (A) (A) (A) (A) (A)
                 (A) (A) (A) (A) (A) (A) (A) (A) (A) (A) (A) (A)
                 (A) (A) (A) (A) (A) (A) (A) (A) (A) (A) (A) (A)
                 (A) (A) (A) (A) (A) (A) (A) (A) (A) (A) (A) (A)
                 (A) (A) (A) (A) (A) (A) (A) (A) (A) (A) (A) (A)
                 (A) (A) (A) (A) (A) (A) (A) (A) (A) (A) (A) (A)
                 (A) (A) (A) (A) (A) (A) (A) (A) (A) (A) (A) (A)
                 (A) (A) (A) (A) (A) (A) (A) (A) (A) (A) (A) (A)
                 (A) (A) (A) (A) (A) (A) (A) (A) (A) (A) (A) (A)
                 (A) (A) (A) (A) (A) (A) (A) (A) (A) (A) (A) (A)
                 (A) (A) (A) (A) (A) (A) (A) (A) (A) (A) (A) (A)
                 (A) (A) (A) (A) (A) (A) (A) (A) (A) (A) (A) (A)
                 (A) (A) (A) (A) (A) (A) (A) (A) (A) (A) (A) (A)
                 (A) (A) (A) (A) (A) (A) (A) (A) (A)
 The electronic state is 1-A.
 Alpha  occ. eigenvalues --  -19.19694 -19.14137 -14.34611 -10.31643 -10.24377
 Alpha  occ. eigenvalues --  -10.19615 -10.19570 -10.19265 -10.18633 -10.17893
 Alpha  occ. eigenvalues --   -1.12155  -1.02660  -0.94310  -0.85667  -0.78078
 Alpha  occ. eigenvalues --   -0.74471  -0.67076  -0.63097  -0.60210  -0.54419
 Alpha  occ. eigenvalues --   -0.53155  -0.51526  -0.49715  -0.46309  -0.46153
 Alpha  occ. eigenvalues --   -0.44478  -0.43527  -0.40894  -0.39735  -0.37783
 Alpha  occ. eigenvalues --   -0.35937  -0.33438  -0.32512  -0.29002  -0.27011
 Alpha  occ. eigenvalues --   -0.21772
 Alpha virt. eigenvalues --   -0.05546  -0.00441   0.00907   0.01860   0.02694
 Alpha virt. eigenvalues --    0.04196   0.04277   0.05543   0.06413   0.06468
 Alpha virt. eigenvalues --    0.07908   0.08248   0.09269   0.10456   0.11035
 Alpha virt. eigenvalues --    0.12645   0.13588   0.14174   0.14528   0.14622
 Alpha virt. eigenvalues --    0.15443   0.16809   0.17444   0.17867   0.18025
 Alpha virt. eigenvalues --    0.18964   0.19048   0.19777   0.20319   0.20890
 Alpha virt. eigenvalues --    0.21388   0.22261   0.22713   0.23551   0.23678
 Alpha virt. eigenvalues --    0.24278   0.25566   0.25614   0.25834   0.26678
 Alpha virt. eigenvalues --    0.27725   0.28096   0.28873   0.29314   0.30124
 Alpha virt. eigenvalues --    0.30849   0.31563   0.32732   0.33388   0.34304
 Alpha virt. eigenvalues --    0.35400   0.38245   0.40240   0.41085   0.41625
 Alpha virt. eigenvalues --    0.44359   0.47694   0.49132   0.50820   0.60012
 Alpha virt. eigenvalues --    0.61868   0.66323   0.66702   0.68387   0.71798
 Alpha virt. eigenvalues --    0.73005   0.73117   0.74104   0.74904   0.74922
 Alpha virt. eigenvalues --    0.77344   0.78110   0.81476   0.84145   0.84959
 Alpha virt. eigenvalues --    0.88729   0.90971   0.93829   0.94241   0.95418
 Alpha virt. eigenvalues --    0.96451   0.99502   1.03102   1.04008   1.04936
 Alpha virt. eigenvalues --    1.06841   1.10020   1.11783   1.13241   1.13942
 Alpha virt. eigenvalues --    1.15339   1.15399   1.20904   1.21993   1.22442
 Alpha virt. eigenvalues --    1.24932   1.27029   1.27485   1.29765   1.32660
 Alpha virt. eigenvalues --    1.33924   1.34626   1.36204   1.37347   1.37488
 Alpha virt. eigenvalues --    1.38982   1.39516   1.40474   1.40973   1.45030
 Alpha virt. eigenvalues --    1.48096   1.56163   1.56657   1.62985   1.66873
 Alpha virt. eigenvalues --    1.73383   1.73464   1.78208   1.79370   1.80875
 Alpha virt. eigenvalues --    1.82590   1.85839   1.90225   1.91455   1.92570
 Alpha virt. eigenvalues --    1.95474   1.96472   1.99591   1.99835   2.02231
 Alpha virt. eigenvalues --    2.05046   2.06007   2.08074   2.11139   2.16358
 Alpha virt. eigenvalues --    2.19917   2.21093   2.25335   2.29189   2.32920
 Alpha virt. eigenvalues --    2.37023   2.38005   2.39290   2.39588   2.42828
 Alpha virt. eigenvalues --    2.44509   2.45067   2.50122   2.52038   2.53422
 Alpha virt. eigenvalues --    2.54191   2.57132   2.57889   2.59786   2.61937
 Alpha virt. eigenvalues --    2.63082   2.67488   2.67988   2.72717   2.73950
 Alpha virt. eigenvalues --    2.75775   2.76361   2.81745   2.87659   2.95777
 Alpha virt. eigenvalues --    3.00585   3.05389   3.09582   3.12410   3.20394
 Alpha virt. eigenvalues --    3.24359   3.27113   3.32201   3.35964   3.47421
 Alpha virt. eigenvalues --    3.50842   3.53096   3.67961   3.87016   4.19747
 Alpha virt. eigenvalues --    4.27555   4.30241   4.31946   4.32658   4.46529
 Alpha virt. eigenvalues --    4.50552   4.55881   4.79071   4.88582
          Condensed to atoms (all electrons):
               1          2          3          4          5          6
     1  C    8.433525  -0.099084   0.770110  -0.850917   0.155288  -2.715881
     2  C   -0.099084   6.502128  -1.137352   1.811498  -1.750739   1.041261
     3  C    0.770110  -1.137352  11.249556  -1.739695  -0.709539  -3.088889
     4  C   -0.850917   1.811498  -1.739695  17.845598  -6.235320  -2.296026
     5  C    0.155288  -1.750739  -0.709539  -6.235320  13.956503  -1.049721
     6  C   -2.715881   1.041261  -3.088889  -2.296026  -1.049721  14.906003
     7  C   -0.145202  -0.186709   0.027886  -1.244397   0.513514  -0.303324
     8  O    0.141965   0.001386  -0.027515  -0.136023  -0.110787  -0.018844
     9  N   -0.015158   0.048266  -0.155923   0.167795  -0.118425   0.174725
    10  O    0.048412  -0.005176   0.033874  -0.193100  -0.039658  -0.020731
    11  H    0.182892   0.049839  -0.001740  -0.000577  -0.004008   0.090185
    12  H    0.089737   0.175237   0.109456  -0.068201   0.022263  -0.013731
    13  H   -0.014244   0.100365   0.036080   0.154598   0.051054  -0.009343
    14  H    0.102432  -0.009491   0.013275   0.002122   0.123271   0.067434
    15  H   -0.012410  -0.000962   0.007873   0.012590   0.059420  -0.025381
    16  H    0.004095   0.000470   0.117570   0.148732  -0.217001  -0.054313
    17  H   -0.002146  -0.000359  -0.115573  -0.081708   0.164380   0.025287
               7          8          9         10         11         12
     1  C   -0.145202   0.141965  -0.015158   0.048412   0.182892   0.089737
     2  C   -0.186709   0.001386   0.048266  -0.005176   0.049839   0.175237
     3  C    0.027886  -0.027515  -0.155923   0.033874  -0.001740   0.109456
     4  C   -1.244397  -0.136023   0.167795  -0.193100  -0.000577  -0.068201
     5  C    0.513514  -0.110787  -0.118425  -0.039658  -0.004008   0.022263
     6  C   -0.303324  -0.018844   0.174725  -0.020731   0.090185  -0.013731
     7  C    6.106507   0.178387  -0.128900   0.414254   0.003510   0.001625
     8  O    0.178387   8.402887   0.001861  -0.153027   0.000087   0.000009
     9  N   -0.128900   0.001861   7.056089  -0.010306   0.000265  -0.000400
    10  O    0.414254  -0.153027  -0.010306   8.407445   0.000025  -0.000001
    11  H    0.003510   0.000087   0.000265   0.000025   0.537064  -0.004453
    12  H    0.001625   0.000009  -0.000400  -0.000001  -0.004453   0.540949
    13  H    0.010902   0.000022  -0.024209  -0.000031  -0.000153  -0.005470
    14  H    0.012081   0.000151  -0.000718  -0.000011  -0.004594  -0.000162
    15  H   -0.001750   0.186873  -0.000321   0.007342  -0.000000   0.000000
    16  H    0.001274   0.000640   0.301997   0.029519  -0.000000   0.000002
    17  H    0.001676   0.000196   0.313120   0.002168  -0.000000  -0.000012
              13         14         15         16         17
     1  C   -0.014244   0.102432  -0.012410   0.004095  -0.002146
     2  C    0.100365  -0.009491  -0.000962   0.000470  -0.000359
     3  C    0.036080   0.013275   0.007873   0.117570  -0.115573
     4  C    0.154598   0.002122   0.012590   0.148732  -0.081708
     5  C    0.051054   0.123271   0.059420  -0.217001   0.164380
     6  C   -0.009343   0.067434  -0.025381  -0.054313   0.025287
     7  C    0.010902   0.012081  -0.001750   0.001274   0.001676
     8  O    0.000022   0.000151   0.186873   0.000640   0.000196
     9  N   -0.024209  -0.000718  -0.000321   0.301997   0.313120
    10  O   -0.000031  -0.000011   0.007342   0.029519   0.002168
    11  H   -0.000153  -0.004594  -0.000000  -0.000000  -0.000000
    12  H   -0.005470  -0.000162   0.000000   0.000002  -0.000012
    13  H    0.560509   0.000012  -0.000000   0.000024   0.005752
    14  H    0.000012   0.518869   0.000070  -0.000000   0.000003
    15  H   -0.000000   0.000070   0.378919   0.000016  -0.000001
    16  H    0.000024  -0.000000   0.000016   0.326582  -0.021426
    17  H    0.005752   0.000003  -0.000001  -0.021426   0.392402
 Mulliken charges:
               1
     1  C   -0.073415
     2  C   -0.540579
     3  C    0.610546
     4  C   -1.296971
     5  C    1.189504
     6  C   -0.708709
     7  C    0.738667
     8  O   -0.468268
     9  N   -0.609759
    10  O   -0.520997
    11  H    0.151657
    12  H    0.153152
    13  H    0.134131
    14  H    0.175257
    15  H    0.387723
    16  H    0.361819
    17  H    0.316243
 Sum of Mulliken charges =  -0.00000
 Mulliken charges with hydrogens summed into heavy atoms:
               1
     1  C    0.078242
     2  C   -0.387428
     3  C    0.744677
     4  C   -1.296971
     5  C    1.189504
     6  C   -0.533452
     7  C    0.738667
     8  O   -0.080545
     9  N    0.068303
    10  O   -0.520997
 Electronic spatial extent (au):  <R**2>=           1376.5003
 Charge=             -0.0000 electrons
 Dipole moment (field-independent basis, Debye):
    X=             -1.1403    Y=              0.5608    Z=             -0.0002  Tot=              1.2708
 Quadrupole moment (field-independent basis, Debye-Ang):
   XX=            -51.6672   YY=            -49.8069   ZZ=            -62.0678
   XY=             -5.2849   XZ=             -0.0005   YZ=             -0.0004
 Traceless Quadrupole moment (field-independent basis, Debye-Ang):
   XX=              2.8468   YY=              4.7070   ZZ=             -7.5538
   XY=             -5.2849   XZ=             -0.0005   YZ=             -0.0004
 Octapole moment (field-independent basis, Debye-Ang**2):
  XXX=             19.4914  YYY=             25.5995  ZZZ=              0.0006  XYY=             -3.1422
  XXY=            -16.7019  XXZ=              0.0028  XZZ=             12.1217  YZZ=              0.3305
  YYZ=             -0.0000  XYZ=             -0.0020
 Hexadecapole moment (field-independent basis, Debye-Ang**3):
 XXXX=           -947.2651 YYYY=           -518.3937 ZZZZ=            -68.1918 XXXY=            -76.8902
 XXXZ=              0.0074 YYYX=            -10.5055 YYYZ=             -0.0029 ZZZX=              0.0037
 ZZZY=             -0.0024 XXYY=           -264.2128 XXZZ=           -208.3001 YYZZ=           -129.6972
 XXYZ=             -0.0059 YYXZ=              0.0013 ZZXY=             -4.9273
 N-N= 5.012486486711D+02 E-N=-2.112105743713D+03  KE= 4.716565097359D+02
 Calling FoFJK, ICntrl=      2127 FMM=F ISym2X=0 I1Cent= 0 IOpClX= 0 NMat=1 NMatS=1 NMatT=0.
 ***** Axes restored to original set *****
 -------------------------------------------------------------------
 Center     Atomic                   Forces (Hartrees/Bohr)
 Number     Number              X              Y              Z
 -------------------------------------------------------------------
      1        6           0.000057840   -0.000159698    0.000001282
      2        6          -0.000114366    0.000080543   -0.000000073
      3        6          -0.000068697    0.000052327    0.000001149
      4        6           0.000196855   -0.000070201   -0.000003110
      5        6          -0.000278023   -0.000218822   -0.000016390
      6        6           0.000088871    0.000025737   -0.000002532
      7        6           0.000003897   -0.000298517    0.000061979
      8        8           0.000425868   -0.000140295   -0.000018420
      9        7          -0.000291855    0.000296567   -0.000000821
     10        8           0.000296416    0.000466237   -0.000024665
     11        1           0.000023600    0.000023072    0.000000329
     12        1           0.000040400   -0.000011148   -0.000000212
     13        1          -0.000082068   -0.000059439    0.000000115
     14        1          -0.000222011   -0.000101505   -0.000000320
     15        1          -0.000101012   -0.000366239   -0.000000183
     16        1          -0.000219329    0.000455524    0.000002064
     17        1           0.000243612    0.000025859   -0.000000193
 -------------------------------------------------------------------
 Cartesian Forces:  Max     0.000466237 RMS     0.000173747

 GradGradGradGradGradGradGradGradGradGradGradGradGradGradGradGradGradGrad
 Berny optimization.
 FormGI is forming the generalized inverse of G from B-inverse, IUseBI=4.
 Internal  Forces:  Max     0.001121930 RMS     0.000294985
 Search for a local minimum.
 Step number   1 out of a maximum of   86
 All quantities printed in internal units (Hartrees-Bohrs-Radians)
 Mixed Optimization -- En-DIIS/RFO-DIIS
 Second derivative matrix not updated -- first step.
 ITU=  0
     Eigenvalues ---    0.01253   0.01573   0.01687   0.01837   0.01974
     Eigenvalues ---    0.02072   0.02089   0.02132   0.02170   0.02191
     Eigenvalues ---    0.02238   0.02256   0.02256   0.02304   0.16000
     Eigenvalues ---    0.16000   0.16000   0.16000   0.16000   0.16000
     Eigenvalues ---    0.16000   0.22000   0.22477   0.24467   0.25000
     Eigenvalues ---    0.25000   0.25000   0.25000   0.35123   0.35162
     Eigenvalues ---    0.35394   0.35453   0.36569   0.39714   0.40969
     Eigenvalues ---    0.43197   0.44424   0.45633   0.46813   0.47140
     Eigenvalues ---    0.48184   0.53491   0.53513   0.54236   0.91946
 RFO step:  Lambda=-2.41845815D-05 EMin= 1.25303931D-02
 Linear search not attempted -- first point.
 Iteration  1 RMS(Cart)=  0.00544055 RMS(Int)=  0.00001039
 Iteration  2 RMS(Cart)=  0.00001312 RMS(Int)=  0.00000013
 Iteration  3 RMS(Cart)=  0.00000000 RMS(Int)=  0.00000013
 Variable       Old X    -DE/DX   Delta X   Delta X   Delta X     New X
                                 (Linear)    (Quad)   (Total)
    R1        2.65254  -0.00006   0.00000  -0.00021  -0.00021   2.65233
    R2        2.61390  -0.00011   0.00000  -0.00026  -0.00026   2.61364
    R3        2.05039  -0.00003   0.00000  -0.00009  -0.00009   2.05030
    R4        2.61205  -0.00006   0.00000  -0.00015  -0.00015   2.61190
    R5        2.05413  -0.00004   0.00000  -0.00011  -0.00011   2.05401
    R6        2.67274   0.00025   0.00000   0.00062   0.00062   2.67336
    R7        2.05476  -0.00001   0.00000  -0.00002  -0.00002   2.05474
    R8        2.69369   0.00088   0.00000   0.00218   0.00218   2.69587
    R9        2.56498   0.00057   0.00000   0.00107   0.00107   2.56605
   R10        2.66188   0.00024   0.00000   0.00057   0.00057   2.66245
   R11        2.76500   0.00062   0.00000   0.00169   0.00169   2.76670
   R12        2.04946  -0.00003   0.00000  -0.00010  -0.00010   2.04937
   R13        2.55818   0.00060   0.00000   0.00110   0.00110   2.55928
   R14        2.32049   0.00055   0.00000   0.00060   0.00060   2.32109
   R15        1.83178  -0.00016   0.00000  -0.00030  -0.00030   1.83148
   R16        1.91247  -0.00020   0.00000  -0.00044  -0.00044   1.91203
   R17        1.89925  -0.00011   0.00000  -0.00024  -0.00024   1.89901
    A1        2.07281   0.00003   0.00000  -0.00012  -0.00012   2.07268
    A2        2.10605  -0.00001   0.00000   0.00012   0.00012   2.10617
    A3        2.10432  -0.00002   0.00000   0.00000   0.00000   2.10433
    A4        2.11166   0.00003   0.00000  -0.00014  -0.00014   2.11152
    A5        2.09278  -0.00002   0.00000  -0.00000  -0.00000   2.09278
    A6        2.07875  -0.00000   0.00000   0.00014   0.00014   2.07889
    A7        2.11533   0.00022   0.00000   0.00097   0.00097   2.11630
    A8        2.09669  -0.00021   0.00000  -0.00113  -0.00113   2.09556
    A9        2.07117  -0.00001   0.00000   0.00016   0.00016   2.07132
   A10        2.05725  -0.00027   0.00000  -0.00091  -0.00091   2.05634
   A11        2.09524  -0.00085   0.00000  -0.00349  -0.00349   2.09175
   A12        2.13069   0.00112   0.00000   0.00440   0.00440   2.13509
   A13        2.08623  -0.00021   0.00000  -0.00069  -0.00069   2.08554
   A14        2.09673   0.00079   0.00000   0.00307   0.00307   2.09980
   A15        2.10023  -0.00058   0.00000  -0.00238  -0.00238   2.09784
   A16        2.12310   0.00021   0.00000   0.00089   0.00089   2.12399
   A17        2.09867  -0.00035   0.00000  -0.00200  -0.00200   2.09667
   A18        2.06142   0.00015   0.00000   0.00111   0.00111   2.06252
   A19        1.99227  -0.00027   0.00000  -0.00110  -0.00110   1.99117
   A20        2.19605   0.00011   0.00000   0.00045   0.00045   2.19650
   A21        2.09486   0.00016   0.00000   0.00065   0.00065   2.09551
   A22        1.84771   0.00063   0.00000   0.00396   0.00396   1.85168
   A23        2.07422   0.00045   0.00000   0.00282   0.00282   2.07704
   A24        2.09890  -0.00002   0.00000  -0.00011  -0.00011   2.09879
   A25        2.11007  -0.00043   0.00000  -0.00271  -0.00271   2.10735
    D1        0.00000  -0.00000   0.00000  -0.00001  -0.00001  -0.00001
    D2       -3.14159  -0.00000   0.00000  -0.00001  -0.00001   3.14158
    D3        3.14159  -0.00000   0.00000  -0.00000  -0.00000   3.14159
    D4       -0.00000  -0.00000   0.00000  -0.00000  -0.00000  -0.00000
    D5       -0.00001   0.00000   0.00000   0.00003   0.00003   0.00003
    D6        3.14159   0.00000   0.00000   0.00001   0.00001  -3.14158
    D7        3.14159   0.00000   0.00000   0.00002   0.00002  -3.14157
    D8       -0.00000   0.00000   0.00000   0.00000   0.00000   0.00000
    D9        0.00000  -0.00000   0.00000  -0.00000  -0.00000  -0.00000
   D10        3.14159   0.00000   0.00000   0.00001   0.00001  -3.14158
   D11       -3.14159  -0.00000   0.00000  -0.00000  -0.00000   3.14159
   D12       -0.00000   0.00000   0.00000   0.00001   0.00001   0.00001
   D13        0.00000  -0.00000   0.00000  -0.00000  -0.00000  -0.00000
   D14        3.14159   0.00000   0.00000   0.00004   0.00004  -3.14156
   D15       -3.14159  -0.00000   0.00000  -0.00002  -0.00002   3.14158
   D16       -0.00000   0.00000   0.00000   0.00003   0.00003   0.00003
   D17       -0.00001   0.00000   0.00000   0.00003   0.00003   0.00002
   D18        3.14159  -0.00000   0.00000  -0.00001  -0.00001   3.14158
   D19        3.14159  -0.00000   0.00000  -0.00002  -0.00002   3.14157
   D20        0.00000  -0.00000   0.00000  -0.00005  -0.00005  -0.00005
   D21       -3.14155  -0.00000   0.00000  -0.00010  -0.00010   3.14154
   D22       -0.00003  -0.00000   0.00000  -0.00003  -0.00003  -0.00006
   D23        0.00004  -0.00000   0.00000  -0.00005  -0.00005  -0.00001
   D24        3.14155   0.00000   0.00000   0.00002   0.00002   3.14157
   D25        0.00001  -0.00000   0.00000  -0.00004  -0.00004  -0.00003
   D26       -3.14159  -0.00000   0.00000  -0.00002  -0.00002   3.14158
   D27       -3.14159  -0.00000   0.00000  -0.00001  -0.00001   3.14159
   D28        0.00000   0.00000   0.00000   0.00001   0.00001   0.00001
   D29        3.14138   0.00002   0.00000   0.00096   0.00096  -3.14085
   D30        0.00023  -0.00002   0.00000  -0.00104  -0.00104  -0.00081
   D31       -0.00021   0.00001   0.00000   0.00092   0.00092   0.00072
   D32       -3.14136  -0.00002   0.00000  -0.00107  -0.00107   3.14076
   D33       -3.14138  -0.00001   0.00000  -0.00094  -0.00094   3.14086
   D34       -0.00021   0.00001   0.00000   0.00093   0.00093   0.00072
         Item               Value     Threshold  Converged?
 Maximum Force            0.001122     0.000450     NO 
 RMS     Force            0.000295     0.000300     YES
 Maximum Displacement     0.024739     0.001800     NO 
 RMS     Displacement     0.005442     0.001200     NO 
 Predicted change in Energy=-1.209224D-05
 GradGradGradGradGradGradGradGradGradGradGradGradGradGradGradGradGradGrad

                          Input orientation:                          
 ---------------------------------------------------------------------
 Center     Atomic      Atomic             Coordinates (Angstroms)
 Number     Number       Type             X           Y           Z
 ---------------------------------------------------------------------
      1          6           0       -1.858023   -1.516578    0.000062
      2          6           0       -2.583653   -0.315155   -0.000123
      3          6           0       -1.937158    0.906487   -0.000109
      4          6           0       -0.524917    0.989577    0.000096
      5          6           0        0.213811   -0.230854    0.000290
      6          6           0       -0.476131   -1.459268    0.000249
      7          6           0        1.677711   -0.208453    0.000496
      8          8           0        2.249260   -1.436253   -0.000251
      9          7           0        0.080582    2.205002    0.000149
     10          8           0        2.381751    0.798009   -0.000284
     11          1           0       -2.370634   -2.472821    0.000051
     12          1           0       -3.670341   -0.338365   -0.000281
     13          1           0       -2.514080    1.828132   -0.000246
     14          1           0        0.106643   -2.373854    0.000385
     15          1           0        3.206850   -1.286827   -0.000709
     16          1           0        1.091403    2.249558    0.000343
     17          1           0       -0.470647    3.045239   -0.000011
 ---------------------------------------------------------------------
                    Distance matrix (angstroms):
                    1          2          3          4          5
     1  C    0.000000
     2  C    1.403551   0.000000
     3  C    2.424357   1.382160   0.000000
     4  C    2.838659   2.437359   1.414682   0.000000
     5  C    2.438357   2.798733   2.433148   1.426594   0.000000
     6  C    1.383080   2.398049   2.780538   2.449331   1.408907
     7  C    3.769962   4.262700   3.782905   2.507359   1.464072
     8  O    4.108069   4.961241   4.797346   3.685202   2.365596
     9  N    4.196230   3.667334   2.399461   1.357898   2.439497
    10  O    4.830424   5.088651   4.320270   2.912974   2.399692
    11  H    1.084974   2.168155   3.406996   3.923630   3.421369
    12  H    2.161639   1.086937   2.133913   3.414253   3.885640
    13  H    3.408445   2.144416   1.087322   2.158690   3.417720
    14  H    2.143556   3.387614   3.864939   3.422212   2.145677
    15  H    5.070082   5.871462   5.592088   4.371282   3.173857
    16  H    4.783607   4.481494   3.313007   2.049401   2.631086
    17  H    4.768123   3.969514   2.593244   2.056378   3.346830
                    6          7          8          9         10
     6  C    0.000000
     7  C    2.490698   0.000000
     8  O    2.725489   1.354313   0.000000
     9  N    3.706319   2.894061   4.238149   0.000000
    10  O    3.641811   1.228266   2.238187   2.697222   0.000000
    11  H    2.148588   4.638584   4.734754   5.281144   5.769184
    12  H    3.385174   5.349630   6.020552   4.531902   6.157854
    13  H    3.867846   4.660342   5.774567   2.621888   5.003030
    14  H    1.084478   2.675297   2.338783   4.578929   3.903438
    15  H    3.687016   1.871138   0.969178   4.686835   2.242171
    16  H    4.026481   2.526970   3.863398   1.011802   1.942162
    17  H    4.504510   3.898968   5.242296   1.004914   3.631283
                   11         12         13         14         15
    11  H    0.000000
    12  H    2.499028   0.000000
    13  H    4.303344   2.455738   0.000000
    14  H    2.479253   4.290550   4.952259   0.000000
    15  H    5.702185   6.942287   6.513986   3.285257   0.000000
    16  H    5.855473   5.419553   3.630028   4.727123   4.120818
    17  H    5.836003   4.656911   2.378438   5.449755   5.682498
                   16         17
    16  H    0.000000
    17  H    1.753028   0.000000
 Stoichiometry    C7H7NO2
 Framework group  C1[X(C7H7NO2)]
 Deg. of freedom    45
 Full point group                 C1      NOp   1
 Largest Abelian subgroup         C1      NOp   1
 Largest concise Abelian subgroup C1      NOp   1
                         Standard orientation:                         
 ---------------------------------------------------------------------
 Center     Atomic      Atomic             Coordinates (Angstroms)
 Number     Number       Type             X           Y           Z
 ---------------------------------------------------------------------
      1          6           0       -1.853903   -1.522300    0.000034
      2          6           0       -2.583459   -0.323257   -0.000152
      3          6           0       -1.940964    0.900494   -0.000137
      4          6           0       -0.529003    0.988204    0.000067
      5          6           0        0.213714   -0.229804    0.000262
      6          6           0       -0.472205   -1.460468    0.000221
      7          6           0        1.677533   -0.202614    0.000467
      8          8           0        2.253096   -1.428538   -0.000280
      9          7           0        0.072516    2.205603    0.000120
     10          8           0        2.378276    0.806146   -0.000313
     11          1           0       -2.363382   -2.480214    0.000023
     12          1           0       -3.670066   -0.350022   -0.000309
     13          1           0       -2.520898    1.820246   -0.000275
     14          1           0        0.113557   -2.373143    0.000356
     15          1           0        3.210192   -1.275979   -0.000738
     16          1           0        1.083186    2.253466    0.000315
     17          1           0       -0.481458    3.044032   -0.000040
 ---------------------------------------------------------------------
 Rotational constants (GHZ):      2.2990671      1.2151149      0.7949590
 Standard basis: 6-31+G(d,p) (6D, 7F)
 There are   225 symmetry adapted cartesian basis functions of A   symmetry.
 There are   225 symmetry adapted basis functions of A   symmetry.
   225 basis functions,   369 primitive gaussians,   225 cartesian basis functions
    36 alpha electrons       36 beta electrons
       nuclear repulsion energy       500.9727579496 Hartrees.
 NAtoms=   17 NActive=   17 NUniq=   17 SFac= 1.00D+00 NAtFMM=   60 NAOKFM=F Big=F
 Integral buffers will be    131072 words long.
 Raffenetti 2 integral format.
 Two-electron integral symmetry is turned on.
 Nuclear repulsion after empirical dispersion term =      500.9593434797 Hartrees.
 One-electron integrals computed using PRISM.
 NBasis=   225 RedAO= T EigKep=  2.72D-06  NBF=   225
 NBsUse=   225 1.00D-06 EigRej= -1.00D+00 NBFU=   225
 Initial guess from the checkpoint file:  "B3PWD3Anthranilic.chk"
 B after Tr=    -0.000000   -0.000000    0.000000
         Rot=    0.999999    0.000003   -0.000006   -0.001416 Ang=   0.16 deg.
 ExpMin= 4.38D-02 ExpMax= 5.48D+03 ExpMxC= 8.25D+02 IAcc=2 IRadAn=         4 AccDes= 0.00D+00
 Harris functional with IExCor=  408 and IRadAn=       4 diagonalized for initial guess.
 HarFok:  IExCor=  408 AccDes= 0.00D+00 IRadAn=         4 IDoV= 1 UseB2=F ITyADJ=14
 ICtDFT=  3500011 ScaDFX=  1.000000  1.000000  1.000000  1.000000
 FoFCou: FMM=F IPFlag=           0 FMFlag=      100000 FMFlg1=           0
         NFxFlg=           0 DoJE=T BraDBF=F KetDBF=T FulRan=T
         wScrn=  0.000000 ICntrl=     500 IOpCl=  0 I1Cent=   200000004 NGrid=           0
         NMat0=    1 NMatS0=      1 NMatT0=    0 NMatD0=    1 NMtDS0=    0 NMtDT0=    0
 Petite list used in FoFCou.
 Keep R1 ints in memory in canonical form, NReq=329175655.
 Requested convergence on RMS density matrix=1.00D-08 within 128 cycles.
 Requested convergence on MAX density matrix=1.00D-06.
 Requested convergence on             energy=1.00D-06.
 No special actions if energy rises.
 SCF Done:  E(RB3PW91) =  -476.052351435     A.U. after   11 cycles
            NFock= 11  Conv=0.81D-08     -V/T= 2.0093
 Calling FoFJK, ICntrl=      2127 FMM=F ISym2X=0 I1Cent= 0 IOpClX= 0 NMat=1 NMatS=1 NMatT=0.
 ***** Axes restored to original set *****
 -------------------------------------------------------------------
 Center     Atomic                   Forces (Hartrees/Bohr)
 Number     Number              X              Y              Z
 -------------------------------------------------------------------
      1        6          -0.000056067   -0.000013805   -0.000004602
      2        6          -0.000101287   -0.000021684    0.000000465
      3        6           0.000105014   -0.000026934   -0.000004392
      4        6           0.000134999   -0.000484773    0.000011065
      5        6          -0.000316704    0.000213799    0.000056638
      6        6           0.000026164    0.000105348    0.000009418
      7        6           0.000545291    0.000527421   -0.000217115
      8        8           0.000017344   -0.000087334    0.000064465
      9        7           0.000600149   -0.000500575    0.000002884
     10        8          -0.000702862   -0.000000275    0.000086265
     11        1           0.000010845   -0.000008098   -0.000001243
     12        1          -0.000003581    0.000012431    0.000000731
     13        1          -0.000018129    0.000002574   -0.000000305
     14        1          -0.000050200    0.000004864    0.000001016
     15        1          -0.000132458    0.000040347    0.000000906
     16        1          -0.000203110    0.000161349   -0.000006745
     17        1           0.000144593    0.000075343    0.000000550
 -------------------------------------------------------------------
 Cartesian Forces:  Max     0.000702862 RMS     0.000212528

 GradGradGradGradGradGradGradGradGradGradGradGradGradGradGradGradGradGrad
 Berny optimization.
 Using GEDIIS/GDIIS optimizer.
 FormGI is forming the generalized inverse of G from B-inverse, IUseBI=4.
 Internal  Forces:  Max     0.001343753 RMS     0.000305562
 Search for a local minimum.
 Step number   2 out of a maximum of   86
 All quantities printed in internal units (Hartrees-Bohrs-Radians)
 Mixed Optimization -- En-DIIS/RFO-DIIS
 Swapping is turned off.
 Update second derivatives using D2CorX and points    1    2
 DE= -3.82D-06 DEPred=-1.21D-05 R= 3.16D-01
 Trust test= 3.16D-01 RLast= 1.03D-02 DXMaxT set to 3.00D-01
 ITU=  0  0
     Eigenvalues ---    0.01253   0.01593   0.01687   0.01837   0.01974
     Eigenvalues ---    0.02072   0.02089   0.02132   0.02170   0.02191
     Eigenvalues ---    0.02238   0.02256   0.02256   0.02304   0.13080
     Eigenvalues ---    0.16000   0.16000   0.16000   0.16000   0.16000
     Eigenvalues ---    0.16073   0.21987   0.22326   0.23528   0.24472
     Eigenvalues ---    0.25000   0.25000   0.34274   0.35123   0.35163
     Eigenvalues ---    0.35394   0.35445   0.36893   0.40954   0.42922
     Eigenvalues ---    0.44321   0.45380   0.46787   0.47133   0.48177
     Eigenvalues ---    0.52329   0.53400   0.53937   0.64048   0.94188
 En-DIIS/RFO-DIIS IScMMF=        0 using points:     2    1
 RFO step:  Lambda=-9.07673285D-06.
 DidBck=T Rises=F RFO-DIIS coefs:    0.58947    0.41053
 Iteration  1 RMS(Cart)=  0.00257077 RMS(Int)=  0.00000270
 Iteration  2 RMS(Cart)=  0.00000353 RMS(Int)=  0.00000060
 Iteration  3 RMS(Cart)=  0.00000000 RMS(Int)=  0.00000060
 Variable       Old X    -DE/DX   Delta X   Delta X   Delta X     New X
                                 (Linear)    (Quad)   (Total)
    R1        2.65233   0.00010   0.00009   0.00005   0.00013   2.65246
    R2        2.61364   0.00012   0.00011   0.00001   0.00011   2.61376
    R3        2.05030   0.00000   0.00004  -0.00005  -0.00002   2.05029
    R4        2.61190   0.00008   0.00006   0.00003   0.00009   2.61199
    R5        2.05401   0.00000   0.00005  -0.00007  -0.00002   2.05399
    R6        2.67336  -0.00005  -0.00026   0.00029   0.00004   2.67340
    R7        2.05474   0.00001   0.00001   0.00001   0.00002   2.05476
    R8        2.69587  -0.00111  -0.00089  -0.00026  -0.00115   2.69472
    R9        2.56605   0.00001  -0.00044   0.00068   0.00024   2.56629
   R10        2.66245  -0.00007  -0.00023   0.00025   0.00001   2.66246
   R11        2.76670  -0.00027  -0.00069   0.00063  -0.00006   2.76663
   R12        2.04937  -0.00003   0.00004  -0.00011  -0.00007   2.04929
   R13        2.55928  -0.00000  -0.00045   0.00069   0.00024   2.55951
   R14        2.32109  -0.00040  -0.00025   0.00012  -0.00013   2.32096
   R15        1.83148  -0.00013   0.00012  -0.00033  -0.00020   1.83128
   R16        1.91203  -0.00019   0.00018  -0.00053  -0.00035   1.91168
   R17        1.89901  -0.00002   0.00010  -0.00017  -0.00007   1.89894
    A1        2.07268  -0.00005   0.00005  -0.00004   0.00001   2.07269
    A2        2.10617   0.00004  -0.00005   0.00010   0.00005   2.10623
    A3        2.10433   0.00001  -0.00000  -0.00006  -0.00006   2.10427
    A4        2.11152  -0.00010   0.00006  -0.00019  -0.00013   2.11139
    A5        2.09278   0.00006   0.00000   0.00010   0.00010   2.09288
    A6        2.07889   0.00004  -0.00006   0.00009   0.00003   2.07892
    A7        2.11630  -0.00012  -0.00040   0.00030  -0.00009   2.11621
    A8        2.09556   0.00005   0.00046  -0.00060  -0.00014   2.09542
    A9        2.07132   0.00007  -0.00006   0.00030   0.00024   2.07156
   A10        2.05634   0.00020   0.00037  -0.00022   0.00015   2.05649
   A11        2.09175   0.00067   0.00143  -0.00055   0.00088   2.09264
   A12        2.13509  -0.00087  -0.00181   0.00077  -0.00103   2.13406
   A13        2.08554   0.00024   0.00028   0.00003   0.00031   2.08585
   A14        2.09980  -0.00134  -0.00126  -0.00118  -0.00244   2.09736
   A15        2.09784   0.00110   0.00098   0.00116   0.00213   2.09998
   A16        2.12399  -0.00017  -0.00037   0.00013  -0.00024   2.12375
   A17        2.09667   0.00004   0.00082  -0.00119  -0.00037   2.09630
   A18        2.06252   0.00013  -0.00045   0.00107   0.00061   2.06313
   A19        1.99117   0.00030   0.00045   0.00002   0.00047   1.99164
   A20        2.19650  -0.00082  -0.00018  -0.00164  -0.00183   2.19467
   A21        2.09551   0.00052  -0.00027   0.00163   0.00136   2.09687
   A22        1.85168  -0.00011  -0.00163   0.00209   0.00046   1.85214
   A23        2.07704   0.00011  -0.00116   0.00218   0.00103   2.07806
   A24        2.09879   0.00010   0.00004   0.00030   0.00034   2.09913
   A25        2.10735  -0.00021   0.00111  -0.00248  -0.00137   2.10599
    D1       -0.00001   0.00000   0.00000   0.00002   0.00002   0.00001
    D2        3.14158   0.00000   0.00000   0.00002   0.00002  -3.14158
    D3        3.14159   0.00000   0.00000   0.00000   0.00000  -3.14159
    D4       -0.00000   0.00000   0.00000   0.00000   0.00000   0.00000
    D5        0.00003  -0.00000  -0.00001  -0.00005  -0.00006  -0.00004
    D6       -3.14158  -0.00000  -0.00001  -0.00002  -0.00002   3.14158
    D7       -3.14157  -0.00000  -0.00001  -0.00004  -0.00005   3.14157
    D8        0.00000  -0.00000  -0.00000  -0.00000  -0.00000  -0.00000
    D9       -0.00000   0.00000   0.00000   0.00000   0.00000   0.00000
   D10       -3.14158  -0.00000  -0.00000  -0.00001  -0.00002   3.14159
   D11        3.14159   0.00000   0.00000   0.00000   0.00000  -3.14159
   D12        0.00001  -0.00000  -0.00000  -0.00001  -0.00001  -0.00001
   D13       -0.00000   0.00000   0.00000   0.00001   0.00001   0.00001
   D14       -3.14156  -0.00000  -0.00002  -0.00006  -0.00007   3.14156
   D15        3.14158   0.00000   0.00001   0.00002   0.00003  -3.14157
   D16        0.00003  -0.00000  -0.00001  -0.00004  -0.00005  -0.00003
   D17        0.00002  -0.00000  -0.00001  -0.00004  -0.00005  -0.00003
   D18        3.14158  -0.00000   0.00000   0.00000   0.00000   3.14159
   D19        3.14157   0.00000   0.00001   0.00003   0.00003  -3.14158
   D20       -0.00005   0.00000   0.00002   0.00007   0.00009   0.00004
   D21        3.14154   0.00001   0.00004   0.00013   0.00017  -3.14147
   D22       -0.00006   0.00000   0.00001   0.00004   0.00005  -0.00001
   D23       -0.00001   0.00000   0.00002   0.00006   0.00009   0.00007
   D24        3.14157  -0.00000  -0.00001  -0.00003  -0.00003   3.14154
   D25       -0.00003   0.00000   0.00002   0.00006   0.00008   0.00005
   D26        3.14158   0.00000   0.00001   0.00003   0.00004  -3.14157
   D27        3.14159   0.00000   0.00000   0.00002   0.00002  -3.14157
   D28        0.00001  -0.00000  -0.00000  -0.00001  -0.00002  -0.00001
   D29       -3.14085  -0.00005  -0.00039  -0.00137  -0.00176   3.14058
   D30       -0.00081   0.00006   0.00043   0.00148   0.00191   0.00110
   D31        0.00072  -0.00005  -0.00038  -0.00132  -0.00170  -0.00099
   D32        3.14076   0.00006   0.00044   0.00153   0.00197  -3.14046
   D33        3.14086   0.00005   0.00039   0.00135   0.00174  -3.14059
   D34        0.00072  -0.00005  -0.00038  -0.00132  -0.00170  -0.00098
         Item               Value     Threshold  Converged?
 Maximum Force            0.001344     0.000450     NO 
 RMS     Force            0.000306     0.000300     NO 
 Maximum Displacement     0.008653     0.001800     NO 
 RMS     Displacement     0.002571     0.001200     NO 
 Predicted change in Energy=-6.082405D-06
 GradGradGradGradGradGradGradGradGradGradGradGradGradGradGradGradGradGrad

                          Input orientation:                          
 ---------------------------------------------------------------------
 Center     Atomic      Atomic             Coordinates (Angstroms)
 Number     Number       Type             X           Y           Z
 ---------------------------------------------------------------------
      1          6           0       -1.859241   -1.516982   -0.000058
      2          6           0       -2.584275   -0.315117    0.000210
      3          6           0       -1.936952    0.906141    0.000194
      4          6           0       -0.524630    0.988167   -0.000095
      5          6           0        0.213046   -0.232189   -0.000381
      6          6           0       -0.477258   -1.460405   -0.000326
      7          6           0        1.676870   -0.207094   -0.000692
      8          8           0        2.251307   -1.433683    0.000309
      9          7           0        0.082917    2.202712   -0.000144
     10          8           0        2.377172    0.801890    0.000360
     11          1           0       -2.372299   -2.472975   -0.000045
     12          1           0       -3.670968   -0.337641    0.000434
     13          1           0       -2.513400    1.828092    0.000397
     14          1           0        0.104668   -2.375484   -0.000526
     15          1           0        3.208514   -1.282505    0.000915
     16          1           0        1.093581    2.246642   -0.000457
     17          1           0       -0.466626    3.044006    0.000016
 ---------------------------------------------------------------------
                    Distance matrix (angstroms):
                    1          2          3          4          5
     1  C    0.000000
     2  C    1.403622   0.000000
     3  C    2.424369   1.382207   0.000000
     4  C    2.838479   2.437353   1.414702   0.000000
     5  C    2.438252   2.798550   2.432753   1.425985   0.000000
     6  C    1.383141   2.398167   2.780511   2.449030   1.408913
     7  C    3.770927   4.262514   3.781402   2.505045   1.464039
     8  O    4.111392   4.963269   4.797529   3.683909   2.366030
     9  N    4.196201   3.667884   2.400201   1.358025   2.438375
    10  O    4.829530   5.085632   4.315383   2.907774   2.398491
    11  H    1.084966   2.168245   3.407044   3.923441   3.421277
    12  H    2.161759   1.086927   2.133964   3.414266   3.885446
    13  H    3.408438   2.144381   1.087331   2.158862   3.417348
    14  H    2.143354   3.387555   3.864877   3.422012   2.146034
    15  H    5.073176   5.873009   5.591600   4.369475   3.174270
    16  H    4.783725   4.482101   3.313770   2.049967   2.630578
    17  H    4.768857   3.970912   2.594673   2.056657   3.345954
                    6          7          8          9         10
     6  C    0.000000
     7  C    2.492199   0.000000
     8  O    2.728696   1.354437   0.000000
     9  N    3.705701   2.889264   4.233826   0.000000
    10  O    3.642217   1.228198   2.239113   2.688105   0.000000
    11  H    2.148599   4.640042   4.738973   5.281111   5.769074
    12  H    3.385319   5.349431   6.022844   4.532664   6.154553
    13  H    3.867828   4.658364   5.774220   2.623205   4.997078
    14  H    1.084439   2.678384   2.344153   4.578248   3.906402
    15  H    3.690063   1.871482   0.969071   4.681463   2.244066
    16  H    4.026131   2.522111   3.858124   1.011618   1.932593
    17  H    4.504424   3.894127   5.238020   1.004875   3.621363
                   11         12         13         14         15
    11  H    0.000000
    12  H    2.499239   0.000000
    13  H    4.303381   2.455680   0.000000
    14  H    2.478885   4.290482   4.952206   0.000000
    15  H    5.706372   6.944065   6.512766   3.290663   0.000000
    16  H    5.855520   5.420281   3.631184   4.726733   4.114343
    17  H    5.836837   4.658685   2.380700   5.449519   5.676738
                   16         17
    16  H    0.000000
    17  H    1.752152   0.000000
 Stoichiometry    C7H7NO2
 Framework group  C1[X(C7H7NO2)]
 Deg. of freedom    45
 Full point group                 C1      NOp   1
 Largest Abelian subgroup         C1      NOp   1
 Largest concise Abelian subgroup C1      NOp   1
                         Standard orientation:                         
 ---------------------------------------------------------------------
 Center     Atomic      Atomic             Coordinates (Angstroms)
 Number     Number       Type             X           Y           Z
 ---------------------------------------------------------------------
      1          6           0       -1.857657   -1.519413   -0.000033
      2          6           0       -2.584352   -0.318551    0.000235
      3          6           0       -1.938719    0.903601    0.000219
      4          6           0       -0.526511    0.987580   -0.000069
      5          6           0        0.212852   -0.231754   -0.000355
      6          6           0       -0.475753   -1.460924   -0.000301
      7          6           0        1.676640   -0.204635   -0.000667
      8          8           0        2.252773   -1.430428    0.000334
      9          7           0        0.079355    2.202964   -0.000119
     10          8           0        2.375545    0.805316    0.000385
     11          1           0       -2.369392   -2.476114   -0.000020
     12          1           0       -3.671013   -0.342578    0.000459
     13          1           0       -2.516442    1.824754    0.000422
     14          1           0        0.107438   -2.375198   -0.000501
     15          1           0        3.209769   -1.277927    0.000941
     16          1           0        1.089958    2.248292   -0.000432
     17          1           0       -0.471351    3.043497    0.000041
 ---------------------------------------------------------------------
 Rotational constants (GHZ):      2.3008592      1.2154526      0.7953178
 Standard basis: 6-31+G(d,p) (6D, 7F)
 There are   225 symmetry adapted cartesian basis functions of A   symmetry.
 There are   225 symmetry adapted basis functions of A   symmetry.
   225 basis functions,   369 primitive gaussians,   225 cartesian basis functions
    36 alpha electrons       36 beta electrons
       nuclear repulsion energy       501.0569162769 Hartrees.
 NAtoms=   17 NActive=   17 NUniq=   17 SFac= 1.00D+00 NAtFMM=   60 NAOKFM=F Big=F
 Integral buffers will be    131072 words long.
 Raffenetti 2 integral format.
 Two-electron integral symmetry is turned on.
 Nuclear repulsion after empirical dispersion term =      501.0435061168 Hartrees.
 One-electron integrals computed using PRISM.
 NBasis=   225 RedAO= T EigKep=  2.72D-06  NBF=   225
 NBsUse=   225 1.00D-06 EigRej= -1.00D+00 NBFU=   225
 Initial guess from the checkpoint file:  "B3PWD3Anthranilic.chk"
 B after Tr=    -0.000000   -0.000000   -0.000000
         Rot=    1.000000   -0.000005    0.000010    0.000774 Ang=  -0.09 deg.
 Keep R1 ints in memory in canonical form, NReq=329175655.
 Requested convergence on RMS density matrix=1.00D-08 within 128 cycles.
 Requested convergence on MAX density matrix=1.00D-06.
 Requested convergence on             energy=1.00D-06.
 No special actions if energy rises.
 SCF Done:  E(RB3PW91) =  -476.052356295     A.U. after   10 cycles
            NFock= 10  Conv=0.95D-08     -V/T= 2.0093
 Calling FoFJK, ICntrl=      2127 FMM=F ISym2X=0 I1Cent= 0 IOpClX= 0 NMat=1 NMatS=1 NMatT=0.
 ***** Axes restored to original set *****
 -------------------------------------------------------------------
 Center     Atomic                   Forces (Hartrees/Bohr)
 Number     Number              X              Y              Z
 -------------------------------------------------------------------
      1        6           0.000001212    0.000016991    0.000006324
      2        6          -0.000008828    0.000018241   -0.000000695
      3        6           0.000020269    0.000019970    0.000006047
      4        6           0.000081860   -0.000012326   -0.000014959
      5        6          -0.000061415   -0.000042468   -0.000077558
      6        6           0.000042133    0.000095975   -0.000013010
      7        6           0.000212704    0.000223112    0.000296241
      8        8          -0.000131099    0.000132341   -0.000087963
      9        7          -0.000040391   -0.000192259   -0.000003828
     10        8          -0.000052990   -0.000354669   -0.000117423
     11        1           0.000005366   -0.000011818    0.000001735
     12        1          -0.000005644    0.000009106   -0.000001013
     13        1           0.000003058    0.000005626    0.000000415
     14        1           0.000047423    0.000000571   -0.000001362
     15        1          -0.000022676    0.000063729   -0.000001219
     16        1          -0.000055810   -0.000020172    0.000008938
     17        1          -0.000035171    0.000048051   -0.000000668
 -------------------------------------------------------------------
 Cartesian Forces:  Max     0.000354669 RMS     0.000094135

 GradGradGradGradGradGradGradGradGradGradGradGradGradGradGradGradGradGrad
 Berny optimization.
 Using GEDIIS/GDIIS optimizer.
 FormGI is forming the generalized inverse of G from B-inverse, IUseBI=4.
 Internal  Forces:  Max     0.000322400 RMS     0.000075102
 Search for a local minimum.
 Step number   3 out of a maximum of   86
 All quantities printed in internal units (Hartrees-Bohrs-Radians)
 Mixed Optimization -- En-DIIS/RFO-DIIS
 Swapping is turned off.
 Update second derivatives using D2CorX and points    1    2    3
 DE= -4.86D-06 DEPred=-6.08D-06 R= 7.99D-01
 TightC=F SS=  1.41D+00  RLast= 6.56D-03 DXNew= 5.0454D-01 1.9675D-02
 Trust test= 7.99D-01 RLast= 6.56D-03 DXMaxT set to 3.00D-01
 ITU=  1  0  0
     Eigenvalues ---    0.01253   0.01687   0.01823   0.01838   0.01975
     Eigenvalues ---    0.02072   0.02089   0.02132   0.02170   0.02191
     Eigenvalues ---    0.02238   0.02256   0.02258   0.02304   0.13315
     Eigenvalues ---    0.16000   0.16000   0.16000   0.16000   0.16007
     Eigenvalues ---    0.16301   0.21962   0.22419   0.23716   0.24516
     Eigenvalues ---    0.25000   0.25790   0.35123   0.35160   0.35394
     Eigenvalues ---    0.35418   0.35764   0.37546   0.40939   0.43002
     Eigenvalues ---    0.44484   0.45152   0.46863   0.47184   0.48171
     Eigenvalues ---    0.53280   0.53747   0.56026   0.64769   0.94057
 En-DIIS/RFO-DIIS IScMMF=        0 using points:     3    2    1
 RFO step:  Lambda=-6.98824276D-07.
 DidBck=F Rises=F RFO-DIIS coefs:    0.68611    0.17495    0.13894
 Iteration  1 RMS(Cart)=  0.00104124 RMS(Int)=  0.00000160
 Iteration  2 RMS(Cart)=  0.00000192 RMS(Int)=  0.00000094
 Iteration  3 RMS(Cart)=  0.00000000 RMS(Int)=  0.00000094
 Variable       Old X    -DE/DX   Delta X   Delta X   Delta X     New X
                                 (Linear)    (Quad)   (Total)
    R1        2.65246   0.00001  -0.00001   0.00007   0.00005   2.65251
    R2        2.61376   0.00002   0.00000   0.00005   0.00005   2.61381
    R3        2.05029   0.00001   0.00002  -0.00001   0.00001   2.05030
    R4        2.61199  -0.00003  -0.00001  -0.00001  -0.00002   2.61197
    R5        2.05399   0.00001   0.00002  -0.00001   0.00001   2.05400
    R6        2.67340  -0.00004  -0.00010   0.00005  -0.00005   2.67335
    R7        2.05476   0.00000  -0.00000   0.00001   0.00001   2.05477
    R8        2.69472  -0.00010   0.00006  -0.00043  -0.00037   2.69435
    R9        2.56629  -0.00021  -0.00022   0.00001  -0.00022   2.56608
   R10        2.66246  -0.00012  -0.00008  -0.00011  -0.00020   2.66226
   R11        2.76663   0.00001  -0.00022   0.00023   0.00001   2.76664
   R12        2.04929   0.00002   0.00004  -0.00000   0.00003   2.04933
   R13        2.55951  -0.00024  -0.00023  -0.00003  -0.00026   2.55925
   R14        2.32096  -0.00032  -0.00004  -0.00022  -0.00026   2.32069
   R15        1.83128  -0.00001   0.00011  -0.00016  -0.00006   1.83122
   R16        1.91168  -0.00006   0.00017  -0.00032  -0.00015   1.91153
   R17        1.89894   0.00006   0.00006   0.00002   0.00007   1.89901
    A1        2.07269  -0.00000   0.00001   0.00000   0.00002   2.07271
    A2        2.10623   0.00001  -0.00003   0.00008   0.00004   2.10627
    A3        2.10427  -0.00001   0.00002  -0.00008  -0.00006   2.10421
    A4        2.11139  -0.00004   0.00006  -0.00017  -0.00011   2.11127
    A5        2.09288   0.00003  -0.00003   0.00014   0.00011   2.09299
    A6        2.07892   0.00001  -0.00003   0.00003   0.00000   2.07892
    A7        2.11621  -0.00002  -0.00011   0.00005  -0.00005   2.11615
    A8        2.09542   0.00002   0.00020  -0.00018   0.00002   2.09544
    A9        2.07156   0.00000  -0.00010   0.00013   0.00004   2.07160
   A10        2.05649   0.00006   0.00008   0.00009   0.00017   2.05666
   A11        2.09264  -0.00007   0.00021  -0.00025  -0.00004   2.09260
   A12        2.13406   0.00001  -0.00029   0.00016  -0.00013   2.13393
   A13        2.08585  -0.00002  -0.00000  -0.00002  -0.00003   2.08582
   A14        2.09736   0.00013   0.00034  -0.00040  -0.00006   2.09730
   A15        2.09998  -0.00011  -0.00034   0.00042   0.00009   2.10006
   A16        2.12375   0.00002  -0.00005   0.00006   0.00001   2.12376
   A17        2.09630   0.00003   0.00039  -0.00032   0.00007   2.09637
   A18        2.06313  -0.00005  -0.00035   0.00026  -0.00008   2.06305
   A19        1.99164  -0.00014   0.00001  -0.00032  -0.00032   1.99132
   A20        2.19467   0.00026   0.00051  -0.00012   0.00039   2.19506
   A21        2.09687  -0.00011  -0.00052   0.00046  -0.00007   2.09681
   A22        1.85214  -0.00012  -0.00070   0.00029  -0.00041   1.85173
   A23        2.07806  -0.00002  -0.00071   0.00082   0.00011   2.07817
   A24        2.09913   0.00001  -0.00009   0.00019   0.00010   2.09924
   A25        2.10599   0.00001   0.00081  -0.00102  -0.00021   2.10578
    D1        0.00001  -0.00000  -0.00001  -0.00003  -0.00004  -0.00002
    D2       -3.14158  -0.00000  -0.00001  -0.00003  -0.00003   3.14157
    D3       -3.14159  -0.00000  -0.00000  -0.00000  -0.00000   3.14159
    D4        0.00000  -0.00000  -0.00000  -0.00000  -0.00000  -0.00000
    D5       -0.00004   0.00000   0.00002   0.00009   0.00011   0.00007
    D6        3.14158   0.00000   0.00000   0.00003   0.00003  -3.14157
    D7        3.14157   0.00000   0.00001   0.00006   0.00007  -3.14154
    D8       -0.00000   0.00000   0.00000   0.00000   0.00000   0.00000
    D9        0.00000  -0.00000  -0.00000  -0.00001  -0.00001  -0.00000
   D10        3.14159   0.00000   0.00000   0.00002   0.00002  -3.14158
   D11       -3.14159  -0.00000  -0.00000  -0.00001  -0.00001   3.14159
   D12       -0.00001   0.00000   0.00000   0.00002   0.00002   0.00002
   D13        0.00001  -0.00000  -0.00000  -0.00002  -0.00002  -0.00001
   D14        3.14156   0.00000   0.00002   0.00010   0.00011  -3.14151
   D15       -3.14157  -0.00000  -0.00001  -0.00004  -0.00005   3.14156
   D16       -0.00003   0.00000   0.00001   0.00007   0.00008   0.00006
   D17       -0.00003   0.00000   0.00001   0.00007   0.00009   0.00005
   D18        3.14159   0.00000  -0.00000  -0.00000  -0.00000   3.14159
   D19       -3.14158  -0.00000  -0.00001  -0.00004  -0.00005   3.14155
   D20        0.00004  -0.00000  -0.00002  -0.00012  -0.00014  -0.00010
   D21       -3.14147  -0.00001  -0.00004  -0.00024  -0.00028   3.14143
   D22       -0.00001  -0.00000  -0.00001  -0.00007  -0.00009  -0.00009
   D23        0.00007  -0.00001  -0.00002  -0.00012  -0.00014  -0.00006
   D24        3.14154   0.00000   0.00001   0.00005   0.00005   3.14159
   D25        0.00005  -0.00000  -0.00002  -0.00011  -0.00013  -0.00008
   D26       -3.14157  -0.00000  -0.00001  -0.00005  -0.00006   3.14155
   D27       -3.14157  -0.00000  -0.00001  -0.00004  -0.00004   3.14157
   D28       -0.00001   0.00000   0.00000   0.00002   0.00003   0.00002
   D29        3.14058   0.00007   0.00042   0.00246   0.00288  -3.13973
   D30        0.00110  -0.00008  -0.00045  -0.00265  -0.00311  -0.00201
   D31       -0.00099   0.00007   0.00041   0.00238   0.00279   0.00180
   D32       -3.14046  -0.00008  -0.00047  -0.00273  -0.00320   3.13952
   D33       -3.14059  -0.00007  -0.00041  -0.00242  -0.00283   3.13976
   D34       -0.00098   0.00007   0.00041   0.00237   0.00278   0.00180
         Item               Value     Threshold  Converged?
 Maximum Force            0.000322     0.000450     YES
 RMS     Force            0.000075     0.000300     YES
 Maximum Displacement     0.005021     0.001800     NO 
 RMS     Displacement     0.001041     0.001200     YES
 Predicted change in Energy=-9.089354D-07
 GradGradGradGradGradGradGradGradGradGradGradGradGradGradGradGradGradGrad

                          Input orientation:                          
 ---------------------------------------------------------------------
 Center     Atomic      Atomic             Coordinates (Angstroms)
 Number     Number       Type             X           Y           Z
 ---------------------------------------------------------------------
      1          6           0       -1.859205   -1.516943    0.000138
      2          6           0       -2.584317   -0.315092   -0.000333
      3          6           0       -1.936927    0.906116   -0.000298
      4          6           0       -0.524622    0.987980    0.000218
      5          6           0        0.213019   -0.232168    0.000715
      6          6           0       -0.477199   -1.460314    0.000612
      7          6           0        1.676846   -0.206905    0.001252
      8          8           0        2.250969   -1.433488   -0.000612
      9          7           0        0.082965    2.202376    0.000332
     10          8           0        2.377342    0.801771   -0.000675
     11          1           0       -2.372174   -2.472991    0.000111
     12          1           0       -3.671015   -0.337554   -0.000732
     13          1           0       -2.513306    1.828117   -0.000651
     14          1           0        0.104837   -2.375345    0.000960
     15          1           0        3.208115   -1.282120   -0.001741
     16          1           0        1.093547    2.246337    0.000843
     17          1           0       -0.466450    3.043799   -0.000030
 ---------------------------------------------------------------------
                    Distance matrix (angstroms):
                    1          2          3          4          5
     1  C    0.000000
     2  C    1.403650   0.000000
     3  C    2.424306   1.382196   0.000000
     4  C    2.838266   2.437281   1.414675   0.000000
     5  C    2.438188   2.798565   2.432686   1.425790   0.000000
     6  C    1.383166   2.398225   2.780431   2.448753   1.408809
     7  C    3.770923   4.262537   3.781293   2.504838   1.464045
     8  O    4.111022   4.962943   4.797105   3.683397   2.365673
     9  N    4.195874   3.667702   2.400052   1.357910   2.438015
    10  O    4.829572   5.085808   4.315530   2.907932   2.398609
    11  H    1.084972   2.168301   3.407023   3.923234   3.421185
    12  H    2.161854   1.086930   2.133958   3.414210   3.885464
    13  H    3.408413   2.144386   1.087336   2.158864   3.417255
    14  H    2.143436   3.387653   3.864814   3.421721   2.145905
    15  H    5.072758   5.872598   5.591049   4.368831   3.173799
    16  H    4.783411   4.481920   3.313603   2.049862   2.630269
    17  H    4.768662   3.970833   2.594608   2.056642   3.345691
                    6          7          8          9         10
     6  C    0.000000
     7  C    2.492176   0.000000
     8  O    2.728300   1.354299   0.000000
     9  N    3.705277   2.888787   4.233172   0.000000
    10  O    3.642174   1.228058   2.238829   2.688095   0.000000
    11  H    2.148591   4.640012   4.738567   5.280791   5.769052
    12  H    3.385418   5.349457   6.022539   4.532506   6.154728
    13  H    3.867753   4.658186   5.773767   2.623107   4.997181
    14  H    1.084458   2.678310   2.343711   4.577773   3.906194
    15  H    3.689620   1.871064   0.969041   4.680628   2.243388
    16  H    4.025730   2.521633   3.857556   1.011538   1.932589
    17  H    4.504126   3.893688   5.237411   1.004914   3.621304
                   11         12         13         14         15
    11  H    0.000000
    12  H    2.499416   0.000000
    13  H    4.303423   2.455692   0.000000
    14  H    2.478935   4.290648   4.952148   0.000000
    15  H    5.705944   6.943676   6.512160   3.290210   0.000000
    16  H    5.855192   5.420106   3.631019   4.726255   4.113564
    17  H    5.836673   4.658625   2.380651   5.449174   5.675915
                   16         17
    16  H    0.000000
    17  H    1.752010   0.000000
 Stoichiometry    C7H7NO2
 Framework group  C1[X(C7H7NO2)]
 Deg. of freedom    45
 Full point group                 C1      NOp   1
 Largest Abelian subgroup         C1      NOp   1
 Largest concise Abelian subgroup C1      NOp   1
                         Standard orientation:                         
 ---------------------------------------------------------------------
 Center     Atomic      Atomic             Coordinates (Angstroms)
 Number     Number       Type             X           Y           Z
 ---------------------------------------------------------------------
      1          6           0       -1.857748   -1.519196    0.000074
      2          6           0       -2.584413   -0.318284   -0.000397
      3          6           0       -1.938602    0.903761   -0.000362
      4          6           0       -0.526405    0.987450    0.000154
      5          6           0        0.212814   -0.231743    0.000651
      6          6           0       -0.475816   -1.460780    0.000548
[...]
 ! D25   D(4,5,6,1)              0.0001         -DE/DX =    0.0                 !
 ! D26   D(4,5,6,14)          -179.9999         -DE/DX =    0.0                 !
 ! D27   D(7,5,6,1)           -179.9998         -DE/DX =    0.0                 !
 ! D28   D(7,5,6,14)             0.0002         -DE/DX =    0.0                 !
 ! D29   D(4,5,7,8)            179.9989         -DE/DX =    0.0                 !
 ! D30   D(4,5,7,10)             0.0012         -DE/DX =    0.0                 !
 ! D31   D(6,5,7,8)             -0.0012         -DE/DX =    0.0                 !
 ! D32   D(6,5,7,10)           180.0011         -DE/DX =    0.0                 !
 ! D33   D(5,7,8,15)           180.0011         -DE/DX =    0.0                 !
 ! D34   D(10,7,8,15)           -0.0011         -DE/DX =    0.0                 !
 --------------------------------------------------------------------------------
 GradGradGradGradGradGradGradGradGradGradGradGradGradGradGradGradGradGrad

 1\1\ WCSS.PL-BEM-JP\Freq\RB3PW91\6-31+G(d,p)\C7H7N1O2\C612\19-Dec-2024
 \0\\#N Geom=AllCheck Guess=TCheck SCRF=Check GenChk RB3PW91/6-31+G(d,p
 ) Freq\\[No Title]\\0,1\C,-1.8590857561,-1.5168889675,0.0000095076\C,-
 2.5842855765,-0.3150850046,0.0000216483\C,-1.9369486609,0.9061434756,0
 .0000234454\C,-0.5246577697,0.9880332395,0.0000129346\C,0.2130701264,-
 0.2320385622,-0.0000016978\C,-0.4770781505,-1.4601745402,-0.0000018696
 \C,1.6769158652,-0.2069556901,-0.0000191816\O,2.2506665992,-1.43364112
 14,-0.0000080741\N,0.0827686073,2.2024436903,0.0000209736\O,2.37783838
 4,0.8013538275,-0.0000013902\H,-2.371972727,-2.4729842905,0.0000087464
 \H,-3.6709850857,-0.3375886245,0.0000302486\H,-2.5133337083,1.82814225
 66,0.0000343906\H,0.1050870484,-2.375136553,-0.0000122376\H,3.20782871
 65,-1.2823446137,-0.0000034336\H,1.0933374332,2.246465376,-0.000007032
 4\H,-0.4667383457,3.0438321022,0.0000010218\\Version=ES64L-G09RevE.01\
 State=1-A\HF=-476.0523569\RMSD=3.400e-09\RMSF=1.056e-05\ZeroPoint=0.13
 24185\Thermal=0.1402946\Dipole=-0.4493356,0.2209396,-0.0000281\DipoleD
 eriv=-0.5571109,0.2675681,-0.0000054,0.1949784,-0.1785021,-0.0000042,0
 .0000054,-0.0000004,-0.1983325,0.1684955,0.0076733,0.0000032,-0.269077
 8,0.4933992,0.0000054,-0.0000064,0.0000043,-0.098491,-0.1323503,-0.639
 8826,-0.0000231,-0.0312381,-0.225408,0.0000033,0.0000006,0.0000089,-0.
 2018274,0.3700562,0.7896589,0.0000272,0.2940201,1.2855726,0.0000488,0.
 0000051,0.0000056,0.1111206,-0.9992657,0.3011949,-0.0000032,-0.3188714
 ,-0.3631766,-0.0000694,-0.0000012,0.0000111,-0.0543485,0.5400167,-0.10
 95371,0.0000013,0.4299536,0.0282221,0.0000497,0.0000044,-0.0000061,-0.
 0945339,2.3350573,-0.2979799,-0.0000069,-0.1165275,1.5501272,0.0000057
 ,0.0000041,-0.000005,0.2961082,-0.8688978,0.5401904,0.0000039,0.635672
 1,-1.0759577,0.0000057,-0.0000065,0.0000107,-0.370781,-0.4335578,-0.53
 9131,-0.0000033,-0.3223542,-1.287722,-0.0000237,-0.000002,-0.000045,-0
 .5517438,-1.2232572,-0.2714206,0.000005,-0.3926673,-0.909179,0.0000017
 ,-0.0000096,-0.0000044,-0.3758829,0.0199527,-0.0619404,-0.0000014,-0.0
 729302,-0.0632707,-0.0000046,-0.0000007,-0.0000007,0.1577418,-0.105517
 9,-0.0040707,-0.0000098,-0.0022321,0.0844842,-0.0000023,0.0000022,-0.0
 000006,0.1330288,0.0236754,0.0471592,-0.0000029,0.0823677,-0.0901904,0
 .0000056,0.0000005,-0.0000037,0.147895,0.0821169,0.0541879,0.0000157,0
 .0453872,0.007905,-0.0000198,0.0000004,-0.0000023,0.1319745,0.316138,-
 0.0805431,0.000001,-0.1339238,0.2831329,-0.0000061,0.0000003,-0.000000
 8,0.3410372,0.3410933,-0.0279817,0.0000007,-0.0247419,0.2287445,0.0000
 044,0.0000043,0.0000087,0.3006652,0.1233555,0.0248544,-0.0000021,0.002
 1852,0.2318185,-0.0000003,-0.0000008,0.0000197,0.3263698\Polar=127.080
 8695,4.0915494,114.2698923,-0.0002693,0.0006614,52.6401818\PG=C01 [X(C
 7H7N1O2)]\NImag=1\\0.70631049,0.04353608,0.72269320,-0.00000452,0.0000
 0268,0.11985597,-0.17733920,0.12107300,0.00000151,0.74148459,0.0578653
 2,-0.27518454,-0.00000146,0.01864796,0.69174125,0.00000121,-0.00000256
 ,-0.06141348,-0.00000443,0.00000315,0.13814137,0.05841846,-0.01707310,
 -0.00000041,-0.18330829,-0.07725081,0.00000085,0.66624324,0.02378938,-
 0.05568722,-0.00000059,-0.13680538,-0.32769540,-0.00000041,0.00488860,
 0.76600797,-0.00000027,-0.00000024,0.00901715,0.00000022,-0.00000109,-
 0.05569829,-0.00000396,0.00000417,0.11868746,-0.05333258,0.03008180,0.
 00000042,-0.01835585,-0.07812941,-0.00000028,-0.29458466,0.03684849,0.
 00000159,0.68934301,0.02342184,-0.00387816,-0.00000058,-0.03678874,0.0
 2102564,-0.00000022,-0.01808407,-0.12173306,-0.00000046,0.03721090,0.7
 3472811,0.00000050,0.00000101,-0.00508903,-0.00000059,0.00000014,0.001
 02914,0.00000069,-0.00000062,-0.06954778,-0.00000346,0.00000523,0.1678
 0696,-0.03796141,-0.02223798,0.00000049,-0.00144516,-0.01324540,-0.000
 00055,-0.01342719,0.02488334,0.00000061,-0.18065550,0.07863010,0.00000
 216,0.63814844,-0.06309763,0.02020983,0.00000129,0.00567828,-0.0498830
 4,-0.00000017,0.04781458,0.02858319,0.00000049,0.04800614,-0.23027476,
 -0.00000310,0.01537144,0.69290686,0.00000020,-0.00000187,0.00905736,0.
 00000089,0.00000107,-0.00541773,0.00000225,-0.00000028,0.00771400,0.00
 000075,-0.00000598,-0.06663245,-0.00000603,0.00000600,0.12973711,-0.37
 242354,-0.04207513,0.00000224,-0.03245937,0.07368202,0.00000078,-0.043
 66872,-0.02745979,0.00000011,0.06708909,-0.00903088,-0.00000054,-0.151
 34371,-0.05913065,0.00000085,0.73662346,0.01940487,-0.12473448,-0.0000
 0102,0.02768352,0.03182606,0.00000086,-0.02203155,-0.01676169,-0.00000
 038,0.02329632,-0.05060884,-0.00000193,-0.09791528,-0.27718571,0.00000
 245,-0.04079562,0.69897472,0.00000273,0.00000083,-0.06218472,0.0000002
 0,-0.00000094,0.00716120,-0.00000059,0.00000019,-0.00384736,0.00000010
 ,0.00000181,0.00118477,0.00000093,-0.00000218,-0.05666010,-0.00000562,
 0.00000268,0.14025706,0.02004297,-0.00792405,-0.00000031,0.00107426,0.
 01403447,-0.00000016,-0.00858769,-0.00097252,-0.00000012,-0.00888232,0
 .04075763,0.00000115,-0.21072626,0.00453318,0.00000107,-0.03570017,-0.
 02756475,0.00000078,0.74349151,-0.00204696,-0.00833683,-0.00000014,0.0
 0028147,-0.00034860,-0.00000015,0.00092869,-0.00658281,-0.00000025,0.0
 3367623,0.02073119,0.00000027,0.01718537,-0.10370059,-0.00000116,-0.03
 169949,0.00781422,0.00000091,0.15423398,0.80401411,0.00000003,0.000000
 56,0.00770671,-0.00000035,-0.00000033,-0.00099419,-0.00000028,-0.00000
 005,0.00610095,0.00000022,0.00000091,-0.00085164,0.00000172,-0.0000004
 5,-0.07598076,-0.00000010,-0.00000099,-0.00401555,0.00000381,0.0000051
 2,0.20957637,-0.00205328,0.00171510,0.00000003,-0.00064275,-0.00098563
 ,0.00000005,-0.00000003,0.00201812,0.00000005,-0.00639572,-0.01004950,
 -0.00000014,-0.03311757,0.04229504,0.00000002,-0.00294965,0.00366556,-
 0.00000005,-0.15999802,0.08278215,-0.00000083,0.66066468,0.00365146,0.
 00028827,-0.00000013,-0.00003794,0.00152925,0.00000030,-0.00034729,0.0
 0093810,-0.00000011,-0.00234640,0.00177188,-0.00000038,0.02061881,-0.0
 0328372,0.00000116,-0.00468621,-0.00651777,-0.00000037,0.04203205,-0.2
 3193964,0.00000031,-0.00181512,0.39925677,-0.00000002,-0.00000024,-0.0
 0060565,0.00000010,0.00000012,-0.00010022,0.00000018,0.,-0.00076034,-0
 .00000002,-0.00000045,0.00248678,0.00000018,0.00000020,0.01106663,0.,0
 .00000033,0.00074667,-0.00000081,0.00000151,-0.06320171,0.00000291,-0.
 00000059,0.03541364,0.00923946,-0.00848962,-0.00000017,-0.00430653,0.0
 1659889,0.00000010,-0.03958761,-0.05721227,-0.00000030,-0.18189254,-0.
 09342975,-0.00000033,0.03082263,0.01672481,-0.00000001,-0.01415705,-0.
 00174345,0.00000017,-0.02027423,-0.00976824,-0.00000005,0.00225056,0.0
 0342801,-0.00000006,0.86597483,0.00096302,-0.00796986,0.00000006,0.005
 88207,0.00823416,0.00000002,-0.02768453,-0.00978543,0.00000006,-0.0996
 4692,-0.32882904,-0.00000234,0.00341317,-0.04947410,-0.00000025,0.0005
 3936,0.00053463,-0.00000027,-0.02144673,-0.00562286,-0.00000005,0.0034
 5655,-0.00269325,0.00000009,-0.05076274,0.81248144,0.,0.00000002,-0.00
 098016,0.00000014,0.00000006,0.00434423,-0.00000048,0.00000026,0.01071
 783,0.00000134,0.00000155,-0.03884814,0.00000077,-0.00000085,0.0066632
 3,-0.00000005,-0.00000037,0.00404119,-0.00000039,-0.00000010,-0.001140
 55,0.00000009,-0.00000025,-0.00010603,-0.00000938,-0.00000941,0.013998
 26,-0.00605133,-0.00010604,0.00000012,-0.00000184,-0.00454887,-0.00000
 003,0.00295930,0.00059429,0.,-0.00031128,-0.01085616,-0.00000014,-0.03
 780325,-0.04501422,-0.00000050,-0.00196061,0.00982010,-0.00000004,-0.3
 0419311,-0.25842590,-0.00000414,0.03627981,0.00171699,-0.00000005,-0.0
 0031461,0.01594021,0.00000009,0.32385848,-0.00751935,0.00425995,0.0000
 0017,0.00016492,-0.00733864,-0.00000024,0.00623891,0.00347415,0.000000
 06,-0.00682116,-0.02323082,0.00000027,-0.04119176,-0.00421713,-0.00000
 098,0.00674530,0.00694914,0.00000015,-0.24635284,-0.46432224,-0.000005
 49,-0.01751556,-0.10636753,-0.00000081,0.02198874,0.00388210,0.0000003
 4,0.29798323,0.57467873,-0.00000008,-0.00000006,-0.00175940,0.00000006
 ,-0.00000003,0.00038561,0.00000013,0.00000002,-0.00071687,-0.00000009,
 -0.00000048,-0.00069892,-0.00000001,0.00000001,0.01948902,0.00000009,0
 .00000018,0.00467131,-0.00000491,-0.00000642,-0.07694072,0.00000006,-0
 .00000006,0.02714872,0.00000024,0.00000011,0.00254154,0.00000457,0.000
 00680,0.03557872,-0.12168078,-0.11972897,0.00000011,0.01151446,0.01645
 951,0.00000015,-0.00146058,0.00297547,0.00000011,-0.00100856,0.0008348
 8,-0.00000040,-0.00498424,0.00185638,0.00000092,-0.01026772,-0.0293428
 1,-0.00000036,0.00083020,-0.00168810,-0.00000019,-0.00023065,0.0003014
 5,0.00000008,0.00039066,-0.00013220,-0.00000009,-0.00102539,-0.0002461
 1,0.00000002,0.12633176,-0.11994267,-0.28174033,-0.00000026,-0.0151834
 7,-0.01780573,0.00000030,0.00417167,-0.00230579,0.,0.00089429,0.000092
 02,-0.00000072,0.00048065,0.00163778,0.00000130,0.00230465,0.00308014,
 -0.00000055,0.00047603,-0.00000881,-0.00000033,-0.00018459,0.00012785,
 0.00000014,-0.00023780,0.00013540,-0.00000013,-0.00016373,0.00000357,0
 .00000006,0.12791400,0.29643377,0.00000008,-0.00000035,-0.03081943,-0.
 00000014,-0.00000022,0.00093199,0.00000008,-0.00000006,0.00551111,0.00
 000003,0.,-0.00043394,0.00000006,-0.00000015,0.00700276,0.00000011,0.0
 0000045,0.00142538,0.,0.,0.00138611,0.,0.00000005,-0.00002588,0.000000
 02,-0.00000002,-0.00055073,0.00000001,-0.00000002,-0.00059654,-0.00000
 016,0.00000036,0.02353804,-0.01116401,-0.00385422,0.00000020,-0.341179
 85,-0.00604942,0.00000233,-0.01044907,0.00263452,0.00000029,0.00129759
 ,-0.00220482,-0.00000010,0.00072584,-0.00002864,0.00000020,0.00016018,
 0.00357699,-0.00000008,0.00022948,0.00005282,0.,-0.00019661,0.00006653
 ,0.00000002,-0.00097266,-0.00001459,0.00000003,-0.00018440,-0.00006914
 ,0.00000002,0.00068004,0.00033364,-0.00000006,0.36078239,0.02672954,0.
 00649436,-0.00000018,-0.00519492,-0.05954098,-0.00000004,-0.02816364,0
 .00360758,0.00000025,-0.00209000,-0.00501930,-0.00000014,-0.00052402,-
 0.00107430,0.00000010,0.00300553,-0.00480508,-0.00000013,0.00037730,-0
 .00021535,0.,-0.00001251,0.00022425,0.,-0.00139484,0.00066868,0.000000
 05,-0.00005954,0.00004382,0.,-0.00034697,0.00061963,0.00000002,0.00638
 531,0.05856976,0.00000022,0.00000014,0.00441835,0.00000236,-0.00000009
 ,-0.03945250,-0.00000013,-0.00000006,0.00431846,0.00000011,0.00000007,
 0.00851026,0.00000001,-0.00000015,-0.00070313,0.00000011,-0.00000011,0
 .00621945,0.00000006,0.00000005,-0.00114268,0.,-0.00000002,0.00019799,
 0.,-0.00000002,-0.00016105,0.,0.00000001,0.00013759,-0.00000006,-0.000
 00003,-0.00329537,-0.00000265,0.00000011,0.02600411,-0.00049353,-0.003
 13398,0.00000008,0.01155108,-0.01414598,-0.00000003,-0.13867134,0.1267
 1131,0.00000179,-0.01186365,0.02844547,-0.00000008,-0.00485632,-0.0021
 7669,0.00000088,-0.00111910,-0.00117029,-0.00000033,0.00041628,0.00168
 198,-0.00000019,-0.00083635,0.00005352,0.00000008,0.00158313,0.0009576
 7,-0.00000018,-0.00010233,-0.00036786,0.00000004,0.00043117,-0.0007427
 5,0.,0.00081584,0.00003820,-0.00000007,0.14441696,-0.00438738,-0.00266
 637,-0.00000009,0.01742787,-0.01919994,-0.00000048,0.12691522,-0.25707
 644,-0.00000267,-0.00405793,0.00151157,0.00000063,-0.00020903,0.001321
 27,-0.00000115,-0.00081328,0.00014780,0.00000049,-0.00103547,-0.000170
 94,0.00000026,0.00017995,-0.00005441,-0.00000012,-0.00102839,0.0023357
 0,0.00000011,0.00032761,0.00039269,-0.00000005,0.00088285,-0.00104026,
 -0.00000002,-0.00036781,0.00058691,0.00000008,-0.13470149,0.27375085,0
 .00000003,-0.00000005,0.00723082,0.00000005,0.00000004,0.00220208,0.00
 000168,-0.00000264,-0.03181025,0.00000018,-0.00000010,0.00381818,0.,-0
 .00000021,0.00471352,0.00000001,0.00000019,-0.00069338,0.00000002,0.00
 000001,0.00008345,0.,0.00000004,-0.00005193,0.00000003,-0.00000010,-0.
 00272876,0.,-0.00000001,-0.00000193,0.,0.,0.00062740,-0.00000008,0.000
 00003,-0.00459132,-0.00000196,0.00000280,0.02210814,-0.01010801,0.0268
 5360,0.00000018,-0.00575112,-0.00119878,0.00000013,-0.00042876,-0.0009
 9984,-0.00000020,-0.00154527,-0.00314471,0.00000030,0.01095201,-0.0130
 6757,-0.00000061,-0.13974614,0.13216031,0.00000197,0.00143150,-0.00195
 673,0.00000003,-0.00506211,-0.00091998,-0.00000007,0.00053885,-0.00072
 533,0.,0.00020692,0.00103914,-0.00000003,0.00061657,-0.00026024,-0.000
 00001,-0.00064695,0.00133866,0.00000003,0.00006391,0.00009410,0.000000
 03,0.14938823,-0.00341277,0.00596893,0.00000020,-0.00100031,0.00112461
 ,0.00000001,-0.00044896,0.00023093,0.00000026,-0.00421079,-0.00232128,
 -0.00000048,0.01489437,-0.01821820,0.00000055,0.12979296,-0.26624086,-
 0.00000290,0.00242357,-0.00321833,-0.00000009,0.00004241,0.00162340,0.
 00000008,0.00114616,-0.00085334,-0.00000002,-0.00028143,0.00094825,0.0
 0000005,0.00022159,0.00075713,0.,-0.00026548,0.00018419,-0.00000004,0.
 00010180,-0.00000439,-0.00000004,-0.13899897,0.27967540,0.,-0.00000016
 ,0.00541699,0.00000010,-0.00000013,0.00763544,-0.00000007,0.00000004,-
 0.00088622,0.00000010,0.00000025,0.00559478,-0.00000006,-0.00000037,0.
 00320804,0.00000181,-0.00000234,-0.03882475,0.00000013,0.00000008,-0.0
 0361029,-0.00000001,0.,0.00051655,0.00000003,-0.00000004,0.00034491,-0
 .00000003,0.,0.00052570,-0.00000008,-0.00000003,-0.00458136,-0.0000000
 3,-0.00000002,-0.00020986,-0.00000004,0.00000006,-0.00079303,-0.000001
 86,0.00000261,0.02594684,0.00051549,-0.00026959,-0.00000002,0.00007987
 ,0.00031855,-0.00000006,-0.00015524,0.00036476,-0.00000001,-0.00087010
 ,-0.00010805,0.00000016,0.00252194,0.00300711,-0.00000043,0.00037095,-
 0.00024149,0.00000013,-0.03284703,0.00597293,0.00000008,-0.48647521,-0
 .05753183,-0.00000251,0.00046808,-0.00059042,0.,0.00253599,-0.00860117
 ,-0.00000003,0.00001476,0.00002070,0.,0.00003241,0.00000156,0.00000001
 ,-0.00006260,-0.00003058,0.,-0.00007991,-0.00001705,0.00000002,0.51446
 472,-0.00026554,0.00041915,0.00000006,-0.00016874,-0.00016822,0.,0.000
 11375,-0.00047306,0.00000008,0.00157739,0.00087367,-0.00000015,0.00104
 026,-0.00679383,0.00000024,-0.00087813,-0.00059517,-0.00000013,0.05523
 813,0.00725663,0.00000034,-0.10602926,-0.05986463,-0.00000007,-0.00056
 631,0.00026517,0.,-0.00796806,0.00127019,-0.00000011,-0.00003467,-0.00
 002117,-0.00000001,-0.00004216,0.00003475,-0.00000001,0.00013707,0.000
 01638,-0.00000002,0.00018118,0.00069349,-0.00000002,0.05709627,0.05778
 960,-0.00000001,0.00000013,0.00017973,-0.00000005,-0.00000007,0.000059
 50,-0.00000012,0.00000001,-0.00033169,0.00000006,0.00000029,0.00099902
 ,0.00000025,-0.00000019,0.00396731,0.00000002,-0.00000013,-0.00043434,
 -0.00000076,0.00000013,0.00344304,-0.00000209,0.00000001,-0.01345330,0
 .,-0.00000005,-0.00005029,0.00000011,0.00000005,-0.00570141,-0.0000000
 5,-0.00000008,-0.00000978,-0.00000002,0.,-0.00002738,-0.00000005,0.000
 00007,-0.00001813,0.00000003,-0.00000007,-0.00029329,0.00000265,-0.000
 00018,0.01160279,-0.00226810,0.00220662,0.00000005,-0.00066144,-0.0032
 6271,-0.00000003,0.00593567,0.00140298,0.00000011,-0.01295530,-0.01212
 475,0.00000036,-0.00644139,0.00141664,-0.00000018,0.00127309,0.0016020
 9,0.00000004,0.01710117,0.01162574,0.00000015,-0.00164213,-0.00508963,
 0.00000002,-0.44787160,-0.01856020,0.00001167,-0.01211210,-0.01006582,
 -0.00000014,-0.00009595,0.00002757,-0.00000001,0.00008135,-0.00009601,
 0.,-0.00011439,0.00008574,0.,0.00027081,0.00024734,0.,-0.00059133,0.00
 074188,0.,0.46033335,0.00203734,-0.00115597,-0.00000006,-0.00151535,0.
 00296590,-0.00000017,-0.00284105,-0.00736435,-0.00000010,-0.03270773,0
 .00932709,0.00000151,0.00438723,0.00024077,-0.00000090,-0.00158909,-0.
 00137943,0.00000033,-0.00920129,-0.01485776,0.00000013,0.00058525,0.00
 434376,-0.00000011,-0.02123351,-0.07453222,0.00000119,0.00177988,0.008
 70855,-0.00000002,0.00013224,-0.00002401,0.,-0.00022028,-0.00042878,0.
 00000003,-0.00009452,0.00016143,0.,-0.00009591,-0.00004383,0.00000005,
 0.00049775,-0.00062801,0.00000006,0.03423391,0.06769565,-0.00000007,0.
 00000020,0.00012207,-0.00000008,-0.00000017,0.00200792,-0.00000009,-0.
 00000011,0.00389189,-0.00000083,-0.00000009,-0.00431667,-0.00000007,-0
 .00000037,-0.00106273,0.00000006,0.00000005,-0.00064555,0.00000023,0.0
 0000004,-0.00029970,-0.00000005,-0.00000003,0.00130893,0.00001443,0.00
 000170,-0.00173013,0.,0.,-0.00480585,-0.00000006,-0.00000010,-0.000147
 59,-0.00000007,-0.00000003,-0.00040062,-0.00000005,0.00000010,-0.00076
 729,0.00000009,-0.00000013,-0.00003010,0.00000002,-0.00000004,0.000090
 74,-0.00001220,-0.00000085,0.01221363,0.00034890,-0.00057353,0.0000000
 2,-0.00025285,0.00121031,-0.00000002,0.00077251,-0.00366145,-0.0000000
 2,0.01492364,-0.01347937,0.00000046,-0.00040886,-0.00418819,-0.0000002
 6,0.00027900,-0.00040453,0.00000005,-0.00340854,-0.00283594,0.00000008
 ,0.00040504,0.00090559,-0.00000005,-0.20189136,0.18841160,-0.00000354,
 -0.00178025,0.00459054,0.00000007,-0.00005574,0.00009205,-0.00000002,-
 0.00001157,0.00000637,0.,-0.00115876,0.00071802,-0.00000001,-0.0001005
 5,-0.00023445,0.,0.00007720,-0.00017308,0.00000002,-0.00024171,0.02584
 514,-0.00000125,0.19250389,-0.00072653,0.00102009,0.00000005,-0.000144
 23,-0.00128177,-0.00000021,0.00285357,0.00262333,-0.00000007,0.0184187
 8,-0.02416592,0.00000079,-0.00558126,-0.00079433,-0.00000031,0.0020884
 4,-0.00049770,0.00000008,0.00039133,-0.00049138,0.00000016,-0.00014795
 ,0.00061742,-0.00000006,0.18598030,-0.34877719,0.00000755,-0.00073835,
 0.00086523,-0.00000001,-0.00005855,0.00005881,0.,0.00006676,0.00004988
 ,0.00000002,-0.00159347,-0.00001186,0.00000007,-0.00029893,-0.00030611
 ,0.,0.00011055,-0.00007493,0.00000003,-0.00439139,0.00697121,-0.000000
 19,-0.19622908,0.36419520,0.,-0.00000003,-0.00015326,0.00000002,-0.000
 00004,-0.00082206,0.00000027,0.00000013,-0.00236006,-0.00000022,-0.000
 00175,-0.00501133,-0.00000046,0.00000020,0.00383794,0.00000010,0.00000
 008,0.00159873,0.00000023,0.00000009,-0.00011885,-0.00000004,0.0000000
 9,-0.00058085,-0.00000472,0.00001049,0.00364464,0.00000005,-0.00000029
 ,0.00074343,0.00000004,0.00000006,0.00003783,0.,0.,0.00017772,0.000000
 11,-0.00000004,0.00067242,-0.00000002,0.00000001,0.00003966,0.,0.00000
 001,-0.00002251,0.00000018,-0.00000110,-0.00542896,0.00000447,-0.00000
 791,0.00374550\\0.00000043,-0.00000715,-0.00000011,-0.00000923,0.00000
 842,0.,0.00001551,-0.00000579,-0.00000011,0.00002037,-0.00001787,0.000
 00027,0.00000114,-0.00000024,0.00000154,0.00000679,0.00001884,0.000000
 25,-0.00000683,-0.00002275,-0.00000584,0.00000731,0.00000840,0.0000017
 1,0.00002517,-0.00001412,0.00000007,0.00000285,0.00002995,0.00000233,-
 0.00000241,0.00000245,-0.00000003,-0.00000054,0.00000296,0.00000002,-0
 .00000566,-0.00000141,0.,-0.00000524,-0.00000332,0.00000003,-0.0000295
 2,-0.00000323,0.00000002,-0.00002423,0.00000426,-0.00000016,0.00000408
 ,0.00000060,0.\\\@


 Change starts when someone sees the next step.
                            -- William Drayton
 Job cpu time:       0 days  0 hours 12 minutes 22.0 seconds.
 File lengths (MBytes):  RWF=     93 Int=      0 D2E=      0 Chk=      5 Scr=      1
 Normal termination of Gaussian 09 at Thu Dec 19 12:05:29 2024.
