 Entering Gaussian System, Link 0=g09
 Input=B3PWD3Anthranilicyang.gjf
 Output=B3PWD3Anthranilicyang.log
 Initial command:
 /home/phzd/g09E/g09/l1.exe "/home/phzd/g09E/scratch/Gau-1524069.inp" -scrdir="/home/phzd/g09E/scratch/"
 Default is to use a total of  18 processors:
                               18 via shared-memory
                                1 via Linda
 Entering Link 1 = /home/phzd/g09E/g09/l1.exe PID=   1524071.
  
 Copyright (c) 1988,1990,1992,1993,1995,1998,2003,2009,2015,
            Gaussian, Inc.  All Rights Reserved.
  
 This is part of the Gaussian(R) 09 program.  It is based on
 the Gaussian(R) 03 system (copyright 2003, Gaussian, Inc.),
 the Gaussian(R) 98 system (copyright 1998, Gaussian, Inc.),
 the Gaussian(R) 94 system (copyright 1995, Gaussian, Inc.),
 the Gaussian 92(TM) system (copyright 1992, Gaussian, Inc.),
 the Gaussian 90(TM) system (copyright 1990, Gaussian, Inc.),
 the Gaussian 88(TM) system (copyright 1988, Gaussian, Inc.),
 the Gaussian 86(TM) system (copyright 1986, Carnegie Mellon
 University), and the Gaussian 82(TM) system (copyright 1983,
 Carnegie Mellon University). Gaussian is a federally registered
 trademark of Gaussian, Inc.
  
 This software contains proprietary and confidential information,
 including trade secrets, belonging to Gaussian, Inc.
  
 This software is provided under written license and may be
 used, copied, transmitted, or stored only in accord with that
 written license.
  
 The following legend is applicable only to US Government
 contracts under FAR:
  
                    RESTRICTED RIGHTS LEGEND
  
 Use, reproduction and disclosure by the US Government is
 subject to restrictions as set forth in subparagraphs (a)
 and (c) of the Commercial Computer Software - Restricted
 Rights clause in FAR 52.227-19.
  
 Gaussian, Inc.
 340 Quinnipiac St., Bldg. 40, Wallingford CT 06492
  
  
 ---------------------------------------------------------------
 Warning -- This program may not be used in any manner that
 competes with the business of Gaussian, Inc. or will provide
 assistance to any competitor of Gaussian, Inc.  The licensee
 of this program is prohibited from giving any competitor of
 Gaussian, Inc. access to this program.  By using this program,
 the user acknowledges that Gaussian, Inc. is engaged in the
 business of creating and licensing software in the field of
 computational chemistry and represents and warrants to the
 licensee that it is not a competitor of Gaussian, Inc. and that
 it will not use this program in any manner prohibited above.
 ---------------------------------------------------------------
  

 Cite this work as:
 Gaussian 09, Revision E.01,
 M. J. Frisch, G. W. Trucks, H. B. Schlegel, G. E. Scuseria, 
 M. A. Robb, J. R. Cheeseman, G. Scalmani, V. Barone, B. Mennucci, 
 G. A. Petersson, H. Nakatsuji, M. Caricato, X. Li, H. P. Hratchian, 
 A. F. Izmaylov, J. Bloino, G. Zheng, J. L. Sonnenberg, M. Hada, 
 M. Ehara, K. Toyota, R. Fukuda, J. Hasegawa, M. Ishida, T. Nakajima, 
 Y. Honda, O. Kitao, H. Nakai, T. Vreven, J. A. Montgomery, Jr., 
 J. E. Peralta, F. Ogliaro, M. Bearpark, J. J. Heyd, E. Brothers, 
 K. N. Kudin, V. N. Staroverov, T. Keith, R. Kobayashi, J. Normand, 
 K. Raghavachari, A. Rendell, J. C. Burant, S. S. Iyengar, J. Tomasi, 
 M. Cossi, N. Rega, J. M. Millam, M. Klene, J. E. Knox, J. B. Cross, 
 V. Bakken, C. Adamo, J. Jaramillo, R. Gomperts, R. E. Stratmann, 
 O. Yazyev, A. J. Austin, R. Cammi, C. Pomelli, J. W. Ochterski, 
 R. L. Martin, K. Morokuma, V. G. Zakrzewski, G. A. Voth, 
 P. Salvador, J. J. Dannenberg, S. Dapprich, A. D. Daniels, 
 O. Farkas, J. B. Foresman, J. V. Ortiz, J. Cioslowski, 
 and D. J. Fox, Gaussian, Inc., Wallingford CT, 2013.
 
 ******************************************
 Gaussian 09:  ES64L-G09RevE.01 30-Nov-2015
                19-Dec-2024 
 ******************************************
 %chk=B3PWD3Anthranilicyang.chk
 -----------------------------------------------------
 # opt freq b3pw91/6-31+g(d,p) EmpiricalDispersion=GD3
 -----------------------------------------------------
 1/14=-1,18=20,19=15,26=3,38=1/1,3;
 2/9=110,12=2,17=6,18=5,40=1/2;
 3/5=1,6=6,7=111,11=2,16=1,25=1,30=1,71=1,74=-6,124=31/1,2,3;
 4//1;
 5/5=2,38=5/2;
 6/7=2,8=2,9=2,10=2,28=1/1;
 7//1,2,3,16;
 1/14=-1,18=20,19=15,26=3/3(2);
 2/9=110/2;
 99//99;
 2/9=110/2;
 3/5=1,6=6,7=111,11=2,16=1,25=1,30=1,71=1,74=-6,124=31/1,2,3;
 4/5=5,16=3,69=1/1;
 5/5=2,38=5/2;
 7//1,2,3,16;
 1/14=-1,18=20,19=15,26=3/3(-5);
 2/9=110/2;
 6/7=2,8=2,9=2,10=2,19=2,28=1/1;
 99/9=1/99;
 ----------
 [No Title]
 ----------
 Symbolic Z-matrix:
 Charge =  1 Multiplicity = 1
 C                     1.94172  -1.46615   0. 
 C                     2.61871  -0.24746  -0.00001 
 C                     1.90672   0.95473   0. 
 C                     0.52312   0.91213   0.00001 
 C                    -0.18408  -0.30273   0.00004 
 C                     0.54974  -1.49548   0.00002 
 C                    -1.6661   -0.30605   0.00012 
 O                    -2.21307  -1.50482  -0.00015 
 N                    -0.25197   2.16658  -0.00003 
 O                    -2.34129   0.72879   0.00007 
 H                     2.49908  -2.39715  -0.00001 
 H                     3.70381  -0.22433  -0.00002 
 H                     2.43446   1.90495  -0.00002 
 H                     0.01888  -2.4411    0.00004 
 H                    -3.18236  -1.41785  -0.00023 
 H                    -0.06343   2.73668  -0.82887 
 H                    -1.2872    1.85039  -0.00012 
 H                    -0.06354   2.73666   0.82886 
 

 GradGradGradGradGradGradGradGradGradGradGradGradGradGradGradGradGradGrad
 Berny optimization.
 Initialization pass.
                           ----------------------------
                           !    Initial Parameters    !
                           ! (Angstroms and Degrees)  !
 --------------------------                            --------------------------
 ! Name  Definition              Value          Derivative Info.                !
 --------------------------------------------------------------------------------
 ! R1    R(1,2)                  1.3941         estimate D2E/DX2                !
 ! R2    R(1,6)                  1.3923         estimate D2E/DX2                !
 ! R3    R(1,11)                 1.0851         estimate D2E/DX2                !
 ! R4    R(2,3)                  1.3972         estimate D2E/DX2                !
 ! R5    R(2,12)                 1.0854         estimate D2E/DX2                !
 ! R6    R(3,4)                  1.3843         estimate D2E/DX2                !
 ! R7    R(3,13)                 1.0869         estimate D2E/DX2                !
 ! R8    R(4,5)                  1.4057         estimate D2E/DX2                !
 ! R9    R(4,9)                  1.4746         estimate D2E/DX2                !
 ! R10   R(5,6)                  1.4004         estimate D2E/DX2                !
 ! R11   R(5,7)                  1.482          estimate D2E/DX2                !
 ! R12   R(6,14)                 1.0844         estimate D2E/DX2                !
 ! R13   R(7,8)                  1.3177         estimate D2E/DX2                !
 ! R14   R(7,10)                 1.2356         estimate D2E/DX2                !
 ! R15   R(8,15)                 0.9732         estimate D2E/DX2                !
 ! R16   R(9,16)                 1.0235         estimate D2E/DX2                !
 ! R17   R(9,17)                 1.0824         estimate D2E/DX2                !
 ! R18   R(9,18)                 1.0235         estimate D2E/DX2                !
 ! A1    A(2,1,6)              120.2596         estimate D2E/DX2                !
 ! A2    A(2,1,11)             120.0399         estimate D2E/DX2                !
 ! A3    A(6,1,11)             119.7005         estimate D2E/DX2                !
 ! A4    A(1,2,3)              120.3121         estimate D2E/DX2                !
 ! A5    A(1,2,12)             120.2739         estimate D2E/DX2                !
 ! A6    A(3,2,12)             119.414          estimate D2E/DX2                !
 ! A7    A(2,3,4)              118.8723         estimate D2E/DX2                !
 ! A8    A(2,3,13)             120.3173         estimate D2E/DX2                !
 ! A9    A(4,3,13)             120.8104         estimate D2E/DX2                !
 ! A10   A(3,4,5)              121.9677         estimate D2E/DX2                !
 ! A11   A(3,4,9)              119.9476         estimate D2E/DX2                !
 ! A12   A(5,4,9)              118.0847         estimate D2E/DX2                !
 ! A13   A(4,5,6)              118.1946         estimate D2E/DX2                !
 ! A14   A(4,5,7)              120.3324         estimate D2E/DX2                !
 ! A15   A(6,5,7)              121.473          estimate D2E/DX2                !
 ! A16   A(1,6,5)              120.3938         estimate D2E/DX2                !
 ! A17   A(1,6,14)             120.5164         estimate D2E/DX2                !
 ! A18   A(5,6,14)             119.0898         estimate D2E/DX2                !
 ! A19   A(5,7,8)              114.654          estimate D2E/DX2                !
 ! A20   A(5,7,10)             122.9946         estimate D2E/DX2                !
 ! A21   A(8,7,10)             122.3514         estimate D2E/DX2                !
 ! A22   A(7,8,15)             109.399          estimate D2E/DX2                !
 ! A23   A(4,9,16)             112.1508         estimate D2E/DX2                !
 ! A24   A(4,9,17)             104.727          estimate D2E/DX2                !
 ! A25   A(4,9,18)             112.1511         estimate D2E/DX2                !
 ! A26   A(16,9,17)            109.8046         estimate D2E/DX2                !
 ! A27   A(16,9,18)            108.1598         estimate D2E/DX2                !
 ! A28   A(17,9,18)            109.8065         estimate D2E/DX2                !
 ! D1    D(6,1,2,3)             -0.0004         estimate D2E/DX2                !
 ! D2    D(6,1,2,12)          -180.0            estimate D2E/DX2                !
 ! D3    D(11,1,2,3)          -180.0            estimate D2E/DX2                !
 ! D4    D(11,1,2,12)            0.0004         estimate D2E/DX2                !
 ! D5    D(2,1,6,5)             -0.0002         estimate D2E/DX2                !
 ! D6    D(2,1,6,14)          -179.9991         estimate D2E/DX2                !
 ! D7    D(11,1,6,5)           179.9994         estimate D2E/DX2                !
 ! D8    D(11,1,6,14)            0.0005         estimate D2E/DX2                !
 ! D9    D(1,2,3,4)             -0.0002         estimate D2E/DX2                !
 ! D10   D(1,2,3,13)          -179.9991         estimate D2E/DX2                !
 ! D11   D(12,2,3,4)           179.9994         estimate D2E/DX2                !
 ! D12   D(12,2,3,13)            0.0004         estimate D2E/DX2                !
 ! D13   D(2,3,4,5)              0.0014         estimate D2E/DX2                !
 ! D14   D(2,3,4,9)           -179.9979         estimate D2E/DX2                !
 ! D15   D(13,3,4,5)          -179.9997         estimate D2E/DX2                !
 ! D16   D(13,3,4,9)             0.001          estimate D2E/DX2                !
 ! D17   D(3,4,5,6)             -0.002          estimate D2E/DX2                !
 ! D18   D(3,4,5,7)            179.9969         estimate D2E/DX2                !
 ! D19   D(9,4,5,6)            179.9973         estimate D2E/DX2                !
 ! D20   D(9,4,5,7)             -0.0038         estimate D2E/DX2                !
 ! D21   D(3,4,9,16)            60.9655         estimate D2E/DX2                !
 ! D22   D(3,4,9,17)           179.9939         estimate D2E/DX2                !
 ! D23   D(3,4,9,18)           -60.9754         estimate D2E/DX2                !
 ! D24   D(5,4,9,16)          -119.0338         estimate D2E/DX2                !
 ! D25   D(5,4,9,17)            -0.0055         estimate D2E/DX2                !
 ! D26   D(5,4,9,18)           119.0253         estimate D2E/DX2                !
 ! D27   D(4,5,6,1)              0.0014         estimate D2E/DX2                !
 ! D28   D(4,5,6,14)          -179.9998         estimate D2E/DX2                !
 ! D29   D(7,5,6,1)           -179.9975         estimate D2E/DX2                !
 ! D30   D(7,5,6,14)             0.0013         estimate D2E/DX2                !
 ! D31   D(4,5,7,8)            179.9861         estimate D2E/DX2                !
 ! D32   D(4,5,7,10)             0.0047         estimate D2E/DX2                !
 ! D33   D(6,5,7,8)             -0.015          estimate D2E/DX2                !
 ! D34   D(6,5,7,10)          -179.9964         estimate D2E/DX2                !
 ! D35   D(5,7,8,15)          -179.9903         estimate D2E/DX2                !
 ! D36   D(10,7,8,15)           -0.0088         estimate D2E/DX2                !
 --------------------------------------------------------------------------------
 Trust Radius=3.00D-01 FncErr=1.00D-07 GrdErr=1.00D-06
 Number of steps in this run=     92 maximum allowed number of steps=    108.
 GradGradGradGradGradGradGradGradGradGradGradGradGradGradGradGradGradGrad

                          Input orientation:                          
 ---------------------------------------------------------------------
 Center     Atomic      Atomic             Coordinates (Angstroms)
 Number     Number       Type             X           Y           Z
 ---------------------------------------------------------------------
      1          6           0        1.941720   -1.466149    0.000000
      2          6           0        2.618705   -0.247464   -0.000005
      3          6           0        1.906724    0.954728    0.000003
      4          6           0        0.523117    0.912134    0.000012
      5          6           0       -0.184078   -0.302734    0.000042
      6          6           0        0.549736   -1.495483    0.000021
      7          6           0       -1.666101   -0.306046    0.000119
      8          8           0       -2.213068   -1.504818   -0.000149
      9          7           0       -0.251972    2.166576   -0.000026
     10          8           0       -2.341287    0.728793    0.000074
     11          1           0        2.499082   -2.397147   -0.000006
     12          1           0        3.703814   -0.224327   -0.000022
     13          1           0        2.434464    1.904952   -0.000015
     14          1           0        0.018883   -2.441097    0.000040
     15          1           0       -3.182365   -1.417851   -0.000232
     16          1           0       -0.063428    2.736676   -0.828874
     17          1           0       -1.287195    1.850394   -0.000122
     18          1           0       -0.063544    2.736660    0.828859
 ---------------------------------------------------------------------
                    Distance matrix (angstroms):
                    1          2          3          4          5
     1  C    0.000000
     2  C    1.394095   0.000000
     3  C    2.421130   1.397205   0.000000
     4  C    2.769235   2.395027   1.384262   0.000000
     5  C    2.423335   2.803328   2.439808   1.405713   0.000000
     6  C    1.392293   2.416233   2.800884   2.407764   1.400405
     7  C    3.789751   4.285206   3.788750   2.505322   1.482027
     8  O    4.154968   4.992692   4.798130   3.650803   2.358348
     9  N    4.243698   3.750783   2.475590   1.474581   2.470243
    10  O    4.812683   5.055156   4.254015   2.870266   2.391150
    11  H    1.085085   2.153009   3.403815   3.854319   3.403809
    12  H    2.155713   1.085356   2.149349   3.377629   3.888683
    13  H    3.406922   2.160287   1.086938   2.153819   3.425002
    14  H    2.155882   3.401632   3.885302   3.390931   2.147973
    15  H    5.124313   5.917957   5.614976   4.377148   3.198939
    16  H    4.729840   4.097066   2.782782   2.088071   3.152724
    17  H    4.628752   4.433629   3.317128   2.039010   2.419262
    18  H    4.729873   4.097130   2.782847   2.088074   3.152679
                    6          7          8          9         10
     6  C    0.000000
     7  C    2.514894   0.000000
     8  O    2.762820   1.317660   0.000000
     9  N    3.748788   2.848442   4.162335   0.000000
    10  O    3.647659   1.235624   2.237288   2.536229   0.000000
    11  H    2.147777   4.660628   4.795895   5.328777   5.762003
    12  H    3.400595   5.370537   6.053854   4.622192   6.119778
    13  H    3.887822   4.658663   5.764207   2.699145   4.918450
    14  H    1.084431   2.719855   2.420377   4.615627   3.952038
    15  H    3.732908   1.880204   0.973191   4.629829   2.305535
    16  H    4.355939   3.537506   4.826801   1.023500   3.147601
    17  H    3.816963   2.189476   3.480616   1.082431   1.539188
    18  H    4.355929   3.537380   4.826784   1.023499   3.147464
                   11         12         13         14         15
    11  H    0.000000
    12  H    2.484457   0.000000
    13  H    4.302584   2.478927   0.000000
    14  H    2.480588   4.300324   4.972240   0.000000
    15  H    5.765229   6.988845   6.526085   3.360807   0.000000
    16  H    5.797380   4.862782   2.760115   5.244350   5.260657
    17  H    5.690123   5.405057   3.722059   4.485837   3.777975
    18  H    5.797417   4.862867   2.760220   5.244321   5.260646
                   16         17         18
    16  H    0.000000
    17  H    1.723349   0.000000
    18  H    1.657733   1.723368   0.000000
 Stoichiometry    C7H8NO2(1+)
 Framework group  C1[X(C7H8NO2)]
 Deg. of freedom    48
 Full point group                 C1      NOp   1
 Largest Abelian subgroup         C1      NOp   1
 Largest concise Abelian subgroup C1      NOp   1
                         Standard orientation:                         
 ---------------------------------------------------------------------
 Center     Atomic      Atomic             Coordinates (Angstroms)
 Number     Number       Type             X           Y           Z
 ---------------------------------------------------------------------
      1          6           0       -1.941720   -1.466149   -0.000000
      2          6           0       -2.618705   -0.247464    0.000005
      3          6           0       -1.906724    0.954728   -0.000003
      4          6           0       -0.523117    0.912134   -0.000012
      5          6           0        0.184078   -0.302734   -0.000042
      6          6           0       -0.549736   -1.495483   -0.000021
      7          6           0        1.666101   -0.306046   -0.000119
      8          8           0        2.213068   -1.504818    0.000149
      9          7           0        0.251972    2.166576    0.000026
     10          8           0        2.341287    0.728793   -0.000074
     11          1           0       -2.499082   -2.397147    0.000006
     12          1           0       -3.703814   -0.224327    0.000022
     13          1           0       -2.434464    1.904952    0.000015
     14          1           0       -0.018883   -2.441097   -0.000040
     15          1           0        3.182365   -1.417851    0.000232
     16          1           0        0.063428    2.736676    0.828874
     17          1           0        1.287195    1.850394    0.000122
     18          1           0        0.063544    2.736660   -0.828859
 ---------------------------------------------------------------------
 Rotational constants (GHZ):      2.2524529      1.2092096      0.7902223
 Standard basis: 6-31+G(d,p) (6D, 7F)
 There are   230 symmetry adapted cartesian basis functions of A   symmetry.
 There are   230 symmetry adapted basis functions of A   symmetry.
   230 basis functions,   376 primitive gaussians,   230 cartesian basis functions
    36 alpha electrons       36 beta electrons
       nuclear repulsion energy       515.6376277979 Hartrees.
 NAtoms=   18 NActive=   18 NUniq=   18 SFac= 1.00D+00 NAtFMM=   60 NAOKFM=F Big=F
 Integral buffers will be    131072 words long.
 Raffenetti 2 integral format.
 Two-electron integral symmetry is turned on.
 Nuclear repulsion after empirical dispersion term =      515.6229818116 Hartrees.
 One-electron integrals computed using PRISM.
 NBasis=   230 RedAO= T EigKep=  2.28D-06  NBF=   230
 NBsUse=   230 1.00D-06 EigRej= -1.00D+00 NBFU=   230
 ExpMin= 4.38D-02 ExpMax= 5.48D+03 ExpMxC= 8.25D+02 IAcc=2 IRadAn=         4 AccDes= 0.00D+00
 Harris functional with IExCor=  408 and IRadAn=       4 diagonalized for initial guess.
 HarFok:  IExCor=  408 AccDes= 0.00D+00 IRadAn=         4 IDoV= 1 UseB2=F ITyADJ=14
 ICtDFT=  3500011 ScaDFX=  1.000000  1.000000  1.000000  1.000000
 FoFCou: FMM=F IPFlag=           0 FMFlag=      100000 FMFlg1=           0
         NFxFlg=           0 DoJE=T BraDBF=F KetDBF=T FulRan=T
         wScrn=  0.000000 ICntrl=     500 IOpCl=  0 I1Cent=   200000004 NGrid=           0
         NMat0=    1 NMatS0=      1 NMatT0=    0 NMatD0=    1 NMtDS0=    0 NMtDT0=    0
 Petite list used in FoFCou.
 Keep R1 ints in memory in canonical form, NReq=359209085.
 Requested convergence on RMS density matrix=1.00D-08 within 128 cycles.
 Requested convergence on MAX density matrix=1.00D-06.
 Requested convergence on             energy=1.00D-06.
 No special actions if energy rises.
 SCF Done:  E(RB3PW91) =  -476.408632960     A.U. after   14 cycles
            NFock= 14  Conv=0.81D-08     -V/T= 2.0093

 **********************************************************************

            Population analysis using the SCF density.

 **********************************************************************

 Orbital symmetries:
       Occupied  (A) (A) (A) (A) (A) (A) (A) (A) (A) (A) (A) (A)
                 (A) (A) (A) (A) (A) (A) (A) (A) (A) (A) (A) (A)
                 (A) (A) (A) (A) (A) (A) (A) (A) (A) (A) (A) (A)
       Virtual   (A) (A) (A) (A) (A) (A) (A) (A) (A) (A) (A) (A)
                 (A) (A) (A) (A) (A) (A) (A) (A) (A) (A) (A) (A)
                 (A) (A) (A) (A) (A) (A) (A) (A) (A) (A) (A) (A)
                 (A) (A) (A) (A) (A) (A) (A) (A) (A) (A) (A) (A)
                 (A) (A) (A) (A) (A) (A) (A) (A) (A) (A) (A) (A)
                 (A) (A) (A) (A) (A) (A) (A) (A) (A) (A) (A) (A)
                 (A) (A) (A) (A) (A) (A) (A) (A) (A) (A) (A) (A)
                 (A) (A) (A) (A) (A) (A) (A) (A) (A) (A) (A) (A)
                 (A) (A) (A) (A) (A) (A) (A) (A) (A) (A) (A) (A)
                 (A) (A) (A) (A) (A) (A) (A) (A) (A) (A) (A) (A)
                 (A) (A) (A) (A) (A) (A) (A) (A) (A) (A) (A) (A)
                 (A) (A) (A) (A) (A) (A) (A) (A) (A) (A) (A) (A)
                 (A) (A) (A) (A) (A) (A) (A) (A) (A) (A) (A) (A)
                 (A) (A) (A) (A) (A) (A) (A) (A) (A) (A) (A) (A)
                 (A) (A) (A) (A) (A) (A) (A) (A) (A) (A) (A) (A)
                 (A) (A) (A) (A) (A) (A) (A) (A) (A) (A) (A) (A)
                 (A) (A)
 The electronic state is 1-A.
 Alpha  occ. eigenvalues --  -19.36751 -19.32304 -14.61488 -10.49854 -10.42211
 Alpha  occ. eigenvalues --  -10.38197 -10.36626 -10.35990 -10.35853 -10.34989
 Alpha  occ. eigenvalues --   -1.30082  -1.21406  -1.17833  -1.04332  -0.95453
 Alpha  occ. eigenvalues --   -0.93031  -0.84658  -0.81346  -0.78416  -0.75842
 Alpha  occ. eigenvalues --   -0.74222  -0.71590  -0.68755  -0.67182  -0.63623
 Alpha  occ. eigenvalues --   -0.63073  -0.61748  -0.61022  -0.57264  -0.54895
 Alpha  occ. eigenvalues --   -0.54230  -0.52844  -0.50455  -0.47217  -0.43964
 Alpha  occ. eigenvalues --   -0.43757
 Alpha virt. eigenvalues --   -0.23208  -0.19186  -0.15667  -0.12608  -0.11187
 Alpha virt. eigenvalues --   -0.10334  -0.08914  -0.08301  -0.07155  -0.06255
 Alpha virt. eigenvalues --   -0.05269  -0.05087  -0.04186  -0.03153  -0.02908
 Alpha virt. eigenvalues --   -0.01796  -0.00712  -0.00287   0.00036   0.00472
 Alpha virt. eigenvalues --    0.01741   0.01814   0.02162   0.03113   0.04582
 Alpha virt. eigenvalues --    0.04715   0.05503   0.05515   0.06515   0.06521
 Alpha virt. eigenvalues --    0.06783   0.07458   0.08312   0.09039   0.09511
 Alpha virt. eigenvalues --    0.09765   0.10191   0.10949   0.11371   0.12662
 Alpha virt. eigenvalues --    0.13848   0.13997   0.14395   0.14976   0.16040
 Alpha virt. eigenvalues --    0.16618   0.17163   0.17389   0.18076   0.19542
 Alpha virt. eigenvalues --    0.20588   0.21165   0.22378   0.23598   0.25117
 Alpha virt. eigenvalues --    0.27410   0.28508   0.31576   0.34131   0.34723
 Alpha virt. eigenvalues --    0.42520   0.45877   0.48841   0.50425   0.52331
 Alpha virt. eigenvalues --    0.53931   0.56519   0.56789   0.58030   0.58261
 Alpha virt. eigenvalues --    0.58847   0.61499   0.61978   0.65591   0.65652
 Alpha virt. eigenvalues --    0.66451   0.68894   0.70739   0.72233   0.75899
 Alpha virt. eigenvalues --    0.78227   0.79041   0.79714   0.80692   0.83547
 Alpha virt. eigenvalues --    0.86077   0.88898   0.89222   0.93764   0.95366
 Alpha virt. eigenvalues --    0.96205   0.98170   0.99412   1.00272   1.02465
 Alpha virt. eigenvalues --    1.03083   1.04802   1.05793   1.08287   1.10294
 Alpha virt. eigenvalues --    1.11177   1.14555   1.14730   1.16994   1.17442
 Alpha virt. eigenvalues --    1.20207   1.21203   1.21802   1.23051   1.24012
 Alpha virt. eigenvalues --    1.25492   1.28063   1.33572   1.41035   1.41920
 Alpha virt. eigenvalues --    1.50412   1.51485   1.53880   1.54235   1.59442
 Alpha virt. eigenvalues --    1.62202   1.63820   1.66668   1.66702   1.69550
 Alpha virt. eigenvalues --    1.73130   1.76239   1.78295   1.80688   1.80973
 Alpha virt. eigenvalues --    1.83340   1.84480   1.85208   1.85745   1.89208
 Alpha virt. eigenvalues --    1.92626   1.93184   2.01854   2.01945   2.09141
 Alpha virt. eigenvalues --    2.11832   2.12311   2.17136   2.19022   2.20837
 Alpha virt. eigenvalues --    2.21272   2.23462   2.25008   2.25553   2.26872
 Alpha virt. eigenvalues --    2.32831   2.34677   2.34921   2.37572   2.40492
 Alpha virt. eigenvalues --    2.41776   2.44165   2.45542   2.46582   2.49953
 Alpha virt. eigenvalues --    2.52139   2.54430   2.56995   2.59348   2.62994
 Alpha virt. eigenvalues --    2.65660   2.70227   2.70675   2.75554   2.80760
 Alpha virt. eigenvalues --    2.88907   2.92711   2.99846   3.01610   3.08408
 Alpha virt. eigenvalues --    3.11887   3.13551   3.17734   3.17993   3.21504
 Alpha virt. eigenvalues --    3.33333   3.34002   3.41946   3.70018   4.05498
 Alpha virt. eigenvalues --    4.11864   4.13947   4.15503   4.21572   4.31486
 Alpha virt. eigenvalues --    4.33167   4.40055   4.65736   4.69635
          Condensed to atoms (all electrons):
               1          2          3          4          5          6
     1  C    7.976286  -0.274581   1.366185  -1.326964   0.611687  -2.667745
     2  C   -0.274581   6.497360  -1.535935   1.839071  -1.740561   1.595297
     3  C    1.366185  -1.535935  15.437230  -5.184478  -0.955558  -4.427164
     4  C   -1.326964   1.839071  -5.184478  19.571602  -5.388466  -1.310218
     5  C    0.611687  -1.740561  -0.955558  -5.388466  13.765976  -1.855106
     6  C   -2.667745   1.595297  -4.427164  -1.310218  -1.855106  16.196933
     7  C   -0.162248  -0.208998   0.677299  -0.776638   0.022547  -0.731661
     8  O    0.118608  -0.005317   0.032924   0.038665  -0.041279  -0.159104
     9  N   -0.041270  -0.004912  -0.703763   0.158499   0.317728   0.186407
    10  O    0.048468  -0.009394   0.067846  -0.242389   0.012230  -0.041685
    11  H    0.192948   0.061404  -0.005417  -0.002128   0.005474   0.071298
    12  H    0.088950   0.191707   0.090169  -0.062451   0.035289  -0.018867
    13  H   -0.003560   0.111924   0.219785   0.051898  -0.047400  -0.011456
    14  H    0.107738  -0.029837   0.040391   0.016939   0.133342   0.038813
    15  H   -0.009146  -0.000277   0.003251  -0.007754   0.019202   0.001018
    16  H    0.000845  -0.006139  -0.018765  -0.043453   0.046040   0.002468
    17  H    0.003134  -0.002976   0.218348   0.126834  -0.284567  -0.085045
    18  H    0.000849  -0.006131  -0.018676  -0.043342   0.045875   0.002418
               7          8          9         10         11         12
     1  C   -0.162248   0.118608  -0.041270   0.048468   0.192948   0.088950
     2  C   -0.208998  -0.005317  -0.004912  -0.009394   0.061404   0.191707
     3  C    0.677299   0.032924  -0.703763   0.067846  -0.005417   0.090169
     4  C   -0.776638   0.038665   0.158499  -0.242389  -0.002128  -0.062451
     5  C    0.022547  -0.041279   0.317728   0.012230   0.005474   0.035289
     6  C   -0.731661  -0.159104   0.186407  -0.041685   0.071298  -0.018867
     7  C    6.004470   0.131640  -0.117290   0.363279   0.004235   0.002473
     8  O    0.131640   8.236941  -0.012432  -0.138545   0.000061   0.000007
     9  N   -0.117290  -0.012432   7.103013  -0.030718   0.000188  -0.000372
    10  O    0.363279  -0.138545  -0.030718   8.332662   0.000026  -0.000001
    11  H    0.004235   0.000061   0.000188   0.000026   0.475452  -0.003998
    12  H    0.002473   0.000007  -0.000372  -0.000001  -0.003998   0.475967
    13  H    0.004244   0.000016  -0.003833   0.000102  -0.000124  -0.004137
    14  H    0.009670   0.003245  -0.001211   0.000110  -0.003906  -0.000123
    15  H    0.026319   0.204305   0.000578   0.001622  -0.000000   0.000000
    16  H    0.004012   0.000176   0.306143   0.001131  -0.000000  -0.000002
    17  H    0.033001   0.003412   0.171655   0.098188  -0.000000   0.000002
    18  H    0.004016   0.000175   0.306143   0.001131  -0.000000  -0.000002
              13         14         15         16         17         18
     1  C   -0.003560   0.107738  -0.009146   0.000845   0.003134   0.000849
     2  C    0.111924  -0.029837  -0.000277  -0.006139  -0.002976  -0.006131
     3  C    0.219785   0.040391   0.003251  -0.018765   0.218348  -0.018676
     4  C    0.051898   0.016939  -0.007754  -0.043453   0.126834  -0.043342
     5  C   -0.047400   0.133342   0.019202   0.046040  -0.284567   0.045875
     6  C   -0.011456   0.038813   0.001018   0.002468  -0.085045   0.002418
     7  C    0.004244   0.009670   0.026319   0.004012   0.033001   0.004016
     8  O    0.000016   0.003245   0.204305   0.000176   0.003412   0.000175
     9  N   -0.003833  -0.001211   0.000578   0.306143   0.171655   0.306143
    10  O    0.000102   0.000110   0.001622   0.001131   0.098188   0.001131
    11  H   -0.000124  -0.003906  -0.000000  -0.000000  -0.000000  -0.000000
    12  H   -0.004137  -0.000123   0.000000  -0.000002   0.000002  -0.000002
    13  H    0.491443   0.000010  -0.000000   0.000621   0.000069   0.000621
    14  H    0.000010   0.468730  -0.000027   0.000002   0.000008   0.000002
    15  H   -0.000000  -0.000027   0.339791  -0.000001  -0.000025  -0.000001
    16  H    0.000621   0.000002  -0.000001   0.326815  -0.008881  -0.023088
    17  H    0.000069   0.000008  -0.000025  -0.008881   0.284451  -0.008879
    18  H    0.000621   0.000002  -0.000001  -0.023088  -0.008879   0.326808
 Mulliken charges:
               1
     1  C   -0.030183
     2  C   -0.471706
     3  C    0.696325
     4  C   -1.415228
     5  C    1.297547
     6  C   -0.786602
     7  C    0.709629
     8  O   -0.413497
     9  N   -0.634553
    10  O   -0.464063
    11  H    0.204487
    12  H    0.205391
    13  H    0.189776
    14  H    0.216103
    15  H    0.421146
    16  H    0.412076
    17  H    0.451272
    18  H    0.412079
 Sum of Mulliken charges =   1.00000
 Mulliken charges with hydrogens summed into heavy atoms:
               1
     1  C    0.174304
     2  C   -0.266315
     3  C    0.886101
     4  C   -1.415228
     5  C    1.297547
     6  C   -0.570499
     7  C    0.709629
     8  O    0.007650
     9  N    0.640874
    10  O   -0.464063
 Electronic spatial extent (au):  <R**2>=           1366.8084
 Charge=              1.0000 electrons
 Dipole moment (field-independent basis, Debye):
    X=             -1.0481    Y=              4.1198    Z=              0.0002  Tot=              4.2510
 Quadrupole moment (field-independent basis, Debye-Ang):
   XX=            -35.4326   YY=            -28.5843   ZZ=            -56.2430
   XY=             -3.5658   XZ=              0.0008   YZ=              0.0004
 Traceless Quadrupole moment (field-independent basis, Debye-Ang):
   XX=              4.6540   YY=             11.5023   ZZ=            -16.1564
   XY=             -3.5658   XZ=              0.0008   YZ=              0.0004
 Octapole moment (field-independent basis, Debye-Ang**2):
  XXX=             11.0672  YYY=             48.8921  ZZZ=              0.0007  XYY=              0.7506
  XXY=            -25.8974  XXZ=              0.0048  XZZ=             11.2277  YZZ=              9.5820
  YYZ=              0.0013  XYZ=             -0.0008
 Hexadecapole moment (field-independent basis, Debye-Ang**3):
 XXXX=           -779.8123 YYYY=           -400.0318 ZZZZ=            -59.8072 XXXY=            -84.0654
 XXXZ=              0.0136 YYYX=              8.0336 YYYZ=              0.0034 ZZZX=             -0.0010
 ZZZY=              0.0027 XXYY=           -221.9452 XXZZ=           -196.3856 YYZZ=            -96.3021
 XXYZ=             -0.0031 YYXZ=              0.0018 ZZXY=             -3.0596
 N-N= 5.156229818116D+02 E-N=-2.128330508562D+03  KE= 4.720380603557D+02
 Calling FoFJK, ICntrl=      2127 FMM=F ISym2X=0 I1Cent= 0 IOpClX= 0 NMat=1 NMatS=1 NMatT=0.
 ***** Axes restored to original set *****
 -------------------------------------------------------------------
 Center     Atomic                   Forces (Hartrees/Bohr)
 Number     Number              X              Y              Z
 -------------------------------------------------------------------
      1        6          -0.000025981   -0.000139525   -0.000000805
      2        6           0.000069714    0.000105374    0.000000289
      3        6           0.000012974    0.000195513   -0.000002602
      4        6          -0.000057467   -0.000209130    0.000001832
      5        6           0.000473972   -0.000132399    0.000012793
      6        6          -0.000193563    0.000013969    0.000002402
      7        6          -0.000114779   -0.000199134   -0.000047053
      8        8          -0.000226544   -0.000036951    0.000015046
      9        7           0.000438053    0.000519365   -0.000006806
     10        8          -0.000119036    0.000554727    0.000012462
     11        1          -0.000032909    0.000038239   -0.000000348
     12        1          -0.000041618    0.000005740    0.000000495
     13        1          -0.000231351    0.000032589   -0.000000262
     14        1           0.000068432    0.000011158    0.000000105
     15        1           0.000158715   -0.000296101    0.000000981
     16        1          -0.000058613   -0.000344022    0.000066383
     17        1          -0.000056237    0.000224986    0.000010351
     18        1          -0.000063763   -0.000344399   -0.000065261
 -------------------------------------------------------------------
 Cartesian Forces:  Max     0.000554727 RMS     0.000181395

 GradGradGradGradGradGradGradGradGradGradGradGradGradGradGradGradGradGrad
 Berny optimization.
 FormGI is forming the generalized inverse of G from B-inverse, IUseBI=4.
 Internal  Forces:  Max     0.000706757 RMS     0.000178918
 Search for a local minimum.
 Step number   1 out of a maximum of   92
 All quantities printed in internal units (Hartrees-Bohrs-Radians)
 Mixed Optimization -- En-DIIS/RFO-DIIS
 Second derivative matrix not updated -- first step.
 ITU=  0
     Eigenvalues ---    0.00705   0.01004   0.01590   0.01591   0.01730
     Eigenvalues ---    0.02063   0.02134   0.02146   0.02160   0.02179
     Eigenvalues ---    0.02192   0.02227   0.02781   0.07033   0.07830
     Eigenvalues ---    0.16000   0.16000   0.16000   0.16000   0.16000
     Eigenvalues ---    0.16000   0.16000   0.16000   0.22000   0.22493
     Eigenvalues ---    0.24484   0.25000   0.25000   0.25000   0.25000
     Eigenvalues ---    0.34339   0.35169   0.35198   0.35355   0.35387
     Eigenvalues ---    0.35464   0.35702   0.41676   0.42397   0.43784
     Eigenvalues ---    0.43784   0.45547   0.45832   0.46607   0.47866
     Eigenvalues ---    0.52730   0.62518   0.88783
 RFO step:  Lambda=-1.04585306D-05 EMin= 7.05223089D-03
 Linear search not attempted -- first point.
 Iteration  1 RMS(Cart)=  0.00263469 RMS(Int)=  0.00000416
 Iteration  2 RMS(Cart)=  0.00000455 RMS(Int)=  0.00000024
 Iteration  3 RMS(Cart)=  0.00000000 RMS(Int)=  0.00000024
 Variable       Old X    -DE/DX   Delta X   Delta X   Delta X     New X
                                 (Linear)    (Quad)   (Total)
    R1        2.63446   0.00015   0.00000   0.00033   0.00033   2.63479
    R2        2.63105   0.00004   0.00000   0.00011   0.00011   2.63116
    R3        2.05051  -0.00005   0.00000  -0.00014  -0.00014   2.05037
    R4        2.64034  -0.00004   0.00000  -0.00008  -0.00008   2.64025
    R5        2.05102  -0.00004   0.00000  -0.00012  -0.00012   2.05091
    R6        2.61588  -0.00028   0.00000  -0.00061  -0.00061   2.61527
    R7        2.05402  -0.00008   0.00000  -0.00024  -0.00024   2.05378
    R8        2.65641   0.00002   0.00000   0.00002   0.00002   2.65644
    R9        2.78655  -0.00009   0.00000  -0.00025  -0.00025   2.78630
   R10        2.64638  -0.00007   0.00000  -0.00016  -0.00016   2.64622
   R11        2.80062   0.00030   0.00000   0.00088   0.00088   2.80150
   R12        2.04928  -0.00004   0.00000  -0.00012  -0.00012   2.04916
   R13        2.49002   0.00033   0.00000   0.00053   0.00053   2.49055
   R14        2.33499   0.00053   0.00000   0.00060   0.00060   2.33559
   R15        1.83906  -0.00018   0.00000  -0.00035  -0.00035   1.83871
   R16        1.93413  -0.00026   0.00000  -0.00059  -0.00059   1.93355
   R17        2.04550  -0.00001   0.00000  -0.00003  -0.00003   2.04547
   R18        1.93413  -0.00026   0.00000  -0.00059  -0.00059   1.93355
    A1        2.09893   0.00001   0.00000   0.00013   0.00013   2.09906
    A2        2.09509   0.00001   0.00000  -0.00001  -0.00001   2.09508
    A3        2.08917  -0.00001   0.00000  -0.00012  -0.00012   2.08905
    A4        2.09984  -0.00005   0.00000  -0.00019  -0.00019   2.09965
    A5        2.09917   0.00003   0.00000   0.00014   0.00014   2.09931
    A6        2.08417   0.00002   0.00000   0.00005   0.00005   2.08422
    A7        2.07471  -0.00000   0.00000  -0.00007  -0.00007   2.07464
    A8        2.09993   0.00023   0.00000   0.00144   0.00144   2.10137
    A9        2.10854  -0.00022   0.00000  -0.00136  -0.00136   2.10718
   A10        2.12874   0.00013   0.00000   0.00045   0.00045   2.12918
   A11        2.09348  -0.00071   0.00000  -0.00279  -0.00279   2.09069
   A12        2.06097   0.00058   0.00000   0.00234   0.00234   2.06331
   A13        2.06288  -0.00004   0.00000  -0.00019  -0.00019   2.06270
   A14        2.10020   0.00010   0.00000   0.00043   0.00043   2.10063
   A15        2.12010  -0.00006   0.00000  -0.00024  -0.00024   2.11986
   A16        2.10127  -0.00004   0.00000  -0.00012  -0.00012   2.10114
   A17        2.10341  -0.00004   0.00000  -0.00029  -0.00029   2.10312
   A18        2.07851   0.00008   0.00000   0.00041   0.00041   2.07892
   A19        2.00109  -0.00031   0.00000  -0.00125  -0.00125   1.99984
   A20        2.14666  -0.00008   0.00000  -0.00032  -0.00032   2.14634
   A21        2.13544   0.00039   0.00000   0.00158   0.00158   2.13701
   A22        1.90937   0.00052   0.00000   0.00323   0.00323   1.91260
   A23        1.95740  -0.00023   0.00000  -0.00141  -0.00141   1.95599
   A24        1.82783   0.00038   0.00000   0.00230   0.00230   1.83013
   A25        1.95741  -0.00023   0.00000  -0.00143  -0.00143   1.95598
   A26        1.91645  -0.00009   0.00000  -0.00059  -0.00059   1.91586
   A27        1.88774   0.00027   0.00000   0.00179   0.00179   1.88953
   A28        1.91648  -0.00010   0.00000  -0.00071  -0.00071   1.91578
    D1       -0.00001   0.00000   0.00000   0.00003   0.00003   0.00002
    D2       -3.14159   0.00000   0.00000  -0.00000  -0.00000   3.14159
    D3       -3.14159   0.00000   0.00000   0.00000   0.00000  -3.14159
    D4        0.00001  -0.00000   0.00000  -0.00003  -0.00003  -0.00002
    D5       -0.00000   0.00000   0.00000   0.00001   0.00001   0.00001
    D6       -3.14158  -0.00000   0.00000  -0.00006  -0.00006   3.14155
    D7        3.14158   0.00000   0.00000   0.00004   0.00004  -3.14157
    D8        0.00001  -0.00000   0.00000  -0.00003  -0.00003  -0.00003
    D9       -0.00000   0.00000   0.00000   0.00001   0.00001   0.00001
   D10       -3.14158  -0.00000   0.00000  -0.00005  -0.00005   3.14155
   D11        3.14158   0.00000   0.00000   0.00004   0.00004  -3.14157
   D12        0.00001  -0.00000   0.00000  -0.00002  -0.00002  -0.00002
   D13        0.00002  -0.00000   0.00000  -0.00009  -0.00009  -0.00006
   D14       -3.14156  -0.00000   0.00000  -0.00013  -0.00013   3.14150
   D15       -3.14159  -0.00000   0.00000  -0.00002  -0.00002   3.14157
   D16        0.00002  -0.00000   0.00000  -0.00007  -0.00007  -0.00005
   D17       -0.00003   0.00000   0.00000   0.00013   0.00013   0.00009
   D18        3.14154   0.00000   0.00000   0.00020   0.00020  -3.14144
   D19        3.14155   0.00000   0.00000   0.00017   0.00017  -3.14147
   D20       -0.00007   0.00000   0.00000   0.00025   0.00025   0.00018
   D21        1.06405   0.00001   0.00000   0.00041   0.00041   1.06446
   D22        3.14149   0.00001   0.00000   0.00036   0.00036  -3.14134
   D23       -1.06422  -0.00001   0.00000   0.00016   0.00016  -1.06406
   D24       -2.07753   0.00001   0.00000   0.00037   0.00037  -2.07716
   D25       -0.00010   0.00001   0.00000   0.00032   0.00032   0.00022
   D26        2.07738  -0.00001   0.00000   0.00012   0.00012   2.07750
   D27        0.00002  -0.00000   0.00000  -0.00009  -0.00009  -0.00006
   D28       -3.14159  -0.00000   0.00000  -0.00002  -0.00002   3.14158
   D29       -3.14155  -0.00000   0.00000  -0.00016  -0.00016   3.14147
   D30        0.00002  -0.00000   0.00000  -0.00009  -0.00009  -0.00007
   D31        3.14135   0.00001   0.00000   0.00091   0.00091  -3.14092
   D32        0.00008  -0.00001   0.00000  -0.00040  -0.00040  -0.00032
   D33       -0.00026   0.00001   0.00000   0.00099   0.00099   0.00073
   D34       -3.14153  -0.00001   0.00000  -0.00032  -0.00032   3.14133
   D35       -3.14142  -0.00001   0.00000  -0.00068  -0.00068   3.14108
   D36       -0.00015   0.00001   0.00000   0.00062   0.00062   0.00047
         Item               Value     Threshold  Converged?
 Maximum Force            0.000707     0.000450     NO 
 RMS     Force            0.000179     0.000300     YES
 Maximum Displacement     0.012462     0.001800     NO 
 RMS     Displacement     0.002634     0.001200     NO 
 Predicted change in Energy=-5.229301D-06
 GradGradGradGradGradGradGradGradGradGradGradGradGradGradGradGradGradGrad

                          Input orientation:                          
 ---------------------------------------------------------------------
 Center     Atomic      Atomic             Coordinates (Angstroms)
 Number     Number       Type             X           Y           Z
 ---------------------------------------------------------------------
      1          6           0        1.940965   -1.465892    0.000007
      2          6           0        2.617906   -0.246982    0.000075
      3          6           0        1.905591    0.954962    0.000032
      4          6           0        0.522320    0.911866   -0.000072
      5          6           0       -0.184973   -0.302960   -0.000211
      6          6           0        0.548930   -1.495555   -0.000130
      7          6           0       -1.667459   -0.306800   -0.000510
      8          8           0       -2.212612   -1.506707    0.000186
      9          7           0       -0.249663    2.168065    0.000002
     10          8           0       -2.342852    0.728281   -0.000321
     11          1           0        2.498397   -2.396761    0.000043
     12          1           0        3.702948   -0.223581    0.000182
     13          1           0        2.431621    1.905989    0.000122
     14          1           0        0.018601   -2.441389   -0.000223
     15          1           0       -3.182133   -1.424445    0.000405
     16          1           0       -0.059101    2.736469   -0.829167
     17          1           0       -1.286349    1.856774    0.000161
     18          1           0       -0.058929    2.736460    0.829137
 ---------------------------------------------------------------------
                    Distance matrix (angstroms):
                    1          2          3          4          5
     1  C    0.000000
     2  C    1.394271   0.000000
     3  C    2.421112   1.397162   0.000000
     4  C    2.768806   2.394663   1.383942   0.000000
     5  C    2.423225   2.803438   2.439841   1.405726   0.000000
     6  C    1.392351   2.416526   2.800993   2.407568   1.400320
     7  C    3.790015   4.285783   3.789291   2.506049   1.482491
     8  O    4.153777   4.992075   4.797854   3.650938   2.358034
     9  N    4.243170   3.749054   2.473204   1.474447   2.471872
    10  O    4.813053   5.055716   4.254486   2.871048   2.391631
    11  H    1.085011   2.153099   3.403743   3.853816   3.403598
    12  H    2.155904   1.085294   2.149292   3.377222   3.888731
    13  H    3.407393   2.161015   1.086812   2.152606   3.424328
    14  H    2.155708   3.401736   3.885348   3.390878   2.148097
    15  H    5.123266   5.918351   5.616628   4.379649   3.200110
    16  H    4.727328   4.093286   2.778732   2.086773   3.152957
    17  H    4.632026   4.434974   3.316888   2.040621   2.424351
    18  H    4.727240   4.093131   2.778577   2.086763   3.153059
                    6          7          8          9         10
     6  C    0.000000
     7  C    2.515058   0.000000
     8  O    2.761564   1.317940   0.000000
     9  N    3.749648   2.852211   4.166187   0.000000
    10  O    3.647992   1.235940   2.238779   2.540555   0.000000
    11  H    2.147695   4.660718   4.794350   5.328178   5.762254
    12  H    3.400845   5.371052   6.053119   4.619860   6.120272
    13  H    3.887805   4.658208   5.763280   2.694062   4.917580
    14  H    1.084367   2.720159   2.419079   4.617254   3.952628
    15  H    3.731741   1.882384   0.973005   4.637404   2.310546
    16  H    4.355115   3.540477   4.830111   1.023190   3.152035
    17  H    3.821826   2.196884   3.488691   1.082414   1.545864
    18  H    4.355126   3.540779   4.830111   1.023190   3.152315
                   11         12         13         14         15
    11  H    0.000000
    12  H    2.484684   0.000000
    13  H    4.303268   2.480189   0.000000
    14  H    2.480197   4.300358   4.972159   0.000000
    15  H    5.763143   6.989021   6.527330   3.358404   0.000000
    16  H    5.794690   4.858263   2.753382   5.244368   5.268276
    17  H    5.693581   5.405641   3.718296   4.491893   3.789512
    18  H    5.794590   4.858058   2.753142   5.244423   5.268239
                   16         17         18
    16  H    0.000000
    17  H    1.722727   0.000000
    18  H    1.658304   1.722675   0.000000
 Stoichiometry    C7H8NO2(1+)
 Framework group  C1[X(C7H8NO2)]
 Deg. of freedom    48
 Full point group                 C1      NOp   1
 Largest Abelian subgroup         C1      NOp   1
 Largest concise Abelian subgroup C1      NOp   1
                         Standard orientation:                         
 ---------------------------------------------------------------------
 Center     Atomic      Atomic             Coordinates (Angstroms)
 Number     Number       Type             X           Y           Z
 ---------------------------------------------------------------------
      1          6           0       -1.939361   -1.468364   -0.000079
      2          6           0       -2.617937   -0.250364   -0.000147
      3          6           0       -1.907235    0.952535   -0.000104
      4          6           0       -0.523908    0.911296    0.000000
      5          6           0        0.185014   -0.302580    0.000139
      6          6           0       -0.547287   -1.496159    0.000058
      7          6           0        1.667505   -0.304432    0.000438
      8          8           0        2.214267   -1.503605   -0.000258
      9          7           0        0.246389    2.168529   -0.000074
     10          8           0        2.341508    0.731555    0.000249
     11          1           0       -2.495543   -2.399981   -0.000115
     12          1           0       -3.703009   -0.228419   -0.000254
     13          1           0       -2.434542    1.902855   -0.000194
     14          1           0       -0.015690   -2.441281    0.000151
     15          1           0        3.183677   -1.420043   -0.000477
     16          1           0        0.055064    2.736677    0.829095
     17          1           0        1.283491    1.858629   -0.000233
     18          1           0        0.054892    2.736668   -0.829209
 ---------------------------------------------------------------------
 Rotational constants (GHZ):      2.2503508      1.2093858      0.7900410
 Standard basis: 6-31+G(d,p) (6D, 7F)
 There are   230 symmetry adapted cartesian basis functions of A   symmetry.
 There are   230 symmetry adapted basis functions of A   symmetry.
   230 basis functions,   376 primitive gaussians,   230 cartesian basis functions
    36 alpha electrons       36 beta electrons
       nuclear repulsion energy       515.5609231383 Hartrees.
 NAtoms=   18 NActive=   18 NUniq=   18 SFac= 1.00D+00 NAtFMM=   60 NAOKFM=F Big=F
 Integral buffers will be    131072 words long.
 Raffenetti 2 integral format.
 Two-electron integral symmetry is turned on.
 Nuclear repulsion after empirical dispersion term =      515.5462671728 Hartrees.
 One-electron integrals computed using PRISM.
 NBasis=   230 RedAO= T EigKep=  2.28D-06  NBF=   230
 NBsUse=   230 1.00D-06 EigRej= -1.00D+00 NBFU=   230
 Initial guess from the checkpoint file:  "B3PWD3Anthranilicyang.chk"
 B after Tr=    -0.000000    0.000000   -0.000000
         Rot=    1.000000   -0.000012    0.000016   -0.000632 Ang=  -0.07 deg.
 Keep R1 ints in memory in canonical form, NReq=359209085.
 Requested convergence on RMS density matrix=1.00D-08 within 128 cycles.
 Requested convergence on MAX density matrix=1.00D-06.
 Requested convergence on             energy=1.00D-06.
 No special actions if energy rises.
 SCF Done:  E(RB3PW91) =  -476.408636285     A.U. after   11 cycles
            NFock= 11  Conv=0.41D-08     -V/T= 2.0093
 Calling FoFJK, ICntrl=      2127 FMM=F ISym2X=0 I1Cent= 0 IOpClX= 0 NMat=1 NMatS=1 NMatT=0.
 ***** Axes restored to original set *****
 -------------------------------------------------------------------
 Center     Atomic                   Forces (Hartrees/Bohr)
 Number     Number              X              Y              Z
 -------------------------------------------------------------------
      1        6           0.000018596    0.000032875    0.000002608
      2        6           0.000047947    0.000008673   -0.000000555
      3        6           0.000128897   -0.000008232    0.000006803
      4        6          -0.000184155   -0.000353492   -0.000005227
      5        6           0.000155728   -0.000007984   -0.000039192
      6        6          -0.000000210    0.000067970   -0.000006903
      7        6          -0.000377200    0.000427783    0.000142963
      8        8          -0.000010615    0.000025442   -0.000044743
      9        7          -0.000637550   -0.000065123    0.000013906
     10        8           0.000350277   -0.000067980   -0.000041587
     11        1           0.000008153    0.000002472    0.000000900
     12        1           0.000000583   -0.000014667   -0.000001397
     13        1          -0.000020711    0.000030765    0.000000896
     14        1           0.000016514    0.000006212   -0.000000482
     15        1           0.000084677    0.000005789   -0.000002977
     16        1          -0.000061743   -0.000050604   -0.000044164
     17        1           0.000530189    0.000009357   -0.000023323
     18        1          -0.000049376   -0.000049258    0.000042474
 -------------------------------------------------------------------
 Cartesian Forces:  Max     0.000637550 RMS     0.000161262

 GradGradGradGradGradGradGradGradGradGradGradGradGradGradGradGradGradGrad
 Berny optimization.
 Using GEDIIS/GDIIS optimizer.
 FormGI is forming the generalized inverse of G from B-inverse, IUseBI=4.
 Internal  Forces:  Max     0.000832094 RMS     0.000193552
 Search for a local minimum.
 Step number   2 out of a maximum of   92
 All quantities printed in internal units (Hartrees-Bohrs-Radians)
 Mixed Optimization -- En-DIIS/RFO-DIIS
 Swapping is turned off.
 Update second derivatives using D2CorX and points    1    2
 DE= -3.32D-06 DEPred=-5.23D-06 R= 6.36D-01
 TightC=F SS=  1.41D+00  RLast= 7.25D-03 DXNew= 5.0454D-01 2.1761D-02
 Trust test= 6.36D-01 RLast= 7.25D-03 DXMaxT set to 3.00D-01
 ITU=  1  0
     Eigenvalues ---    0.00706   0.01004   0.01591   0.01613   0.01730
     Eigenvalues ---    0.02065   0.02134   0.02146   0.02160   0.02179
     Eigenvalues ---    0.02192   0.02227   0.02781   0.06829   0.07825
     Eigenvalues ---    0.11171   0.16000   0.16000   0.16000   0.16000
     Eigenvalues ---    0.16000   0.16000   0.16176   0.21411   0.22078
     Eigenvalues ---    0.22753   0.24510   0.25000   0.25000   0.33770
     Eigenvalues ---    0.34122   0.35131   0.35188   0.35349   0.35381
     Eigenvalues ---    0.35460   0.39590   0.42173   0.42792   0.43784
     Eigenvalues ---    0.44671   0.45804   0.46593   0.47435   0.52546
     Eigenvalues ---    0.59540   0.66733   0.93689
 En-DIIS/RFO-DIIS IScMMF=        0 using points:     2    1
 RFO step:  Lambda=-4.22775670D-06.
 DidBck=T Rises=F RFO-DIIS coefs:    0.73424    0.26576
 Iteration  1 RMS(Cart)=  0.00214423 RMS(Int)=  0.00000179
 Iteration  2 RMS(Cart)=  0.00000244 RMS(Int)=  0.00000033
 Iteration  3 RMS(Cart)=  0.00000000 RMS(Int)=  0.00000033
 Variable       Old X    -DE/DX   Delta X   Delta X   Delta X     New X
                                 (Linear)    (Quad)   (Total)
    R1        2.63479   0.00007  -0.00009   0.00042   0.00033   2.63512
    R2        2.63116   0.00011  -0.00003   0.00027   0.00024   2.63140
    R3        2.05037   0.00000   0.00004  -0.00011  -0.00007   2.05030
    R4        2.64025   0.00002   0.00002  -0.00001   0.00001   2.64027
    R5        2.05091   0.00000   0.00003  -0.00009  -0.00006   2.05084
    R6        2.61527   0.00008   0.00016  -0.00039  -0.00023   2.61504
    R7        2.05378   0.00002   0.00006  -0.00016  -0.00009   2.05368
    R8        2.65644  -0.00062  -0.00001  -0.00104  -0.00105   2.65539
    R9        2.78630  -0.00002   0.00007  -0.00024  -0.00018   2.78613
   R10        2.64622  -0.00006   0.00004  -0.00025  -0.00021   2.64601
   R11        2.80150  -0.00005  -0.00023   0.00061   0.00038   2.80188
   R12        2.04916  -0.00001   0.00003  -0.00013  -0.00009   2.04906
   R13        2.49055  -0.00006  -0.00014   0.00036   0.00022   2.49077
   R14        2.33559  -0.00025  -0.00016   0.00028   0.00012   2.33571
   R15        1.83871  -0.00008   0.00009  -0.00040  -0.00031   1.83841
   R16        1.93355  -0.00000   0.00016  -0.00048  -0.00033   1.93322
   R17        2.04547  -0.00051   0.00001  -0.00108  -0.00107   2.04440
   R18        1.93355  -0.00000   0.00016  -0.00048  -0.00032   1.93322
    A1        2.09906   0.00003  -0.00003   0.00031   0.00028   2.09933
    A2        2.09508  -0.00002   0.00000  -0.00015  -0.00015   2.09493
    A3        2.08905  -0.00001   0.00003  -0.00016  -0.00013   2.08892
    A4        2.09965  -0.00007   0.00005  -0.00025  -0.00020   2.09946
    A5        2.09931   0.00002  -0.00004   0.00009   0.00005   2.09937
    A6        2.08422   0.00005  -0.00001   0.00016   0.00014   2.08436
    A7        2.07464  -0.00014   0.00002  -0.00050  -0.00048   2.07416
    A8        2.10137   0.00010  -0.00038   0.00154   0.00116   2.10253
    A9        2.10718   0.00004   0.00036  -0.00104  -0.00068   2.10650
   A10        2.12918   0.00021  -0.00012   0.00091   0.00079   2.12997
   A11        2.09069   0.00046   0.00074  -0.00089  -0.00015   2.09055
   A12        2.06331  -0.00067  -0.00062  -0.00002  -0.00065   2.06266
   A13        2.06270   0.00008   0.00005   0.00001   0.00006   2.06275
   A14        2.10063  -0.00083  -0.00011  -0.00205  -0.00217   2.09846
   A15        2.11986   0.00075   0.00006   0.00204   0.00211   2.12197
   A16        2.10114  -0.00011   0.00003  -0.00048  -0.00044   2.10070
   A17        2.10312   0.00005   0.00008  -0.00010  -0.00002   2.10310
   A18        2.07892   0.00007  -0.00011   0.00057   0.00047   2.07938
   A19        1.99984   0.00012   0.00033  -0.00065  -0.00032   1.99952
   A20        2.14634  -0.00036   0.00009  -0.00132  -0.00124   2.14510
   A21        2.13701   0.00024  -0.00042   0.00198   0.00156   2.13857
   A22        1.91260  -0.00002  -0.00086   0.00251   0.00165   1.91425
   A23        1.95599   0.00004   0.00037  -0.00085  -0.00048   1.95551
   A24        1.83013  -0.00024  -0.00061   0.00048  -0.00013   1.82999
   A25        1.95598   0.00003   0.00038  -0.00084  -0.00046   1.95552
   A26        1.91586   0.00004   0.00016  -0.00062  -0.00046   1.91540
   A27        1.88953   0.00007  -0.00048   0.00224   0.00176   1.89129
   A28        1.91578   0.00006   0.00019  -0.00052  -0.00033   1.91545
    D1        0.00002  -0.00000  -0.00001  -0.00002  -0.00003  -0.00001
    D2        3.14159   0.00000   0.00000   0.00001   0.00001  -3.14159
    D3       -3.14159  -0.00000  -0.00000  -0.00000  -0.00000   3.14159
    D4       -0.00002   0.00000   0.00001   0.00003   0.00003   0.00001
    D5        0.00001  -0.00000  -0.00000  -0.00002  -0.00003  -0.00002
    D6        3.14155   0.00000   0.00002   0.00005   0.00007  -3.14157
    D7       -3.14157  -0.00000  -0.00001  -0.00004  -0.00005   3.14157
    D8       -0.00003   0.00000   0.00001   0.00003   0.00004   0.00002
    D9        0.00001  -0.00000  -0.00000  -0.00001  -0.00001  -0.00000
   D10        3.14155   0.00000   0.00001   0.00005   0.00006  -3.14157
   D11       -3.14157  -0.00000  -0.00001  -0.00004  -0.00005   3.14157
   D12       -0.00002   0.00000   0.00001   0.00002   0.00002   0.00001
   D13       -0.00006   0.00000   0.00002   0.00009   0.00011   0.00005
   D14        3.14150   0.00001   0.00003   0.00011   0.00015  -3.14154
   D15        3.14157   0.00000   0.00001   0.00003   0.00004  -3.14157
   D16       -0.00005   0.00000   0.00002   0.00006   0.00008   0.00003
   D17        0.00009  -0.00001  -0.00003  -0.00013  -0.00016  -0.00007
   D18       -3.14144  -0.00001  -0.00005  -0.00020  -0.00025   3.14149
   D19       -3.14147  -0.00001  -0.00005  -0.00016  -0.00020   3.14151
   D20        0.00018  -0.00001  -0.00007  -0.00023  -0.00029  -0.00011
   D21        1.06446   0.00007  -0.00011   0.00062   0.00051   1.06497
   D22       -3.14134  -0.00001  -0.00010  -0.00029  -0.00038   3.14146
   D23       -1.06406  -0.00007  -0.00004  -0.00106  -0.00110  -1.06517
   D24       -2.07716   0.00007  -0.00010   0.00064   0.00054  -2.07662
   D25        0.00022  -0.00001  -0.00008  -0.00026  -0.00034  -0.00012
   D26        2.07750  -0.00007  -0.00003  -0.00104  -0.00107   2.07643
   D27       -0.00006   0.00001   0.00002   0.00010   0.00012   0.00006
   D28        3.14158   0.00000   0.00000   0.00002   0.00003  -3.14158
   D29        3.14147   0.00001   0.00004   0.00016   0.00021  -3.14151
   D30       -0.00007   0.00000   0.00002   0.00009   0.00012   0.00005
   D31       -3.14092  -0.00004  -0.00024  -0.00116  -0.00141   3.14086
   D32       -0.00032   0.00003   0.00011   0.00076   0.00087   0.00055
   D33        0.00073  -0.00004  -0.00026  -0.00123  -0.00150  -0.00077
   D34        3.14133   0.00002   0.00009   0.00069   0.00078  -3.14107
   D35        3.14108   0.00003   0.00018   0.00100   0.00118  -3.14092
   D36        0.00047  -0.00003  -0.00016  -0.00092  -0.00108  -0.00062
         Item               Value     Threshold  Converged?
 Maximum Force            0.000832     0.000450     NO 
 RMS     Force            0.000194     0.000300     YES
 Maximum Displacement     0.007870     0.001800     NO 
 RMS     Displacement     0.002145     0.001200     NO 
 Predicted change in Energy=-3.355171D-06
 GradGradGradGradGradGradGradGradGradGradGradGradGradGradGradGradGradGrad

                          Input orientation:                          
 ---------------------------------------------------------------------
 Center     Atomic      Atomic             Coordinates (Angstroms)
 Number     Number       Type             X           Y           Z
 ---------------------------------------------------------------------
      1          6           0        1.941760   -1.465826    0.000019
      2          6           0        2.618405   -0.246552   -0.000079
      3          6           0        1.905474    0.955035   -0.000055
      4          6           0        0.522368    0.910571    0.000062
      5          6           0       -0.184403   -0.303918    0.000212
      6          6           0        0.549615   -1.496313    0.000153
      7          6           0       -1.667093   -0.304847    0.000465
      8          8           0       -2.214269   -1.503959   -0.000295
      9          7           0       -0.250629    2.166038    0.000021
     10          8           0       -2.339202    0.732445   -0.000018
     11          1           0        2.499602   -2.396406   -0.000002
     12          1           0        3.703404   -0.222755   -0.000189
     13          1           0        2.429892    1.906895   -0.000151
     14          1           0        0.019889   -2.442427    0.000253
     15          1           0       -3.183629   -1.421717   -0.000683
     16          1           0       -0.060751    2.733792   -0.829537
     17          1           0       -1.286468    1.853893   -0.000002
     18          1           0       -0.060758    2.733847    0.829544
 ---------------------------------------------------------------------
                    Distance matrix (angstroms):
                    1          2          3          4          5
     1  C    0.000000
     2  C    1.394446   0.000000
     3  C    2.421133   1.397169   0.000000
     4  C    2.768021   2.394223   1.383821   0.000000
     5  C    2.422932   2.803395   2.439785   1.405173   0.000000
     6  C    1.392479   2.416981   2.801332   2.407039   1.400210
     7  C    3.791002   4.285894   3.788210   2.504192   1.482690
     8  O    4.156204   4.993577   4.797805   3.649540   2.358061
     9  N    4.242288   3.748593   2.472915   1.474354   2.470844
    10  O    4.812384   5.053346   4.250508   2.867108   2.391068
    11  H    1.084972   2.153134   3.403696   3.852993   3.403290
    12  H    2.156065   1.085260   2.149358   3.376895   3.888654
    13  H    3.407862   2.161683   1.086762   2.152048   3.423775
    14  H    2.155769   3.402081   3.885638   3.390440   2.148245
    15  H    5.125579   5.919849   5.616753   4.378810   3.200754
    16  H    4.725993   4.092472   2.778140   2.086240   3.151422
    17  H    4.630550   4.433949   3.316088   2.040035   2.422952
    18  H    4.726040   4.092550   2.778214   2.086243   3.151365
                    6          7          8          9         10
     6  C    0.000000
     7  C    2.516622   0.000000
     8  O    2.763894   1.318056   0.000000
     9  N    3.748761   2.848094   4.162302   0.000000
    10  O    3.648647   1.236004   2.239891   2.533244   0.000000
    11  H    2.147700   4.662184   4.797607   5.327257   5.762268
    12  H    3.401226   5.371124   6.054778   4.619601   6.117638
    13  H    3.888093   4.655866   5.762131   2.693018   4.911577
    14  H    1.084316   2.723079   2.423259   4.616398   3.955391
    15  H    3.733989   1.883423   0.972842   4.634056   2.313757
    16  H    4.353702   3.535897   4.825331   1.023018   3.144015
    17  H    3.820351   2.192039   3.483674   1.081849   1.538146
    18  H    4.353699   3.535724   4.825479   1.023019   3.144057
                   11         12         13         14         15
    11  H    0.000000
    12  H    2.484733   0.000000
    13  H    4.303866   2.481379   0.000000
    14  H    2.480140   4.300608   4.972396   0.000000
    15  H    5.766206   6.990617   6.526199   3.362198   0.000000
    16  H    5.793312   4.857762   2.752261   5.242929   5.263803
    17  H    5.692044   5.404747   3.716738   4.490538   3.785345
    18  H    5.793366   4.857866   2.752377   5.242904   5.264059
                   16         17         18
    16  H    0.000000
    17  H    1.721840   0.000000
    18  H    1.659081   1.721869   0.000000
 Stoichiometry    C7H8NO2(1+)
 Framework group  C1[X(C7H8NO2)]
 Deg. of freedom    48
 Full point group                 C1      NOp   1
 Largest Abelian subgroup         C1      NOp   1
 Largest concise Abelian subgroup C1      NOp   1
                         Standard orientation:                         
 ---------------------------------------------------------------------
 Center     Atomic      Atomic             Coordinates (Angstroms)
 Number     Number       Type             X           Y           Z
 ---------------------------------------------------------------------
      1          6           0       -1.942024   -1.465885    0.000003
      2          6           0       -2.618498   -0.246515    0.000100
      3          6           0       -1.905398    0.954972    0.000076
      4          6           0       -0.522298    0.910314   -0.000041
      5          6           0        0.184302   -0.304275   -0.000191
      6          6           0       -0.549883   -1.496567   -0.000132
      7          6           0        1.666992   -0.305412   -0.000444
      8          8           0        2.213999   -1.504602    0.000316
      9          7           0        0.250876    2.165672   -0.000000
     10          8           0        2.339247    0.731785    0.000039
     11          1           0       -2.499997   -2.396386    0.000024
     12          1           0       -3.703493   -0.222565    0.000210
     13          1           0       -2.429682    1.906906    0.000172
     14          1           0       -0.020290   -2.442756   -0.000232
     15          1           0        3.183371   -1.422496    0.000704
     16          1           0        0.061077    2.733453    0.829558
     17          1           0        1.286671    1.853381    0.000023
     18          1           0        0.061084    2.733507   -0.829523
 ---------------------------------------------------------------------
 Rotational constants (GHZ):      2.2524128      1.2096157      0.7903963
 Standard basis: 6-31+G(d,p) (6D, 7F)
 There are   230 symmetry adapted cartesian basis functions of A   symmetry.
 There are   230 symmetry adapted basis functions of A   symmetry.
   230 basis functions,   376 primitive gaussians,   230 cartesian basis functions
    36 alpha electrons       36 beta electrons
       nuclear repulsion energy       515.6632718511 Hartrees.
 NAtoms=   18 NActive=   18 NUniq=   18 SFac= 1.00D+00 NAtFMM=   60 NAOKFM=F Big=F
 Integral buffers will be    131072 words long.
 Raffenetti 2 integral format.
 Two-electron integral symmetry is turned on.
 Nuclear repulsion after empirical dispersion term =      515.6486132778 Hartrees.
 One-electron integrals computed using PRISM.
 NBasis=   230 RedAO= T EigKep=  2.28D-06  NBF=   230
 NBsUse=   230 1.00D-06 EigRej= -1.00D+00 NBFU=   230
 Initial guess from the checkpoint file:  "B3PWD3Anthranilicyang.chk"
 B after Tr=     0.000000   -0.000000    0.000000
         Rot=    1.000000    0.000011   -0.000017    0.000556 Ang=   0.06 deg.
 Keep R1 ints in memory in canonical form, NReq=359209085.
 Requested convergence on RMS density matrix=1.00D-08 within 128 cycles.
 Requested convergence on MAX density matrix=1.00D-06.
 Requested convergence on             energy=1.00D-06.
 No special actions if energy rises.
 SCF Done:  E(RB3PW91) =  -476.408634652     A.U. after   10 cycles
            NFock= 10  Conv=0.65D-08     -V/T= 2.0093
 Calling FoFJK, ICntrl=      2127 FMM=F ISym2X=0 I1Cent= 0 IOpClX= 0 NMat=1 NMatS=1 NMatT=0.
 ***** Axes restored to original set *****
 -------------------------------------------------------------------
 Center     Atomic                   Forces (Hartrees/Bohr)
 Number     Number              X              Y              Z
 -------------------------------------------------------------------
      1        6          -0.000035571    0.000095856   -0.000004022
      2        6          -0.000034630   -0.000020716    0.000000678
      3        6           0.000148862   -0.000116112   -0.000005806
      4        6          -0.000102179    0.000115405    0.000006648
      5        6          -0.000180983   -0.000066195    0.000050601
      6        6           0.000091604    0.000012095    0.000007546
      7        6          -0.000031804   -0.000001770   -0.000184795
      8        8           0.000164238    0.000302321    0.000055827
      9        7           0.000315690    0.000224963    0.000000070
     10        8          -0.000430359   -0.000713351    0.000065237
     11        1           0.000020775   -0.000021095   -0.000000804
     12        1           0.000022972   -0.000027956    0.000001298
     13        1           0.000084177    0.000000641   -0.000001220
     14        1          -0.000026635   -0.000020888    0.000000934
     15        1          -0.000055893    0.000120044    0.000003457
     16        1           0.000052123    0.000137806   -0.000015011
     17        1          -0.000050027   -0.000158918    0.000004585
     18        1           0.000047637    0.000137870    0.000014777
 -------------------------------------------------------------------
 Cartesian Forces:  Max     0.000713351 RMS     0.000150573

 GradGradGradGradGradGradGradGradGradGradGradGradGradGradGradGradGradGrad
 Berny optimization.
 Using GEDIIS/GDIIS optimizer.
 FormGI is forming the generalized inverse of G from B-inverse, IUseBI=4.
 Internal  Forces:  Max     0.001224059 RMS     0.000276426
 Search for a local minimum.
 Step number   3 out of a maximum of   92
 All quantities printed in internal units (Hartrees-Bohrs-Radians)
 Mixed Optimization -- En-DIIS/RFO-DIIS
 Swapping is turned off.
 Update second derivatives using D2CorX and points    1    2    3
 DE=  1.63D-06 DEPred=-3.36D-06 R=-4.87D-01
 Trust test=-4.87D-01 RLast= 6.18D-03 DXMaxT set to 1.50D-01
 ITU= -1  1  0
     Eigenvalues ---    0.00706   0.01004   0.01592   0.01635   0.01730
     Eigenvalues ---    0.02065   0.02134   0.02146   0.02160   0.02179
     Eigenvalues ---    0.02192   0.02227   0.02781   0.06301   0.07830
     Eigenvalues ---    0.11741   0.16000   0.16000   0.16000   0.16000
     Eigenvalues ---    0.16000   0.16001   0.17174   0.21069   0.22206
     Eigenvalues ---    0.22680   0.24656   0.25000   0.27427   0.33751
     Eigenvalues ---    0.34888   0.35177   0.35339   0.35375   0.35452
     Eigenvalues ---    0.36513   0.39483   0.42317   0.43664   0.43784
     Eigenvalues ---    0.45603   0.45827   0.46608   0.49077   0.52473
     Eigenvalues ---    0.64034   0.92396   1.07043
 En-DIIS/RFO-DIIS IScMMF=        0 using points:     3    2    1
 RFO step:  Lambda=-6.45229365D-06.
 DidBck=T Rises=F RFO-DIIS coefs:    0.37285    0.50330    0.12385
 Iteration  1 RMS(Cart)=  0.00122819 RMS(Int)=  0.00000085
 Iteration  2 RMS(Cart)=  0.00000100 RMS(Int)=  0.00000004
 Iteration  3 RMS(Cart)=  0.00000000 RMS(Int)=  0.00000004
 Variable       Old X    -DE/DX   Delta X   Delta X   Delta X     New X
                                 (Linear)    (Quad)   (Total)
    R1        2.63512  -0.00021  -0.00025   0.00002  -0.00023   2.63489
    R2        2.63140  -0.00010  -0.00017   0.00007  -0.00009   2.63131
    R3        2.05030   0.00003   0.00006  -0.00001   0.00006   2.05036
    R4        2.64027  -0.00009   0.00000  -0.00005  -0.00005   2.64021
    R5        2.05084   0.00002   0.00005  -0.00001   0.00004   2.05089
    R6        2.61504   0.00031   0.00022   0.00015   0.00037   2.61541
    R7        2.05368   0.00004   0.00009   0.00000   0.00009   2.05377
    R8        2.65539   0.00071   0.00065  -0.00021   0.00044   2.65584
    R9        2.78613   0.00010   0.00014   0.00000   0.00014   2.78627
   R10        2.64601   0.00009   0.00015  -0.00006   0.00009   2.64611
   R11        2.80188   0.00035  -0.00034   0.00052   0.00018   2.80205
   R12        2.04906   0.00003   0.00007  -0.00002   0.00005   2.04911
   R13        2.49077  -0.00043  -0.00020  -0.00015  -0.00035   2.49042
   R14        2.33571  -0.00036  -0.00015  -0.00013  -0.00028   2.33543
   R15        1.83841   0.00007   0.00024  -0.00014   0.00010   1.83850
   R16        1.93322   0.00010   0.00028  -0.00009   0.00019   1.93341
   R17        2.04440   0.00009   0.00067  -0.00070  -0.00003   2.04437
   R18        1.93322   0.00010   0.00028  -0.00008   0.00019   1.93342
    A1        2.09933   0.00005  -0.00019   0.00016  -0.00003   2.09931
    A2        2.09493  -0.00003   0.00009  -0.00011  -0.00002   2.09491
    A3        2.08892  -0.00002   0.00010  -0.00005   0.00004   2.08896
    A4        2.09946  -0.00000   0.00015  -0.00021  -0.00006   2.09940
    A5        2.09937  -0.00003  -0.00005  -0.00000  -0.00005   2.09932
    A6        2.08436   0.00003  -0.00010   0.00021   0.00011   2.08447
    A7        2.07416   0.00017   0.00031  -0.00007   0.00024   2.07440
    A8        2.10253  -0.00016  -0.00091   0.00037  -0.00054   2.10199
    A9        2.10650  -0.00001   0.00059  -0.00030   0.00030   2.10679
   A10        2.12997  -0.00020  -0.00055   0.00032  -0.00023   2.12974
   A11        2.09055  -0.00044   0.00044  -0.00038   0.00005   2.09060
   A12        2.06266   0.00065   0.00011   0.00006   0.00018   2.06284
   A13        2.06275  -0.00028  -0.00001  -0.00027  -0.00028   2.06247
   A14        2.09846   0.00122   0.00130  -0.00000   0.00130   2.09976
   A15        2.12197  -0.00094  -0.00129   0.00027  -0.00102   2.12095
   A16        2.10070   0.00026   0.00029   0.00006   0.00036   2.10106
   A17        2.10310  -0.00012   0.00005  -0.00014  -0.00009   2.10301
   A18        2.07938  -0.00015  -0.00034   0.00007  -0.00027   2.07911
   A19        1.99952  -0.00032   0.00035  -0.00051  -0.00015   1.99937
   A20        2.14510   0.00103   0.00082   0.00055   0.00137   2.14647
   A21        2.13857  -0.00072  -0.00117  -0.00005  -0.00122   2.13735
   A22        1.91425  -0.00021  -0.00144   0.00034  -0.00110   1.91316
   A23        1.95551   0.00008   0.00047   0.00001   0.00048   1.95599
   A24        1.82999  -0.00021  -0.00020  -0.00084  -0.00104   1.82895
   A25        1.95552   0.00009   0.00047   0.00003   0.00049   1.95601
   A26        1.91540   0.00008   0.00036  -0.00007   0.00029   1.91569
   A27        1.89129  -0.00011  -0.00133   0.00080  -0.00052   1.89077
   A28        1.91545   0.00007   0.00029   0.00002   0.00032   1.91576
    D1       -0.00001   0.00000   0.00002  -0.00003  -0.00001  -0.00002
    D2       -3.14159  -0.00000  -0.00000  -0.00000  -0.00001   3.14159
    D3        3.14159   0.00000   0.00000  -0.00000  -0.00000   3.14159
    D4        0.00001  -0.00000  -0.00002   0.00002   0.00000   0.00001
    D5       -0.00002   0.00000   0.00001   0.00001   0.00002   0.00000
    D6       -3.14157  -0.00000  -0.00004   0.00005   0.00001  -3.14156
    D7        3.14157   0.00000   0.00003  -0.00002   0.00001   3.14158
    D8        0.00002  -0.00000  -0.00002   0.00002   0.00000   0.00002
    D9       -0.00000   0.00000   0.00001  -0.00000   0.00000  -0.00000
   D10       -3.14157  -0.00000  -0.00003   0.00004   0.00001  -3.14156
   D11        3.14157   0.00000   0.00002  -0.00002   0.00000   3.14157
   D12        0.00001   0.00000  -0.00001   0.00002   0.00001   0.00002
   D13        0.00005  -0.00000  -0.00006   0.00005  -0.00001   0.00004
   D14       -3.14154  -0.00000  -0.00008   0.00010   0.00002  -3.14152
   D15       -3.14157  -0.00000  -0.00002   0.00001  -0.00002  -3.14159
   D16        0.00003  -0.00000  -0.00004   0.00005   0.00001   0.00004
   D17       -0.00007   0.00000   0.00009  -0.00007   0.00002  -0.00005
   D18        3.14149   0.00000   0.00013  -0.00013   0.00000   3.14149
   D19        3.14151   0.00000   0.00011  -0.00012  -0.00001   3.14150
   D20       -0.00011   0.00000   0.00015  -0.00018  -0.00003  -0.00014
   D21        1.06497  -0.00001  -0.00037   0.00029  -0.00008   1.06489
   D22        3.14146   0.00000   0.00019  -0.00031  -0.00011   3.14135
   D23       -1.06517   0.00001   0.00067  -0.00078  -0.00011  -1.06528
   D24       -2.07662  -0.00001  -0.00039   0.00034  -0.00005  -2.07667
   D25       -0.00012   0.00000   0.00018  -0.00026  -0.00008  -0.00020
   D26        2.07643   0.00001   0.00065  -0.00073  -0.00008   2.07635
   D27        0.00006  -0.00000  -0.00006   0.00004  -0.00002   0.00003
   D28       -3.14158  -0.00000  -0.00001   0.00000  -0.00001  -3.14159
   D29       -3.14151  -0.00000  -0.00011   0.00010  -0.00001  -3.14151
   D30        0.00005  -0.00000  -0.00006   0.00006   0.00000   0.00005
   D31        3.14086   0.00005   0.00077  -0.00016   0.00061   3.14147
   D32        0.00055  -0.00004  -0.00050  -0.00023  -0.00072  -0.00017
   D33       -0.00077   0.00005   0.00082  -0.00022   0.00060  -0.00017
   D34       -3.14107  -0.00004  -0.00045  -0.00029  -0.00074   3.14137
   D35       -3.14092  -0.00005  -0.00066  -0.00003  -0.00069   3.14157
   D36       -0.00062   0.00004   0.00060   0.00004   0.00064   0.00003
         Item               Value     Threshold  Converged?
 Maximum Force            0.001224     0.000450     NO 
 RMS     Force            0.000276     0.000300     YES
 Maximum Displacement     0.005408     0.001800     NO 
 RMS     Displacement     0.001228     0.001200     NO 
 Predicted change in Energy=-3.517633D-06
 GradGradGradGradGradGradGradGradGradGradGradGradGradGradGradGradGradGrad

                          Input orientation:                          
 ---------------------------------------------------------------------
 Center     Atomic      Atomic             Coordinates (Angstroms)
 Number     Number       Type             X           Y           Z
 ---------------------------------------------------------------------
      1          6           0        1.941323   -1.465724   -0.000026
      2          6           0        2.618341   -0.246796    0.000039
      3          6           0        1.905780    0.954978    0.000053
      4          6           0        0.522455    0.911252   -0.000001
      5          6           0       -0.184803   -0.303226   -0.000022
      6          6           0        0.549214   -1.495680   -0.000054
      7          6           0       -1.667584   -0.305633    0.000052
      8          8           0       -2.213307   -1.505205   -0.000124
      9          7           0       -0.249975    2.167156   -0.000087
     10          8           0       -2.342064    0.729940    0.000308
     11          1           0        2.498866   -2.396517   -0.000038
     12          1           0        3.703373   -0.223438    0.000063
     13          1           0        2.431013    1.906443    0.000072
     14          1           0        0.019199   -2.441663   -0.000072
     15          1           0       -3.182723   -1.423007   -0.000044
     16          1           0       -0.059963    2.735283   -0.829483
     17          1           0       -1.285625    1.854437   -0.000366
     18          1           0       -0.060312    2.735198    0.829449
 ---------------------------------------------------------------------
[...]
 6,0.0000017,0.0000045,-0.0607176,-0.290184,0.1292961,-0.0000029,0.1904
 419,-0.0185226,0.0000174,0.0000128,0.0000099,-0.0911434,0.4558625,-0.1
 944263,0.0000471,0.0089621,0.4142023,-0.0000382,0.0000656,-0.0000198,-
 0.0536611,-0.7972205,0.0221947,0.0000028,-0.0602261,-0.0975684,0.00000
 23,-0.0000493,-0.0000016,0.0259835,0.1187048,0.1300201,0.0000256,-0.07
 67767,0.0261176,0.0000058,-0.0000833,0.0000118,-0.0610201,2.0986403,0.
 0287031,-0.0000539,0.2242332,1.7572321,0.0002653,-0.0000731,0.0003488,
 0.3514885,-0.8840223,-0.506366,-0.0000796,-0.5791349,-1.0280273,-0.000
 1017,-0.0000338,0.0000277,-0.3220649,-0.5079057,-0.1900348,-0.0000195,
 0.0255158,-0.5419684,0.0000452,-0.0001764,-0.0000779,-0.0590176,-1.115
 4452,0.1843115,0.0001033,0.1046316,-1.2127233,-0.0000511,0.0003403,-0.
 0001411,-0.3356582,0.0709117,0.0224902,-0.0000007,0.0284977,0.0447887,
 -0.0000043,0.0000011,0.0000057,0.1462314,0.0380291,-0.0027852,-0.00000
 82,-0.006052,0.0895666,-0.0000018,-0.000005,-0.0000055,0.1427591,0.097
 2016,-0.0105993,-0.000004,-0.022014,-0.0048603,-0.0000053,0.0000002,0.
 0000068,0.1519821,0.0955408,-0.0204239,-0.0000057,-0.0164751,0.0862391
 ,-0.0000031,0.0000146,-0.0000024,0.1406838,0.4445614,0.1265254,0.00001
 96,0.1318619,0.3228902,-0.0000337,0.0000283,-0.0000243,0.367681,0.2031
 926,0.0081189,0.0140578,0.0150718,0.248741,-0.0477651,0.0200927,-0.080
 6302,0.2656566,0.6819788,0.4496129,-0.0000541,0.2554343,0.5684551,-0.0
 00129,-0.0000526,-0.0001654,0.1982913,0.2032231,0.0081484,-0.0140321,0
 .01508,0.2487373,0.0477925,-0.0200837,0.0806662,0.2656847\Polar=116.50
 95109,-0.5039904,100.9040755,-0.0006954,0.0030358,47.6948105\PG=C01 [X
 (C7H8N1O2)]\NImag=0\\0.70278433,-0.03555332,0.74020253,0.00003293,0.00
 003097,0.13747652,-0.18273433,-0.12462844,-0.00001627,0.75660070,-0.06
 160652,-0.30062065,-0.00001921,0.00476249,0.67669705,-0.00001383,-0.00
 002420,-0.06400551,0.00004198,0.00003093,0.14103801,0.06452947,0.02224
 742,0.00000488,-0.18438380,0.06181329,-0.00000322,0.70847856,-0.015611
 59,-0.05236852,-0.00000371,0.12782273,-0.28778497,-0.00000293,0.033784
 89,0.73961702,0.00000348,-0.00000202,0.00665253,-0.00000218,-0.0000051
 9,-0.06253912,0.00004218,0.00002120,0.13014997,-0.05152148,-0.02913673
 ,-0.00000470,-0.02756459,0.08276580,0.00000078,-0.35607060,-0.06477216
 ,-0.00002465,0.72063260,-0.03000714,-0.01802426,-0.00000304,0.02769142
 ,0.03247020,0.00000274,0.01482092,-0.12158316,-0.00000049,0.04805888,0
 .61826987,-0.00000520,-0.00000269,-0.00513097,-0.00000084,0.00000714,0
 .00335219,-0.00002310,-0.00000673,-0.06175605,0.00004435,0.00000584,0.
 16078760,-0.02819594,0.02609104,-0.00000194,0.00055169,-0.00640623,0.0
 0000050,-0.03367870,-0.01917152,-0.00000473,-0.16820152,-0.11778296,-0
 .00000835,0.65295926,0.06692302,0.03302795,0.00000418,0.00245814,-0.06
 039430,-0.00000198,-0.06915271,0.02545354,-0.00000571,-0.05734131,-0.2
 5766188,-0.00000554,-0.00874580,0.70907218,0.00000309,0.00000518,0.007
 06987,0.00000018,-0.00000380,-0.00565041,-0.00000663,-0.00000073,0.009
 71241,-0.00000578,-0.00001397,-0.05694340,0.00000070,0.00002855,0.1333
 8737,-0.35373622,0.02841898,-0.00001397,-0.02276688,-0.07184117,-0.000
 00486,-0.04791613,0.01991355,-0.00000205,0.06002769,0.02885435,0.00000
 569,-0.17088204,0.06017190,-0.00000765,0.70794257,-0.03491895,-0.13017
 965,-0.00000459,-0.03361440,0.03175243,-0.00000171,0.02914723,-0.01261
 978,0.00000228,-0.02003555,-0.05556168,-0.00000526,0.11417679,-0.28163
 080,-0.00000715,0.04130102,0.72761276,-0.00001752,-0.00000129,-0.06497
 793,-0.00000352,-0.00000326,0.00656064,-0.00000147,0.00000067,-0.00508
 734,0.00000258,0.00000096,0.00387384,-0.00000340,-0.00000949,-0.061047
 63,0.00002830,0.00002749,0.14135832,0.00367556,0.00307771,0.00000185,-
 0.00010253,0.00493895,0.00000024,0.01159930,-0.00511811,0.00000285,-0.
 02347550,-0.02977128,-0.00000168,-0.20189414,-0.00274126,-0.00001091,-
 0.02216687,0.01750413,0.00000357,0.72186084,0.00455250,-0.00625342,-0.
 00000025,0.00046787,-0.00361678,-0.00000028,-0.00471897,-0.00690605,-0
 .00000144,-0.03332490,0.01439235,-0.00000257,-0.01125908,-0.10209188,0
 .00000520,0.02722044,0.01087165,0.00000208,-0.09365210,0.89206305,-0.0
 0000209,-0.00000065,0.00869915,0.00000079,0.00000055,-0.00141956,-0.00
 000104,-0.00000138,0.00624764,-0.00000270,0.00000685,-0.00174491,0.000
 00957,0.00000667,-0.07581865,0.00000178,-0.00000394,-0.00102551,-0.000
 15346,0.00017790,0.20794452,0.00104638,-0.00060901,0.00000047,-0.00008
 951,-0.00222635,-0.00000023,-0.00329183,-0.00121191,-0.00000058,-0.004
 79602,0.00879062,0.00000061,-0.03195122,-0.04471396,0.00000093,-0.0042
 3778,-0.00275239,-0.00000057,-0.18380258,-0.12046233,0.00001148,0.6804
 9996,-0.00058852,0.00043748,-0.00000011,0.00021079,-0.00116219,0.00000
 003,-0.00201978,0.00204836,-0.00000039,0.00410419,0.00110359,0.0000013
 1,-0.01929470,-0.00503458,0.00000169,0.00251913,-0.00442247,-0.0000013
 6,-0.08027651,-0.31031815,-0.00001609,0.07048337,0.46512643,0.00000034
 ,0.00000002,-0.00063538,-0.00000012,-0.00000008,-0.00005874,0.00000010
 ,0.00000073,-0.00065650,0.00000079,-0.00000129,0.00209149,-0.00000111,
 0.00000255,0.00945014,0.00000109,0.00000043,0.00046136,0.00001537,0.00
 000220,-0.06507446,-0.00013240,0.00005250,0.04215419,0.00109563,0.0005
 9164,0.00000048,-0.00736485,-0.00573827,-0.00000099,-0.01999102,0.0473
 1858,-0.00000221,-0.12569170,0.03126248,-0.00000577,0.01437324,-0.0063
 4066,0.00000119,-0.00056749,-0.00083427,-0.00000085,-0.02498373,0.0173
 6350,0.00001433,0.00290988,-0.00968080,-0.00000512,0.53101840,-0.00201
 273,-0.00144726,0.,-0.00071814,0.00585648,0.00000122,0.00898775,-0.008
 13297,0.00000213,0.04403780,-0.16973167,0.00000437,0.02285458,-0.03067
 706,0.00000322,-0.00524817,-0.00381244,-0.00000015,-0.00263148,0.00731
 331,0.00000301,0.00013944,-0.00399619,-0.00000174,0.08081908,0.6103275
 5,0.00000080,0.00000004,-0.00136268,-0.00000138,-0.00000148,0.00731700
 ,-0.00000332,0.00000657,0.00202142,-0.00000423,0.00000548,-0.07360889,
 -0.00000149,-0.00000049,-0.00085229,0.00000010,0.00000057,0.00775249,-
 0.00000208,0.00000346,-0.00274271,-0.00000149,-0.00000081,-0.00136651,
 -0.00006612,0.00001206,0.71646591,-0.00217325,0.00165627,-0.00000165,0
 .00026492,-0.00008985,0.00000041,-0.00188015,0.00161895,0.00000034,0.0
 0517488,0.00360191,0.00000108,-0.03190630,0.04276529,0.00002438,-0.004
 77552,-0.00751031,0.00000140,-0.29045200,0.24472597,0.00013705,0.03646
 283,-0.00743774,-0.00000388,-0.02110069,-0.02495854,0.00001685,0.33262
 707,0.00177478,0.00175743,0.00000110,-0.00049443,0.00077307,0.00000025
 ,0.00267424,0.00183809,0.00000166,0.00174380,-0.01983042,0.00000157,0.
 03063783,-0.00521924,-0.00001576,-0.00154240,0.00497756,0.00000081,0.2
 2714055,-0.45813989,-0.00017675,0.01748823,-0.10764053,-0.00004120,-0.
 05183499,-0.01980688,0.00000550,-0.26720171,0.57363659,0.00000030,-0.0
 0000112,-0.00192780,-0.00000045,0.00000066,0.00035841,0.00000196,-0.00
 000173,-0.00052788,-0.00000284,0.00000078,-0.00017655,0.00000828,-0.00
 001499,0.01907108,0.00000155,0.00000306,0.00343904,0.00015443,-0.00019
 502,-0.07467817,-0.00000240,-0.00001922,0.02693838,0.00002200,0.000015
 69,0.01095626,-0.00016793,0.00023392,0.03817090,-0.13617740,0.12902403
 ,0.00000094,0.01220004,-0.01540827,-0.00000044,-0.00095398,-0.00353492
 ,-0.00000069,-0.00105692,-0.00109752,-0.00000025,-0.00500890,-0.001153
 80,-0.00000103,-0.01129573,0.02716570,0.00000040,0.00050957,0.00155838
 ,-0.00000026,-0.00013548,-0.00020068,0.00000008,0.00031271,0.00012494,
 0.00000014,-0.00079292,0.00029789,0.00000029,0.14093634,0.12911926,-0.
 27464063,-0.00000395,0.01505798,-0.01695000,-0.00000015,-0.00315374,-0
 .00298477,-0.00000075,-0.00121980,0.00013097,-0.00000014,-0.00126311,0
 .00128834,-0.00000046,-0.00336591,0.00591373,-0.00000013,-0.00015747,0
 .00032078,-0.00000009,0.00002227,0.00000182,0.,0.00027246,0.00006375,0
 .00000016,-0.00012824,0.00005879,0.00000007,-0.13575072,0.28639778,0.0
 0000069,-0.00000332,-0.04038222,0.00000148,-0.00000277,0.00429116,-0.0
 0000120,-0.00000095,0.00724235,-0.00000016,0.00000007,-0.00008156,-0.0
 0000053,0.00000029,0.00719627,-0.00000077,0.00000166,0.00404440,-0.000
 00009,0.,0.00034398,-0.00000002,0.,0.00001443,0.,-0.00000012,-0.001115
 71,-0.00000021,-0.00000013,-0.00027961,0.00000010,0.00000492,0.0269384
 1,-0.00827941,0.00229868,-0.00000074,-0.35144058,-0.00601038,-0.000019
 57,-0.00943725,-0.00243878,-0.00000106,0.00088529,0.00208263,-0.000000
 32,0.00097030,-0.00016193,0.00000006,0.00024590,-0.00235888,-0.0000005
 0,-0.00038217,-0.00002681,0.00000008,0.00002337,0.00004896,-0.00000002
 ,-0.00066305,-0.00014524,-0.00000012,0.00004139,-0.00015497,0.00000007
 ,0.00061348,-0.00007445,0.00000025,0.36709120,-0.02787166,0.00479271,-
 0.00000186,-0.00649949,-0.05942422,-0.00000165,0.02807647,0.00390138,0
 .00000167,0.00163898,-0.00388060,-0.00000038,0.00005643,-0.00127459,-0
 .00000009,-0.00272774,-0.00489391,-0.00000093,0.00018909,-0.00035624,0
 .,-0.00006900,0.00015825,0.00000002,0.00229493,-0.00021620,0.00000035,
 -0.00002311,0.00041860,-0.00000008,0.00005212,0.00058225,0.00000028,0.
 00640266,0.05967775,-0.00000247,0.00000053,0.00567134,-0.00001926,-0.0
 0000164,-0.04137557,0.00000063,-0.00000008,0.00459260,-0.00000052,-0.0
 0000040,0.00710154,0.00000057,0.00000007,-0.00089042,-0.00000096,-0.00
 000100,0.00733036,-0.00000049,0.00000015,-0.00118242,0.,0.00000006,0.0
 0021257,0.00000028,-0.00000014,0.00011745,-0.00000004,-0.00000029,0.00
 014100,0.00000028,0.00000020,-0.00393620,0.00002160,0.00000242,0.02666
 957,-0.00163560,0.00344330,-0.00000026,0.01289913,0.01563596,0.0000009
 1,-0.12737444,-0.12194957,-0.00000927,-0.01054135,-0.02835863,-0.00000
 176,-0.00488851,0.00214869,-0.00000071,-0.00052962,0.00073414,0.000000
 02,0.00074407,-0.00179763,-0.00000046,-0.00074514,0.00008465,0.0000002
 2,0.00284881,-0.00003300,0.00000123,0.00014304,0.00094121,-0.00000030,
 0.00052187,0.00077651,0.00000015,0.00061080,0.00000507,0.00000027,0.13
 067179,0.00381110,-0.00282640,-0.00000007,-0.01488745,-0.01739001,-0.0
 0000164,-0.12192995,-0.27626530,-0.00001328,0.00348791,0.00261554,0.00
 000024,0.00062881,0.00138143,0.,0.00101214,0.00002970,0.00000011,0.000
 60380,-0.00003565,-0.00000021,0.00000593,0.00004785,0.,0.00005370,0.00
 137010,0.00000010,-0.00008207,0.00028318,0.00000013,-0.00083542,-0.000
 80747,-0.00000017,0.00004532,0.00072270,0.00000014,0.12889194,0.290331
 40,0.00000015,0.00000012,0.00674666,0.00000045,-0.00000094,0.00406109,
 -0.00000990,-0.00001236,-0.03611288,-0.00000035,-0.00000092,0.00362979
 ,-0.00000113,-0.00000044,0.00603153,-0.00000039,0.00000058,-0.00111510
 ,0.,-0.00000013,0.00141140,-0.00000006,-0.00000002,-0.00024126,0.00000
 026,-0.00000105,-0.00374021,-0.00000001,-0.00000012,-0.00013941,0.0000
 0003,0.00000004,-0.00011667,0.00000029,0.00000021,-0.00387588,0.000010
 36,0.00001470,0.02476088,-0.00869591,-0.02701699,-0.00000197,-0.005644
 09,0.00056681,-0.00000055,-0.00085030,0.00095987,0.,-0.00167118,0.0022
 2059,-0.00000006,0.01155891,0.01596320,0.00000117,-0.12749509,-0.12599
 025,-0.00000776,0.00162799,0.00220870,0.00000058,-0.00419163,0.0004910
 9,0.00000011,-0.00013824,0.00154731,-0.00000041,-0.00000043,-0.0014229
 9,-0.00000019,0.00060270,0.00005326,0.00000013,-0.00040145,-0.00129280
 ,-0.00000007,0.00007036,-0.00008913,0.00000002,0.13451266,0.00268869,0
 .00591418,0.00000031,0.00111438,0.00099163,-0.00000009,0.00030342,0.00
 032715,0.00000010,0.00365463,-0.00112702,0.00000004,-0.01272270,-0.018
 06999,-0.00000153,-0.12447001,-0.28414114,-0.00001484,-0.00121219,-0.0
 0264704,0.00000003,-0.00019385,0.00097277,0.00000008,-0.00018253,-0.00
 096923,0.00000010,-0.00000946,0.00113211,0.,-0.00002888,0.00065289,0.0
 0000012,0.00024782,0.00021140,0.00000005,-0.00008284,0.00000687,0.,0.1
 3132625,0.29675863,-0.00000108,-0.00000187,0.00583453,-0.00000086,-0.0
 0000023,0.00719056,0.00000013,0.00000021,-0.00106482,0.00000003,-0.000
 00041,0.00575861,0.00000173,-0.00000053,0.00351936,-0.00000786,-0.0000
 1273,-0.04020936,-0.00000159,0.00000031,-0.00420945,-0.00000005,0.0000
 0030,0.00042055,-0.00000052,-0.00000022,0.00103440,0.00000047,-0.00000
 068,0.00059742,0.00000031,0.00000030,-0.00407944,0.00000002,-0.0000000
 3,-0.00055791,0.00000002,0.00000003,-0.00069552,0.00000907,0.00001566,
 0.02656149,-0.00006643,0.00016008,-0.00000010,0.00005834,0.00034190,0.
 00000008,0.00057246,-0.00056612,-0.00000009,-0.00121270,0.00015899,-0.
 00000006,0.00229286,-0.00206487,0.00000239,0.00065946,0.00011657,0.000
 00004,-0.02664354,-0.00887090,0.00000251,-0.48482990,0.02640773,0.0001
 1506,0.00146498,0.00058923,0.00000043,0.00165745,0.00973264,0.00000035
 ,0.00001608,-0.00000082,0.,-0.00000340,0.00001382,0.,-0.00003950,0.000
 00919,-0.00000004,-0.00004569,0.00011593,0.00000002,0.50804024,0.00007
 100,0.00032680,0.00000012,0.00016753,-0.00000386,-0.00000005,0.0000086
 3,-0.00056208,0.,-0.00163427,0.00089557,-0.00000029,-0.00090283,-0.006
 02773,-0.00000115,0.00086422,-0.00034620,0.,-0.05592676,0.00206187,0.0
 0001319,0.07570333,-0.04963055,-0.00001975,0.00169761,0.00081823,-0.00
 000014,0.00691913,0.00222862,-0.00000221,0.00002134,0.00000928,0.,0.00
 001305,0.00002593,0.00000001,-0.00013148,0.00000819,0.00000001,-0.0003
 0844,0.00064422,-0.00000005,-0.02448589,0.05143803,-0.00000003,-0.0000
 0012,0.00007260,-0.00000002,-0.00000005,0.00007894,-0.00000012,0.00000
 002,-0.00031214,-0.00000016,0.00000011,0.00075012,-0.00000163,-0.00000
 151,0.00548869,-0.00000016,0.00000008,-0.00043622,0.00000383,0.0000022
 4,0.00315939,0.00012062,-0.00000964,-0.01679612,0.00000061,0.00000024,
 0.00024316,-0.00000125,0.00000034,-0.00577815,0.,0.,0.00002636,0.,0.,-
 0.00002226,0.,-0.00000001,-0.00015187,0.00000006,-0.00000011,-0.000133
 44,-0.00012120,0.00000881,0.01390967,0.00056363,0.00047806,-0.00019387
 ,-0.00004186,-0.00060314,0.00072401,0.00029598,0.00191877,0.00022850,0
 .00457450,0.01157999,-0.01676924,-0.00133922,0.00013831,-0.00110426,-0
 .00072954,0.00057613,0.00082635,-0.00074401,0.00079357,-0.00051600,0.0
 0004588,-0.00034271,0.00061124,-0.06670421,-0.04081673,0.06062275,-0.0
 0305441,-0.00274679,-0.00256662,-0.00002793,-0.00006992,-0.00009147,-0
 .00001604,-0.00000161,-0.00001293,-0.00089930,-0.00033100,-0.00050326,
 -0.00006920,0.00007538,0.00017202,0.00004107,0.00004350,-0.00000760,0.
 06267005,0.00028770,0.00036886,0.00023650,-0.00014375,-0.00117024,-0.0
 0116952,-0.00140470,0.00214974,-0.00024623,-0.00471420,-0.02022523,0.0
 1938258,0.00283998,-0.00132193,0.00107725,-0.00065920,-0.00061495,-0.0
 0112838,0.00045992,-0.00101128,0.00056488,0.00013909,0.00054746,0.0001
 0657,-0.03961246,-0.16136861,0.16241624,-0.00033673,0.00096346,-0.0006
 0762,0.00002162,0.00002325,0.00019278,-0.00002228,0.00008993,0.0000113
 8,0.00034640,0.00026975,0.00078826,0.00018668,-0.00017051,-0.00020650,
 -0.00011972,-0.00006974,0.00000061,0.03799132,0.17115460,-0.00031324,-
 0.00043867,0.00001299,0.00002324,0.00053462,0.00027189,0.00071679,-0.0
 0110443,0.00038588,-0.00380253,0.00055090,0.00660484,0.00035235,-0.001
 48418,-0.00035837,0.00018496,-0.00048154,-0.00021559,0.00050101,0.0008
 9072,0.00038615,-0.00035373,-0.00067055,-0.00002098,0.05545154,0.15322
 871,-0.29677088,-0.00158576,-0.00170761,-0.00064972,-0.00001054,-0.000
 01968,-0.00005357,0.00004979,-0.00008217,0.00002204,-0.00035664,0.0001
 5855,-0.00012525,0.00005686,-0.00010104,0.00001620,0.00011585,0.000070
 59,0.00006362,-0.06230042,-0.16788004,0.30961645,-0.00104230,-0.001020
 36,0.00000004,-0.00039965,-0.00029213,-0.00000044,0.00005696,-0.000881
 25,-0.00000075,-0.02405109,0.01631870,-0.00000494,-0.00342014,0.001711
 75,-0.00000137,-0.00104736,-0.00328236,-0.00000087,0.03536742,-0.02556
 810,-0.00001886,-0.00296172,0.01583242,0.00001030,-0.22018186,-0.04182
 142,-0.00007192,-0.01718878,0.03570421,-0.00002099,-0.00023559,-0.0000
 4765,0.00000011,0.00015766,-0.00024260,0.00000013,-0.00095722,-0.00006
 402,0.00000007,0.00089965,-0.00069930,0.,-0.00200276,-0.00216276,-0.00
 000060,0.00403071,-0.00051192,0.00285699,0.22892713,-0.00134522,-0.000
 83577,0.,0.00137649,0.00114669,-0.00000051,0.00192034,-0.00827574,0.00
 000080,0.02738452,0.01796662,0.00000995,-0.00257390,0.00050248,-0.0000
 0036,0.00023719,-0.00232004,-0.00000101,0.01711038,-0.03463227,-0.0000
 0783,-0.00067206,0.01121249,0.00000566,-0.02794550,-0.06427462,-0.0000
 2190,0.00682569,0.02160328,-0.00002173,-0.00027744,-0.00008402,0.00000
 016,0.00027683,-0.00062495,-0.00000016,-0.00100084,-0.00001153,0.00000
 015,0.00041037,-0.00031646,0.,-0.00141801,-0.00174669,-0.00000045,-0.0
 1392356,-0.00446297,-0.00031989,0.00753330,0.06961526,0.00000027,0.000
 00014,0.00017326,0.,-0.00000023,0.00025739,0.00000047,0.00000085,0.000
 66668,-0.00000240,-0.00000269,-0.00112304,0.00000217,-0.00000190,0.000
 99251,0.00000056,0.00000015,-0.00048977,-0.00001038,0.00000514,-0.0006
 8179,0.00000332,-0.00000822,0.00312764,-0.00009271,-0.00003350,-0.0674
 5241,-0.00000426,-0.00000801,-0.01486316,0.00000010,0.,0.00000116,-0.0
 0000001,0.00000009,-0.00003992,0.00000015,-0.00000002,-0.00020217,-0.0
 0000013,0.00000009,0.00000059,0.00000065,0.00000142,-0.00022601,0.0292
 7770,0.00530689,0.00277236,0.00010790,0.00004496,0.07433088,0.00056329
 ,0.00047764,0.00019388,-0.00004216,-0.00060288,-0.00072478,0.00029545,
 0.00191858,-0.00022908,0.00455967,0.01157606,0.01676984,-0.00133962,0.
 00013600,0.00110426,-0.00072933,0.00057565,-0.00082619,-0.00073768,0.0
 0078990,0.00051669,0.00004449,-0.00034088,-0.00061206,-0.06663681,-0.0
 4071469,-0.06048974,-0.00304713,-0.00273709,0.00257248,-0.00002795,-0.
 00006990,0.00009152,-0.00001605,-0.00000157,0.00001300,-0.00089918,-0.
 00033080,0.00050351,-0.00006907,0.00007525,-0.00017186,0.00004097,0.00
 004308,0.00000763,0.00140390,0.00525226,0.00841348,0.00404893,-0.01391
 860,-0.02928337,0.06258829,0.00028762,0.00036863,-0.00023641,-0.000143
 71,-0.00117033,0.00116955,-0.00140475,0.00214807,0.00024564,-0.0046975
 9,-0.02021879,-0.01938943,0.00283738,-0.00132193,-0.00107610,-0.000658
 34,-0.00061477,0.00112872,0.00046261,-0.00101435,-0.00056616,0.0001385
 9,0.00054815,-0.00010669,-0.03950448,-0.16131630,-0.16242583,-0.000335
 45,0.00096619,0.00060939,0.00002161,0.00002326,-0.00019282,-0.00002224
 ,0.00008981,-0.00001130,0.00034612,0.00026965,-0.00078811,0.00018649,-
 0.00017046,0.00020644,-0.00011976,-0.00006990,-0.00000057,0.00524043,0
 .01484842,0.01885570,-0.00050649,-0.00446177,-0.00530515,0.03787197,0.
 17109643,0.00031341,0.00043895,0.00001304,-0.00002324,-0.00053500,0.00
 027161,-0.00071714,0.00110476,0.00038523,0.00380250,-0.00055052,0.0066
 1534,-0.00035156,0.00148443,-0.00035806,-0.00018536,0.00048161,-0.0002
 1599,-0.00050249,-0.00088972,0.00038539,0.00035409,0.00067051,-0.00002
 079,-0.05531639,-0.15323373,-0.29689580,0.00158302,0.00170539,-0.00065
 205,0.00001054,0.00001964,-0.00005354,-0.00004979,0.00008215,0.0000221
 1,0.00035607,-0.00015859,-0.00012514,-0.00005685,0.00010102,0.00001623
 ,-0.00011589,-0.00007054,0.00006365,-0.00839691,-0.01884566,-0.0219580
 8,-0.00285481,0.00031217,0.00275581,0.06215079,0.16788313,0.30975103\\
 -0.00000367,0.00002092,-0.00000250,0.00000515,-0.00000839,0.00000037,0
 .00003699,-0.00003075,0.00000300,-0.00001901,-0.00000345,0.00000236,-0
 .00001297,-0.00002378,0.00001746,0.00000207,0.00000473,0.00000009,-0.0
 0004155,-0.00002079,-0.00006489,0.00002717,0.00004877,0.00001616,0.000
 00883,0.00001586,0.00003058,0.00004195,-0.00004769,0.00004271,0.000002
 17,-0.00000288,0.00000037,0.00000346,-0.00000570,-0.00000051,0.0000050
 9,0.00000469,-0.00000053,0.00000114,-0.00000412,0.00000087,0.00000825,
 0.00001688,0.00000048,-0.00001531,0.00000743,-0.00000230,-0.00005276,0
 .00001746,-0.00004224,0.00000302,0.00001082,-0.00000149\\\@


 IT IS BETTER TO THINK YOU ARE HALF DRY THAN TO KNOW YOU
 ARE ALL WET.  -- SNOOPY
 Job cpu time:       0 days  0 hours 22 minutes 13.0 seconds.
 File lengths (MBytes):  RWF=    100 Int=      0 D2E=      0 Chk=      5 Scr=      1
 Normal termination of Gaussian 09 at Thu Dec 19 12:21:54 2024.
