 Entering Gaussian System, Link 0=g09
 Input=camb3lypD3Anthranilicyang.gjf
 Output=camb3lypD3Anthranilicyang.log
 Initial command:
 /home/c612/g09E/g09/l1.exe "/mnt/ja_sm883/scratch/Gau-1848665.inp" -scrdir="/mnt/ja_sm883/scratch/"
 Default is to use a total of  18 processors:
                               18 via shared-memory
                                1 via Linda
 Entering Link 1 = /home/c612/g09E/g09/l1.exe PID=   1848667.
  
 Copyright (c) 1988,1990,1992,1993,1995,1998,2003,2009,2015,
            Gaussian, Inc.  All Rights Reserved.
  
 This is part of the Gaussian(R) 09 program.  It is based on
 the Gaussian(R) 03 system (copyright 2003, Gaussian, Inc.),
 the Gaussian(R) 98 system (copyright 1998, Gaussian, Inc.),
 the Gaussian(R) 94 system (copyright 1995, Gaussian, Inc.),
 the Gaussian 92(TM) system (copyright 1992, Gaussian, Inc.),
 the Gaussian 90(TM) system (copyright 1990, Gaussian, Inc.),
 the Gaussian 88(TM) system (copyright 1988, Gaussian, Inc.),
 the Gaussian 86(TM) system (copyright 1986, Carnegie Mellon
 University), and the Gaussian 82(TM) system (copyright 1983,
 Carnegie Mellon University). Gaussian is a federally registered
 trademark of Gaussian, Inc.
  
 This software contains proprietary and confidential information,
 including trade secrets, belonging to Gaussian, Inc.
  
 This software is provided under written license and may be
 used, copied, transmitted, or stored only in accord with that
 written license.
  
 The following legend is applicable only to US Government
 contracts under FAR:
  
                    RESTRICTED RIGHTS LEGEND
  
 Use, reproduction and disclosure by the US Government is
 subject to restrictions as set forth in subparagraphs (a)
 and (c) of the Commercial Computer Software - Restricted
 Rights clause in FAR 52.227-19.
  
 Gaussian, Inc.
 340 Quinnipiac St., Bldg. 40, Wallingford CT 06492
  
  
 ---------------------------------------------------------------
 Warning -- This program may not be used in any manner that
 competes with the business of Gaussian, Inc. or will provide
 assistance to any competitor of Gaussian, Inc.  The licensee
 of this program is prohibited from giving any competitor of
 Gaussian, Inc. access to this program.  By using this program,
 the user acknowledges that Gaussian, Inc. is engaged in the
 business of creating and licensing software in the field of
 computational chemistry and represents and warrants to the
 licensee that it is not a competitor of Gaussian, Inc. and that
 it will not use this program in any manner prohibited above.
 ---------------------------------------------------------------
  

 Cite this work as:
 Gaussian 09, Revision E.01,
 M. J. Frisch, G. W. Trucks, H. B. Schlegel, G. E. Scuseria, 
 M. A. Robb, J. R. Cheeseman, G. Scalmani, V. Barone, B. Mennucci, 
 G. A. Petersson, H. Nakatsuji, M. Caricato, X. Li, H. P. Hratchian, 
 A. F. Izmaylov, J. Bloino, G. Zheng, J. L. Sonnenberg, M. Hada, 
 M. Ehara, K. Toyota, R. Fukuda, J. Hasegawa, M. Ishida, T. Nakajima, 
 Y. Honda, O. Kitao, H. Nakai, T. Vreven, J. A. Montgomery, Jr., 
 J. E. Peralta, F. Ogliaro, M. Bearpark, J. J. Heyd, E. Brothers, 
 K. N. Kudin, V. N. Staroverov, T. Keith, R. Kobayashi, J. Normand, 
 K. Raghavachari, A. Rendell, J. C. Burant, S. S. Iyengar, J. Tomasi, 
 M. Cossi, N. Rega, J. M. Millam, M. Klene, J. E. Knox, J. B. Cross, 
 V. Bakken, C. Adamo, J. Jaramillo, R. Gomperts, R. E. Stratmann, 
 O. Yazyev, A. J. Austin, R. Cammi, C. Pomelli, J. W. Ochterski, 
 R. L. Martin, K. Morokuma, V. G. Zakrzewski, G. A. Voth, 
 P. Salvador, J. J. Dannenberg, S. Dapprich, A. D. Daniels, 
 O. Farkas, J. B. Foresman, J. V. Ortiz, J. Cioslowski, 
 and D. J. Fox, Gaussian, Inc., Wallingford CT, 2013.
 
 ******************************************
 Gaussian 09:  ES64L-G09RevE.01 30-Nov-2015
                17-Dec-2024 
 ******************************************
 %chk=camb3lypD3Anthranilicyang.chk
 --------------------------------------------------------
 # opt freq cam-b3lyp/6-31+g(d,p) empiricaldispersion=gd3
 --------------------------------------------------------
 1/14=-1,18=20,19=15,26=3,38=1/1,3;
 2/9=110,12=2,17=6,18=5,40=1/2;
 3/5=1,6=6,7=111,11=2,16=1,25=1,30=1,71=1,74=-40,124=31/1,2,3;
 4//1;
 5/5=2,38=5/2;
 6/7=2,8=2,9=2,10=2,28=1/1;
 7//1,2,3,16;
 1/14=-1,18=20,19=15,26=3/3(2);
 2/9=110/2;
 99//99;
 2/9=110/2;
 3/5=1,6=6,7=111,11=2,16=1,25=1,30=1,71=1,74=-40,124=31/1,2,3;
 4/5=5,16=3,69=1/1;
 5/5=2,38=5/2;
 7//1,2,3,16;
 1/14=-1,18=20,19=15,26=3/3(-5);
 2/9=110/2;
 6/7=2,8=2,9=2,10=2,19=2,28=1/1;
 99/9=1/99;
 ----------
 [No Title]
 ----------
 Symbolic Z-matrix:
 Charge =  1 Multiplicity = 1
 C                     1.94172  -1.46615   0. 
 C                     2.61871  -0.24746  -0.00001 
 C                     1.90672   0.95473   0. 
 C                     0.52312   0.91213   0.00001 
 C                    -0.18408  -0.30273   0.00004 
 C                     0.54974  -1.49548   0.00002 
 C                    -1.6661   -0.30605   0.00012 
 O                    -2.21307  -1.50482  -0.00015 
 N                    -0.25197   2.16658  -0.00003 
 O                    -2.34129   0.72879   0.00007 
 H                     2.49908  -2.39715  -0.00001 
 H                     3.70381  -0.22433  -0.00002 
 H                     2.43446   1.90495  -0.00002 
 H                     0.01888  -2.4411    0.00004 
 H                    -3.18236  -1.41785  -0.00023 
 H                    -0.06343   2.73668  -0.82887 
 H                    -1.2872    1.85039  -0.00012 
 H                    -0.06354   2.73666   0.82886 
 

 GradGradGradGradGradGradGradGradGradGradGradGradGradGradGradGradGradGrad
 Berny optimization.
 Initialization pass.
                           ----------------------------
                           !    Initial Parameters    !
                           ! (Angstroms and Degrees)  !
 --------------------------                            --------------------------
 ! Name  Definition              Value          Derivative Info.                !
 --------------------------------------------------------------------------------
 ! R1    R(1,2)                  1.3941         estimate D2E/DX2                !
 ! R2    R(1,6)                  1.3923         estimate D2E/DX2                !
 ! R3    R(1,11)                 1.0851         estimate D2E/DX2                !
 ! R4    R(2,3)                  1.3972         estimate D2E/DX2                !
 ! R5    R(2,12)                 1.0854         estimate D2E/DX2                !
 ! R6    R(3,4)                  1.3843         estimate D2E/DX2                !
 ! R7    R(3,13)                 1.0869         estimate D2E/DX2                !
 ! R8    R(4,5)                  1.4057         estimate D2E/DX2                !
 ! R9    R(4,9)                  1.4746         estimate D2E/DX2                !
 ! R10   R(5,6)                  1.4004         estimate D2E/DX2                !
 ! R11   R(5,7)                  1.482          estimate D2E/DX2                !
 ! R12   R(6,14)                 1.0844         estimate D2E/DX2                !
 ! R13   R(7,8)                  1.3177         estimate D2E/DX2                !
 ! R14   R(7,10)                 1.2356         estimate D2E/DX2                !
 ! R15   R(8,15)                 0.9732         estimate D2E/DX2                !
 ! R16   R(9,16)                 1.0235         estimate D2E/DX2                !
 ! R17   R(9,17)                 1.0824         estimate D2E/DX2                !
 ! R18   R(9,18)                 1.0235         estimate D2E/DX2                !
 ! A1    A(2,1,6)              120.2596         estimate D2E/DX2                !
 ! A2    A(2,1,11)             120.0399         estimate D2E/DX2                !
 ! A3    A(6,1,11)             119.7005         estimate D2E/DX2                !
 ! A4    A(1,2,3)              120.3121         estimate D2E/DX2                !
 ! A5    A(1,2,12)             120.2739         estimate D2E/DX2                !
 ! A6    A(3,2,12)             119.414          estimate D2E/DX2                !
 ! A7    A(2,3,4)              118.8723         estimate D2E/DX2                !
 ! A8    A(2,3,13)             120.3173         estimate D2E/DX2                !
 ! A9    A(4,3,13)             120.8104         estimate D2E/DX2                !
 ! A10   A(3,4,5)              121.9677         estimate D2E/DX2                !
 ! A11   A(3,4,9)              119.9476         estimate D2E/DX2                !
 ! A12   A(5,4,9)              118.0847         estimate D2E/DX2                !
 ! A13   A(4,5,6)              118.1946         estimate D2E/DX2                !
 ! A14   A(4,5,7)              120.3324         estimate D2E/DX2                !
 ! A15   A(6,5,7)              121.473          estimate D2E/DX2                !
 ! A16   A(1,6,5)              120.3938         estimate D2E/DX2                !
 ! A17   A(1,6,14)             120.5164         estimate D2E/DX2                !
 ! A18   A(5,6,14)             119.0898         estimate D2E/DX2                !
 ! A19   A(5,7,8)              114.654          estimate D2E/DX2                !
 ! A20   A(5,7,10)             122.9946         estimate D2E/DX2                !
 ! A21   A(8,7,10)             122.3514         estimate D2E/DX2                !
 ! A22   A(7,8,15)             109.399          estimate D2E/DX2                !
 ! A23   A(4,9,16)             112.1508         estimate D2E/DX2                !
 ! A24   A(4,9,17)             104.727          estimate D2E/DX2                !
 ! A25   A(4,9,18)             112.1511         estimate D2E/DX2                !
 ! A26   A(16,9,17)            109.8046         estimate D2E/DX2                !
 ! A27   A(16,9,18)            108.1598         estimate D2E/DX2                !
 ! A28   A(17,9,18)            109.8065         estimate D2E/DX2                !
 ! D1    D(6,1,2,3)             -0.0004         estimate D2E/DX2                !
 ! D2    D(6,1,2,12)          -180.0            estimate D2E/DX2                !
 ! D3    D(11,1,2,3)          -180.0            estimate D2E/DX2                !
 ! D4    D(11,1,2,12)            0.0004         estimate D2E/DX2                !
 ! D5    D(2,1,6,5)             -0.0002         estimate D2E/DX2                !
 ! D6    D(2,1,6,14)          -179.9991         estimate D2E/DX2                !
 ! D7    D(11,1,6,5)           179.9994         estimate D2E/DX2                !
 ! D8    D(11,1,6,14)            0.0005         estimate D2E/DX2                !
 ! D9    D(1,2,3,4)             -0.0002         estimate D2E/DX2                !
 ! D10   D(1,2,3,13)          -179.9991         estimate D2E/DX2                !
 ! D11   D(12,2,3,4)           179.9994         estimate D2E/DX2                !
 ! D12   D(12,2,3,13)            0.0004         estimate D2E/DX2                !
 ! D13   D(2,3,4,5)              0.0014         estimate D2E/DX2                !
 ! D14   D(2,3,4,9)           -179.9979         estimate D2E/DX2                !
 ! D15   D(13,3,4,5)          -179.9997         estimate D2E/DX2                !
 ! D16   D(13,3,4,9)             0.001          estimate D2E/DX2                !
 ! D17   D(3,4,5,6)             -0.002          estimate D2E/DX2                !
 ! D18   D(3,4,5,7)            179.9969         estimate D2E/DX2                !
 ! D19   D(9,4,5,6)            179.9973         estimate D2E/DX2                !
 ! D20   D(9,4,5,7)             -0.0038         estimate D2E/DX2                !
 ! D21   D(3,4,9,16)            60.9655         estimate D2E/DX2                !
 ! D22   D(3,4,9,17)           179.9939         estimate D2E/DX2                !
 ! D23   D(3,4,9,18)           -60.9754         estimate D2E/DX2                !
 ! D24   D(5,4,9,16)          -119.0338         estimate D2E/DX2                !
 ! D25   D(5,4,9,17)            -0.0055         estimate D2E/DX2                !
 ! D26   D(5,4,9,18)           119.0253         estimate D2E/DX2                !
 ! D27   D(4,5,6,1)              0.0014         estimate D2E/DX2                !
 ! D28   D(4,5,6,14)          -179.9998         estimate D2E/DX2                !
 ! D29   D(7,5,6,1)           -179.9975         estimate D2E/DX2                !
 ! D30   D(7,5,6,14)             0.0013         estimate D2E/DX2                !
 ! D31   D(4,5,7,8)            179.9861         estimate D2E/DX2                !
 ! D32   D(4,5,7,10)             0.0047         estimate D2E/DX2                !
 ! D33   D(6,5,7,8)             -0.015          estimate D2E/DX2                !
 ! D34   D(6,5,7,10)          -179.9964         estimate D2E/DX2                !
 ! D35   D(5,7,8,15)          -179.9903         estimate D2E/DX2                !
 ! D36   D(10,7,8,15)           -0.0088         estimate D2E/DX2                !
 --------------------------------------------------------------------------------
 Trust Radius=3.00D-01 FncErr=1.00D-07 GrdErr=1.00D-06
 Number of steps in this run=     92 maximum allowed number of steps=    108.
 GradGradGradGradGradGradGradGradGradGradGradGradGradGradGradGradGradGrad

                          Input orientation:                          
 ---------------------------------------------------------------------
 Center     Atomic      Atomic             Coordinates (Angstroms)
 Number     Number       Type             X           Y           Z
 ---------------------------------------------------------------------
      1          6           0        1.941720   -1.466149    0.000000
      2          6           0        2.618705   -0.247464   -0.000005
      3          6           0        1.906724    0.954728    0.000003
      4          6           0        0.523117    0.912134    0.000012
      5          6           0       -0.184078   -0.302734    0.000042
      6          6           0        0.549736   -1.495483    0.000021
      7          6           0       -1.666101   -0.306046    0.000119
      8          8           0       -2.213068   -1.504818   -0.000149
      9          7           0       -0.251972    2.166576   -0.000026
     10          8           0       -2.341287    0.728793    0.000074
     11          1           0        2.499082   -2.397147   -0.000006
     12          1           0        3.703814   -0.224327   -0.000022
     13          1           0        2.434464    1.904952   -0.000015
     14          1           0        0.018883   -2.441097    0.000040
     15          1           0       -3.182365   -1.417851   -0.000232
     16          1           0       -0.063428    2.736676   -0.828874
     17          1           0       -1.287195    1.850394   -0.000122
     18          1           0       -0.063544    2.736660    0.828859
 ---------------------------------------------------------------------
                    Distance matrix (angstroms):
                    1          2          3          4          5
     1  C    0.000000
     2  C    1.394095   0.000000
     3  C    2.421130   1.397205   0.000000
     4  C    2.769235   2.395027   1.384262   0.000000
     5  C    2.423335   2.803328   2.439808   1.405713   0.000000
     6  C    1.392293   2.416233   2.800884   2.407764   1.400405
     7  C    3.789751   4.285206   3.788750   2.505322   1.482027
     8  O    4.154968   4.992692   4.798130   3.650803   2.358348
     9  N    4.243698   3.750783   2.475590   1.474581   2.470243
    10  O    4.812683   5.055156   4.254015   2.870266   2.391150
    11  H    1.085085   2.153009   3.403815   3.854319   3.403809
    12  H    2.155713   1.085356   2.149349   3.377629   3.888683
    13  H    3.406922   2.160287   1.086938   2.153819   3.425002
    14  H    2.155882   3.401632   3.885302   3.390931   2.147973
    15  H    5.124313   5.917957   5.614976   4.377148   3.198939
    16  H    4.729840   4.097066   2.782782   2.088071   3.152724
    17  H    4.628752   4.433629   3.317128   2.039010   2.419262
    18  H    4.729873   4.097130   2.782847   2.088074   3.152679
                    6          7          8          9         10
     6  C    0.000000
     7  C    2.514894   0.000000
     8  O    2.762820   1.317660   0.000000
     9  N    3.748788   2.848442   4.162335   0.000000
    10  O    3.647659   1.235624   2.237288   2.536229   0.000000
    11  H    2.147777   4.660628   4.795895   5.328777   5.762003
    12  H    3.400595   5.370537   6.053854   4.622192   6.119778
    13  H    3.887822   4.658663   5.764207   2.699145   4.918450
    14  H    1.084431   2.719855   2.420377   4.615627   3.952038
    15  H    3.732908   1.880204   0.973191   4.629829   2.305535
    16  H    4.355939   3.537506   4.826801   1.023500   3.147601
    17  H    3.816963   2.189476   3.480616   1.082431   1.539188
    18  H    4.355929   3.537380   4.826784   1.023499   3.147464
                   11         12         13         14         15
    11  H    0.000000
    12  H    2.484457   0.000000
    13  H    4.302584   2.478927   0.000000
    14  H    2.480588   4.300324   4.972240   0.000000
    15  H    5.765229   6.988845   6.526085   3.360807   0.000000
    16  H    5.797380   4.862782   2.760115   5.244350   5.260657
    17  H    5.690123   5.405057   3.722059   4.485837   3.777975
    18  H    5.797417   4.862867   2.760220   5.244321   5.260646
                   16         17         18
    16  H    0.000000
    17  H    1.723349   0.000000
    18  H    1.657733   1.723368   0.000000
 Stoichiometry    C7H8NO2(1+)
 Framework group  C1[X(C7H8NO2)]
 Deg. of freedom    48
 Full point group                 C1      NOp   1
 Largest Abelian subgroup         C1      NOp   1
 Largest concise Abelian subgroup C1      NOp   1
                         Standard orientation:                         
 ---------------------------------------------------------------------
 Center     Atomic      Atomic             Coordinates (Angstroms)
 Number     Number       Type             X           Y           Z
 ---------------------------------------------------------------------
      1          6           0       -1.941720   -1.466149   -0.000000
      2          6           0       -2.618705   -0.247464    0.000005
      3          6           0       -1.906724    0.954728   -0.000003
      4          6           0       -0.523117    0.912134   -0.000012
      5          6           0        0.184078   -0.302734   -0.000042
      6          6           0       -0.549736   -1.495483   -0.000021
      7          6           0        1.666101   -0.306046   -0.000119
      8          8           0        2.213068   -1.504818    0.000149
      9          7           0        0.251972    2.166576    0.000026
     10          8           0        2.341287    0.728793   -0.000074
     11          1           0       -2.499082   -2.397147    0.000006
     12          1           0       -3.703814   -0.224327    0.000022
     13          1           0       -2.434464    1.904952    0.000015
     14          1           0       -0.018883   -2.441097   -0.000040
     15          1           0        3.182365   -1.417851    0.000232
     16          1           0        0.063428    2.736676    0.828874
     17          1           0        1.287195    1.850394    0.000122
     18          1           0        0.063544    2.736660   -0.828859
 ---------------------------------------------------------------------
 Rotational constants (GHZ):      2.2524529      1.2092096      0.7902223
 Standard basis: 6-31+G(d,p) (6D, 7F)
 There are   230 symmetry adapted cartesian basis functions of A   symmetry.
 There are   230 symmetry adapted basis functions of A   symmetry.
   230 basis functions,   376 primitive gaussians,   230 cartesian basis functions
    36 alpha electrons       36 beta electrons
       nuclear repulsion energy       515.6376277979 Hartrees.
 NAtoms=   18 NActive=   18 NUniq=   18 SFac= 1.00D+00 NAtFMM=   60 NAOKFM=F Big=F
 Integral buffers will be    131072 words long.
 Raffenetti 2 integral format.
 Two-electron integral symmetry is turned on.
 Nuclear repulsion after empirical dispersion term =      515.6287426084 Hartrees.
 One-electron integrals computed using PRISM.
 NBasis=   230 RedAO= T EigKep=  2.28D-06  NBF=   230
 NBsUse=   230 1.00D-06 EigRej= -1.00D+00 NBFU=   230
 ExpMin= 4.38D-02 ExpMax= 5.48D+03 ExpMxC= 8.25D+02 IAcc=2 IRadAn=         4 AccDes= 0.00D+00
 Harris functional with IExCor=20419 and IRadAn=       4 diagonalized for initial guess.
 HarFok:  IExCor=20419 AccDes= 0.00D+00 IRadAn=         4 IDoV= 1 UseB2=F ITyADJ=14
 ICtDFT=  3500011 ScaDFX=  1.000000  1.000000  1.000000  1.000000
 FoFCou: FMM=F IPFlag=           0 FMFlag=      100000 FMFlg1=           0
         NFxFlg=           0 DoJE=T BraDBF=F KetDBF=T FulRan=T
         wScrn=  0.000000 ICntrl=     500 IOpCl=  0 I1Cent=   200000004 NGrid=           0
         NMat0=    1 NMatS0=      1 NMatT0=    0 NMatD0=    1 NMtDS0=    0 NMtDT0=    0
 Petite list used in FoFCou.
 Keep R1 ints in memory in canonical form, NReq=712071980.
 Requested convergence on RMS density matrix=1.00D-08 within 128 cycles.
 Requested convergence on MAX density matrix=1.00D-06.
 Requested convergence on             energy=1.00D-06.
 No special actions if energy rises.
 SCF Done:  E(RCAM-B3LYP) =  -476.356607043     A.U. after   16 cycles
            NFock= 16  Conv=0.45D-08     -V/T= 2.0092

 **********************************************************************

            Population analysis using the SCF density.

 **********************************************************************

 Orbital symmetries:
       Occupied  (A) (A) (A) (A) (A) (A) (A) (A) (A) (A) (A) (A)
                 (A) (A) (A) (A) (A) (A) (A) (A) (A) (A) (A) (A)
                 (A) (A) (A) (A) (A) (A) (A) (A) (A) (A) (A) (A)
       Virtual   (A) (A) (A) (A) (A) (A) (A) (A) (A) (A) (A) (A)
                 (A) (A) (A) (A) (A) (A) (A) (A) (A) (A) (A) (A)
                 (A) (A) (A) (A) (A) (A) (A) (A) (A) (A) (A) (A)
                 (A) (A) (A) (A) (A) (A) (A) (A) (A) (A) (A) (A)
                 (A) (A) (A) (A) (A) (A) (A) (A) (A) (A) (A) (A)
                 (A) (A) (A) (A) (A) (A) (A) (A) (A) (A) (A) (A)
                 (A) (A) (A) (A) (A) (A) (A) (A) (A) (A) (A) (A)
                 (A) (A) (A) (A) (A) (A) (A) (A) (A) (A) (A) (A)
                 (A) (A) (A) (A) (A) (A) (A) (A) (A) (A) (A) (A)
                 (A) (A) (A) (A) (A) (A) (A) (A) (A) (A) (A) (A)
                 (A) (A) (A) (A) (A) (A) (A) (A) (A) (A) (A) (A)
                 (A) (A) (A) (A) (A) (A) (A) (A) (A) (A) (A) (A)
                 (A) (A) (A) (A) (A) (A) (A) (A) (A) (A) (A) (A)
                 (A) (A) (A) (A) (A) (A) (A) (A) (A) (A) (A) (A)
                 (A) (A) (A) (A) (A) (A) (A) (A) (A) (A) (A) (A)
                 (A) (A) (A) (A) (A) (A) (A) (A) (A) (A) (A) (A)
                 (A) (A)
 The electronic state is 1-A.
 Alpha  occ. eigenvalues --  -19.45107 -19.40657 -14.69801 -10.59139 -10.50778
 Alpha  occ. eigenvalues --  -10.46653 -10.45097 -10.44503 -10.44333 -10.43431
 Alpha  occ. eigenvalues --   -1.37903  -1.29107  -1.25549  -1.12158  -1.03133
 Alpha  occ. eigenvalues --   -1.00578  -0.91884  -0.88549  -0.85435  -0.82628
 Alpha  occ. eigenvalues --   -0.81158  -0.78427  -0.75516  -0.74050  -0.70692
 Alpha  occ. eigenvalues --   -0.69730  -0.68309  -0.67576  -0.63840  -0.61391
 Alpha  occ. eigenvalues --   -0.60554  -0.59035  -0.56787  -0.53577  -0.48931
 Alpha  occ. eigenvalues --   -0.48796
 Alpha virt. eigenvalues --   -0.18428  -0.14357  -0.13356  -0.08839  -0.08112
 Alpha virt. eigenvalues --   -0.07266  -0.06608  -0.06342  -0.05306  -0.04540
 Alpha virt. eigenvalues --   -0.03185  -0.02951  -0.01939  -0.01431  -0.00483
 Alpha virt. eigenvalues --   -0.00009   0.01712   0.01982   0.02979   0.03762
 Alpha virt. eigenvalues --    0.03894   0.04352   0.04998   0.06127   0.06960
 Alpha virt. eigenvalues --    0.07641   0.07861   0.08470   0.08700   0.09408
 Alpha virt. eigenvalues --    0.09671   0.10183   0.10864   0.11826   0.11844
 Alpha virt. eigenvalues --    0.12511   0.13504   0.14290   0.14439   0.15793
 Alpha virt. eigenvalues --    0.16035   0.16404   0.16807   0.18151   0.18485
 Alpha virt. eigenvalues --    0.19622   0.19942   0.20760   0.21948   0.22918
 Alpha virt. eigenvalues --    0.24580   0.25140   0.26210   0.27310   0.28782
 Alpha virt. eigenvalues --    0.30838   0.33607   0.35242   0.38034   0.39596
 Alpha virt. eigenvalues --    0.48327   0.51825   0.54696   0.55451   0.57703
 Alpha virt. eigenvalues --    0.58967   0.61189   0.62099   0.63382   0.63430
 Alpha virt. eigenvalues --    0.64116   0.66901   0.67228   0.70860   0.71069
 Alpha virt. eigenvalues --    0.71777   0.74281   0.75973   0.77488   0.81134
 Alpha virt. eigenvalues --    0.83520   0.84440   0.85016   0.86021   0.88715
 Alpha virt. eigenvalues --    0.91491   0.94153   0.94939   0.99613   1.01490
 Alpha virt. eigenvalues --    1.02061   1.03873   1.05429   1.05866   1.08257
 Alpha virt. eigenvalues --    1.10205   1.10462   1.13450   1.14133   1.16970
 Alpha virt. eigenvalues --    1.17150   1.20504   1.21951   1.22565   1.25307
 Alpha virt. eigenvalues --    1.27370   1.27909   1.27973   1.31052   1.31698
 Alpha virt. eigenvalues --    1.31972   1.34387   1.39942   1.48567   1.48856
 Alpha virt. eigenvalues --    1.57364   1.59242   1.61023   1.62018   1.66647
 Alpha virt. eigenvalues --    1.69568   1.71154   1.73799   1.74570   1.76978
 Alpha virt. eigenvalues --    1.80394   1.83679   1.85410   1.88187   1.88660
 Alpha virt. eigenvalues --    1.91268   1.92001   1.92711   1.93774   1.96313
 Alpha virt. eigenvalues --    2.00196   2.01176   2.09484   2.09580   2.17287
 Alpha virt. eigenvalues --    2.19598   2.19870   2.24783   2.26473   2.29028
 Alpha virt. eigenvalues --    2.29030   2.31629   2.32720   2.33748   2.34447
 Alpha virt. eigenvalues --    2.40238   2.42209   2.42992   2.45738   2.47909
 Alpha virt. eigenvalues --    2.50009   2.51509   2.53085   2.54814   2.57272
 Alpha virt. eigenvalues --    2.59716   2.62584   2.65217   2.66886   2.70375
 Alpha virt. eigenvalues --    2.73172   2.78309   2.78546   2.83282   2.87937
 Alpha virt. eigenvalues --    2.96752   3.00127   3.07523   3.09177   3.15983
 Alpha virt. eigenvalues --    3.19319   3.20833   3.24954   3.25746   3.29046
 Alpha virt. eigenvalues --    3.40671   3.41304   3.49401   3.77623   4.11906
 Alpha virt. eigenvalues --    4.17933   4.20096   4.21704   4.27977   4.37807
 Alpha virt. eigenvalues --    4.39507   4.46317   4.71724   4.76246
          Condensed to atoms (all electrons):
               1          2          3          4          5          6
     1  C    6.890556   0.261436   0.691488  -0.732215   0.047940  -1.496151
     2  C    0.261436   5.721232  -0.686571   1.235493  -1.244516   0.950480
     3  C    0.691488  -0.686571  12.649943  -3.618235  -1.008486  -3.015888
     4  C   -0.732215   1.235493  -3.618235  18.474320  -4.289043  -3.361356
     5  C    0.047940  -1.244516  -1.008486  -4.289043  12.630308  -1.324958
     6  C   -1.496151   0.950480  -3.015888  -3.361356  -1.324958  15.293300
     7  C   -0.150962  -0.138076   0.437139  -0.637307  -0.048357  -0.295887
     8  O    0.103638  -0.005876   0.035595   0.014098  -0.049425  -0.128419
     9  N   -0.031424  -0.005878  -0.653817   0.082211   0.336261   0.172904
    10  O    0.042659  -0.009243   0.073307  -0.145836  -0.001254  -0.113519
    11  H    0.252068   0.007337   0.005790  -0.002543   0.015139   0.050589
    12  H    0.043066   0.248678   0.049881  -0.038790   0.023578  -0.000692
    13  H    0.017632   0.046642   0.368031  -0.053739  -0.034182  -0.030500
    14  H    0.047273  -0.016174   0.027124   0.042265   0.066244   0.162408
    15  H   -0.006072  -0.000155   0.002088  -0.011915   0.025510   0.005442
    16  H    0.000640  -0.005103  -0.003516  -0.043257   0.027035   0.003198
    17  H    0.003173  -0.003487   0.161277   0.070816  -0.195728  -0.060924
    18  H    0.000643  -0.005095  -0.003436  -0.043156   0.026889   0.003150
               7          8          9         10         11         12
     1  C   -0.150962   0.103638  -0.031424   0.042659   0.252068   0.043066
     2  C   -0.138076  -0.005876  -0.005878  -0.009243   0.007337   0.248678
     3  C    0.437139   0.035595  -0.653817   0.073307   0.005790   0.049881
     4  C   -0.637307   0.014098   0.082211  -0.145836  -0.002543  -0.038790
     5  C   -0.048357  -0.049425   0.336261  -0.001254   0.015139   0.023578
     6  C   -0.295887  -0.128419   0.172904  -0.113519   0.050589  -0.000692
     7  C    5.625968   0.141155  -0.098246   0.342273  -0.000097   0.001679
     8  O    0.141155   8.277965  -0.013404  -0.153090   0.000111   0.000005
     9  N   -0.098246  -0.013404   7.134961  -0.048508   0.000095  -0.000265
    10  O    0.342273  -0.153090  -0.048508   8.401203   0.000023  -0.000003
    11  H   -0.000097   0.000111   0.000095   0.000023   0.495288  -0.004194
    12  H    0.001679   0.000005  -0.000265  -0.000003  -0.004194   0.495830
    13  H    0.003621   0.000007   0.004359   0.000103  -0.000126  -0.004275
    14  H   -0.013097   0.003603  -0.001283  -0.000001  -0.004164  -0.000124
    15  H    0.014146   0.212230   0.000743   0.000615  -0.000000   0.000000
    16  H    0.001790   0.000174   0.313313   0.001506   0.000000  -0.000002
    17  H    0.028384   0.003590   0.186259   0.092193  -0.000000   0.000001
    18  H    0.001793   0.000173   0.313313   0.001506   0.000000  -0.000002
              13         14         15         16         17         18
     1  C    0.017632   0.047273  -0.006072   0.000640   0.003173   0.000643
     2  C    0.046642  -0.016174  -0.000155  -0.005103  -0.003487  -0.005095
     3  C    0.368031   0.027124   0.002088  -0.003516   0.161277  -0.003436
     4  C   -0.053739   0.042265  -0.011915  -0.043257   0.070816  -0.043156
     5  C   -0.034182   0.066244   0.025510   0.027035  -0.195728   0.026889
     6  C   -0.030500   0.162408   0.005442   0.003198  -0.060924   0.003150
     7  C    0.003621  -0.013097   0.014146   0.001790   0.028384   0.001793
     8  O    0.000007   0.003603   0.212230   0.000174   0.003590   0.000173
     9  N    0.004359  -0.001283   0.000743   0.313313   0.186259   0.313313
    10  O    0.000103  -0.000001   0.000615   0.001506   0.092193   0.001506
    11  H   -0.000126  -0.004164  -0.000000   0.000000  -0.000000   0.000000
    12  H   -0.004275  -0.000124   0.000000  -0.000002   0.000001  -0.000002
    13  H    0.508422   0.000010  -0.000000   0.000289   0.000064   0.000289
    14  H    0.000010   0.485264   0.000049   0.000002   0.000007   0.000002
    15  H   -0.000000   0.000049   0.333750  -0.000001  -0.000032  -0.000001
    16  H    0.000289   0.000002  -0.000001   0.327369  -0.009106  -0.023200
    17  H    0.000064   0.000007  -0.000032  -0.009106   0.278480  -0.009104
    18  H    0.000289   0.000002  -0.000001  -0.023200  -0.009104   0.327363
 Mulliken charges:
               1
     1  C    0.014611
     2  C   -0.351124
     3  C    0.488288
     4  C   -0.941811
     5  C    0.997046
     6  C   -0.813177
     7  C    0.784083
     8  O   -0.442128
     9  N   -0.691594
    10  O   -0.483934
    11  H    0.184685
    12  H    0.185630
    13  H    0.173353
    14  H    0.200591
    15  H    0.423603
    16  H    0.408870
    17  H    0.454136
    18  H    0.408873
 Sum of Mulliken charges =   1.00000
 Mulliken charges with hydrogens summed into heavy atoms:
               1
     1  C    0.199296
     2  C   -0.165495
     3  C    0.661641
     4  C   -0.941811
     5  C    0.997046
     6  C   -0.612585
     7  C    0.784083
     8  O   -0.018526
     9  N    0.580285
    10  O   -0.483934
 Electronic spatial extent (au):  <R**2>=           1368.5407
 Charge=              1.0000 electrons
 Dipole moment (field-independent basis, Debye):
    X=             -1.0540    Y=              4.1757    Z=              0.0002  Tot=              4.3067
 Quadrupole moment (field-independent basis, Debye-Ang):
   XX=            -36.4583   YY=            -29.4012   ZZ=            -56.7303
   XY=             -3.5809   XZ=              0.0008   YZ=              0.0004
 Traceless Quadrupole moment (field-independent basis, Debye-Ang):
   XX=              4.4050   YY=             11.4621   ZZ=            -15.8670
   XY=             -3.5809   XZ=              0.0008   YZ=              0.0004
 Octapole moment (field-independent basis, Debye-Ang**2):
  XXX=             11.4483  YYY=             49.5832  ZZZ=              0.0006  XYY=              0.8580
  XXY=            -25.8858  XXZ=              0.0048  XZZ=             11.3777  YZZ=              9.6649
  YYZ=              0.0013  XYZ=             -0.0007
 Hexadecapole moment (field-independent basis, Debye-Ang**3):
 XXXX=           -798.9359 YYYY=           -410.2160 ZZZZ=            -62.3584 XXXY=            -85.2546
 XXXZ=              0.0137 YYYX=              8.2562 YYYZ=              0.0034 ZZZX=             -0.0010
 ZZZY=              0.0028 XXYY=           -227.1656 XXZZ=           -199.2338 YYZZ=            -98.2456
 XXYZ=             -0.0030 YYXZ=              0.0018 ZZXY=             -3.1072
 N-N= 5.156287426084D+02 E-N=-2.128098942766D+03  KE= 4.720346789225D+02
 Calling FoFJK, ICntrl=      2127 FMM=F ISym2X=0 I1Cent= 0 IOpClX= 0 NMat=1 NMatS=1 NMatT=0.
 ***** Axes restored to original set *****
 -------------------------------------------------------------------
 Center     Atomic                   Forces (Hartrees/Bohr)
 Number     Number              X              Y              Z
 -------------------------------------------------------------------
      1        6          -0.000643209    0.002384387   -0.000000749
      2        6          -0.002533748   -0.000274037    0.000000281
      3        6          -0.001758372   -0.001944343   -0.000002649
      4        6           0.001642238   -0.003290575    0.000001868
      5        6           0.005017166    0.000106735    0.000013051
      6        6          -0.000440108    0.002508206    0.000002495
      7        6          -0.003130034    0.001012069   -0.000048418
      8        8           0.000943173    0.003722338    0.000016048
      9        7          -0.001097447   -0.000453305   -0.000007003
     10        8           0.002798680   -0.005609150    0.000012837
     11        1          -0.000431729    0.000667830   -0.000000328
     12        1          -0.000756534   -0.000095003    0.000000479
     13        1          -0.000623204   -0.000516747   -0.000000216
     14        1           0.000313153    0.000656645    0.000000016
     15        1          -0.000836325   -0.000771673    0.000000773
     16        1           0.000071690   -0.000069219   -0.000313612
     17        1           0.001398147    0.002035381    0.000010317
     18        1           0.000066464   -0.000069539    0.000314808
 -------------------------------------------------------------------
 Cartesian Forces:  Max     0.005609150 RMS     0.001615560

 GradGradGradGradGradGradGradGradGradGradGradGradGradGradGradGradGradGrad
 Berny optimization.
 FormGI is forming the generalized inverse of G from B-inverse, IUseBI=4.
 Internal  Forces:  Max     0.006227811 RMS     0.001438361
 Search for a local minimum.
 Step number   1 out of a maximum of   92
 All quantities printed in internal units (Hartrees-Bohrs-Radians)
 Mixed Optimization -- RFO/linear search
 Second derivative matrix not updated -- first step.
 ITU=  0
     Eigenvalues ---    0.00705   0.01004   0.01590   0.01591   0.01730
     Eigenvalues ---    0.02063   0.02134   0.02146   0.02160   0.02179
     Eigenvalues ---    0.02192   0.02227   0.02781   0.07033   0.07830
     Eigenvalues ---    0.16000   0.16000   0.16000   0.16000   0.16000
     Eigenvalues ---    0.16000   0.16000   0.16000   0.22000   0.22493
     Eigenvalues ---    0.24484   0.25000   0.25000   0.25000   0.25000
     Eigenvalues ---    0.34339   0.35169   0.35198   0.35355   0.35387
     Eigenvalues ---    0.35464   0.35702   0.41676   0.42397   0.43784
     Eigenvalues ---    0.43784   0.45547   0.45832   0.46607   0.47866
     Eigenvalues ---    0.52730   0.62518   0.88783
 RFO step:  Lambda=-4.39368123D-04 EMin= 7.05223089D-03
 Linear search not attempted -- first point.
 Iteration  1 RMS(Cart)=  0.01750734 RMS(Int)=  0.00012441
 Iteration  2 RMS(Cart)=  0.00014464 RMS(Int)=  0.00000424
 Iteration  3 RMS(Cart)=  0.00000001 RMS(Int)=  0.00000424
 Variable       Old X    -DE/DX   Delta X   Delta X   Delta X     New X
                                 (Linear)    (Quad)   (Total)
    R1        2.63446  -0.00369   0.00000  -0.00795  -0.00795   2.62651
    R2        2.63105  -0.00293   0.00000  -0.00623  -0.00623   2.62482
    R3        2.05051  -0.00080   0.00000  -0.00224  -0.00224   2.04827
    R4        2.64034  -0.00317   0.00000  -0.00690  -0.00690   2.63344
    R5        2.05102  -0.00076   0.00000  -0.00214  -0.00214   2.04888
    R6        2.61588  -0.00381   0.00000  -0.00787  -0.00787   2.60801
    R7        2.05402  -0.00075   0.00000  -0.00214  -0.00214   2.05188
    R8        2.65641  -0.00216   0.00000  -0.00478  -0.00478   2.65163
    R9        2.78655   0.00100   0.00000   0.00283   0.00283   2.78939
   R10        2.64638  -0.00417   0.00000  -0.00912  -0.00912   2.63726
   R11        2.80062   0.00023   0.00000   0.00066   0.00066   2.80128
   R12        2.04928  -0.00073   0.00000  -0.00205  -0.00205   2.04723
   R13        2.49002  -0.00273   0.00000  -0.00436  -0.00436   2.48566
   R14        2.33499  -0.00623   0.00000  -0.00701  -0.00701   2.32798
   R15        1.83906   0.00076   0.00000   0.00145   0.00145   1.84051
   R16        1.93413   0.00023   0.00000   0.00052   0.00052   1.93466
   R17        2.04550  -0.00193   0.00000  -0.00540  -0.00540   2.04010
   R18        1.93413   0.00023   0.00000   0.00052   0.00052   1.93465
    A1        2.09893  -0.00009   0.00000  -0.00053  -0.00053   2.09839
    A2        2.09509   0.00007   0.00000   0.00043   0.00043   2.09552
    A3        2.08917   0.00002   0.00000   0.00010   0.00010   2.08927
    A4        2.09984  -0.00005   0.00000  -0.00039  -0.00039   2.09945
    A5        2.09917  -0.00006   0.00000  -0.00030  -0.00030   2.09888
    A6        2.08417   0.00010   0.00000   0.00069   0.00069   2.08486
    A7        2.07471   0.00046   0.00000   0.00199   0.00199   2.07670
    A8        2.09993   0.00007   0.00000   0.00090   0.00089   2.10083
    A9        2.10854  -0.00053   0.00000  -0.00288  -0.00288   2.10566
   A10        2.12874  -0.00065   0.00000  -0.00255  -0.00255   2.12618
   A11        2.09348  -0.00292   0.00000  -0.01167  -0.01167   2.08181
   A12        2.06097   0.00357   0.00000   0.01422   0.01422   2.07519
   A13        2.06288   0.00023   0.00000   0.00102   0.00102   2.06390
   A14        2.10020   0.00242   0.00000   0.00959   0.00959   2.10979
   A15        2.12010  -0.00264   0.00000  -0.01061  -0.01061   2.10949
   A16        2.10127   0.00010   0.00000   0.00048   0.00047   2.10174
   A17        2.10341   0.00000   0.00000   0.00006   0.00006   2.10347
   A18        2.07851  -0.00010   0.00000  -0.00054  -0.00054   2.07797
   A19        2.00109   0.00027   0.00000   0.00108   0.00108   2.00217
   A20        2.14666   0.00071   0.00000   0.00283   0.00283   2.14949
   A21        2.13544  -0.00098   0.00000  -0.00390  -0.00391   2.13153
   A22        1.90937   0.00155   0.00000   0.00968   0.00968   1.91906
   A23        1.95740  -0.00057   0.00000  -0.00434  -0.00435   1.95305
   A24        1.82783   0.00239   0.00000   0.01635   0.01635   1.84418
   A25        1.95741  -0.00057   0.00000  -0.00435  -0.00437   1.95304
   A26        1.91645  -0.00073   0.00000  -0.00314  -0.00314   1.91331
   A27        1.88774   0.00023   0.00000  -0.00105  -0.00107   1.88667
   A28        1.91648  -0.00074   0.00000  -0.00325  -0.00325   1.91323
    D1       -0.00001   0.00000   0.00000   0.00003   0.00003   0.00002
    D2       -3.14159   0.00000   0.00000  -0.00000  -0.00000   3.14159
    D3       -3.14159   0.00000   0.00000   0.00000   0.00000  -3.14159
    D4        0.00001  -0.00000   0.00000  -0.00003  -0.00003  -0.00002
    D5       -0.00000   0.00000   0.00000   0.00001   0.00001   0.00001
    D6       -3.14158  -0.00000   0.00000  -0.00006  -0.00006   3.14155
    D7        3.14158   0.00000   0.00000   0.00004   0.00004  -3.14157
    D8        0.00001  -0.00000   0.00000  -0.00003  -0.00003  -0.00003
    D9       -0.00000   0.00000   0.00000   0.00001   0.00001   0.00000
   D10       -3.14158  -0.00000   0.00000  -0.00005  -0.00005   3.14155
   D11        3.14158   0.00000   0.00000   0.00004   0.00004  -3.14157
   D12        0.00001  -0.00000   0.00000  -0.00002  -0.00002  -0.00002
   D13        0.00002  -0.00000   0.00000  -0.00008  -0.00008  -0.00006
   D14       -3.14156  -0.00000   0.00000  -0.00013  -0.00013   3.14150
   D15       -3.14159  -0.00000   0.00000  -0.00002  -0.00002   3.14158
   D16        0.00002  -0.00000   0.00000  -0.00007  -0.00007  -0.00005
   D17       -0.00003   0.00000   0.00000   0.00012   0.00012   0.00009
   D18        3.14154   0.00000   0.00000   0.00020   0.00020  -3.14145
   D19        3.14155   0.00000   0.00000   0.00016   0.00016  -3.14147
   D20       -0.00007   0.00000   0.00000   0.00024   0.00024   0.00017
   D21        1.06405  -0.00027   0.00000  -0.00361  -0.00360   1.06045
   D22        3.14149   0.00001   0.00000   0.00033   0.00033  -3.14137
   D23       -1.06422   0.00027   0.00000   0.00413   0.00412  -1.06010
   D24       -2.07753  -0.00027   0.00000  -0.00365  -0.00364  -2.08117
   D25       -0.00010   0.00001   0.00000   0.00029   0.00029   0.00020
   D26        2.07738   0.00027   0.00000   0.00409   0.00408   2.08146
   D27        0.00002  -0.00000   0.00000  -0.00008  -0.00008  -0.00006
   D28       -3.14159  -0.00000   0.00000  -0.00001  -0.00001   3.14158
   D29       -3.14155  -0.00000   0.00000  -0.00016  -0.00016   3.14148
   D30        0.00002  -0.00000   0.00000  -0.00009  -0.00009  -0.00006
   D31        3.14135   0.00001   0.00000   0.00089   0.00090  -3.14094
   D32        0.00008  -0.00001   0.00000  -0.00040  -0.00040  -0.00032
   D33       -0.00026   0.00001   0.00000   0.00097   0.00097   0.00071
   D34       -3.14153  -0.00001   0.00000  -0.00033  -0.00033   3.14133
   D35       -3.14142  -0.00001   0.00000  -0.00068  -0.00067   3.14109
   D36       -0.00015   0.00001   0.00000   0.00061   0.00061   0.00046
         Item               Value     Threshold  Converged?
 Maximum Force            0.006228     0.000450     NO 
 RMS     Force            0.001438     0.000300     NO 
 Maximum Displacement     0.082560     0.001800     NO 
 RMS     Displacement     0.017507     0.001200     NO 
 Predicted change in Energy=-2.199945D-04
 GradGradGradGradGradGradGradGradGradGradGradGradGradGradGradGradGradGrad

                          Input orientation:                          
 ---------------------------------------------------------------------
 Center     Atomic      Atomic             Coordinates (Angstroms)
 Number     Number       Type             X           Y           Z
 ---------------------------------------------------------------------
      1          6           0        1.933528   -1.461815    0.000006
      2          6           0        2.608894   -0.247042    0.000073
      3          6           0        1.898720    0.951977    0.000032
      4          6           0        0.519196    0.912193   -0.000072
      5          6           0       -0.185985   -0.300918   -0.000207
      6          6           0        0.544817   -1.489855   -0.000128
      7          6           0       -1.668246   -0.319358   -0.000497
      8          8           0       -2.203312   -1.520964    0.000182
      9          7           0       -0.239516    2.178355   -0.000001
     10          8           0       -2.354792    0.703514   -0.000304
     11          1           0        2.489554   -2.392229    0.000041
     12          1           0        3.692884   -0.224630    0.000178
     13          1           0        2.425019    1.901705    0.000120
     14          1           0        0.013599   -2.434023   -0.000221
     15          1           0       -3.174837   -1.452190    0.000400
     16          1           0       -0.037731    2.744510   -0.828775
     17          1           0       -1.280990    1.894083    0.000132
     18          1           0       -0.037595    2.744484    0.828758
 ---------------------------------------------------------------------
                    Distance matrix (angstroms):
                    1          2          3          4          5
     1  C    0.000000
     2  C    1.389889   0.000000
     3  C    2.414043   1.393554   0.000000
     4  C    2.763376   2.389699   1.380098   0.000000
     5  C    2.416613   2.795398   2.432230   1.403182   0.000000
     6  C    1.388995   2.409356   2.792060   2.402184   1.395580
     7  C    3.778623   4.277751   3.786759   2.510303   1.482376
     8  O    4.137263   4.977972   4.789792   3.651343   2.357567
     9  N    4.239453   3.741121   2.464966   1.476079   2.479851
    10  O    4.803993   5.053883   4.260763   2.881555   2.390106
    11  H    1.083898   2.148503   3.395997   3.847273   3.395893
    12  H    2.150805   1.084222   2.145560   3.371151   3.879620
    13  H    3.399240   2.156600   1.085806   2.147392   3.415976
    14  H    2.152049   3.393882   3.875393   3.384196   2.142421
    15  H    5.108374   5.907954   5.614357   4.385908   3.202914
    16  H    4.718677   4.079338   2.765852   2.086697   3.159610
    17  H    4.647061   4.440226   3.316341   2.050555   2.452970
    18  H    4.718592   4.079197   2.765716   2.086688   3.159696
                    6          7          8          9         10
     6  C    0.000000
     7  C    2.503540   0.000000
     8  O    2.748305   1.315353   0.000000
     9  N    3.751125   2.877471   4.188253   0.000000
    10  O    3.635739   1.231914   2.229630   2.578672   0.000000
    11  H    2.143894   4.645869   4.773059   5.323350   5.749028
    12  H    3.392805   5.361967   6.037020   4.608482   6.118484
    13  H    3.877865   4.657031   5.756397   2.678858   4.927703
    14  H    1.083349   2.701928   2.397576   4.619318   3.931084
    15  H    3.719844   1.884973   0.973956   4.668722   2.306412
    16  H    4.353833   3.568180   4.855016   1.023775   3.196999
    17  H    3.845075   2.247062   3.537404   1.079573   1.603280
    18  H    4.353835   3.568447   4.854989   1.023775   3.197234
                   11         12         13         14         15
    11  H    0.000000
    12  H    2.479211   0.000000
    13  H    4.294419   2.475638   0.000000
    14  H    2.476307   4.291684   4.961197   0.000000
    15  H    5.741863   6.976567   6.527403   3.336183   0.000000
    16  H    5.784478   4.839467   2.731762   5.244648   5.304833
    17  H    5.708719   5.406326   3.706016   4.517572   3.845023
    18  H    5.784382   4.839283   2.731553   5.244689   5.304766
                   16         17         18
    16  H    0.000000
    17  H    1.719304   0.000000
    18  H    1.657534   1.719254   0.000000
 Stoichiometry    C7H8NO2(1+)
 Framework group  C1[X(C7H8NO2)]
 Deg. of freedom    48
 Full point group                 C1      NOp   1
 Largest Abelian subgroup         C1      NOp   1
 Largest concise Abelian subgroup C1      NOp   1
                         Standard orientation:                         
 ---------------------------------------------------------------------
 Center     Atomic      Atomic             Coordinates (Angstroms)
 Number     Number       Type             X           Y           Z
 ---------------------------------------------------------------------
      1          6           0       -1.917261   -1.482481   -0.000076
      2          6           0       -2.607664   -0.276191   -0.000143
      3          6           0       -1.912440    0.931557   -0.000101
      4          6           0       -0.532528    0.908912    0.000002
      5          6           0        0.187668   -0.295345    0.000137
      6          6           0       -0.528308   -1.493268    0.000058
      7          6           0        1.670044   -0.295371    0.000427
      8          8           0        2.219995   -1.490238   -0.000252
      9          7           0        0.210397    2.184402   -0.000069
     10          8           0        2.343831    0.735951    0.000234
     11          1           0       -2.461686   -2.419730   -0.000111
     12          1           0       -3.691849   -0.267246   -0.000248
     13          1           0       -2.450495    1.874675   -0.000189
     14          1           0        0.014596   -2.430764    0.000151
     15          1           0        3.190590   -1.409401   -0.000470
     16          1           0        0.001595    2.748006    0.828706
     17          1           0        1.255322    1.913089   -0.000202
     18          1           0        0.001460    2.747979   -0.828828
 ---------------------------------------------------------------------
 Rotational constants (GHZ):      2.2443210      1.2131995      0.7909159
 Standard basis: 6-31+G(d,p) (6D, 7F)
 There are   230 symmetry adapted cartesian basis functions of A   symmetry.
 There are   230 symmetry adapted basis functions of A   symmetry.
   230 basis functions,   376 primitive gaussians,   230 cartesian basis functions
    36 alpha electrons       36 beta electrons
       nuclear repulsion energy       515.8868386274 Hartrees.
 NAtoms=   18 NActive=   18 NUniq=   18 SFac= 1.00D+00 NAtFMM=   60 NAOKFM=F Big=F
 Integral buffers will be    131072 words long.
 Raffenetti 2 integral format.
 Two-electron integral symmetry is turned on.
 Nuclear repulsion after empirical dispersion term =      515.8779207339 Hartrees.
 One-electron integrals computed using PRISM.
 NBasis=   230 RedAO= T EigKep=  2.22D-06  NBF=   230
 NBsUse=   230 1.00D-06 EigRej= -1.00D+00 NBFU=   230
 Initial guess from the checkpoint file:  "camb3lypD3Anthranilicyang.chk"
 B after Tr=     0.000000    0.000000    0.000000
         Rot=    0.999987   -0.000012    0.000016   -0.005167 Ang=  -0.59 deg.
 ExpMin= 4.38D-02 ExpMax= 5.48D+03 ExpMxC= 8.25D+02 IAcc=2 IRadAn=         4 AccDes= 0.00D+00
 Harris functional with IExCor=20419 and IRadAn=       4 diagonalized for initial guess.
 HarFok:  IExCor=20419 AccDes= 0.00D+00 IRadAn=         4 IDoV= 1 UseB2=F ITyADJ=14
 ICtDFT=  3500011 ScaDFX=  1.000000  1.000000  1.000000  1.000000
 FoFCou: FMM=F IPFlag=           0 FMFlag=      100000 FMFlg1=           0
         NFxFlg=           0 DoJE=T BraDBF=F KetDBF=T FulRan=T
         wScrn=  0.000000 ICntrl=     500 IOpCl=  0 I1Cent=   200000004 NGrid=           0
         NMat0=    1 NMatS0=      1 NMatT0=    0 NMatD0=    1 NMtDS0=    0 NMtDT0=    0
 Petite list used in FoFCou.
 Keep R1 ints in memory in canonical form, NReq=712071980.
 Requested convergence on RMS density matrix=1.00D-08 within 128 cycles.
 Requested convergence on MAX density matrix=1.00D-06.
 Requested convergence on             energy=1.00D-06.
 No special actions if energy rises.
 SCF Done:  E(RCAM-B3LYP) =  -476.356673011     A.U. after   13 cycles
            NFock= 13  Conv=0.90D-08     -V/T= 2.0090
 Calling FoFJK, ICntrl=      2127 FMM=F ISym2X=0 I1Cent= 0 IOpClX= 0 NMat=1 NMatS=1 NMatT=0.
 ***** Axes restored to original set *****
 -------------------------------------------------------------------
 Center     Atomic                   Forces (Hartrees/Bohr)
 Number     Number              X              Y              Z
 -------------------------------------------------------------------
      1        6           0.000728206   -0.000146521    0.000002524
      2        6           0.000551976   -0.000156378   -0.000000422
      3        6           0.000124953    0.000506557    0.000006613
      4        6          -0.000676712   -0.001991800   -0.000004850
      5        6           0.000989802    0.000469054   -0.000039466
      6        6          -0.000376495    0.000077956   -0.000006919
      7        6          -0.003579266    0.003284307    0.000143452
      8        8           0.000172866   -0.001237902   -0.000044212
      9        7          -0.006486781   -0.002085386    0.000011563
     10        8           0.003615285    0.000393232   -0.000043984
     11        1           0.000066015   -0.000066243    0.000000811
     12        1           0.000065131    0.000018675   -0.000001236
     13        1           0.000125590    0.000144677    0.000000786
     14        1          -0.000000460    0.000050273   -0.000000192
     15        1           0.000459632    0.000233936   -0.000003023
     16        1          -0.000275731   -0.000041361   -0.000338428
     17        1           0.004760597    0.000587546   -0.000019891
     18        1          -0.000264610   -0.000040623    0.000336875
 -------------------------------------------------------------------
 Cartesian Forces:  Max     0.006486781 RMS     0.001462299

 GradGradGradGradGradGradGradGradGradGradGradGradGradGradGradGradGradGrad
 Berny optimization.
 Using GEDIIS/GDIIS optimizer.
 FormGI is forming the generalized inverse of G from B-inverse, IUseBI=4.
 Internal  Forces:  Max     0.007027036 RMS     0.001656515
 Search for a local minimum.
 Step number   2 out of a maximum of   92
 All quantities printed in internal units (Hartrees-Bohrs-Radians)
 Mixed Optimization -- RFO/linear search
 Update second derivatives using D2CorX and points    1    2
 DE= -6.60D-05 DEPred=-2.20D-04 R= 3.00D-01
 Trust test= 3.00D-01 RLast= 3.90D-02 DXMaxT set to 3.00D-01
 ITU=  0  0
 Use linear search instead of GDIIS.
     Eigenvalues ---    0.00705   0.01004   0.01587   0.01589   0.01730
     Eigenvalues ---    0.02064   0.02134   0.02146   0.02160   0.02179
     Eigenvalues ---    0.02192   0.02227   0.02781   0.07129   0.07745
     Eigenvalues ---    0.14177   0.16000   0.16000   0.16000   0.16000
     Eigenvalues ---    0.16000   0.16000   0.16004   0.21981   0.22424
     Eigenvalues ---    0.23273   0.24532   0.25000   0.25000   0.30120
     Eigenvalues ---    0.34271   0.34862   0.35180   0.35302   0.35372
     Eigenvalues ---    0.35448   0.38358   0.39906   0.42311   0.43784
     Eigenvalues ---    0.43785   0.45355   0.46585   0.47032   0.52658
     Eigenvalues ---    0.61271   0.80921   0.86216
 RFO step:  Lambda=-2.21459287D-04 EMin= 7.05229672D-03
 Quartic linear search produced a step of -0.41496.
 Iteration  1 RMS(Cart)=  0.01294848 RMS(Int)=  0.00005161
 Iteration  2 RMS(Cart)=  0.00006904 RMS(Int)=  0.00000222
 Iteration  3 RMS(Cart)=  0.00000000 RMS(Int)=  0.00000222
 Variable       Old X    -DE/DX   Delta X   Delta X   Delta X     New X
                                 (Linear)    (Quad)   (Total)
    R1        2.62651   0.00100   0.00330  -0.00575  -0.00246   2.62405
    R2        2.62482   0.00140   0.00259  -0.00381  -0.00123   2.62359
    R3        2.04827   0.00009   0.00093  -0.00188  -0.00095   2.04732
    R4        2.63344   0.00083   0.00286  -0.00512  -0.00226   2.63118
    R5        2.04888   0.00007   0.00089  -0.00183  -0.00094   2.04794
    R6        2.60801   0.00026   0.00327  -0.00699  -0.00372   2.60429
    R7        2.05188   0.00019   0.00089  -0.00163  -0.00074   2.05114
    R8        2.65163  -0.00469   0.00198  -0.01074  -0.00876   2.64287
    R9        2.78939  -0.00019  -0.00118   0.00225   0.00108   2.79046
   R10        2.63726  -0.00009   0.00378  -0.00854  -0.00476   2.63251
   R11        2.80128  -0.00070  -0.00027  -0.00060  -0.00087   2.80041
   R12        2.04723  -0.00004   0.00085  -0.00193  -0.00108   2.04616
   R13        2.48566   0.00066   0.00181  -0.00338  -0.00157   2.48409
   R14        2.32798  -0.00169   0.00291  -0.00756  -0.00465   2.32333
   R15        1.84051  -0.00044  -0.00060   0.00083   0.00023   1.84074
   R16        1.93466   0.00020  -0.00022   0.00074   0.00052   1.93518
   R17        2.04010  -0.00475   0.00224  -0.01267  -0.01043   2.02967
   R18        1.93465   0.00020  -0.00022   0.00074   0.00052   1.93518
    A1        2.09839  -0.00009   0.00022   0.00017   0.00039   2.09878
    A2        2.09552   0.00002  -0.00018  -0.00002  -0.00020   2.09532
    A3        2.08927   0.00007  -0.00004  -0.00014  -0.00018   2.08909
    A4        2.09945  -0.00028   0.00016  -0.00024  -0.00008   2.09937
    A5        2.09888   0.00016   0.00012  -0.00025  -0.00012   2.09875
    A6        2.08486   0.00012  -0.00029   0.00049   0.00020   2.08506
    A7        2.07670  -0.00112  -0.00082  -0.00111  -0.00193   2.07477
    A8        2.10083   0.00052  -0.00037   0.00206   0.00169   2.10252
    A9        2.10566   0.00060   0.00120  -0.00096   0.00024   2.10590
   A10        2.12618   0.00153   0.00106   0.00072   0.00178   2.12796
   A11        2.08181   0.00405   0.00484  -0.00070   0.00415   2.08596
   A12        2.07519  -0.00559  -0.00590  -0.00002  -0.00592   2.06927
   A13        2.06390   0.00106  -0.00042   0.00282   0.00240   2.06630
   A14        2.10979  -0.00703  -0.00398  -0.00754  -0.01152   2.09827
   A15        2.10949   0.00597   0.00440   0.00472   0.00913   2.11862
   A16        2.10174  -0.00110  -0.00020  -0.00235  -0.00255   2.09919
   A17        2.10347   0.00057  -0.00003   0.00153   0.00151   2.10498
   A18        2.07797   0.00052   0.00022   0.00082   0.00104   2.07901
   A19        2.00217   0.00119  -0.00045   0.00375   0.00330   2.00547
   A20        2.14949  -0.00434  -0.00117  -0.00762  -0.00879   2.14069
   A21        2.13153   0.00315   0.00162   0.00387   0.00549   2.13702
   A22        1.91906  -0.00049  -0.00402   0.00672   0.00270   1.92175
   A23        1.95305   0.00028   0.00181  -0.00217  -0.00036   1.95269
   A24        1.84418  -0.00120  -0.00679   0.00876   0.00198   1.84616
   A25        1.95304   0.00028   0.00181  -0.00217  -0.00035   1.95269
   A26        1.91331   0.00019   0.00130  -0.00329  -0.00198   1.91133
   A27        1.88667   0.00022   0.00045   0.00198   0.00243   1.88910
   A28        1.91323   0.00021   0.00135  -0.00325  -0.00190   1.91133
    D1        0.00002  -0.00000  -0.00001  -0.00002  -0.00003  -0.00001
    D2        3.14159   0.00000   0.00000   0.00001   0.00001  -3.14159
    D3       -3.14159  -0.00000  -0.00000  -0.00000  -0.00000  -3.14159
    D4       -0.00002   0.00000   0.00001   0.00002   0.00003   0.00001
    D5        0.00001  -0.00000  -0.00001  -0.00002  -0.00002  -0.00001
    D6        3.14155   0.00000   0.00002   0.00004   0.00007  -3.14157
    D7       -3.14157  -0.00000  -0.00002  -0.00003  -0.00005   3.14157
    D8       -0.00003   0.00000   0.00001   0.00003   0.00004   0.00002
    D9        0.00000  -0.00000  -0.00000  -0.00000  -0.00001  -0.00000
   D10        3.14155   0.00000   0.00002   0.00003   0.00005  -3.14158
   D11       -3.14157  -0.00000  -0.00001  -0.00003  -0.00004   3.14158
   D12       -0.00002   0.00000   0.00001   0.00001   0.00002   0.00001
   D13       -0.00006   0.00000   0.00003   0.00006   0.00009   0.00003
   D14        3.14150   0.00001   0.00005   0.00008   0.00013  -3.14155
   D15        3.14158   0.00000   0.00001   0.00002   0.00003  -3.14158
   D16       -0.00005   0.00000   0.00003   0.00004   0.00007   0.00002
   D17        0.00009  -0.00001  -0.00005  -0.00009  -0.00014  -0.00005
   D18       -3.14145  -0.00001  -0.00008  -0.00015  -0.00023   3.14150
   D19       -3.14147  -0.00001  -0.00007  -0.00011  -0.00018   3.14153
   D20        0.00017  -0.00001  -0.00010  -0.00017  -0.00027  -0.00010
   D21        1.06045   0.00034   0.00149  -0.00062   0.00087   1.06132
   D22       -3.14137  -0.00001  -0.00014  -0.00036  -0.00050   3.14132
   D23       -1.06010  -0.00034  -0.00171  -0.00006  -0.00177  -1.06187
   D24       -2.08117   0.00034   0.00151  -0.00060   0.00091  -2.08027
   D25        0.00020  -0.00001  -0.00012  -0.00034  -0.00046  -0.00027
   D26        2.08146  -0.00034  -0.00169  -0.00004  -0.00173   2.07973
   D27       -0.00006   0.00000   0.00004   0.00007   0.00010   0.00004
   D28        3.14158   0.00000   0.00001   0.00001   0.00002  -3.14159
   D29        3.14148   0.00001   0.00007   0.00013   0.00019  -3.14151
   D30       -0.00006   0.00000   0.00004   0.00007   0.00011   0.00004
   D31       -3.14094  -0.00004  -0.00037  -0.00115  -0.00152   3.14073
   D32       -0.00032   0.00003   0.00017   0.00069   0.00086   0.00054
   D33        0.00071  -0.00004  -0.00040  -0.00121  -0.00161  -0.00090
   D34        3.14133   0.00003   0.00014   0.00063   0.00076  -3.14109
   D35        3.14109   0.00003   0.00028   0.00094   0.00122  -3.14087
   D36        0.00046  -0.00003  -0.00025  -0.00087  -0.00113  -0.00068
         Item               Value     Threshold  Converged?
 Maximum Force            0.007027     0.000450     NO 
 RMS     Force            0.001657     0.000300     NO 
 Maximum Displacement     0.049895     0.001800     NO 
 RMS     Displacement     0.012961     0.001200     NO 
 Predicted change in Energy=-1.729646D-04
 GradGradGradGradGradGradGradGradGradGradGradGradGradGradGradGradGradGrad

                          Input orientation:                          
 ---------------------------------------------------------------------
 Center     Atomic      Atomic             Coordinates (Angstroms)
 Number     Number       Type             X           Y           Z
 ---------------------------------------------------------------------
      1          6           0        1.937895   -1.461062    0.000033
      2          6           0        2.609927   -0.245926   -0.000112
      3          6           0        1.897606    0.950428   -0.000097
      4          6           0        0.520230    0.904864    0.000059
      5          6           0       -0.179647   -0.305965    0.000243
      6          6           0        0.549910   -1.492713    0.000202
      7          6           0       -1.661553   -0.310968    0.000520
      8          8           0       -2.211087   -1.505114   -0.000352
      9          7           0       -0.249366    2.165107    0.000023
     10          8           0       -2.328389    0.721931    0.000045
     11          1           0        2.495919   -2.389690    0.000022
     12          1           0        3.693369   -0.221247   -0.000248
     13          1           0        2.419916    1.901909   -0.000225
     14          1           0        0.020015   -2.436970    0.000336
     15          1           0       -3.182023   -1.426942   -0.000761
     16          1           0       -0.052812    2.732289   -0.829647
     17          1           0       -1.283685    1.875657   -0.000120
     18          1           0       -0.053018    2.732209    0.829796
 ---------------------------------------------------------------------
                    Distance matrix (angstroms):
                    1          2          3          4          5
     1  C    0.000000
     2  C    1.388590   0.000000
     3  C    2.411826   1.392359   0.000000
     4  C    2.758147   2.385613   1.378129   0.000000
     5  C    2.412101   2.790220   2.427654   1.398547   0.000000
     6  C    1.388346   2.407935   2.790201   2.397760   1.393063
     7  C    3.778723   4.271975   3.776074   2.497684   1.481915
     8  O    4.149216   4.982743   4.786548   3.642538   2.358963
     9  N    4.234762   3.740138   2.466766   1.476649   2.472055
    10  O    4.792352   5.032267   4.232168   2.854487   2.381945
    11  H    1.083394   2.146794   3.393283   3.841541   3.391248
    12  H    2.149146   1.083723   2.144198   3.367036   3.873942
    13  H    3.397339   2.156223   1.085414   2.145438   3.410636
    14  H    2.151898   3.392392   3.872959   3.379063   2.140338
    15  H    5.120033   5.911133   5.608433   4.375386   3.204817
    16  H    4.715451   4.080205   2.768992   2.087169   3.152109
    17  H    4.638132   4.434110   3.313104   2.048548   2.445072
    18  H    4.715481   4.080357   2.769188   2.087168   3.151936
                    6          7          8          9         10
     6  C    0.000000
     7  C    2.507407   0.000000
     8  O    2.761025   1.314524   0.000000
     9  N    3.744127   2.850477   4.161594   0.000000
    10  O    3.631701   1.229451   2.230131   2.530829   0.000000
    11  H    2.142783   4.648189   4.789404   5.318155   5.740744
    12  H    3.390864   5.355674   6.042426   4.608670   6.095175
    13  H    3.875614   4.642760   5.749260   2.682227   4.892725
    14  H    1.082779   2.710637   2.417886   4.609954   3.936198
    15  H    3.732513   1.886062   0.974078   4.637164   2.312216
    16  H    4.347708   3.540994   4.827159   1.024051   3.147726
    17  H    3.835100   2.219035   3.505665   1.074056   1.556436
    18  H    4.347611   3.540623   4.827143   1.024051   3.147542
                   11         12         13         14         15
    11  H    0.000000
    12  H    2.477102   0.000000
    13  H    4.292272   2.475777   0.000000
    14  H    2.476356   4.289867   4.958366   0.000000
    15  H    5.758986   6.980310   6.516362   3.357559   0.000000
    16  H    5.780922   4.842019   2.737126   5.235973   5.270504
    17  H    5.699000   5.400747   3.703694   4.505373   3.809311
    18  H    5.780957   4.842240   2.737470   5.235814   5.270582
                   16         17         18
    16  H    0.000000
    17  H    1.713762   0.000000
    18  H    1.659443   1.713762   0.000000
 Stoichiometry    C7H8NO2(1+)
 Framework group  C1[X(C7H8NO2)]
 Deg. of freedom    48
 Full point group                 C1      NOp   1
 Largest Abelian subgroup         C1      NOp   1
 Largest concise Abelian subgroup C1      NOp   1
                         Standard orientation:                         
 ---------------------------------------------------------------------
 Center     Atomic      Atomic             Coordinates (Angstroms)
 Number     Number       Type             X           Y           Z
 ---------------------------------------------------------------------
      1          6           0       -1.932420   -1.466020   -0.000007
      2          6           0       -2.608512   -0.253139    0.000138
      3          6           0       -1.900197    0.945591    0.000124
      4          6           0       -0.522677    0.904635   -0.000032
      5          6           0        0.181247   -0.303846   -0.000216
      6          6           0       -0.544336   -1.493028   -0.000175
      7          6           0        1.663161   -0.303892   -0.000494
      8          8           0        2.216687   -1.496192    0.000379
      9          7           0        0.242699    2.167445    0.000004
     10          8           0        2.326539    0.731232   -0.000018
     11          1           0       -2.487334   -2.396510    0.000005
     12          1           0       -3.692031   -0.232084    0.000275
     13          1           0       -2.425688    1.895320    0.000252
     14          1           0       -0.011285   -2.435507   -0.000309
     15          1           0        3.187356   -1.414773    0.000788
     16          1           0        0.044250    2.733967    0.829673
     17          1           0        1.277981    1.881457    0.000146
     18          1           0        0.044456    2.733888   -0.829769
 ---------------------------------------------------------------------
 Rotational constants (GHZ):      2.2597652      1.2169801      0.7944463
 Standard basis: 6-31+G(d,p) (6D, 7F)
 There are   230 symmetry adapted cartesian basis functions of A   symmetry.
 There are   230 symmetry adapted basis functions of A   symmetry.
   230 basis functions,   376 primitive gaussians,   230 cartesian basis functions
    36 alpha electrons       36 beta electrons
       nuclear repulsion energy       516.9472957092 Hartrees.
 NAtoms=   18 NActive=   18 NUniq=   18 SFac= 1.00D+00 NAtFMM=   60 NAOKFM=F Big=F
 Integral buffers will be    131072 words long.
 Raffenetti 2 integral format.
 Two-electron integral symmetry is turned on.
 Nuclear repulsion after empirical dispersion term =      516.9383959965 Hartrees.
 One-electron integrals computed using PRISM.
 NBasis=   230 RedAO= T EigKep=  2.19D-06  NBF=   230
 NBsUse=   230 1.00D-06 EigRej= -1.00D+00 NBFU=   230
 Initial guess from the checkpoint file:  "camb3lypD3Anthranilicyang.chk"
 B after Tr=    -0.000000    0.000000   -0.000000
         Rot=    0.999993    0.000012   -0.000019    0.003685 Ang=   0.42 deg.
 ExpMin= 4.38D-02 ExpMax= 5.48D+03 ExpMxC= 8.25D+02 IAcc=2 IRadAn=         4 AccDes= 0.00D+00
 Harris functional with IExCor=20419 and IRadAn=       4 diagonalized for initial guess.
 HarFok:  IExCor=20419 AccDes= 0.00D+00 IRadAn=         4 IDoV= 1 UseB2=F ITyADJ=14
 ICtDFT=  3500011 ScaDFX=  1.000000  1.000000  1.000000  1.000000
 FoFCou: FMM=F IPFlag=           0 FMFlag=      100000 FMFlg1=           0
         NFxFlg=           0 DoJE=T BraDBF=F KetDBF=T FulRan=T
         wScrn=  0.000000 ICntrl=     500 IOpCl=  0 I1Cent=   200000004 NGrid=           0
         NMat0=    1 NMatS0=      1 NMatT0=    0 NMatD0=    1 NMtDS0=    0 NMtDT0=    0
 Petite list used in FoFCou.
 Keep R1 ints in memory in canonical form, NReq=712071980.
 Requested convergence on RMS density matrix=1.00D-08 within 128 cycles.
 Requested convergence on MAX density matrix=1.00D-06.
 Requested convergence on             energy=1.00D-06.
 No special actions if energy rises.
 SCF Done:  E(RCAM-B3LYP) =  -476.356713585     A.U. after   13 cycles
            NFock= 13  Conv=0.38D-08     -V/T= 2.0089
 Calling FoFJK, ICntrl=      2127 FMM=F ISym2X=0 I1Cent= 0 IOpClX= 0 NMat=1 NMatS=1 NMatT=0.
 ***** Axes restored to original set *****
 -------------------------------------------------------------------
 Center     Atomic                   Forces (Hartrees/Bohr)
 Number     Number              X              Y              Z
 -------------------------------------------------------------------
      1        6           0.000650651   -0.001372417   -0.000003931
      2        6           0.001478216    0.000091320    0.000000470
      3        6           0.001210176    0.001491034   -0.000005624
      4        6          -0.001298579    0.001869172    0.000005997
      5        6          -0.001874634   -0.000491255    0.000058094
      6        6          -0.000211353   -0.001366627    0.000006531
      7        6           0.000050851   -0.000472709   -0.000202325
      8        8          -0.000118200   -0.001102723    0.000062147
      9        7           0.001371419    0.001712309   -0.000004121
     10        8          -0.003578769    0.000798021    0.000068554
     11        1           0.000251019   -0.000387735   -0.000000611
     12        1           0.000431174    0.000010899    0.000001025
     13        1           0.000320164    0.000301261   -0.000001247
     14        1          -0.000197385   -0.000414447    0.000000700
     15        1           0.000518881    0.000236691    0.000003827
     16        1           0.000169522    0.000009185    0.000205730
     17        1           0.000662502   -0.000922152    0.000009739
     18        1           0.000164344    0.000010172   -0.000204956
 -------------------------------------------------------------------
 Cartesian Forces:  Max     0.003578769 RMS     0.000875178

 GradGradGradGradGradGradGradGradGradGradGradGradGradGradGradGradGradGrad
 Berny optimization.
 Using GEDIIS/GDIIS optimizer.
 FormGI is forming the generalized inverse of G from B-inverse, IUseBI=4.
 Internal  Forces:  Max     0.005190340 RMS     0.001368450
 Search for a local minimum.
 Step number   3 out of a maximum of   92
 All quantities printed in internal units (Hartrees-Bohrs-Radians)
 Mixed Optimization -- RFO/linear search
 Update second derivatives using D2CorX and points    1    2    3
 DE= -4.06D-05 DEPred=-1.73D-04 R= 2.35D-01
 Trust test= 2.35D-01 RLast= 2.68D-02 DXMaxT set to 3.00D-01
 ITU=  0  0  0
 Use linear search instead of GDIIS.
     Eigenvalues ---    0.00705   0.01004   0.01590   0.01596   0.01731
     Eigenvalues ---    0.02063   0.02134   0.02146   0.02160   0.02179
     Eigenvalues ---    0.02192   0.02227   0.02781   0.07168   0.07739
     Eigenvalues ---    0.15570   0.16000   0.16000   0.16000   0.16000
     Eigenvalues ---    0.16000   0.16000   0.16760   0.21672   0.22122
     Eigenvalues ---    0.22689   0.24604   0.25000   0.26180   0.26723
     Eigenvalues ---    0.34266   0.35178   0.35267   0.35369   0.35437
     Eigenvalues ---    0.35778   0.39780   0.42277   0.43772   0.43784
     Eigenvalues ---    0.45347   0.46461   0.46805   0.52510   0.57980
     Eigenvalues ---    0.63240   0.83455   1.07985
 RFO step:  Lambda=-5.22151275D-05 EMin= 7.05212287D-03
 Quartic linear search produced a step of -0.42980.
 Iteration  1 RMS(Cart)=  0.00541711 RMS(Int)=  0.00001183
 Iteration  2 RMS(Cart)=  0.00001532 RMS(Int)=  0.00000074
 Iteration  3 RMS(Cart)=  0.00000000 RMS(Int)=  0.00000074
 Variable       Old X    -DE/DX   Delta X   Delta X   Delta X     New X
                                 (Linear)    (Quad)   (Total)
    R1        2.62405   0.00145   0.00106   0.00147   0.00252   2.62658
    R2        2.62359   0.00169   0.00053   0.00202   0.00255   2.62614
    R3        2.04732   0.00046   0.00041   0.00046   0.00087   2.04819
    R4        2.63118   0.00152   0.00097   0.00149   0.00246   2.63364
    R5        2.04794   0.00043   0.00041   0.00041   0.00081   2.04875
    R6        2.60429   0.00266   0.00160   0.00191   0.00351   2.60779
    R7        2.05114   0.00042   0.00032   0.00051   0.00083   2.05196
    R8        2.64287   0.00476   0.00376   0.00070   0.00446   2.64733
    R9        2.79046  -0.00054  -0.00046  -0.00060  -0.00107   2.78939
   R10        2.63251   0.00266   0.00204   0.00171   0.00375   2.63626
   R11        2.80041   0.00313   0.00037   0.00312   0.00350   2.80391
   R12        2.04616   0.00046   0.00046   0.00034   0.00081   2.04696
   R13        2.48409   0.00062   0.00067   0.00047   0.00114   2.48523
   R14        2.32333   0.00261   0.00200   0.00022   0.00222   2.32555
   R15        1.84074  -0.00050  -0.00010  -0.00056  -0.00066   1.84008
   R16        1.93518  -0.00013  -0.00022   0.00006  -0.00017   1.93501
   R17        2.02967  -0.00039   0.00448  -0.00510  -0.00062   2.02905
   R18        1.93518  -0.00013  -0.00022   0.00006  -0.00017   1.93501
    A1        2.09878   0.00015  -0.00017   0.00022   0.00005   2.09883
    A2        2.09532  -0.00009   0.00009  -0.00019  -0.00010   2.09522
    A3        2.08909  -0.00006   0.00008  -0.00003   0.00005   2.08914
    A4        2.09937  -0.00004   0.00003  -0.00038  -0.00035   2.09903
    A5        2.09875   0.00002   0.00005   0.00019   0.00024   2.09899
    A6        2.08506   0.00002  -0.00009   0.00019   0.00011   2.08517
    A7        2.07477   0.00054   0.00083  -0.00049   0.00035   2.07511
    A8        2.10252  -0.00041  -0.00073  -0.00002  -0.00075   2.10178
    A9        2.10590  -0.00013  -0.00010   0.00051   0.00040   2.10630
   A10        2.12796  -0.00018  -0.00076   0.00145   0.00069   2.12865
   A11        2.08596  -0.00240  -0.00178   0.00054  -0.00124   2.08472
   A12        2.06927   0.00259   0.00255  -0.00199   0.00056   2.06982
   A13        2.06630  -0.00161  -0.00103  -0.00126  -0.00229   2.06400
   A14        2.09827   0.00519   0.00495   0.00001   0.00496   2.10323
   A15        2.11862  -0.00358  -0.00392   0.00125  -0.00267   2.11595
   A16        2.09919   0.00114   0.00110   0.00046   0.00156   2.10075
   A17        2.10498  -0.00060  -0.00065  -0.00023  -0.00088   2.10410
   A18        2.07901  -0.00054  -0.00045  -0.00023  -0.00068   2.07833
   A19        2.00547  -0.00286  -0.00142  -0.00302  -0.00444   2.00103
   A20        2.14069   0.00442   0.00378   0.00171   0.00549   2.14619
   A21        2.13702  -0.00156  -0.00236   0.00131  -0.00105   2.13597
   A22        1.92175  -0.00051  -0.00116  -0.00145  -0.00261   1.91915
   A23        1.95269   0.00018   0.00016   0.00113   0.00128   1.95397
   A24        1.84616  -0.00152  -0.00085  -0.00586  -0.00671   1.83945
   A25        1.95269   0.00018   0.00015   0.00114   0.00129   1.95398
   A26        1.91133   0.00063   0.00085   0.00084   0.00169   1.91302
   A27        1.88910  -0.00007  -0.00105   0.00177   0.00072   1.88983
   A28        1.91133   0.00062   0.00082   0.00087   0.00169   1.91302
    D1       -0.00001   0.00000   0.00001  -0.00002  -0.00001  -0.00002
    D2       -3.14159  -0.00000  -0.00000   0.00000  -0.00000  -3.14159
    D3       -3.14159   0.00000   0.00000   0.00000   0.00000  -3.14159
    D4        0.00001  -0.00000  -0.00001   0.00002   0.00001   0.00002
    D5       -0.00001   0.00000   0.00001   0.00000   0.00001  -0.00000
    D6       -3.14157  -0.00000  -0.00003   0.00005   0.00002  -3.14155
    D7        3.14157   0.00000   0.00002  -0.00002  -0.00000   3.14157
    D8        0.00002  -0.00000  -0.00002   0.00002   0.00001   0.00002
    D9       -0.00000   0.00000   0.00000  -0.00000   0.00000  -0.00000
   D10       -3.14158  -0.00000  -0.00002   0.00004   0.00002  -3.14156
   D11        3.14158   0.00000   0.00002  -0.00002  -0.00001   3.14157
   D12        0.00001  -0.00000  -0.00001   0.00002   0.00001   0.00002
   D13        0.00003  -0.00000  -0.00004   0.00005   0.00001   0.00004
   D14       -3.14155  -0.00000  -0.00006   0.00010   0.00004  -3.14151
   D15       -3.14158  -0.00000  -0.00001   0.00000  -0.00001  -3.14159
   D16        0.00002  -0.00000  -0.00003   0.00005   0.00002   0.00004
   D17       -0.00005   0.00000   0.00006  -0.00007  -0.00001  -0.00006
   D18        3.14150   0.00001   0.00010  -0.00014  -0.00004   3.14146
   D19        3.14153   0.00000   0.00008  -0.00012  -0.00004   3.14149
   D20       -0.00010   0.00001   0.00012  -0.00019  -0.00008  -0.00017
   D21        1.06132   0.00008  -0.00037   0.00104   0.00067   1.06199
   D22        3.14132   0.00001   0.00022  -0.00094  -0.00073   3.14059
   D23       -1.06187  -0.00008   0.00076  -0.00289  -0.00213  -1.06400
   D24       -2.08027   0.00008  -0.00039   0.00109   0.00070  -2.07956
   D25       -0.00027   0.00001   0.00020  -0.00089  -0.00069  -0.00096
   D26        2.07973  -0.00008   0.00074  -0.00284  -0.00209   2.07764
   D27        0.00004  -0.00000  -0.00004   0.00004  -0.00000   0.00004
   D28       -3.14159  -0.00000  -0.00001  -0.00000  -0.00001   3.14159
   D29       -3.14151  -0.00001  -0.00008   0.00012   0.00003  -3.14148
   D30        0.00004  -0.00000  -0.00005   0.00007   0.00003   0.00007
   D31        3.14073   0.00005   0.00065  -0.00082  -0.00017   3.14056
   D32        0.00054  -0.00004  -0.00037  -0.00009  -0.00046   0.00008
   D33       -0.00090   0.00005   0.00069  -0.00089  -0.00020  -0.00110
   D34       -3.14109  -0.00004  -0.00033  -0.00017  -0.00050  -3.14159
   D35       -3.14087  -0.00005  -0.00053   0.00036  -0.00016  -3.14104
   D36       -0.00068   0.00005   0.00049  -0.00036   0.00013  -0.00054
         Item               Value     Threshold  Converged?
 Maximum Force            0.005190     0.000450     NO 
 RMS     Force            0.001368     0.000300     NO 
 Maximum Displacement     0.027605     0.001800     NO 
 RMS     Displacement     0.005420     0.001200     NO 
 Predicted change in Energy=-8.810345D-05
 GradGradGradGradGradGradGradGradGradGradGradGradGradGradGradGradGradGrad

                          Input orientation:                          
 ---------------------------------------------------------------------
 Center     Atomic      Atomic             Coordinates (Angstroms)
 Number     Number       Type             X           Y           Z
 ---------------------------------------------------------------------
      1          6           0        1.936842   -1.461685    0.000028
[...]
 0.1865376,-0.0275408,-0.0000027,-0.0000042,-0.0000055,-0.0909603,0.464
 9393,-0.2086115,-0.0000069,0.0010946,0.4230764,0.000022,-0.0000285,0.0
 000567,-0.0484345,-0.7756104,0.0275832,-0.0000096,-0.0739266,-0.094837
 4,-0.0000007,-0.0000106,-0.0000076,0.0175887,0.0944075,0.1335383,-0.00
 0005,-0.0575266,0.0193269,-0.0000006,0.0000083,-0.0000023,-0.0550274,2
 .0944102,0.027129,0.0000415,0.2003016,1.8274428,-0.0001106,0.0000388,-
 0.0001154,0.3805947,-0.8967569,-0.5257496,0.00003,-0.5540174,-1.070750
 1,0.0000375,0.0000313,0.0000418,-0.3421319,-0.509424,-0.1560143,-0.000
 0251,0.0458625,-0.5653737,-0.0000135,-0.0000206,-0.0000859,-0.0711563,
 -1.1315595,0.2101763,-0.0000558,0.1075159,-1.2415846,0.0000466,-0.0000
 422,0.0000646,-0.3556134,0.0728138,0.0200387,-0.0000005,0.0260342,0.04
 9059,0.0000015,0.0000002,0.0000019,0.1437189,0.0434951,-0.002357,0.000
 0011,-0.0065162,0.0899408,0.0000005,0.0000005,0.0000035,0.1399262,0.09
 88672,-0.0090401,-0.0000004,-0.0184603,-0.0020987,0.0000023,0.0000035,
 0.0000018,0.1508341,0.1004859,-0.0157155,0.0000002,-0.0157566,0.091744
 7,0.,-0.0000043,0.0000015,0.1385755,0.4556913,0.1314679,-0.0000087,0.1
 326098,0.3300476,0.0000103,-0.0000113,0.0000083,0.3736966,0.2086345,0.
 0097524,0.0127024,0.0131858,0.2646818,-0.0525313,0.0217278,-0.0876542,
 0.2732491,0.6753745,0.4045326,0.0000369,0.2387264,0.5502648,0.0000115,
 0.0000498,0.0000306,0.2056812,0.2086498,0.0097668,-0.0127001,0.0131883
 ,0.2646313,0.0525331,-0.0217395,0.0876682,0.273257\Polar=113.5547202,-
 0.6050882,99.9980207,0.0003967,-0.0009537,48.3022582\PG=C01 [X(C7H8N1O
 2)]\NImag=0\\0.71255084,-0.03770528,0.75513908,-0.00000207,-0.00001084
 ,0.14392022,-0.19058274,-0.12785730,0.00000349,0.77248429,-0.05486904,
 -0.30636068,0.00000548,0.00556489,0.68676864,0.00000268,0.00000575,-0.
 06723686,-0.00000631,-0.00000945,0.14743726,0.07538860,0.02738862,-0.0
 0000046,-0.19162831,0.05433658,-0.00000026,0.71978264,-0.01992753,-0.0
 5466893,0.00000093,0.13023947,-0.29183829,0.00000241,0.03587020,0.7532
 8085,0.00000023,0.00000103,0.00729320,-0.00000083,0.00000173,-0.066026
 72,-0.00000588,-0.00000667,0.13696689,-0.06210483,-0.03469345,0.000000
 65,-0.02737906,0.09398683,-0.00000083,-0.35882658,-0.07015292,0.000004
 18,0.73024508,-0.03590217,-0.02200822,0.00000016,0.02812742,0.04035267
 ,-0.00000077,0.02083695,-0.12947222,0.00000098,0.04646711,0.63365172,0
 .00000112,0.00000063,-0.00566113,0.00000008,-0.00000098,0.00411891,0.0
 0000253,0.00000161,-0.06584063,-0.00000588,-0.00000069,0.16788532,-0.0
 2663795,0.02703546,-0.00000035,-0.00065379,-0.00765543,0.,-0.03434116,
 -0.01886770,0.00000031,-0.17464267,-0.12179578,0.00000080,0.67076007,0
 .07763141,0.04047437,0.00000014,0.00321226,-0.07292327,0.00000087,-0.0
 8039231,0.03100198,-0.00000014,-0.04993800,-0.26258591,0.00000139,-0.0
 0917434,0.72214326,-0.00000150,-0.00000018,0.00770334,0.00000030,0.000
 00143,-0.00581322,0.00000164,-0.00000138,0.01066048,-0.00000156,0.0000
 0203,-0.06118741,0.00001146,-0.00001038,0.14072589,-0.35501436,0.03367
 310,0.00000032,-0.02149648,-0.08216596,0.00000120,-0.05778283,0.023848
 01,-0.00000020,0.07084469,0.03440156,-0.00000165,-0.17975087,0.0533310
 3,-0.00000130,0.71857121,-0.03953979,-0.13888209,0.00000038,-0.0348578
 5,0.03874753,-0.00000009,0.03457302,-0.01570530,0.00000010,-0.02529639
 ,-0.05893502,0.00000120,0.11894632,-0.28763521,0.00000356,0.04242497,0
 .74353924,0.00000059,0.00000030,-0.06838674,0.00000041,-0.00000005,0.0
 0696704,-0.00000022,0.00000019,-0.00540821,0.00000004,0.00000061,0.004
 96523,-0.00000143,0.00000315,-0.06495436,0.00000139,-0.00000731,0.1483
 2081,0.00235088,0.00268297,-0.00000039,0.00061976,0.00589475,0.0000001
 3,0.01198475,-0.00567338,-0.00000019,-0.02357386,-0.02870674,0.0000000
 2,-0.20628490,-0.00270453,-0.00000580,-0.02101979,0.01619784,-0.000001
 18,0.74296165,0.00472368,-0.00619535,0.00000014,0.00039543,-0.00365952
 ,-0.00000001,-0.00459919,-0.00688382,0.00000018,-0.03444802,0.01477240
 ,-0.00000060,-0.01116410,-0.10644552,-0.00000079,0.02751364,0.01189756
 ,0.00000065,-0.10301768,0.91229237,0.00000030,0.00000007,0.00874921,0.
 00000003,-0.00000007,-0.00131654,0.00000031,0.00000058,0.00628875,0.00
 000133,-0.00000135,-0.00109114,-0.00000654,-0.00000051,-0.07900303,-0.
 00000019,0.00000034,-0.00019768,0.00002912,-0.00005463,0.21304471,0.00
 121961,-0.00057328,-0.00000007,-0.00025153,-0.00238680,-0.00000001,-0.
 00340042,-0.00105189,-0.00000006,-0.00474752,0.00869015,-0.00000032,-0
 .03104735,-0.04567043,0.00000208,-0.00454556,-0.00204285,0.00000002,-0
 .18835407,-0.11966400,0.00000464,0.68452162,-0.00024802,0.00070945,-0.
 00000004,0.00007730,-0.00131907,0.00000001,-0.00206872,0.00203255,-0.0
 0000007,0.00407817,0.00109973,-0.00000010,-0.01838264,-0.00540167,0.00
 000090,0.00208898,-0.00445174,0.00000018,-0.08442621,-0.31554248,0.000
 01688,0.07559049,0.47654532,-0.00000019,-0.00000008,-0.00063321,-0.000
 00001,0.00000024,-0.00003768,0.00000023,-0.00000033,-0.00063647,-0.000
 00081,0.00000032,0.00200766,-0.00000018,-0.00000076,0.00997268,-0.0000
 0015,0.00000011,0.00044940,0.00000197,0.00001566,-0.06673936,0.0000240
 3,-0.00003297,0.04319954,0.00115224,0.00065123,0.00000005,-0.00719311,
 -0.00555961,0.00000094,-0.02018953,0.04828109,0.00000041,-0.12912008,0
 .03185230,0.00000294,0.01455079,-0.00696749,-0.00000015,-0.00087301,-0
 .00088514,-0.00000027,-0.02268198,0.01662675,-0.00000274,0.00254855,-0
 .00916045,0.00000142,0.56197153,-0.00223263,-0.00165686,0.00000007,-0.
 00066915,0.00561392,0.00000056,0.00833476,-0.00809505,-0.00000020,0.04
 357086,-0.17491637,-0.00000003,0.02334301,-0.02932522,-0.00000004,-0.0
 0449096,-0.00420903,-0.00000018,-0.00152755,0.00670068,-0.00000081,-0.
 00012348,-0.00374981,0.00000045,0.08291482,0.61784844,-0.00000069,-0.0
 0000070,-0.00118135,-0.00000045,0.00000090,0.00731613,0.00000029,-0.00
 000034,0.00258952,0.00000309,-0.00000117,-0.07546925,-0.00000125,0.000
 00182,-0.00039909,0.00000157,0.00000004,0.00773907,-0.00000072,0.00000
 047,-0.00304622,0.00000016,-0.00000089,-0.00127390,-0.00003547,-0.0000
 1919,0.71920910,-0.00193714,0.00164830,0.00000025,0.00005995,-0.000295
 62,-0.00000003,-0.00200118,0.00158177,0.00000009,0.00539436,0.00385897
 ,-0.00000011,-0.03219072,0.04384420,-0.00000499,-0.00523157,-0.0073081
 4,-0.00000009,-0.30335061,0.25476414,-0.00002862,0.03827079,-0.0047646
 7,0.00000066,-0.01900962,-0.02341636,-0.00000123,0.34148428,0.00131898
 ,0.00165130,-0.00000017,-0.00015783,0.00095631,0.00000011,0.00251133,0
 .00177834,-0.00000004,0.00224095,-0.01878778,-0.00000030,0.02885799,-0
 .00439343,0.00000306,-0.00093013,0.00426711,-0.00000008,0.24176680,-0.
 47206807,0.00003900,0.01653945,-0.11295969,0.00001209,-0.04804824,-0.0
 1833385,-0.00000222,-0.28172557,0.59120994,0.00000002,0.00000028,-0.00
 186547,0.00000007,-0.00000022,0.00034061,-0.00000043,0.00000008,-0.000
 56757,0.00000035,0.00000058,-0.00018327,-0.00000328,0.00000426,0.01977
 000,-0.00000084,-0.00000060,0.00318641,-0.00002894,0.00003990,-0.07668
 829,-0.00000069,0.00001086,0.02785884,-0.00000076,-0.00000123,0.010372
 64,0.00003582,-0.00005251,0.03831746,-0.13840484,0.12932439,-0.0000016
 6,0.01283652,-0.01558189,0.00000023,-0.00092786,-0.00352276,0.00000012
 ,-0.00109223,-0.00110187,0.00000006,-0.00500372,-0.00103130,-0.0000000
 7,-0.01126275,0.02754441,-0.00000029,0.00047492,0.00151041,0.00000008,
 -0.00012406,-0.00020542,-0.00000001,0.00029151,0.00009809,-0.00000003,
 -0.00075260,0.00026727,-0.00000008,0.14226204,0.12940207,-0.27723159,0
 .00000337,0.01510300,-0.01703714,0.00000027,-0.00301531,-0.00304660,0.
 00000022,-0.00123830,0.00007828,0.,-0.00123957,0.00128185,0.00000009,-
 0.00320883,0.00646568,0.,-0.00014129,0.00031830,0.,0.00000988,-0.00000
 957,0.,0.00024495,0.00008098,0.00000002,-0.00012508,0.00004025,-0.0000
 0002,-0.13641599,0.28849571,-0.00000169,0.00000329,-0.04217504,-0.0000
 0029,0.00000061,0.00482121,0.00000024,0.00000018,0.00740601,0.00000002
 ,-0.00000002,-0.00002870,-0.00000002,0.00000002,0.00725517,0.00000006,
 -0.00000015,0.00451916,0.,-0.00000005,0.00021898,0.00000001,0.,0.00002
 742,-0.00000008,-0.00000008,-0.00107165,0.,0.,-0.00023691,0.00000170,-
 0.00000376,0.02790736,-0.00810756,0.00203652,0.00000009,-0.35419287,-0
 .00613622,0.00000320,-0.00931613,-0.00220200,0.00000016,0.00086148,0.0
 0204384,0.00000009,0.00096716,-0.00019904,-0.00000002,0.00014752,-0.00
 224937,0.00000012,-0.00039825,-0.00003259,-0.00000002,0.00003474,0.000
 05631,0.,-0.00065695,-0.00010138,-0.00000004,0.00006122,-0.00014864,0.
 ,0.00066132,-0.00007015,-0.00000005,0.36957725,-0.02834691,0.00516260,
 0.00000031,-0.00655045,-0.06153543,0.00000047,0.02845335,0.00438275,-0
 .00000024,0.00182648,-0.00381028,0.00000007,0.00003137,-0.00136710,0.0
 0000002,-0.00280102,-0.00480915,0.00000024,0.00019645,-0.00035213,0.,-
 0.00008105,0.00014561,0.,0.00215511,-0.00020524,0.00000007,-0.00003162
 ,0.00038261,-0.00000002,0.00018086,0.00071091,-0.00000009,0.00651835,0
 .06061228,0.00000068,-0.00000005,0.00611665,0.00000325,0.00000055,-0.0
 4322699,-0.00000022,-0.00000014,0.00498685,-0.00000014,0.00000014,0.00
 725014,-0.00000008,0.,-0.00081004,0.00000004,0.00000038,0.00747635,0.0
 0000004,0.,-0.00109027,0.00000002,0.,0.00017113,-0.00000011,-0.0000000
 9,0.00004675,-0.00000003,0.00000001,0.00012381,-0.00000004,-0.00000009
 ,-0.00415674,-0.00000351,-0.00000069,0.02774795,-0.00164895,0.00340228
 ,0.00000001,0.01351339,0.01583583,-0.00000018,-0.12915589,-0.12189161,
 0.00000204,-0.01049818,-0.02880201,0.00000022,-0.00485338,0.00214005,0
 .00000002,-0.00051127,0.00071485,-0.00000002,0.00069900,-0.00173912,0.
 00000015,-0.00069207,0.00006942,-0.00000005,0.00295386,-0.00001478,0.0
 0000033,0.00010540,0.00090563,-0.00000001,0.00051053,0.00073892,-0.000
 00004,0.00065572,-0.00013220,-0.00000004,0.13156643,0.00363584,-0.0028
 7816,0.00000010,-0.01494824,-0.01744690,0.00000023,-0.12176687,-0.2787
 5391,0.00000340,0.00311931,0.00292272,-0.00000005,0.00062231,0.0014132
 1,0.00000006,0.00105119,-0.00003533,-0.00000003,0.00055896,-0.00004182
 ,0.00000005,0.00000426,0.00005366,0.,0.00017130,0.00142398,-0.00000004
 ,-0.00006898,0.00028673,-0.00000002,-0.00078297,-0.00078022,0.00000005
 ,0.00003700,0.00083973,-0.00000004,0.12927094,0.29245496,-0.00000013,0
 .00000007,0.00682277,0.00000002,0.00000048,0.00455146,0.00000245,0.000
 00302,-0.03784797,-0.00000046,0.00000052,0.00418000,0.00000018,-0.0000
 0007,0.00602912,0.00000006,-0.00000008,-0.00101323,-0.00000016,0.00000
 016,0.00131060,0.00000004,0.,-0.00022736,-0.00000044,-0.00000063,-0.00
 381862,0.,-0.00000009,-0.00013286,0.,0.,-0.00019091,-0.00000006,-0.000
 00006,-0.00403784,-0.00000199,-0.00000364,0.02565396,-0.00855616,-0.02
 728787,0.00000026,-0.00557856,0.00037271,0.,-0.00097329,0.00101018,-0.
 00000004,-0.00154706,0.00236248,-0.00000005,0.01226644,0.01599278,-0.0
 0000007,-0.13000239,-0.12659797,0.00000078,0.00159628,0.00218314,-0.00
 000018,-0.00423908,0.00030731,0.00000005,-0.00008690,0.00148559,-0.000
 00009,0.00002758,-0.00138433,0.00000012,0.00076852,0.00012882,0.,-0.00
 038586,-0.00122779,0.00000006,0.00006767,-0.00007760,0.,0.13604104,0.0
 0255898,0.00653595,0.00000002,0.00116275,0.00088507,0.00000004,0.00024
 829,0.00034361,-0.00000001,0.00363501,-0.00113865,0.,-0.01291682,-0.01
 827913,0.00000027,-0.12463317,-0.28669618,0.00000215,-0.00106928,-0.00
 256218,0.00000005,-0.00069910,0.00100796,-0.00000007,-0.00020125,-0.00
 097719,0.00000014,-0.00007093,0.00115953,-0.00000007,-0.00009515,0.000
 65309,-0.00000004,0.00022054,0.00021308,-0.00000002,-0.00008129,0.0000
 1049,0.,0.13227374,0.29878090,0.00000053,0.00000013,0.00626256,0.00000
 001,-0.00000024,0.00722974,-0.00000031,0.00000008,-0.00100157,0.000000
 14,0.00000030,0.00596500,-0.00000001,-0.00000034,0.00416985,0.00000028
 ,0.00000242,-0.04234554,0.00000033,0.,-0.00433807,0.00000008,-0.000000
 04,0.00028285,-0.00000004,0.00000001,0.00092516,-0.00000012,0.00000012
 ,0.00061517,0.,-0.00000008,-0.00422392,0.,-0.00000004,-0.00058171,-0.0
 0000001,0.,-0.00065877,-0.00000093,-0.00000238,0.02780252,-0.00011490,
 0.00012810,0.,0.00007607,0.00036560,0.,0.00057094,-0.00050481,0.000000
 02,-0.00113572,0.00002095,0.00000004,0.00222406,-0.00174443,-0.0000000
 9,0.00068173,0.00007570,-0.00000001,-0.02581939,-0.01007200,-0.0000006
 7,-0.48685086,0.02276665,-0.00002503,0.00135511,0.00059683,0.00000011,
 0.00133647,0.01025501,-0.00000037,0.00001721,0.00000098,0.,-0.00000546
 ,0.00001515,0.,-0.00002926,0.00000415,0.,-0.00010244,0.00015787,-0.000
 00001,0.50958471,0.00005962,0.00031556,-0.00000002,0.00016025,0.000014
 43,0.,0.00002999,-0.00051284,-0.00000004,-0.00161119,0.00080119,0.0000
 0006,-0.00075397,-0.00589479,0.00000076,0.00089350,-0.00034089,-0.0000
 0003,-0.05637995,0.00241386,-0.00000254,0.07152782,-0.05000325,0.00000
 657,0.00154129,0.00072878,0.00000013,0.00715836,0.00247086,-0.00000033
 ,0.00001871,0.00001175,0.,0.00001053,0.00002461,0.,-0.00011531,0.00000
 402,0.,-0.00023422,0.00067013,0.00000003,-0.02039805,0.05106301,0.0000
 0005,0.00000002,0.00007489,-0.00000001,-0.00000004,0.00006322,-0.00000
 005,0.00000007,-0.00029915,0.00000016,-0.00000001,0.00068777,-0.000000
 12,0.00000083,0.00547034,-0.00000005,0.,-0.00038493,0.00000383,-0.0000
 0017,0.00345086,-0.00002971,0.00000394,-0.01719462,-0.00000007,-0.0000
 0007,0.00022634,-0.00000027,-0.00000017,-0.00594797,0.,0.,0.00002951,0
 .,0.,-0.00002093,0.,0.,-0.00012826,-0.00000001,0.,-0.00012677,0.000026
 16,-0.00000446,0.01413546,0.00062165,0.00055095,-0.00018984,-0.0000520
 1,-0.00065359,0.00065076,0.00039323,0.00181871,0.00027651,0.00510002,0
 .01142191,-0.01665857,-0.00135551,0.00000162,-0.00099538,-0.00086006,0
 .00061459,0.00079441,-0.00061389,0.00060550,-0.00043089,0.00003950,-0.
 00025552,0.00055997,-0.06994037,-0.04174979,0.06135632,-0.00279061,-0.
 00244625,-0.00247421,-0.00002364,-0.00007028,-0.00007048,-0.00002003,0
 .00000110,-0.00001368,-0.00087782,-0.00036575,-0.00045155,-0.00006318,
 0.00007665,0.00015270,0.00003466,0.00002979,-0.00000216,0.06506959,0.0
 0033061,0.00036764,0.00021939,-0.00012773,-0.00115236,-0.00115183,-0.0
 0134401,0.00219515,-0.00032504,-0.00515245,-0.01973880,0.01978152,0.00
 276103,-0.00137957,0.00098980,-0.00067899,-0.00055749,-0.00111838,0.00
 033851,-0.00101845,0.00060748,0.00018165,0.00056643,0.00008214,-0.0409
 0169,-0.16223209,0.16095412,-0.00024502,0.00093278,-0.00054708,0.00002
 064,0.00002006,0.00018093,-0.00002056,0.00008631,0.00001980,0.00031740
 ,0.00027454,0.00078630,0.00016136,-0.00015938,-0.00018452,-0.00012818,
 -0.00007091,0.00000127,0.03963013,0.17070401,-0.00034574,-0.00048004,0
 .00001087,-0.00000414,0.00052428,0.00028052,0.00069347,-0.00112477,0.0
 0037128,-0.00388753,0.00045943,0.00671045,0.00039069,-0.00130131,-0.00
 030664,0.00027406,-0.00052873,-0.00022738,0.00061869,0.00088424,0.0004
 1024,-0.00038674,-0.00066495,-0.00001904,0.05711065,0.15264027,-0.2965
 0919,-0.00153319,-0.00158433,-0.00070379,-0.00001476,-0.00001501,-0.00
 005031,0.00004700,-0.00007833,0.00002354,-0.00035138,0.00013769,-0.000
 14032,0.00006248,-0.00009397,0.00001310,0.00012377,0.00006799,0.000064
 79,-0.06435405,-0.16691210,0.30906147,-0.00079624,-0.00095571,-0.00000
 007,-0.00052949,-0.00039931,0.00000001,0.00003051,-0.00067338,-0.00000
 053,-0.02286991,0.01480462,-0.00000150,-0.00265164,0.00166865,-0.00000
 030,-0.00103375,-0.00292862,0.00000014,0.03202187,-0.02419018,0.000003
 36,-0.00242165,0.01473224,-0.00000190,-0.24517306,-0.04433267,-0.00003
 200,-0.01668604,0.03262168,-0.00000147,-0.00020724,-0.00003356,0.00000
 002,0.00013672,-0.00020830,0.00000004,-0.00092781,-0.00009927,0.000000
 05,0.00083051,-0.00064341,0.00000005,-0.00185754,-0.00196690,0.0000001
 0,0.00353077,-0.00080596,0.00314431,0.25506911,-0.00122021,-0.00084141
 ,0.00000003,0.00125351,0.00108634,-0.00000048,0.00194735,-0.00823239,-
 0.00000008,0.02875021,0.01744907,0.00000506,-0.00240673,0.00069486,-0.
 00000002,0.00036111,-0.00210216,-0.00000012,0.01567136,-0.03260691,0.0
 0000319,-0.00043236,0.01071015,-0.00000109,-0.03187842,-0.06654381,-0.
 00000465,0.00544145,0.02047418,-0.00000144,-0.00024801,-0.00007182,0.0
 0000005,0.00025738,-0.00056739,0.00000004,-0.00093606,-0.00002208,0.00
 000018,0.00037038,-0.00028779,0.00000001,-0.00141136,-0.00162459,0.000
 00006,-0.01486941,-0.00422710,-0.00038681,0.01421544,0.07093910,0.0000
 0001,0.,0.00017529,0.00000012,-0.00000014,0.00025130,0.00000037,-0.000
 00058,0.00069400,0.00000078,0.00000170,-0.00102204,-0.00000039,0.00000
 013,0.00102343,-0.00000014,-0.00000020,-0.00047782,0.00000288,-0.00000
 134,-0.00037322,-0.00000045,0.00000129,0.00281145,-0.00003004,-0.00000
 531,-0.06903663,-0.00000020,0.00000252,-0.01355568,-0.00000002,-0.0000
 0001,-0.00000032,0.00000003,-0.00000005,-0.00004222,-0.00000020,-0.000
 00005,-0.00021120,0.00000006,-0.00000005,-0.00000276,-0.00000011,-0.00
 000017,-0.00016540,0.03025387,0.00506161,0.00307031,0.00003352,0.00000
 639,0.07380224,0.00062186,0.00055096,0.00018980,-0.00005205,-0.0006537
 2,-0.00065155,0.00039251,0.00181855,-0.00027633,0.00509207,0.01142033,
 0.01666019,-0.00135486,-0.00000012,0.00099572,-0.00086046,0.00061444,-
 0.00079438,-0.00061237,0.00060419,0.00043052,0.00003936,-0.00025522,-0
 .00055998,-0.06989900,-0.04168522,-0.06128991,-0.00278995,-0.00244408,
 0.00247470,-0.00002363,-0.00007026,0.00007059,-0.00002003,0.00000111,0
 .00001374,-0.00087736,-0.00036558,0.00045196,-0.00006310,0.00007655,-0
 .00015270,0.00003461,0.00002971,0.00000213,0.00180772,0.00566325,0.008
 41242,0.00353488,-0.01486562,-0.03026011,0.06502980,0.00033038,0.00036
 733,-0.00021944,-0.00012772,-0.00115227,0.00115192,-0.00134403,0.00219
 412,0.00032489,-0.00514422,-0.01973453,-0.01978880,0.00275956,-0.00137
 873,-0.00098920,-0.00067801,-0.00055754,0.00111870,0.00033899,-0.00101
 893,-0.00060774,0.00018156,0.00056641,-0.00008228,-0.04083654,-0.16215
 227,-0.16092852,-0.00024522,0.00093289,0.00054758,0.00002061,0.0000200
 5,-0.00018094,-0.00002053,0.00008624,-0.00001980,0.00031706,0.00027438
 ,-0.00078616,0.00016128,-0.00015931,0.00018454,-0.00012817,-0.00007092
 ,-0.00000128,0.00565964,0.01538922,0.01845646,-0.00080537,-0.00422625,
 -0.00506575,0.03956073,0.17062011,0.00034578,0.00048032,0.00001079,0.0
 0000425,-0.00052451,0.00028060,-0.00069371,0.00112505,0.00037131,0.003
 88646,-0.00046277,0.00671308,-0.00038980,0.00130090,-0.00030653,-0.000
 27447,0.00052864,-0.00022758,-0.00061963,-0.00088381,0.00041046,0.0003
 8696,0.00066502,-0.00001932,-0.05704625,-0.15261349,-0.29661879,0.0015
 3207,0.00158300,-0.00070314,0.00001477,0.00001499,-0.00005031,-0.00004
 700,0.00007833,0.00002356,0.00035116,-0.00013769,-0.00014058,-0.000062
 45,0.00009393,0.00001316,-0.00012380,-0.00006796,0.00006483,-0.0084037
 3,-0.01844543,-0.02205990,-0.00314382,0.00037967,0.00305925,0.06428319
 ,0.16688582,0.30917912\\0.00000472,0.00000363,-0.00000011,-0.00000169,
 -0.00000259,0.00000005,-0.00000260,-0.00000047,-0.00000097,-0.00000207
 ,-0.00000046,0.00000017,0.00001328,-0.00000316,0.00000221,-0.00000705,
 0.00000658,0.00000010,-0.00002049,-0.00001927,-0.00000404,0.00001172,0
 .00001623,0.00000143,-0.00000632,-0.00000254,-0.00000394,0.00000186,0.
 00000262,0.00000062,-0.00000025,0.00000034,0.00000002,-0.00000028,0.00
 000157,-0.00000003,-0.00000037,0.00000051,-0.00000003,0.00000139,-0.00
 000076,0.00000004,0.00000152,-0.00000162,-0.00000002,0.00000123,0.0000
 0022,0.00000055,0.00000721,-0.00000051,0.00000257,-0.00000180,-0.00000
 033,0.00000139\\\@


 I DO NOT KNOW WHAT I MAY APPEAR TO THE WORLD; BUT TO MYSELF
 I SEEM TO HAVE BEEN ONLY LIKE A BOY PLAYING ON THE SEASHORE,
 AND DIVERTING MYSELF IN NOW AND THEN FINDING A SMOOTHER PEBBLE
 OR A PRETTIER SHELL THAN ORDINARY, WHILST THE GREAT OCEAN OF
 TRUTH LAY ALL UNDISCOVERED BEFORE ME.
                                          -- NEWTON (1642-1726)
 Job cpu time:       0 days  0 hours 13 minutes  6.2 seconds.
 File lengths (MBytes):  RWF=    100 Int=      0 D2E=      0 Chk=      5 Scr=      1
 Normal termination of Gaussian 09 at Tue Dec 17 20:54:45 2024.
