 Entering Gaussian System, Link 0=g09
 Input=pbeD3Anthranilicyang.gjf
 Output=pbeD3Anthranilicyang.log
 Initial command:
 /home/c612/g09E/g09/l1.exe "/mnt/ja_sm883/scratch/Gau-1850886.inp" -scrdir="/mnt/ja_sm883/scratch/"
 Default is to use a total of  18 processors:
                               18 via shared-memory
                                1 via Linda
 Entering Link 1 = /home/c612/g09E/g09/l1.exe PID=   1850888.
  
 Copyright (c) 1988,1990,1992,1993,1995,1998,2003,2009,2015,
            Gaussian, Inc.  All Rights Reserved.
  
 This is part of the Gaussian(R) 09 program.  It is based on
 the Gaussian(R) 03 system (copyright 2003, Gaussian, Inc.),
 the Gaussian(R) 98 system (copyright 1998, Gaussian, Inc.),
 the Gaussian(R) 94 system (copyright 1995, Gaussian, Inc.),
 the Gaussian 92(TM) system (copyright 1992, Gaussian, Inc.),
 the Gaussian 90(TM) system (copyright 1990, Gaussian, Inc.),
 the Gaussian 88(TM) system (copyright 1988, Gaussian, Inc.),
 the Gaussian 86(TM) system (copyright 1986, Carnegie Mellon
 University), and the Gaussian 82(TM) system (copyright 1983,
 Carnegie Mellon University). Gaussian is a federally registered
 trademark of Gaussian, Inc.
  
 This software contains proprietary and confidential information,
 including trade secrets, belonging to Gaussian, Inc.
  
 This software is provided under written license and may be
 used, copied, transmitted, or stored only in accord with that
 written license.
  
 The following legend is applicable only to US Government
 contracts under FAR:
  
                    RESTRICTED RIGHTS LEGEND
  
 Use, reproduction and disclosure by the US Government is
 subject to restrictions as set forth in subparagraphs (a)
 and (c) of the Commercial Computer Software - Restricted
 Rights clause in FAR 52.227-19.
  
 Gaussian, Inc.
 340 Quinnipiac St., Bldg. 40, Wallingford CT 06492
  
  
 ---------------------------------------------------------------
 Warning -- This program may not be used in any manner that
 competes with the business of Gaussian, Inc. or will provide
 assistance to any competitor of Gaussian, Inc.  The licensee
 of this program is prohibited from giving any competitor of
 Gaussian, Inc. access to this program.  By using this program,
 the user acknowledges that Gaussian, Inc. is engaged in the
 business of creating and licensing software in the field of
 computational chemistry and represents and warrants to the
 licensee that it is not a competitor of Gaussian, Inc. and that
 it will not use this program in any manner prohibited above.
 ---------------------------------------------------------------
  

 Cite this work as:
 Gaussian 09, Revision E.01,
 M. J. Frisch, G. W. Trucks, H. B. Schlegel, G. E. Scuseria, 
 M. A. Robb, J. R. Cheeseman, G. Scalmani, V. Barone, B. Mennucci, 
 G. A. Petersson, H. Nakatsuji, M. Caricato, X. Li, H. P. Hratchian, 
 A. F. Izmaylov, J. Bloino, G. Zheng, J. L. Sonnenberg, M. Hada, 
 M. Ehara, K. Toyota, R. Fukuda, J. Hasegawa, M. Ishida, T. Nakajima, 
 Y. Honda, O. Kitao, H. Nakai, T. Vreven, J. A. Montgomery, Jr., 
 J. E. Peralta, F. Ogliaro, M. Bearpark, J. J. Heyd, E. Brothers, 
 K. N. Kudin, V. N. Staroverov, T. Keith, R. Kobayashi, J. Normand, 
 K. Raghavachari, A. Rendell, J. C. Burant, S. S. Iyengar, J. Tomasi, 
 M. Cossi, N. Rega, J. M. Millam, M. Klene, J. E. Knox, J. B. Cross, 
 V. Bakken, C. Adamo, J. Jaramillo, R. Gomperts, R. E. Stratmann, 
 O. Yazyev, A. J. Austin, R. Cammi, C. Pomelli, J. W. Ochterski, 
 R. L. Martin, K. Morokuma, V. G. Zakrzewski, G. A. Voth, 
 P. Salvador, J. J. Dannenberg, S. Dapprich, A. D. Daniels, 
 O. Farkas, J. B. Foresman, J. V. Ortiz, J. Cioslowski, 
 and D. J. Fox, Gaussian, Inc., Wallingford CT, 2013.
 
 ******************************************
 Gaussian 09:  ES64L-G09RevE.01 30-Nov-2015
                17-Dec-2024 
 ******************************************
 %chk=pbeD3Anthranilicyang.chk
 -----------------------------------------------------
 # opt freq pbepbe/6-31+g(d,p) empiricaldispersion=gd3
 -----------------------------------------------------
 1/14=-1,18=20,19=15,26=3,38=1/1,3;
 2/9=110,12=2,17=6,18=5,40=1/2;
 3/5=1,6=6,7=111,11=2,16=1,25=1,30=1,71=1,74=1009,124=31/1,2,3;
 4//1;
 5/5=2,38=5/2;
 6/7=2,8=2,9=2,10=2,28=1/1;
 7//1,2,3,16;
 1/14=-1,18=20,19=15,26=3/3(2);
 2/9=110/2;
 99//99;
 2/9=110/2;
 3/5=1,6=6,7=111,11=2,16=1,25=1,30=1,71=1,74=1009,124=31/1,2,3;
 4/5=5,16=3,69=1/1;
 5/5=2,38=5/2;
 7//1,2,3,16;
 1/14=-1,18=20,19=15,26=3/3(-5);
 2/9=110/2;
 6/7=2,8=2,9=2,10=2,19=2,28=1/1;
 99/9=1/99;
 ----------
 [No Title]
 ----------
 Symbolic Z-matrix:
 Charge =  1 Multiplicity = 1
 C                     1.94172  -1.46615   0. 
 C                     2.61871  -0.24746  -0.00001 
 C                     1.90672   0.95473   0. 
 C                     0.52312   0.91213   0.00001 
 C                    -0.18408  -0.30273   0.00004 
 C                     0.54974  -1.49548   0.00002 
 C                    -1.6661   -0.30605   0.00012 
 O                    -2.21307  -1.50482  -0.00015 
 N                    -0.25197   2.16658  -0.00003 
 O                    -2.34129   0.72879   0.00007 
 H                     2.49908  -2.39715  -0.00001 
 H                     3.70381  -0.22433  -0.00002 
 H                     2.43446   1.90495  -0.00002 
 H                     0.01888  -2.4411    0.00004 
 H                    -3.18236  -1.41785  -0.00023 
 H                    -0.06343   2.73668  -0.82887 
 H                    -1.2872    1.85039  -0.00012 
 H                    -0.06354   2.73666   0.82886 
 

 GradGradGradGradGradGradGradGradGradGradGradGradGradGradGradGradGradGrad
 Berny optimization.
 Initialization pass.
                           ----------------------------
                           !    Initial Parameters    !
                           ! (Angstroms and Degrees)  !
 --------------------------                            --------------------------
 ! Name  Definition              Value          Derivative Info.                !
 --------------------------------------------------------------------------------
 ! R1    R(1,2)                  1.3941         estimate D2E/DX2                !
 ! R2    R(1,6)                  1.3923         estimate D2E/DX2                !
 ! R3    R(1,11)                 1.0851         estimate D2E/DX2                !
 ! R4    R(2,3)                  1.3972         estimate D2E/DX2                !
 ! R5    R(2,12)                 1.0854         estimate D2E/DX2                !
 ! R6    R(3,4)                  1.3843         estimate D2E/DX2                !
 ! R7    R(3,13)                 1.0869         estimate D2E/DX2                !
 ! R8    R(4,5)                  1.4057         estimate D2E/DX2                !
 ! R9    R(4,9)                  1.4746         estimate D2E/DX2                !
 ! R10   R(5,6)                  1.4004         estimate D2E/DX2                !
 ! R11   R(5,7)                  1.482          estimate D2E/DX2                !
 ! R12   R(6,14)                 1.0844         estimate D2E/DX2                !
 ! R13   R(7,8)                  1.3177         estimate D2E/DX2                !
 ! R14   R(7,10)                 1.2356         estimate D2E/DX2                !
 ! R15   R(8,15)                 0.9732         estimate D2E/DX2                !
 ! R16   R(9,16)                 1.0235         estimate D2E/DX2                !
 ! R17   R(9,17)                 1.0824         estimate D2E/DX2                !
 ! R18   R(9,18)                 1.0235         estimate D2E/DX2                !
 ! A1    A(2,1,6)              120.2596         estimate D2E/DX2                !
 ! A2    A(2,1,11)             120.0399         estimate D2E/DX2                !
 ! A3    A(6,1,11)             119.7005         estimate D2E/DX2                !
 ! A4    A(1,2,3)              120.3121         estimate D2E/DX2                !
 ! A5    A(1,2,12)             120.2739         estimate D2E/DX2                !
 ! A6    A(3,2,12)             119.414          estimate D2E/DX2                !
 ! A7    A(2,3,4)              118.8723         estimate D2E/DX2                !
 ! A8    A(2,3,13)             120.3173         estimate D2E/DX2                !
 ! A9    A(4,3,13)             120.8104         estimate D2E/DX2                !
 ! A10   A(3,4,5)              121.9677         estimate D2E/DX2                !
 ! A11   A(3,4,9)              119.9476         estimate D2E/DX2                !
 ! A12   A(5,4,9)              118.0847         estimate D2E/DX2                !
 ! A13   A(4,5,6)              118.1946         estimate D2E/DX2                !
 ! A14   A(4,5,7)              120.3324         estimate D2E/DX2                !
 ! A15   A(6,5,7)              121.473          estimate D2E/DX2                !
 ! A16   A(1,6,5)              120.3938         estimate D2E/DX2                !
 ! A17   A(1,6,14)             120.5164         estimate D2E/DX2                !
 ! A18   A(5,6,14)             119.0898         estimate D2E/DX2                !
 ! A19   A(5,7,8)              114.654          estimate D2E/DX2                !
 ! A20   A(5,7,10)             122.9946         estimate D2E/DX2                !
 ! A21   A(8,7,10)             122.3514         estimate D2E/DX2                !
 ! A22   A(7,8,15)             109.399          estimate D2E/DX2                !
 ! A23   A(4,9,16)             112.1508         estimate D2E/DX2                !
 ! A24   A(4,9,17)             104.727          estimate D2E/DX2                !
 ! A25   A(4,9,18)             112.1511         estimate D2E/DX2                !
 ! A26   A(16,9,17)            109.8046         estimate D2E/DX2                !
 ! A27   A(16,9,18)            108.1598         estimate D2E/DX2                !
 ! A28   A(17,9,18)            109.8065         estimate D2E/DX2                !
 ! D1    D(6,1,2,3)             -0.0004         estimate D2E/DX2                !
 ! D2    D(6,1,2,12)          -180.0            estimate D2E/DX2                !
 ! D3    D(11,1,2,3)          -180.0            estimate D2E/DX2                !
 ! D4    D(11,1,2,12)            0.0004         estimate D2E/DX2                !
 ! D5    D(2,1,6,5)             -0.0002         estimate D2E/DX2                !
 ! D6    D(2,1,6,14)          -179.9991         estimate D2E/DX2                !
 ! D7    D(11,1,6,5)           179.9994         estimate D2E/DX2                !
 ! D8    D(11,1,6,14)            0.0005         estimate D2E/DX2                !
 ! D9    D(1,2,3,4)             -0.0002         estimate D2E/DX2                !
 ! D10   D(1,2,3,13)          -179.9991         estimate D2E/DX2                !
 ! D11   D(12,2,3,4)           179.9994         estimate D2E/DX2                !
 ! D12   D(12,2,3,13)            0.0004         estimate D2E/DX2                !
 ! D13   D(2,3,4,5)              0.0014         estimate D2E/DX2                !
 ! D14   D(2,3,4,9)           -179.9979         estimate D2E/DX2                !
 ! D15   D(13,3,4,5)          -179.9997         estimate D2E/DX2                !
 ! D16   D(13,3,4,9)             0.001          estimate D2E/DX2                !
 ! D17   D(3,4,5,6)             -0.002          estimate D2E/DX2                !
 ! D18   D(3,4,5,7)            179.9969         estimate D2E/DX2                !
 ! D19   D(9,4,5,6)            179.9973         estimate D2E/DX2                !
 ! D20   D(9,4,5,7)             -0.0038         estimate D2E/DX2                !
 ! D21   D(3,4,9,16)            60.9655         estimate D2E/DX2                !
 ! D22   D(3,4,9,17)           179.9939         estimate D2E/DX2                !
 ! D23   D(3,4,9,18)           -60.9754         estimate D2E/DX2                !
 ! D24   D(5,4,9,16)          -119.0338         estimate D2E/DX2                !
 ! D25   D(5,4,9,17)            -0.0055         estimate D2E/DX2                !
 ! D26   D(5,4,9,18)           119.0253         estimate D2E/DX2                !
 ! D27   D(4,5,6,1)              0.0014         estimate D2E/DX2                !
 ! D28   D(4,5,6,14)          -179.9998         estimate D2E/DX2                !
 ! D29   D(7,5,6,1)           -179.9975         estimate D2E/DX2                !
 ! D30   D(7,5,6,14)             0.0013         estimate D2E/DX2                !
 ! D31   D(4,5,7,8)            179.9861         estimate D2E/DX2                !
 ! D32   D(4,5,7,10)             0.0047         estimate D2E/DX2                !
 ! D33   D(6,5,7,8)             -0.015          estimate D2E/DX2                !
 ! D34   D(6,5,7,10)          -179.9964         estimate D2E/DX2                !
 ! D35   D(5,7,8,15)          -179.9903         estimate D2E/DX2                !
 ! D36   D(10,7,8,15)           -0.0088         estimate D2E/DX2                !
 --------------------------------------------------------------------------------
 Trust Radius=3.00D-01 FncErr=1.00D-07 GrdErr=1.00D-06
 Number of steps in this run=     92 maximum allowed number of steps=    108.
 GradGradGradGradGradGradGradGradGradGradGradGradGradGradGradGradGradGrad

                          Input orientation:                          
 ---------------------------------------------------------------------
 Center     Atomic      Atomic             Coordinates (Angstroms)
 Number     Number       Type             X           Y           Z
 ---------------------------------------------------------------------
      1          6           0        1.941720   -1.466149    0.000000
      2          6           0        2.618705   -0.247464   -0.000005
      3          6           0        1.906724    0.954728    0.000003
      4          6           0        0.523117    0.912134    0.000012
      5          6           0       -0.184078   -0.302734    0.000042
      6          6           0        0.549736   -1.495483    0.000021
      7          6           0       -1.666101   -0.306046    0.000119
      8          8           0       -2.213068   -1.504818   -0.000149
      9          7           0       -0.251972    2.166576   -0.000026
     10          8           0       -2.341287    0.728793    0.000074
     11          1           0        2.499082   -2.397147   -0.000006
     12          1           0        3.703814   -0.224327   -0.000022
     13          1           0        2.434464    1.904952   -0.000015
     14          1           0        0.018883   -2.441097    0.000040
     15          1           0       -3.182365   -1.417851   -0.000232
     16          1           0       -0.063428    2.736676   -0.828874
     17          1           0       -1.287195    1.850394   -0.000122
     18          1           0       -0.063544    2.736660    0.828859
 ---------------------------------------------------------------------
                    Distance matrix (angstroms):
                    1          2          3          4          5
     1  C    0.000000
     2  C    1.394095   0.000000
     3  C    2.421130   1.397205   0.000000
     4  C    2.769235   2.395027   1.384262   0.000000
     5  C    2.423335   2.803328   2.439808   1.405713   0.000000
     6  C    1.392293   2.416233   2.800884   2.407764   1.400405
     7  C    3.789751   4.285206   3.788750   2.505322   1.482027
     8  O    4.154968   4.992692   4.798130   3.650803   2.358348
     9  N    4.243698   3.750783   2.475590   1.474581   2.470243
    10  O    4.812683   5.055156   4.254015   2.870266   2.391150
    11  H    1.085085   2.153009   3.403815   3.854319   3.403809
    12  H    2.155713   1.085356   2.149349   3.377629   3.888683
    13  H    3.406922   2.160287   1.086938   2.153819   3.425002
    14  H    2.155882   3.401632   3.885302   3.390931   2.147973
    15  H    5.124313   5.917957   5.614976   4.377148   3.198939
    16  H    4.729840   4.097066   2.782782   2.088071   3.152724
    17  H    4.628752   4.433629   3.317128   2.039010   2.419262
    18  H    4.729873   4.097130   2.782847   2.088074   3.152679
                    6          7          8          9         10
     6  C    0.000000
     7  C    2.514894   0.000000
     8  O    2.762820   1.317660   0.000000
     9  N    3.748788   2.848442   4.162335   0.000000
    10  O    3.647659   1.235624   2.237288   2.536229   0.000000
    11  H    2.147777   4.660628   4.795895   5.328777   5.762003
    12  H    3.400595   5.370537   6.053854   4.622192   6.119778
    13  H    3.887822   4.658663   5.764207   2.699145   4.918450
    14  H    1.084431   2.719855   2.420377   4.615627   3.952038
    15  H    3.732908   1.880204   0.973191   4.629829   2.305535
    16  H    4.355939   3.537506   4.826801   1.023500   3.147601
    17  H    3.816963   2.189476   3.480616   1.082431   1.539188
    18  H    4.355929   3.537380   4.826784   1.023499   3.147464
                   11         12         13         14         15
    11  H    0.000000
    12  H    2.484457   0.000000
    13  H    4.302584   2.478927   0.000000
    14  H    2.480588   4.300324   4.972240   0.000000
    15  H    5.765229   6.988845   6.526085   3.360807   0.000000
    16  H    5.797380   4.862782   2.760115   5.244350   5.260657
    17  H    5.690123   5.405057   3.722059   4.485837   3.777975
    18  H    5.797417   4.862867   2.760220   5.244321   5.260646
                   16         17         18
    16  H    0.000000
    17  H    1.723349   0.000000
    18  H    1.657733   1.723368   0.000000
 Stoichiometry    C7H8NO2(1+)
 Framework group  C1[X(C7H8NO2)]
 Deg. of freedom    48
 Full point group                 C1      NOp   1
 Largest Abelian subgroup         C1      NOp   1
 Largest concise Abelian subgroup C1      NOp   1
                         Standard orientation:                         
 ---------------------------------------------------------------------
 Center     Atomic      Atomic             Coordinates (Angstroms)
 Number     Number       Type             X           Y           Z
 ---------------------------------------------------------------------
      1          6           0       -1.941720   -1.466149   -0.000000
      2          6           0       -2.618705   -0.247464    0.000005
      3          6           0       -1.906724    0.954728   -0.000003
      4          6           0       -0.523117    0.912134   -0.000012
      5          6           0        0.184078   -0.302734   -0.000042
      6          6           0       -0.549736   -1.495483   -0.000021
      7          6           0        1.666101   -0.306046   -0.000119
      8          8           0        2.213068   -1.504818    0.000149
      9          7           0        0.251972    2.166576    0.000026
     10          8           0        2.341287    0.728793   -0.000074
     11          1           0       -2.499082   -2.397147    0.000006
     12          1           0       -3.703814   -0.224327    0.000022
     13          1           0       -2.434464    1.904952    0.000015
     14          1           0       -0.018883   -2.441097   -0.000040
     15          1           0        3.182365   -1.417851    0.000232
     16          1           0        0.063428    2.736676    0.828874
     17          1           0        1.287195    1.850394    0.000122
     18          1           0        0.063544    2.736660   -0.828859
 ---------------------------------------------------------------------
 Rotational constants (GHZ):      2.2524529      1.2092096      0.7902223
 Standard basis: 6-31+G(d,p) (6D, 7F)
 There are   230 symmetry adapted cartesian basis functions of A   symmetry.
 There are   230 symmetry adapted basis functions of A   symmetry.
   230 basis functions,   376 primitive gaussians,   230 cartesian basis functions
    36 alpha electrons       36 beta electrons
       nuclear repulsion energy       515.6376277979 Hartrees.
 NAtoms=   18 NActive=   18 NUniq=   18 SFac= 1.00D+00 NAtFMM=   60 NAOKFM=F Big=F
 Integral buffers will be    131072 words long.
 Raffenetti 2 integral format.
 Two-electron integral symmetry is turned on.
 Nuclear repulsion after empirical dispersion term =      515.6299654785 Hartrees.
 One-electron integrals computed using PRISM.
 NBasis=   230 RedAO= T EigKep=  2.28D-06  NBF=   230
 NBsUse=   230 1.00D-06 EigRej= -1.00D+00 NBFU=   230
 ExpMin= 4.38D-02 ExpMax= 5.48D+03 ExpMxC= 8.25D+02 IAcc=2 IRadAn=         4 AccDes= 0.00D+00
 Harris functional with IExCor= 1009 and IRadAn=       4 diagonalized for initial guess.
 HarFok:  IExCor= 1009 AccDes= 0.00D+00 IRadAn=         4 IDoV= 1 UseB2=F ITyADJ=14
 ICtDFT=  3500011 ScaDFX=  1.000000  1.000000  1.000000  1.000000
 FoFCou: FMM=F IPFlag=           0 FMFlag=      100000 FMFlg1=           0
         NFxFlg=           0 DoJE=T BraDBF=F KetDBF=T FulRan=T
         wScrn=  0.000000 ICntrl=     500 IOpCl=  0 I1Cent=   200000004 NGrid=           0
         NMat0=    1 NMatS0=      1 NMatT0=    0 NMatD0=    1 NMtDS0=    0 NMtDT0=    0
 Petite list used in FoFCou.
 Keep J ints in memory in canonical form, NReq=359209085.
 Requested convergence on RMS density matrix=1.00D-08 within 128 cycles.
 Requested convergence on MAX density matrix=1.00D-06.
 Requested convergence on             energy=1.00D-06.
 No special actions if energy rises.
 SCF Done:  E(RPBE-PBE) =  -476.025903507     A.U. after   14 cycles
            NFock= 14  Conv=0.82D-08     -V/T= 2.0090

 **********************************************************************

            Population analysis using the SCF density.

 **********************************************************************

 Orbital symmetries:
       Occupied  (A) (A) (A) (A) (A) (A) (A) (A) (A) (A) (A) (A)
                 (A) (A) (A) (A) (A) (A) (A) (A) (A) (A) (A) (A)
                 (A) (A) (A) (A) (A) (A) (A) (A) (A) (A) (A) (A)
       Virtual   (A) (A) (A) (A) (A) (A) (A) (A) (A) (A) (A) (A)
                 (A) (A) (A) (A) (A) (A) (A) (A) (A) (A) (A) (A)
                 (A) (A) (A) (A) (A) (A) (A) (A) (A) (A) (A) (A)
                 (A) (A) (A) (A) (A) (A) (A) (A) (A) (A) (A) (A)
                 (A) (A) (A) (A) (A) (A) (A) (A) (A) (A) (A) (A)
                 (A) (A) (A) (A) (A) (A) (A) (A) (A) (A) (A) (A)
                 (A) (A) (A) (A) (A) (A) (A) (A) (A) (A) (A) (A)
                 (A) (A) (A) (A) (A) (A) (A) (A) (A) (A) (A) (A)
                 (A) (A) (A) (A) (A) (A) (A) (A) (A) (A) (A) (A)
                 (A) (A) (A) (A) (A) (A) (A) (A) (A) (A) (A) (A)
                 (A) (A) (A) (A) (A) (A) (A) (A) (A) (A) (A) (A)
                 (A) (A) (A) (A) (A) (A) (A) (A) (A) (A) (A) (A)
                 (A) (A) (A) (A) (A) (A) (A) (A) (A) (A) (A) (A)
                 (A) (A) (A) (A) (A) (A) (A) (A) (A) (A) (A) (A)
                 (A) (A) (A) (A) (A) (A) (A) (A) (A) (A) (A) (A)
                 (A) (A) (A) (A) (A) (A) (A) (A) (A) (A) (A) (A)
                 (A) (A)
 The electronic state is 1-A.
 Alpha  occ. eigenvalues --  -18.99995 -18.95569 -14.28984 -10.21149 -10.14206
 Alpha  occ. eigenvalues --  -10.10378 -10.08829 -10.08115 -10.08017 -10.07225
 Alpha  occ. eigenvalues --   -1.20349  -1.12118  -1.08996  -0.96016  -0.87684
 Alpha  occ. eigenvalues --   -0.85413  -0.77914  -0.74823  -0.72147  -0.70203
 Alpha  occ. eigenvalues --   -0.68249  -0.65886  -0.62956  -0.61095  -0.58237
 Alpha  occ. eigenvalues --   -0.57640  -0.56328  -0.55700  -0.51775  -0.50459
 Alpha  occ. eigenvalues --   -0.49212  -0.48027  -0.45616  -0.42176  -0.40881
 Alpha  occ. eigenvalues --   -0.40644
 Alpha virt. eigenvalues --   -0.25576  -0.21819  -0.18444  -0.15967  -0.13998
 Alpha virt. eigenvalues --   -0.12859  -0.11921  -0.10811  -0.09490  -0.08526
 Alpha virt. eigenvalues --   -0.07885  -0.07697  -0.06765  -0.05640  -0.05171
 Alpha virt. eigenvalues --   -0.04349  -0.04085  -0.02690  -0.02607  -0.02207
 Alpha virt. eigenvalues --   -0.00814  -0.00690  -0.00127   0.00565   0.02090
 Alpha virt. eigenvalues --    0.02525   0.02939   0.03213   0.04045   0.04198
 Alpha virt. eigenvalues --    0.04381   0.05102   0.05841   0.06553   0.06773
 Alpha virt. eigenvalues --    0.07647   0.07763   0.08646   0.08976   0.10267
 Alpha virt. eigenvalues --    0.11170   0.11825   0.11989   0.12193   0.13830
 Alpha virt. eigenvalues --    0.14274   0.14613   0.14845   0.15580   0.16519
 Alpha virt. eigenvalues --    0.17615   0.17975   0.19372   0.20736   0.22057
 Alpha virt. eigenvalues --    0.24065   0.24958   0.28408   0.30050   0.31689
 Alpha virt. eigenvalues --    0.37952   0.40846   0.43818   0.46027   0.48085
 Alpha virt. eigenvalues --    0.49442   0.52044   0.52253   0.53224   0.53689
 Alpha virt. eigenvalues --    0.54219   0.56662   0.57331   0.60797   0.60901
 Alpha virt. eigenvalues --    0.61421   0.64321   0.65911   0.67243   0.70884
 Alpha virt. eigenvalues --    0.73141   0.74248   0.74757   0.75792   0.78696
 Alpha virt. eigenvalues --    0.81226   0.84101   0.84305   0.89008   0.90487
 Alpha virt. eigenvalues --    0.91630   0.93288   0.93440   0.95432   0.97393
 Alpha virt. eigenvalues --    0.97611   0.99846   1.00166   1.03155   1.04362
 Alpha virt. eigenvalues --    1.06081   1.09083   1.09436   1.11637   1.11773
 Alpha virt. eigenvalues --    1.14447   1.15724   1.16452   1.17072   1.18043
 Alpha virt. eigenvalues --    1.19484   1.22680   1.28006   1.34922   1.36184
 Alpha virt. eigenvalues --    1.44305   1.45329   1.47750   1.47862   1.53233
 Alpha virt. eigenvalues --    1.55820   1.57389   1.60195   1.60380   1.62898
 Alpha virt. eigenvalues --    1.66714   1.69503   1.71966   1.74091   1.74411
 Alpha virt. eigenvalues --    1.76834   1.77771   1.78515   1.79360   1.82682
 Alpha virt. eigenvalues --    1.85805   1.86215   1.94907   1.95077   2.01891
 Alpha virt. eigenvalues --    2.04654   2.05623   2.09895   2.11825   2.14019
 Alpha virt. eigenvalues --    2.14257   2.16422   2.17988   2.18735   2.20015
 Alpha virt. eigenvalues --    2.25617   2.27719   2.27805   2.30376   2.33570
 Alpha virt. eigenvalues --    2.34673   2.37137   2.38424   2.39098   2.42726
 Alpha virt. eigenvalues --    2.44980   2.47022   2.49705   2.52108   2.55825
 Alpha virt. eigenvalues --    2.58396   2.63013   2.63398   2.67841   2.73084
 Alpha virt. eigenvalues --    2.81086   2.84723   2.92162   2.93817   3.00644
 Alpha virt. eigenvalues --    3.04219   3.05682   3.09789   3.09907   3.13527
 Alpha virt. eigenvalues --    3.25293   3.25803   3.33695   3.61469   3.96261
 Alpha virt. eigenvalues --    4.02793   4.04837   4.06375   4.12447   4.22316
 Alpha virt. eigenvalues --    4.23987   4.30952   4.56140   4.60292
          Condensed to atoms (all electrons):
               1          2          3          4          5          6
     1  C    7.561144   0.143917   0.945438  -1.082916   0.175556  -2.115957
     2  C    0.143917   6.089158  -1.012495   1.556276  -1.624336   1.224426
     3  C    0.945438  -1.012495  15.380912  -5.109271  -1.567834  -3.938188
     4  C   -1.082916   1.556276  -5.109271  21.978486  -5.824871  -3.316045
     5  C    0.175556  -1.624336  -1.567834  -5.824871  15.021499  -1.577879
     6  C   -2.115957   1.224426  -3.938188  -3.316045  -1.577879  17.250957
     7  C   -0.157879  -0.204937   0.710690  -0.781482  -0.172469  -0.585266
     8  O    0.120008  -0.005583   0.045395   0.027073  -0.086987  -0.136251
     9  N   -0.037044  -0.009117  -0.753021  -0.002786   0.462808   0.195021
    10  O    0.048051  -0.008672   0.080635  -0.149629  -0.025237  -0.116498
    11  H    0.227015   0.022021   0.005575  -0.003031   0.014045   0.052086
    12  H    0.056695   0.225222   0.056842  -0.043391   0.024985  -0.003456
    13  H    0.018508   0.072905   0.342681  -0.051843  -0.045875  -0.028188
    14  H    0.067583  -0.014243   0.030207   0.042125   0.061209   0.127824
    15  H   -0.008711  -0.000175   0.002198  -0.015281   0.036611   0.006021
    16  H    0.001065  -0.005280  -0.002727  -0.045335   0.029955   0.003884
    17  H    0.003648  -0.003168   0.227256   0.107524  -0.282950  -0.083831
    18  H    0.001069  -0.005272  -0.002647  -0.045219   0.029800   0.003834
               7          8          9         10         11         12
     1  C   -0.157879   0.120008  -0.037044   0.048051   0.227015   0.056695
     2  C   -0.204937  -0.005583  -0.009117  -0.008672   0.022021   0.225222
     3  C    0.710690   0.045395  -0.753021   0.080635   0.005575   0.056842
     4  C   -0.781482   0.027073  -0.002786  -0.149629  -0.003031  -0.043391
     5  C   -0.172469  -0.086987   0.462808  -0.025237   0.014045   0.024985
     6  C   -0.585266  -0.136251   0.195021  -0.116498   0.052086  -0.003456
     7  C    6.068595   0.124172  -0.121832   0.328780   0.001593   0.001819
     8  O    0.124172   8.264899  -0.016696  -0.155980   0.000092   0.000004
     9  N   -0.121832  -0.016696   7.217508  -0.041602   0.000171  -0.000457
    10  O    0.328780  -0.155980  -0.041602   8.354088   0.000028  -0.000003
    11  H    0.001593   0.000092   0.000171   0.000028   0.500031  -0.005086
    12  H    0.001819   0.000004  -0.000457  -0.000003  -0.005086   0.500756
    13  H    0.003945   0.000016  -0.000379   0.000114  -0.000141  -0.005238
    14  H   -0.010799   0.006659  -0.001617   0.000056  -0.004995  -0.000142
    15  H    0.017768   0.191318   0.000894   0.001936  -0.000000   0.000000
    16  H    0.001825   0.000224   0.302155   0.001446  -0.000000  -0.000003
    17  H    0.042313   0.004513   0.155573   0.103824  -0.000000   0.000002
    18  H    0.001825   0.000224   0.302156   0.001446  -0.000000  -0.000003
              13         14         15         16         17         18
     1  C    0.018508   0.067583  -0.008711   0.001065   0.003648   0.001069
     2  C    0.072905  -0.014243  -0.000175  -0.005280  -0.003168  -0.005272
     3  C    0.342681   0.030207   0.002198  -0.002727   0.227256  -0.002647
     4  C   -0.051843   0.042125  -0.015281  -0.045335   0.107524  -0.045219
     5  C   -0.045875   0.061209   0.036611   0.029955  -0.282950   0.029800
     6  C   -0.028188   0.127824   0.006021   0.003884  -0.083831   0.003834
     7  C    0.003945  -0.010799   0.017768   0.001825   0.042313   0.001825
     8  O    0.000016   0.006659   0.191318   0.000224   0.004513   0.000224
     9  N   -0.000379  -0.001617   0.000894   0.302155   0.155573   0.302156
    10  O    0.000114   0.000056   0.001936   0.001446   0.103824   0.001446
    11  H   -0.000141  -0.004995  -0.000000  -0.000000  -0.000000  -0.000000
    12  H   -0.005238  -0.000142   0.000000  -0.000003   0.000002  -0.000003
    13  H    0.513967   0.000012  -0.000000   0.000634   0.000095   0.000633
    14  H    0.000012   0.493369  -0.000049   0.000003   0.000009   0.000003
    15  H   -0.000000  -0.000049   0.354991  -0.000001  -0.000043  -0.000001
    16  H    0.000634   0.000003  -0.000001   0.336402  -0.008846  -0.024023
    17  H    0.000095   0.000009  -0.000043  -0.008846   0.309025  -0.008845
    18  H    0.000633   0.000003  -0.000001  -0.024023  -0.008845   0.336395
 Mulliken charges:
               1
     1  C    0.032811
     2  C   -0.440644
     3  C    0.558353
     4  C   -1.240385
     5  C    1.351972
     6  C   -0.962496
     7  C    0.731340
     8  O   -0.383098
     9  N   -0.651734
    10  O   -0.422784
    11  H    0.190597
    12  H    0.191451
    13  H    0.178154
    14  H    0.202786
    15  H    0.412527
    16  H    0.408622
    17  H    0.433903
    18  H    0.408625
 Sum of Mulliken charges =   1.00000
 Mulliken charges with hydrogens summed into heavy atoms:
               1
     1  C    0.223408
     2  C   -0.249193
     3  C    0.736507
     4  C   -1.240385
     5  C    1.351972
     6  C   -0.759710
     7  C    0.731340
     8  O    0.029429
     9  N    0.599416
    10  O   -0.422784
 Electronic spatial extent (au):  <R**2>=           1367.6255
 Charge=              1.0000 electrons
 Dipole moment (field-independent basis, Debye):
    X=             -0.9377    Y=              4.0548    Z=              0.0002  Tot=              4.1619
 Quadrupole moment (field-independent basis, Debye-Ang):
   XX=            -35.7381   YY=            -29.1928   ZZ=            -56.4280
   XY=             -3.5350   XZ=              0.0008   YZ=              0.0003
 Traceless Quadrupole moment (field-independent basis, Debye-Ang):
   XX=              4.7149   YY=             11.2602   ZZ=            -15.9750
   XY=             -3.5350   XZ=              0.0008   YZ=              0.0003
 Octapole moment (field-independent basis, Debye-Ang**2):
  XXX=             12.2399  YYY=             48.2006  ZZZ=              0.0007  XYY=              1.3243
  XXY=            -25.7120  XXZ=              0.0048  XZZ=             11.0365  YZZ=              9.4336
  YYZ=              0.0013  XYZ=             -0.0008
 Hexadecapole moment (field-independent basis, Debye-Ang**3):
 XXXX=           -793.3711 YYYY=           -410.4941 ZZZZ=            -61.2733 XXXY=            -83.0873
 XXXZ=              0.0134 YYYX=              7.5983 YYYZ=              0.0033 ZZZX=             -0.0009
 ZZZY=              0.0027 XXYY=           -225.0305 XXZZ=           -197.7045 YYZZ=            -97.7894
 XXYZ=             -0.0032 YYXZ=              0.0019 ZZXY=             -2.9408
 N-N= 5.156299654785D+02 E-N=-2.127974373834D+03  KE= 4.717858943085D+02
 Calling FoFJK, ICntrl=      2527 FMM=F ISym2X=0 I1Cent= 0 IOpClX= 0 NMat=1 NMatS=1 NMatT=0.
 ***** Axes restored to original set *****
 -------------------------------------------------------------------
 Center     Atomic                   Forces (Hartrees/Bohr)
 Number     Number              X              Y              Z
 -------------------------------------------------------------------
      1        6           0.000874186   -0.002691723   -0.000000863
      2        6           0.003010151    0.000557521    0.000000305
      3        6           0.002130575    0.002055308   -0.000002455
      4        6          -0.001069614    0.001491887    0.000001825
      5        6          -0.003969337   -0.000631470    0.000012245
      6        6          -0.000022018   -0.002547216    0.000002168
      7        6           0.010870147   -0.003726495   -0.000041599
      8        8           0.004341594   -0.014477759    0.000012494
      9        7           0.001732649    0.000446008   -0.000006476
     10        8          -0.012179256    0.017399256    0.000011171
     11        1           0.002790318   -0.004653106   -0.000000381
     12        1           0.005406418    0.000172668    0.000000423
     13        1           0.002560195    0.004753923   -0.000000372
     14        1          -0.002717567   -0.004705381    0.000000231
     15        1          -0.009466403    0.001043149    0.000000248
     16        1           0.001284880    0.003884391   -0.005350869
     17        1          -0.006855849   -0.002254910    0.000009720
     18        1           0.001278930    0.003883948    0.005352186
 -------------------------------------------------------------------
 Cartesian Forces:  Max     0.017399256 RMS     0.004748946

 GradGradGradGradGradGradGradGradGradGradGradGradGradGradGradGradGradGrad
 Berny optimization.
 FormGI is forming the generalized inverse of G from B-inverse, IUseBI=4.
 Internal  Forces:  Max     0.021226878 RMS     0.004340864
 Search for a local minimum.
 Step number   1 out of a maximum of   92
 All quantities printed in internal units (Hartrees-Bohrs-Radians)
 Mixed Optimization -- RFO/linear search
 Second derivative matrix not updated -- first step.
 ITU=  0
     Eigenvalues ---    0.00705   0.01004   0.01590   0.01591   0.01730
     Eigenvalues ---    0.02063   0.02134   0.02146   0.02160   0.02179
     Eigenvalues ---    0.02192   0.02227   0.02781   0.07033   0.07830
     Eigenvalues ---    0.16000   0.16000   0.16000   0.16000   0.16000
     Eigenvalues ---    0.16000   0.16000   0.16000   0.22000   0.22493
     Eigenvalues ---    0.24484   0.25000   0.25000   0.25000   0.25000
     Eigenvalues ---    0.34339   0.35169   0.35198   0.35355   0.35387
     Eigenvalues ---    0.35464   0.35702   0.41676   0.42397   0.43784
     Eigenvalues ---    0.43784   0.45547   0.45832   0.46607   0.47866
     Eigenvalues ---    0.52730   0.62518   0.88783
 RFO step:  Lambda=-2.92774285D-03 EMin= 7.05223089D-03
 Linear search not attempted -- first point.
 Iteration  1 RMS(Cart)=  0.01966658 RMS(Int)=  0.00003015
 Iteration  2 RMS(Cart)=  0.00008984 RMS(Int)=  0.00000147
 Iteration  3 RMS(Cart)=  0.00000001 RMS(Int)=  0.00000147
 Variable       Old X    -DE/DX   Delta X   Delta X   Delta X     New X
                                 (Linear)    (Quad)   (Total)
    R1        2.63446   0.00831   0.00000   0.01761   0.01761   2.65206
    R2        2.63105   0.00787   0.00000   0.01658   0.01658   2.64763
    R3        2.05051   0.00543   0.00000   0.01521   0.01521   2.06572
    R4        2.64034   0.00768   0.00000   0.01654   0.01654   2.65687
    R5        2.05102   0.00541   0.00000   0.01517   0.01517   2.06620
    R6        2.61588   0.00891   0.00000   0.01840   0.01840   2.63427
    R7        2.05402   0.00540   0.00000   0.01523   0.01523   2.06924
    R8        2.65641   0.00941   0.00000   0.02104   0.02104   2.67745
    R9        2.78655   0.00642   0.00000   0.01808   0.01808   2.80463
   R10        2.64638   0.00902   0.00000   0.01969   0.01970   2.66608
   R11        2.80062   0.00643   0.00000   0.01858   0.01858   2.81920
   R12        2.04928   0.00543   0.00000   0.01519   0.01519   2.06447
   R13        2.49002   0.01435   0.00000   0.02285   0.02285   2.51286
   R14        2.33499   0.02123   0.00000   0.02383   0.02383   2.35882
   R15        1.83906   0.00952   0.00000   0.01796   0.01796   1.85702
   R16        1.93413   0.00673   0.00000   0.01528   0.01528   1.94941
   R17        2.04550   0.00722   0.00000   0.02005   0.02005   2.06555
   R18        1.93413   0.00673   0.00000   0.01528   0.01528   1.94941
    A1        2.09893   0.00009   0.00000  -0.00007  -0.00007   2.09886
    A2        2.09509  -0.00005   0.00000   0.00001   0.00001   2.09510
    A3        2.08917  -0.00004   0.00000   0.00006   0.00006   2.08923
    A4        2.09984  -0.00021   0.00000  -0.00132  -0.00132   2.09852
    A5        2.09917   0.00016   0.00000   0.00102   0.00102   2.10020
    A6        2.08417   0.00005   0.00000   0.00029   0.00030   2.08447
    A7        2.07471   0.00048   0.00000   0.00217   0.00217   2.07688
    A8        2.09993  -0.00017   0.00000  -0.00064  -0.00064   2.09929
    A9        2.10854  -0.00031   0.00000  -0.00153  -0.00153   2.10701
   A10        2.12874  -0.00008   0.00000  -0.00006  -0.00005   2.12868
   A11        2.09348  -0.00113   0.00000  -0.00459  -0.00460   2.08889
   A12        2.06097   0.00121   0.00000   0.00465   0.00465   2.06562
   A13        2.06288  -0.00101   0.00000  -0.00382  -0.00382   2.05907
   A14        2.10020   0.00192   0.00000   0.00752   0.00752   2.10772
   A15        2.12010  -0.00091   0.00000  -0.00370  -0.00370   2.11640
   A16        2.10127   0.00073   0.00000   0.00310   0.00310   2.10437
   A17        2.10341  -0.00030   0.00000  -0.00113  -0.00113   2.10228
   A18        2.07851  -0.00043   0.00000  -0.00196  -0.00196   2.07654
   A19        2.00109  -0.00182   0.00000  -0.00720  -0.00720   1.99389
   A20        2.14666   0.00172   0.00000   0.00680   0.00680   2.15346
   A21        2.13544   0.00010   0.00000   0.00040   0.00040   2.13584
   A22        1.90937  -0.00035   0.00000  -0.00217  -0.00217   1.90720
   A23        1.95740   0.00013   0.00000   0.00072   0.00072   1.95813
   A24        1.82783  -0.00023   0.00000  -0.00130  -0.00130   1.82653
   A25        1.95741   0.00013   0.00000   0.00071   0.00071   1.95811
   A26        1.91645   0.00009   0.00000   0.00068   0.00068   1.91713
   A27        1.88774  -0.00018   0.00000  -0.00130  -0.00130   1.88644
   A28        1.91648   0.00008   0.00000   0.00056   0.00056   1.91705
    D1       -0.00001   0.00000   0.00000   0.00002   0.00002   0.00002
    D2       -3.14159  -0.00000   0.00000  -0.00000  -0.00000   3.14159
    D3       -3.14159   0.00000   0.00000   0.00000   0.00000  -3.14159
    D4        0.00001  -0.00000   0.00000  -0.00002  -0.00002  -0.00002
    D5       -0.00000   0.00000   0.00000   0.00001   0.00001   0.00001
    D6       -3.14158  -0.00000   0.00000  -0.00005  -0.00005   3.14156
    D7        3.14158   0.00000   0.00000   0.00003   0.00003  -3.14157
    D8        0.00001  -0.00000   0.00000  -0.00003  -0.00003  -0.00002
    D9       -0.00000   0.00000   0.00000   0.00001   0.00001   0.00000
   D10       -3.14158  -0.00000   0.00000  -0.00005  -0.00005   3.14156
   D11        3.14158   0.00000   0.00000   0.00003   0.00003  -3.14157
   D12        0.00001  -0.00000   0.00000  -0.00002  -0.00002  -0.00001
   D13        0.00002  -0.00000   0.00000  -0.00008  -0.00008  -0.00005
   D14       -3.14156  -0.00000   0.00000  -0.00012  -0.00012   3.14151
   D15       -3.14159  -0.00000   0.00000  -0.00002  -0.00002   3.14158
   D16        0.00002  -0.00000   0.00000  -0.00006  -0.00006  -0.00004
   D17       -0.00003   0.00000   0.00000   0.00011   0.00011   0.00008
   D18        3.14154   0.00000   0.00000   0.00017   0.00017  -3.14147
   D19        3.14155   0.00000   0.00000   0.00015   0.00015  -3.14149
   D20       -0.00007   0.00000   0.00000   0.00021   0.00021   0.00015
   D21        1.06405  -0.00002   0.00000  -0.00013  -0.00013   1.06392
   D22        3.14149   0.00001   0.00000   0.00027   0.00027  -3.14143
   D23       -1.06422   0.00002   0.00000   0.00053   0.00053  -1.06370
   D24       -2.07753  -0.00002   0.00000  -0.00016  -0.00016  -2.07769
   D25       -0.00010   0.00001   0.00000   0.00024   0.00024   0.00014
   D26        2.07738   0.00002   0.00000   0.00049   0.00049   2.07787
   D27        0.00002  -0.00000   0.00000  -0.00008  -0.00008  -0.00005
   D28       -3.14159  -0.00000   0.00000  -0.00002  -0.00002   3.14158
   D29       -3.14155  -0.00000   0.00000  -0.00014  -0.00014   3.14150
   D30        0.00002  -0.00000   0.00000  -0.00008  -0.00008  -0.00006
   D31        3.14135   0.00001   0.00000   0.00074   0.00074  -3.14109
   D32        0.00008  -0.00001   0.00000  -0.00033  -0.00033  -0.00025
   D33       -0.00026   0.00001   0.00000   0.00081   0.00081   0.00054
   D34       -3.14153  -0.00001   0.00000  -0.00027  -0.00027   3.14139
   D35       -3.14142  -0.00001   0.00000  -0.00056  -0.00056   3.14120
   D36       -0.00015   0.00001   0.00000   0.00051   0.00050   0.00035
         Item               Value     Threshold  Converged?
 Maximum Force            0.021227     0.000450     NO 
 RMS     Force            0.004341     0.000300     NO 
 Maximum Displacement     0.070106     0.001800     NO 
 RMS     Displacement     0.019710     0.001200     NO 
 Predicted change in Energy=-1.472898D-03
 GradGradGradGradGradGradGradGradGradGradGradGradGradGradGradGradGradGrad

                          Input orientation:                          
 ---------------------------------------------------------------------
 Center     Atomic      Atomic             Coordinates (Angstroms)
 Number     Number       Type             X           Y           Z
 ---------------------------------------------------------------------
      1          6           0        1.949114   -1.476107    0.000009
      2          6           0        2.632923   -0.250558    0.000055
      3          6           0        1.917152    0.959560    0.000017
      4          6           0        0.523703    0.920459   -0.000061
      5          6           0       -0.192356   -0.302126   -0.000167
      6          6           0        0.548302   -1.502900   -0.000096
      7          6           0       -1.684176   -0.312698   -0.000402
      8          8           0       -2.221539   -1.529035    0.000126
      9          7           0       -0.247155    2.188712    0.000000
     10          8           0       -2.378386    0.724685   -0.000256
     11          1           0        2.508842   -2.415065    0.000041
     12          1           0        3.726079   -0.228180    0.000138
     13          1           0        2.449947    1.916192    0.000083
     14          1           0        0.012739   -2.455091   -0.000164
     15          1           0       -3.201120   -1.450892    0.000291
     16          1           0       -0.053259    2.762580   -0.835013
     17          1           0       -1.294425    1.875725    0.000094
     18          1           0       -0.053178    2.762535    0.835023
 ---------------------------------------------------------------------
                    Distance matrix (angstroms):
                    1          2          3          4          5
     1  C    0.000000
     2  C    1.403412   0.000000
     3  C    2.435877   1.405956   0.000000
     4  C    2.788427   2.412486   1.393998   0.000000
     5  C    2.442156   2.825750   2.458024   1.416847   0.000000
     6  C    1.401068   2.431872   2.817350   2.423484   1.410827
     7  C    3.815012   4.317545   3.819451   2.528913   1.491857
     8  O    4.170988   5.019990   4.829272   3.679180   2.371262
     9  N    4.272528   3.774240   2.488984   1.484146   2.491441
    10  O    4.854970   5.105321   4.301954   2.908685   2.415174
    11  H    1.093132   2.168061   3.426105   3.881558   3.429429
    12  H    2.171388   1.093385   2.164011   3.402143   3.919133
    13  H    3.429071   2.174462   1.094995   2.168387   3.450030
    14  H    2.169782   3.424226   3.909812   3.414004   2.162712
    15  H    5.150296   5.956245   5.657472   4.415610   3.220609
    16  H    4.761641   4.122124   2.798334   2.103197   3.179424
    17  H    4.664261   4.465998   3.339699   2.053807   2.440818
    18  H    4.761566   4.122019   2.798242   2.103189   3.179475
                    6          7          8          9         10
     6  C    0.000000
     7  C    2.529929   0.000000
     8  O    2.769964   1.329750   0.000000
     9  N    3.776342   2.884802   4.209493   0.000000
    10  O    3.677994   1.248235   2.259171   2.585637   0.000000
    11  H    2.162350   4.690559   4.812645   5.365658   5.808874
    12  H    3.423912   5.410914   6.088216   4.650586   6.178384
    13  H    3.912345   4.696693   5.804513   2.710835   4.973177
    14  H    1.092472   2.733015   2.418590   4.651070   3.978499
    15  H    3.749783   1.896472   0.982693   4.687497   2.325946
    16  H    4.387856   3.579636   4.880250   1.031584   3.202506
    17  H    3.848475   2.222859   3.528729   1.093040   1.581096
    18  H    4.387841   3.579825   4.880206   1.031583   3.202673
                   11         12         13         14         15
    11  H    0.000000
    12  H    2.502824   0.000000
    13  H    4.331657   2.495364   0.000000
    14  H    2.496423   4.329898   5.004808   0.000000
    15  H    5.790794   7.034281   6.578132   3.367092   0.000000
    16  H    5.836924   4.891371   2.771245   5.284450   5.325420
    17  H    5.733735   5.443517   3.744591   4.523787   3.834301
    18  H    5.836839   4.891237   2.771112   5.284459   5.325343
                   16         17         18
    16  H    0.000000
    17  H    1.739082   0.000000
    18  H    1.670036   1.739032   0.000000
 Stoichiometry    C7H8NO2(1+)
 Framework group  C1[X(C7H8NO2)]
 Deg. of freedom    48
 Full point group                 C1      NOp   1
 Largest Abelian subgroup         C1      NOp   1
 Largest concise Abelian subgroup C1      NOp   1
                         Standard orientation:                         
 ---------------------------------------------------------------------
 Center     Atomic      Atomic             Coordinates (Angstroms)
 Number     Number       Type             X           Y           Z
 ---------------------------------------------------------------------
      1          6           0       -1.944535   -1.485123   -0.000070
      2          6           0       -2.635142   -0.263392   -0.000115
      3          6           0       -1.926106    0.950685   -0.000078
      4          6           0       -0.532461    0.919326    0.000000
      5          6           0        0.190380   -0.299262    0.000106
      6          6           0       -0.543596   -1.504133    0.000035
      7          6           0        1.682235   -0.301544    0.000342
      8          8           0        2.226348   -1.514877   -0.000186
      9          7           0        0.231338    2.191843   -0.000061
     10          8           0        2.370670    0.739679    0.000196
     11          1           0       -2.499037   -2.427176   -0.000102
     12          1           0       -3.728405   -0.247088   -0.000198
     13          1           0       -2.464208    1.904341   -0.000143
     14          1           0       -0.002751   -2.453333    0.000104
     15          1           0        3.205480   -1.431293   -0.000352
     16          1           0        0.034257    2.764624    0.834952
     17          1           0        1.280331    1.884679   -0.000155
     18          1           0        0.034176    2.764579   -0.835084
 ---------------------------------------------------------------------
 Rotational constants (GHZ):      2.2121757      1.1913579      0.7776896
 Standard basis: 6-31+G(d,p) (6D, 7F)
 There are   230 symmetry adapted cartesian basis functions of A   symmetry.
 There are   230 symmetry adapted basis functions of A   symmetry.
   230 basis functions,   376 primitive gaussians,   230 cartesian basis functions
    36 alpha electrons       36 beta electrons
       nuclear repulsion energy       511.4915761971 Hartrees.
 NAtoms=   18 NActive=   18 NUniq=   18 SFac= 1.00D+00 NAtFMM=   60 NAOKFM=F Big=F
 Integral buffers will be    131072 words long.
 Raffenetti 2 integral format.
 Two-electron integral symmetry is turned on.
 Nuclear repulsion after empirical dispersion term =      511.4839152620 Hartrees.
 One-electron integrals computed using PRISM.
 NBasis=   230 RedAO= T EigKep=  2.39D-06  NBF=   230
 NBsUse=   230 1.00D-06 EigRej= -1.00D+00 NBFU=   230
 Initial guess from the checkpoint file:  "pbeD3Anthranilicyang.chk"
 B after Tr=    -0.000000    0.000000    0.000000
         Rot=    0.999997   -0.000010    0.000013   -0.002249 Ang=  -0.26 deg.
 ExpMin= 4.38D-02 ExpMax= 5.48D+03 ExpMxC= 8.25D+02 IAcc=2 IRadAn=         4 AccDes= 0.00D+00
 Harris functional with IExCor= 1009 and IRadAn=       4 diagonalized for initial guess.
 HarFok:  IExCor= 1009 AccDes= 0.00D+00 IRadAn=         4 IDoV= 1 UseB2=F ITyADJ=14
 ICtDFT=  3500011 ScaDFX=  1.000000  1.000000  1.000000  1.000000
 FoFCou: FMM=F IPFlag=           0 FMFlag=      100000 FMFlg1=           0
         NFxFlg=           0 DoJE=T BraDBF=F KetDBF=T FulRan=T
         wScrn=  0.000000 ICntrl=     500 IOpCl=  0 I1Cent=   200000004 NGrid=           0
         NMat0=    1 NMatS0=      1 NMatT0=    0 NMatD0=    1 NMtDS0=    0 NMtDT0=    0
 Petite list used in FoFCou.
 Keep J ints in memory in canonical form, NReq=359209085.
 Requested convergence on RMS density matrix=1.00D-08 within 128 cycles.
 Requested convergence on MAX density matrix=1.00D-06.
 Requested convergence on             energy=1.00D-06.
 No special actions if energy rises.
 SCF Done:  E(RPBE-PBE) =  -476.027150258     A.U. after   12 cycles
            NFock= 12  Conv=0.70D-08     -V/T= 2.0098
 Calling FoFJK, ICntrl=      2527 FMM=F ISym2X=0 I1Cent= 0 IOpClX= 0 NMat=1 NMatS=1 NMatT=0.
 ***** Axes restored to original set *****
 -------------------------------------------------------------------
 Center     Atomic                   Forces (Hartrees/Bohr)
 Number     Number              X              Y              Z
 -------------------------------------------------------------------
      1        6          -0.000528945    0.000441236    0.000001956
      2        6          -0.000398391    0.000067282   -0.000000501
      3        6          -0.000378561   -0.000227153    0.000005195
      4        6           0.000894348   -0.002114434   -0.000004222
      5        6          -0.000815317    0.000367446   -0.000027048
      6        6           0.000622155    0.000299596   -0.000005347
      7        6           0.002411913    0.002221360    0.000100566
      8        8           0.000437683   -0.003025115   -0.000030429
      9        7          -0.002770211   -0.001290067    0.000009136
     10        8           0.002286012    0.002919196   -0.000028815
     11        1          -0.000114687    0.000105692    0.000000731
     12        1          -0.000161022    0.000055635   -0.000001159
     13        1          -0.000107919   -0.000031783    0.000000723
     14        1          -0.000039587    0.000188057   -0.000000443
     15        1          -0.000652681    0.000922782   -0.000002533
     16        1          -0.000087924   -0.000013073   -0.000291646
     17        1          -0.000518382   -0.000874687   -0.000016886
     18        1          -0.000078485   -0.000011969    0.000290723
 -------------------------------------------------------------------
 Cartesian Forces:  Max     0.003025115 RMS     0.000992299

 GradGradGradGradGradGradGradGradGradGradGradGradGradGradGradGradGradGrad
 Berny optimization.
 Using GEDIIS/GDIIS optimizer.
 FormGI is forming the generalized inverse of G from B-inverse, IUseBI=4.
 Internal  Forces:  Max     0.009331086 RMS     0.002110368
 Search for a local minimum.
 Step number   2 out of a maximum of   92
 All quantities printed in internal units (Hartrees-Bohrs-Radians)
 Mixed Optimization -- RFO/linear search
 Update second derivatives using D2CorX and points    1    2
 DE= -1.25D-03 DEPred=-1.47D-03 R= 8.46D-01
 TightC=F SS=  1.41D+00  RLast= 7.85D-02 DXNew= 5.0454D-01 2.3561D-01
 Trust test= 8.46D-01 RLast= 7.85D-02 DXMaxT set to 3.00D-01
 ITU=  1  0
 Use linear search instead of GDIIS.
     Eigenvalues ---    0.00705   0.01004   0.01587   0.01591   0.01729
     Eigenvalues ---    0.02064   0.02134   0.02146   0.02160   0.02179
     Eigenvalues ---    0.02192   0.02227   0.02781   0.07028   0.07832
     Eigenvalues ---    0.15837   0.16000   0.16000   0.16000   0.16000
     Eigenvalues ---    0.16000   0.16000   0.16002   0.21241   0.22007
     Eigenvalues ---    0.22625   0.24506   0.25000   0.25000   0.25112
     Eigenvalues ---    0.34052   0.35179   0.35269   0.35370   0.35436
     Eigenvalues ---    0.35599   0.37613   0.41228   0.42333   0.43784
     Eigenvalues ---    0.44080   0.45552   0.46604   0.47257   0.51883
     Eigenvalues ---    0.58996   0.64435   0.88410
 RFO step:  Lambda=-1.00486270D-03 EMin= 7.05224869D-03
 Quartic linear search produced a step of -0.12230.
 Iteration  1 RMS(Cart)=  0.03715786 RMS(Int)=  0.00038008
 Iteration  2 RMS(Cart)=  0.00092247 RMS(Int)=  0.00000268
 Iteration  3 RMS(Cart)=  0.00000038 RMS(Int)=  0.00000268
 Variable       Old X    -DE/DX   Delta X   Delta X   Delta X     New X
                                 (Linear)    (Quad)   (Total)
    R1        2.65206   0.00065  -0.00215   0.00977   0.00762   2.65968
    R2        2.64763  -0.00030  -0.00203   0.00733   0.00530   2.65293
    R3        2.06572  -0.00015  -0.00186   0.00664   0.00478   2.07050
    R4        2.65687  -0.00007  -0.00202   0.00771   0.00568   2.66256
    R5        2.06620  -0.00016  -0.00186   0.00660   0.00474   2.07094
    R6        2.63427  -0.00139  -0.00225   0.00578   0.00353   2.63781
    R7        2.06924  -0.00008  -0.00186   0.00682   0.00495   2.07420
    R8        2.67745  -0.00631  -0.00257  -0.00305  -0.00562   2.67183
    R9        2.80463  -0.00008  -0.00221   0.00814   0.00593   2.81056
   R10        2.66608  -0.00123  -0.00241   0.00656   0.00416   2.67023
   R11        2.81920  -0.00450  -0.00227  -0.00292  -0.00519   2.81401
   R12        2.06447  -0.00014  -0.00186   0.00665   0.00479   2.06926
   R13        2.51286   0.00201  -0.00279   0.01341   0.01061   2.52348
   R14        2.35882   0.00115  -0.00291   0.01221   0.00930   2.36812
   R15        1.85702   0.00072  -0.00220   0.00951   0.00732   1.86434
   R16        1.94941   0.00021  -0.00187   0.00748   0.00561   1.95503
   R17        2.06555   0.00075  -0.00245   0.01107   0.00862   2.07416
   R18        1.94941   0.00021  -0.00187   0.00749   0.00562   1.95503
    A1        2.09886  -0.00000   0.00001   0.00153   0.00154   2.10040
    A2        2.09510   0.00005  -0.00000  -0.00053  -0.00053   2.09457
    A3        2.08923  -0.00004  -0.00001  -0.00100  -0.00101   2.08822
    A4        2.09852  -0.00000   0.00016   0.00090   0.00106   2.09958
    A5        2.10020   0.00006  -0.00013   0.00005  -0.00007   2.10013
    A6        2.08447  -0.00006  -0.00004  -0.00095  -0.00098   2.08348
    A7        2.07688  -0.00165  -0.00027  -0.00539  -0.00565   2.07123
    A8        2.09929   0.00091   0.00008   0.00334   0.00342   2.10271
    A9        2.10701   0.00074   0.00019   0.00205   0.00223   2.10925
   A10        2.12868   0.00160   0.00001   0.00461   0.00462   2.13330
   A11        2.08889   0.00574   0.00056   0.01842   0.01898   2.10787
   A12        2.06562  -0.00734  -0.00057  -0.02303  -0.02360   2.04202
   A13        2.05907   0.00191   0.00047   0.00402   0.00448   2.06355
   A14        2.10772  -0.00933  -0.00092  -0.02870  -0.02962   2.07809
   A15        2.11640   0.00742   0.00045   0.02469   0.02514   2.14154
   A16        2.10437  -0.00186  -0.00038  -0.00567  -0.00605   2.09832
   A17        2.10228   0.00106   0.00014   0.00373   0.00387   2.10615
   A18        2.07654   0.00080   0.00024   0.00194   0.00218   2.07872
   A19        1.99389   0.00275   0.00088   0.00631   0.00719   2.00107
   A20        2.15346  -0.00553  -0.00083  -0.01621  -0.01704   2.13642
   A21        2.13584   0.00278  -0.00005   0.00990   0.00985   2.14569
   A22        1.90720  -0.00161   0.00027  -0.00976  -0.00950   1.89770
   A23        1.95813   0.00015  -0.00009   0.00169   0.00160   1.95973
   A24        1.82653  -0.00111   0.00016  -0.00775  -0.00759   1.81894
   A25        1.95811   0.00015  -0.00009   0.00171   0.00162   1.95973
   A26        1.91713   0.00030  -0.00008   0.00081   0.00073   1.91786
   A27        1.88644   0.00020   0.00016   0.00237   0.00252   1.88896
   A28        1.91705   0.00031  -0.00007   0.00093   0.00086   1.91791
    D1        0.00002  -0.00000  -0.00000  -0.00003  -0.00003  -0.00001
    D2        3.14159   0.00000   0.00000   0.00001   0.00001  -3.14159
    D3       -3.14159  -0.00000  -0.00000  -0.00000  -0.00000   3.14159
    D4       -0.00002   0.00000   0.00000   0.00003   0.00004   0.00002
    D5        0.00001  -0.00000  -0.00000  -0.00003  -0.00003  -0.00002
    D6        3.14156   0.00000   0.00001   0.00006   0.00007  -3.14156
    D7       -3.14157  -0.00000  -0.00000  -0.00005  -0.00005   3.14156
    D8       -0.00002   0.00000   0.00000   0.00004   0.00004   0.00002
    D9        0.00000  -0.00000  -0.00000  -0.00001  -0.00001  -0.00001
   D10        3.14156   0.00000   0.00001   0.00006   0.00006  -3.14156
   D11       -3.14157  -0.00000  -0.00000  -0.00005  -0.00005   3.14156
   D12       -0.00001   0.00000   0.00000   0.00002   0.00002   0.00001
   D13       -0.00005   0.00000   0.00001   0.00011   0.00012   0.00006
   D14        3.14151   0.00000   0.00001   0.00015   0.00016  -3.14151
   D15        3.14158   0.00000   0.00000   0.00004   0.00004  -3.14157
   D16       -0.00004   0.00000   0.00001   0.00008   0.00008   0.00004
   D17        0.00008  -0.00001  -0.00001  -0.00016  -0.00017  -0.00010
   D18       -3.14147  -0.00001  -0.00002  -0.00024  -0.00026   3.14145
   D19       -3.14149  -0.00001  -0.00002  -0.00020  -0.00022   3.14148
   D20        0.00015  -0.00001  -0.00003  -0.00028  -0.00030  -0.00016
   D21        1.06392   0.00024   0.00002   0.00249   0.00251   1.06643
   D22       -3.14143  -0.00001  -0.00003  -0.00038  -0.00042   3.14134
   D23       -1.06370  -0.00024  -0.00006  -0.00310  -0.00317  -1.06687
   D24       -2.07769   0.00024   0.00002   0.00253   0.00255  -2.07514
   D25        0.00014  -0.00001  -0.00003  -0.00035  -0.00038  -0.00023
   D26        2.07787  -0.00024  -0.00006  -0.00307  -0.00313   2.07474
   D27       -0.00005   0.00000   0.00001   0.00012   0.00013   0.00007
   D28        3.14158   0.00000   0.00000   0.00003   0.00003  -3.14157
   D29        3.14150   0.00001   0.00002   0.00020   0.00022  -3.14147
   D30       -0.00006   0.00000   0.00001   0.00011   0.00012   0.00007
   D31       -3.14109  -0.00003  -0.00009  -0.00127  -0.00135   3.14074
   D32       -0.00025   0.00002   0.00004   0.00076   0.00079   0.00054
   D33        0.00054  -0.00003  -0.00010  -0.00135  -0.00144  -0.00090
   D34        3.14139   0.00002   0.00003   0.00067   0.00070  -3.14110
   D35        3.14120   0.00002   0.00007   0.00104   0.00113  -3.14086
   D36        0.00035  -0.00002  -0.00006  -0.00094  -0.00102  -0.00067
         Item               Value     Threshold  Converged?
 Maximum Force            0.009331     0.000450     NO 
 RMS     Force            0.002110     0.000300     NO 
 Maximum Displacement     0.150019     0.001800     NO 
 RMS     Displacement     0.037897     0.001200     NO 
 Predicted change in Energy=-5.312728D-04
 GradGradGradGradGradGradGradGradGradGradGradGradGradGradGradGradGradGrad

                          Input orientation:                          
 ---------------------------------------------------------------------
 Center     Atomic      Atomic             Coordinates (Angstroms)
 Number     Number       Type             X           Y           Z
 ---------------------------------------------------------------------
      1          6           0        1.966207   -1.481635    0.000014
      2          6           0        2.646392   -0.249466   -0.000088
      3          6           0        1.924872    0.960736   -0.000056
      4          6           0        0.529971    0.908839    0.000068
      5          6           0       -0.179069   -0.314393    0.000240
      6          6           0        0.562781   -1.517016    0.000166
      7          6           0       -1.667938   -0.287558    0.000550
      8          8           0       -2.246728   -1.490972   -0.000337
      9          7           0       -0.277938    2.157557    0.000002
     10          8           0       -2.320383    0.782355    0.000093
     11          1           0        2.531997   -2.419907   -0.000012
     12          1           0        3.741945   -0.222143   -0.000213
     13          1           0        2.452312    1.923322   -0.000166
     14          1           0        0.028085   -2.472598    0.000279
     15          1           0       -3.226034   -1.371505   -0.000734
     16          1           0       -0.102706    2.738136   -0.838165
     17          1           0       -1.317688    1.805921   -0.000138
     18          1           0       -0.102872    2.738124    0.838214
 ---------------------------------------------------------------------
                    Distance matrix (angstroms):
                    1          2          3          4          5
     1  C    0.000000
     2  C    1.407442   0.000000
     3  C    2.442721   1.408964   0.000000
     4  C    2.788753   2.412656   1.395866   0.000000
     5  C    2.442267   2.826207   2.460188   1.413872   0.000000
     6  C    1.403872   2.438876   2.827463   2.426077   1.413027
     7  C    3.825288   4.314498   3.803488   2.502433   1.489110
     8  O    4.212946   5.048164   4.838711   3.670034   2.378981
     9  N    4.275501   3.787541   2.506941   1.487284   2.473926
    10  O    4.847732   5.072820   4.249001   2.853159   2.405843
    11  H    1.095660   2.173453   3.434727   3.884412   3.432648
    12  H    2.177054   1.095894   2.168169   3.405275   3.922100
    13  H    3.439481   2.181438   1.097617   2.173608   3.454205
    14  H    2.176769   3.434799   3.922446   3.418480   2.168124
    15  H    5.193409   5.978659   5.654307   4.394035   3.225133
    16  H    4.773826   4.145561   2.823588   2.109323   3.166495
    17  H    4.646718   4.465260   3.350900   2.053923   2.406695
    18  H    4.773891   4.145708   2.823747   2.109327   3.166365
                    6          7          8          9         10
     6  C    0.000000
     7  C    2.547092   0.000000
     8  O    2.809630   1.335367   0.000000
     9  N    3.769522   2.812594   4.145829   0.000000
    10  O    3.687783   1.253155   2.274520   2.462267   0.000000
    11  H    2.166338   4.710240   4.868176   5.371118   5.813783
    12  H    3.432751   5.410279   6.121612   4.671449   6.144985
    13  H    3.925080   4.675944   5.808475   2.740280   4.907181
    14  H    1.095005   2.766025   2.477572   4.640256   4.013729
    15  H    3.791609   1.898053   0.986566   4.598428   2.336518
    16  H    4.387709   3.508308   4.814992   1.034555   3.073410
    17  H    3.818124   2.122576   3.425291   1.097601   1.432859
    18  H    4.387669   3.507972   4.815033   1.034556   3.073245
                   11         12         13         14         15
    11  H    0.000000
    12  H    2.508812   0.000000
    13  H    4.343959   2.503232   0.000000
    14  H    2.504466   4.342500   5.020058   0.000000
    15  H    5.852698   7.062136   6.565021   3.435360   0.000000
    16  H    5.852313   4.924100   2.809676   5.279379   5.229304
    17  H    5.716440   5.450957   3.771828   4.485178   3.706456
    18  H    5.852387   4.924303   2.809937   5.279290   5.229439
                   16         17         18
    16  H    0.000000
    17  H    1.745709   0.000000
    18  H    1.676379   1.745742   0.000000
 Stoichiometry    C7H8NO2(1+)
 Framework group  C1[X(C7H8NO2)]
 Deg. of freedom    48
 Full point group                 C1      NOp   1
 Largest Abelian subgroup         C1      NOp   1
 Largest concise Abelian subgroup C1      NOp   1
                         Standard orientation:                         
 ---------------------------------------------------------------------
 Center     Atomic      Atomic             Coordinates (Angstroms)
 Number     Number       Type             X           Y           Z
 ---------------------------------------------------------------------
      1          6           0       -1.993969   -1.443726    0.000020
      2          6           0       -2.648092   -0.197526    0.000122
      3          6           0       -1.901282    0.997236    0.000090
      4          6           0       -0.507780    0.916016   -0.000034
      5          6           0        0.175379   -0.321856   -0.000206
      6          6           0       -0.591598   -1.508612   -0.000132
      7          6           0        1.664483   -0.326337   -0.000516
      8          8           0        2.217838   -1.541656    0.000372
      9          7           0        0.326210    2.147468    0.000032
     10          8           0        2.339283    0.729619   -0.000059
     11          1           0       -2.579365   -2.369892    0.000046
     12          1           0       -3.742828   -0.147170    0.000247
     13          1           0       -2.408363    1.970700    0.000200
     14          1           0       -0.077115   -2.475227   -0.000245
     15          1           0        3.199440   -1.442809    0.000768
     16          1           0        0.163225    2.731605    0.838199
     17          1           0        1.358335    1.774045    0.000172
     18          1           0        0.163391    2.731589   -0.838180
 ---------------------------------------------------------------------
 Rotational constants (GHZ):      2.2375573      1.1917733      0.7810075
 Standard basis: 6-31+G(d,p) (6D, 7F)
 There are   230 symmetry adapted cartesian basis functions of A   symmetry.
 There are   230 symmetry adapted basis functions of A   symmetry.
   230 basis functions,   376 primitive gaussians,   230 cartesian basis functions
    36 alpha electrons       36 beta electrons
       nuclear repulsion energy       512.3094179702 Hartrees.
 NAtoms=   18 NActive=   18 NUniq=   18 SFac= 1.00D+00 NAtFMM=   60 NAOKFM=F Big=F
 Integral buffers will be    131072 words long.
 Raffenetti 2 integral format.
 Two-electron integral symmetry is turned on.
 Nuclear repulsion after empirical dispersion term =      512.3017707892 Hartrees.
 One-electron integrals computed using PRISM.
 NBasis=   230 RedAO= T EigKep=  2.43D-06  NBF=   230
 NBsUse=   230 1.00D-06 EigRej= -1.00D+00 NBFU=   230
 Initial guess from the checkpoint file:  "pbeD3Anthranilicyang.chk"
 B after Tr=     0.000000   -0.000000    0.000000
         Rot=    0.999941    0.000012   -0.000018    0.010898 Ang=   1.25 deg.
 ExpMin= 4.38D-02 ExpMax= 5.48D+03 ExpMxC= 8.25D+02 IAcc=2 IRadAn=         4 AccDes= 0.00D+00
 Harris functional with IExCor= 1009 and IRadAn=       4 diagonalized for initial guess.
 HarFok:  IExCor= 1009 AccDes= 0.00D+00 IRadAn=         4 IDoV= 1 UseB2=F ITyADJ=14
 ICtDFT=  3500011 ScaDFX=  1.000000  1.000000  1.000000  1.000000
 FoFCou: FMM=F IPFlag=           0 FMFlag=      100000 FMFlg1=           0
         NFxFlg=           0 DoJE=T BraDBF=F KetDBF=T FulRan=T
         wScrn=  0.000000 ICntrl=     500 IOpCl=  0 I1Cent=   200000004 NGrid=           0
         NMat0=    1 NMatS0=      1 NMatT0=    0 NMatD0=    1 NMtDS0=    0 NMtDT0=    0
 Petite list used in FoFCou.
 Keep J ints in memory in canonical form, NReq=359209085.
 Requested convergence on RMS density matrix=1.00D-08 within 128 cycles.
 Requested convergence on MAX density matrix=1.00D-06.
 Requested convergence on             energy=1.00D-06.
 No special actions if energy rises.
 SCF Done:  E(RPBE-PBE) =  -476.026379459     A.U. after   13 cycles
            NFock= 13  Conv=0.66D-08     -V/T= 2.0098
 Calling FoFJK, ICntrl=      2527 FMM=F ISym2X=0 I1Cent= 0 IOpClX= 0 NMat=1 NMatS=1 NMatT=0.
 ***** Axes restored to original set *****
 -------------------------------------------------------------------
 Center     Atomic                   Forces (Hartrees/Bohr)
 Number     Number              X              Y              Z
 -------------------------------------------------------------------
      1        6          -0.001099267    0.001002262   -0.000004068
      2        6          -0.001635617   -0.000132039    0.000000899
      3        6          -0.000662691   -0.000754946   -0.000007376
      4        6           0.000832874    0.003341786    0.000007330
      5        6          -0.000769572   -0.001056329    0.000050667
      6        6           0.000209956    0.000333062    0.000008603
      7        6           0.003243908   -0.004411454   -0.000187647
      8        8          -0.001182750    0.006375941    0.000058517
      9        7           0.014912404    0.007936001   -0.000007751
     10        8          -0.008746324   -0.009364063    0.000058398
     11        1          -0.000961044    0.001583195   -0.000001050
     12        1          -0.001811628   -0.000164976    0.000001938
     13        1          -0.001051345   -0.001749747   -0.000001137
     14        1           0.000880370    0.001422489    0.000000851
     15        1           0.002039734   -0.000423602    0.000004723
     16        1           0.000692646   -0.001225548    0.002363678
     17        1          -0.005575058   -0.001485848    0.000016416
     18        1           0.000683402   -0.001226183   -0.002362993
 -------------------------------------------------------------------
 Cartesian Forces:  Max     0.014912404 RMS     0.003354709

 GradGradGradGradGradGradGradGradGradGradGradGradGradGradGradGradGradGrad
 Berny optimization.
 Using GEDIIS/GDIIS optimizer.
 FormGI is forming the generalized inverse of G from B-inverse, IUseBI=4.
 Internal  Forces:  Max     0.026153478 RMS     0.005748046
 Search for a local minimum.
 Step number   3 out of a maximum of   92
 All quantities printed in internal units (Hartrees-Bohrs-Radians)
 Mixed Optimization -- RFO/linear search
 Update second derivatives using D2CorX and points    1    3    2
 DE=  7.71D-04 DEPred=-5.31D-04 R=-1.45D+00
 Trust test=-1.45D+00 RLast= 6.28D-02 DXMaxT set to 1.50D-01
 ITU= -1  1  0
 Use linear search instead of GDIIS.
 Energy rises -- skip Quadratic/GDIIS search.
 Quartic linear search produced a step of -0.67642.
 Iteration  1 RMS(Cart)=  0.02571753 RMS(Int)=  0.00018595
 Iteration  2 RMS(Cart)=  0.00026028 RMS(Int)=  0.00000059
 Iteration  3 RMS(Cart)=  0.00000001 RMS(Int)=  0.00000059
 Variable       Old X    -DE/DX   Delta X   Delta X   Delta X     New X
                                 (Linear)    (Quad)   (Total)
    R1        2.65968  -0.00577  -0.00515   0.00000  -0.00515   2.65453
    R2        2.65293  -0.00494  -0.00358   0.00000  -0.00358   2.64935
    R3        2.07050  -0.00185  -0.00323   0.00000  -0.00323   2.06727
    R4        2.66256  -0.00440  -0.00384   0.00000  -0.00384   2.65871
    R5        2.07094  -0.00181  -0.00321   0.00000  -0.00321   2.06773
    R6        2.63781  -0.00226  -0.00239   0.00000  -0.00239   2.63542
    R7        2.07420  -0.00204  -0.00335   0.00000  -0.00335   2.07084
    R8        2.67183   0.01290   0.00380   0.00000   0.00380   2.67563
    R9        2.81056  -0.00246  -0.00401   0.00000  -0.00401   2.80655
   R10        2.67023  -0.00140  -0.00281   0.00000  -0.00281   2.66742
   R11        2.81401   0.00450   0.00351   0.00000   0.00351   2.81752
   R12        2.06926  -0.00167  -0.00324   0.00000  -0.00324   2.06602
   R13        2.52348  -0.00573  -0.00718   0.00000  -0.00718   2.51630
   R14        2.36812  -0.00344  -0.00629   0.00000  -0.00629   2.36183
   R15        1.86434  -0.00208  -0.00495   0.00000  -0.00495   1.85939
   R16        1.95503  -0.00249  -0.00380   0.00000  -0.00380   1.95123
   R17        2.07416   0.00576  -0.00583   0.00000  -0.00583   2.06833
   R18        1.95503  -0.00249  -0.00380   0.00000  -0.00380   1.95123
    A1        2.10040   0.00034  -0.00104   0.00000  -0.00104   2.09935
    A2        2.09457  -0.00017   0.00036   0.00000   0.00036   2.09493
    A3        2.08822  -0.00017   0.00068   0.00000   0.00068   2.08890
    A4        2.09958   0.00032  -0.00072   0.00000  -0.00072   2.09886
    A5        2.10013  -0.00028   0.00005   0.00000   0.00005   2.10018
    A6        2.08348  -0.00004   0.00067   0.00000   0.00067   2.08415
    A7        2.07123   0.00365   0.00382   0.00000   0.00382   2.07505
    A8        2.10271  -0.00174  -0.00231   0.00000  -0.00231   2.10040
    A9        2.10925  -0.00191  -0.00151   0.00000  -0.00151   2.10774
   A10        2.13330  -0.00368  -0.00312   0.00000  -0.00312   2.13018
   A11        2.10787  -0.01539  -0.01284   0.00000  -0.01284   2.09503
   A12        2.04202   0.01908   0.01596   0.00000   0.01596   2.05798
   A13        2.06355  -0.00503  -0.00303   0.00000  -0.00303   2.06052
   A14        2.07809   0.02615   0.02004   0.00000   0.02004   2.09813
   A15        2.14154  -0.02112  -0.01700   0.00000  -0.01700   2.12454
   A16        2.09832   0.00440   0.00409   0.00000   0.00409   2.10241
   A17        2.10615  -0.00228  -0.00262   0.00000  -0.00262   2.10353
   A18        2.07872  -0.00212  -0.00147   0.00000  -0.00147   2.07725
   A19        2.00107  -0.00693  -0.00486   0.00000  -0.00486   1.99621
   A20        2.13642   0.01808   0.01153   0.00000   0.01153   2.14795
   A21        2.14569  -0.01115  -0.00667   0.00000  -0.00667   2.13903
   A22        1.89770   0.00033   0.00642   0.00000   0.00642   1.90412
   A23        1.95973  -0.00088  -0.00108   0.00000  -0.00108   1.95864
   A24        1.81894   0.00119   0.00514   0.00000   0.00514   1.82407
   A25        1.95973  -0.00088  -0.00109   0.00000  -0.00109   1.95864
   A26        1.91786   0.00041  -0.00049   0.00000  -0.00049   1.91737
   A27        1.88896  -0.00014  -0.00171   0.00000  -0.00171   1.88726
   A28        1.91791   0.00039  -0.00058   0.00000  -0.00058   1.91733
    D1       -0.00001   0.00000   0.00002   0.00000   0.00002   0.00001
    D2       -3.14159  -0.00000  -0.00001   0.00000  -0.00001  -3.14159
    D3        3.14159   0.00000   0.00000   0.00000   0.00000  -3.14159
    D4        0.00002  -0.00000  -0.00002   0.00000  -0.00002  -0.00000
    D5       -0.00002   0.00000   0.00002   0.00000   0.00002  -0.00000
    D6       -3.14156  -0.00000  -0.00005   0.00000  -0.00005   3.14158
    D7        3.14156   0.00000   0.00004   0.00000   0.00004  -3.14159
    D8        0.00002  -0.00000  -0.00003   0.00000  -0.00003  -0.00001
    D9       -0.00001   0.00000   0.00001   0.00000   0.00001   0.00000
   D10       -3.14156  -0.00000  -0.00004   0.00000  -0.00004   3.14158
   D11        3.14156   0.00000   0.00004   0.00000   0.00004  -3.14159
   D12        0.00001  -0.00000  -0.00002   0.00000  -0.00002  -0.00001
   D13        0.00006  -0.00000  -0.00008   0.00000  -0.00008  -0.00002
   D14       -3.14151  -0.00001  -0.00011   0.00000  -0.00011   3.14157
   D15       -3.14157  -0.00000  -0.00003   0.00000  -0.00003   3.14159
   D16        0.00004  -0.00000  -0.00006   0.00000  -0.00006  -0.00001
   D17       -0.00010   0.00001   0.00012   0.00000   0.00012   0.00002
   D18        3.14145   0.00001   0.00018   0.00000   0.00018  -3.14156
   D19        3.14148   0.00001   0.00015   0.00000   0.00015  -3.14156
   D20       -0.00016   0.00001   0.00021   0.00000   0.00021   0.00005
   D21        1.06643  -0.00074  -0.00170   0.00000  -0.00170   1.06473
   D22        3.14134   0.00001   0.00028   0.00000   0.00028  -3.14156
   D23       -1.06687   0.00074   0.00214   0.00000   0.00214  -1.06472
   D24       -2.07514  -0.00074  -0.00172   0.00000  -0.00172  -2.07687
   D25       -0.00023   0.00001   0.00025   0.00000   0.00025   0.00002
   D26        2.07474   0.00074   0.00212   0.00000   0.00212   2.07686
   D27        0.00007  -0.00001  -0.00009   0.00000  -0.00009  -0.00001
   D28       -3.14157  -0.00000  -0.00002   0.00000  -0.00002   3.14159
   D29       -3.14147  -0.00001  -0.00015   0.00000  -0.00015   3.14157
   D30        0.00007  -0.00000  -0.00008   0.00000  -0.00008  -0.00002
   D31        3.14074   0.00005   0.00091   0.00000   0.00091  -3.14153
   D32        0.00054  -0.00003  -0.00054   0.00000  -0.00053   0.00001
   D33       -0.00090   0.00005   0.00098   0.00000   0.00097   0.00008
   D34       -3.14110  -0.00003  -0.00047   0.00000  -0.00047  -3.14157
   D35       -3.14086  -0.00006  -0.00076   0.00000  -0.00076   3.14156
   D36       -0.00067   0.00005   0.00069   0.00000   0.00069   0.00002
         Item               Value     Threshold  Converged?
 Maximum Force            0.026153     0.000450     NO 
 RMS     Force            0.005748     0.000300     NO 
 Maximum Displacement     0.101831     0.001800     NO 
 RMS     Displacement     0.025661     0.001200     NO 
 Predicted change in Energy=-3.258934D-04
 GradGradGradGradGradGradGradGradGradGradGradGradGradGradGradGradGradGrad

                          Input orientation:                          
 ---------------------------------------------------------------------
 Center     Atomic      Atomic             Coordinates (Angstroms)
 Number     Number       Type             X           Y           Z
 ---------------------------------------------------------------------
      1          6           0        1.954712   -1.477927    0.000011
      2          6           0        2.637352   -0.250234    0.000009
      3          6           0        1.919721    0.959914   -0.000006
      4          6           0        0.525790    0.916674   -0.000019
      5          6           0       -0.187997   -0.306125   -0.000034
      6          6           0        0.553048   -1.507497   -0.000011
      7          6           0       -1.678964   -0.304578   -0.000093
      8          8           0       -2.229759   -1.516888   -0.000027
      9          7           0       -0.257110    2.178725   -0.000000
     10          8           0       -2.359830    0.743510   -0.000136
     11          1           0        2.516401   -2.416666    0.000024
[...]
 399678,-0.0000510113\N,-0.2585758827,2.1751728952,-0.0000183987\O,-2.3
 543387126,0.7446660787,-0.0000378413\H,2.5148613494,-2.4141563532,0.00
 0004287\H,3.728170933,-0.2267091108,0.0000365633\H,2.4500355185,1.9175
 010006,0.0000263023\H,0.0179685259,-2.4586186815,-0.0000380944\H,-3.20
 63197935,-1.4096315774,-0.0000496371\H,-0.0715302263,2.7509522079,-0.8
 352091085\H,-1.3108230897,1.8348767055,-0.0000457922\H,-0.0715700082,2
 .7509369927,0.835191741\\Version=ES64L-G09RevE.01\State=1-A\HF=-476.02
 73957\RMSD=2.994e-09\RMSF=4.540e-06\ZeroPoint=0.14194\Thermal=0.150302
 5\Dipole=0.3741745,1.5561356,0.0000056\DipoleDeriv=-0.0963001,-0.17042
 49,-0.0000014,-0.166789,0.0682297,-0.000002,-0.0000003,-0.0000026,-0.0
 665259,0.1735308,0.0018416,0.0000039,-0.0624277,0.0364325,-0.0000005,0
 .0000026,0.0000005,-0.0573693,-0.2787982,0.1250279,-0.0000022,0.186144
 3,-0.0109156,0.0000034,-0.0000012,0.0000026,-0.0840839,0.4466471,-0.18
 23977,0.0000074,0.0092437,0.4055738,0.000002,0.0000042,0.0000004,-0.05
 378,-0.7952074,0.016209,-0.0000109,-0.0405887,-0.0980044,-0.0000013,-0
 .0000136,-0.0000004,0.0372642,0.1365167,0.114644,0.000004,-0.0946624,0
 .025732,-0.0000008,-0.000002,0.000002,-0.0576678,2.0007668,0.0212775,0
 .0000221,0.2422463,1.6499838,0.0000078,0.0000168,0.0000078,0.2951269,-
 0.8245871,-0.4789502,-0.0000085,-0.5869186,-0.9606659,-0.0000099,-0.00
 00013,0.0000033,-0.2876478,-0.5064523,-0.2214297,-0.0000077,0.0039964,
 -0.5189967,-0.0000011,-0.0000109,-0.0000085,-0.0407973,-1.0420292,0.15
 5416,-0.0000102,0.0792458,-1.1607718,0.0000009,0.0000025,-0.0000094,-0
 .2968897,0.0690276,0.0215172,-0.000001,0.0274025,0.043276,0.,-0.000000
 5,0.0000003,0.1423704,0.0381064,-0.0032924,-0.0000017,-0.0054109,0.086
 7558,-0.0000004,-0.000002,-0.0000003,0.1394829,0.0968835,-0.0094138,-0
 .0000009,-0.020567,-0.0061678,-0.0000011,-0.0000002,-0.0000011,0.14764
 97,0.0896702,-0.0218252,-0.0000011,-0.0166663,0.0841236,-0.0000006,-0.
 000001,-0.0000006,0.1368979,0.4185364,0.1233118,0.0000012,0.1345098,0.
 3111939,0.0000005,0.0000007,0.0000005,0.355317,0.1940036,0.0043716,0.0
 165286,0.0164075,0.2301452,-0.0421606,0.0192127,-0.0722853,0.2524637,0
 .6856796,0.4997463,0.0000076,0.2784274,0.5839327,0.0000019,0.0000074,0
 .0000047,0.185725,0.1940056,0.004371,-0.0165294,0.0164069,0.2301434,0.
 0421616,-0.0192139,0.0722861,0.2524642\Polar=124.3048723,0.0101074,105
 .8965761,0.001004,0.0002763,49.4792343\PG=C01 [X(C7H8N1O2)]\NImag=0\\0
 .66696803,-0.03326346,0.69910057,0.00000886,0.00000246,0.12717883,-0.1
 6950604,-0.11673836,-0.00000250,0.71447468,-0.06323749,-0.28305542,-0.
 00000223,0.00408146,0.64022502,-0.00000225,-0.00000320,-0.05916819,0.0
 0000982,0.00000284,0.13047856,0.05408580,0.01816587,0.00000095,-0.1711
 8463,0.06378912,-0.00000158,0.67021131,-0.01231342,-0.04931873,-0.0000
 0049,0.12030157,-0.27209786,0.00000084,0.03208941,0.69785299,0.0000007
 9,-0.00000002,0.00616970,-0.00000125,-0.00000014,-0.05758149,0.0000093
 2,0.00000361,0.11970537,-0.04199032,-0.02387693,-0.00000079,-0.0271523
 3,0.07201884,-0.00000010,-0.33852903,-0.05808349,-0.00000496,0.6814383
 3,-0.02436503,-0.01474414,-0.00000053,0.02610521,0.02538774,0.00000059
 ,0.00957046,-0.11060073,-0.00000012,0.04869896,0.57555902,-0.00000080,
 -0.00000046,-0.00501491,-0.00000035,0.00000135,0.00294972,-0.00000473,
 -0.00000127,-0.05682011,0.00000937,0.00000324,0.15032457,-0.02862180,0
 .02447440,-0.00000057,0.00094760,-0.00495758,0.00000011,-0.03173408,-0
 .01891980,-0.00000088,-0.15605623,-0.10889353,-0.00000247,0.61326230,0
 .05738889,0.02620243,0.00000113,0.00167779,-0.04914198,-0.00000020,-0.
 05871612,0.02043978,-0.00000100,-0.05919233,-0.24117951,-0.00000204,-0
 .00800406,0.66769812,-0.00000022,0.00000069,0.00671880,0.00000013,-0.0
 0000031,-0.00555918,-0.00000096,-0.00000038,0.00928037,-0.00000236,-0.
 00000296,-0.05405873,0.00000758,0.00000269,0.12659262,-0.33790884,0.02
 339255,-0.00000444,-0.02325186,-0.06217742,-0.00000083,-0.03908552,0.0
 1628411,-0.00000049,0.04986879,0.02400101,0.00000093,-0.15660628,0.061
 16924,-0.00000171,0.67150343,-0.03023938,-0.11873731,-0.00000090,-0.03
 116857,0.02532145,-0.00000043,0.02388003,-0.01029591,0.00000043,-0.015
 89858,-0.05138940,-0.00000063,0.10508822,-0.26396754,0.00000069,0.0398
 9939,0.68474596,-0.00000486,0.00000006,-0.05994914,-0.00000069,-0.0000
 0097,0.00624189,-0.00000048,0.00000026,-0.00498986,0.00000072,0.000000
 20,0.00401686,-0.00000130,-0.00000004,-0.05732572,0.00000946,0.0000036
 3,0.13087728,0.00456818,0.00310034,0.00000005,-0.00065942,0.00373727,0
 .00000002,0.01025242,-0.00414359,0.00000015,-0.02315262,-0.02971437,-0
 .00000048,-0.19022462,-0.00278407,-0.00000285,-0.02316639,0.01797923,-
 0.00000020,0.66867164,0.00426534,-0.00585188,0.00000001,0.00049533,-0.
 00348740,0.,-0.00454761,-0.00646148,-0.00000018,-0.03079444,0.01309636
 ,-0.00000058,-0.01054716,-0.09373945,-0.00000013,0.02579507,0.00933127
 ,0.00000060,-0.07920107,0.81118718,-0.00000012,-0.00000004,0.00821360,
 0.00000008,0.00000004,-0.00133661,-0.00000001,-0.00000012,0.00589763,-
 0.00000042,-0.00000002,-0.00169633,-0.00000166,0.,-0.07024142,-0.00000
 008,0.00000006,-0.00119013,-0.00000105,0.00000482,0.19096364,0.0007645
 1,-0.00060658,0.00000003,-0.00002063,-0.00196238,-0.00000001,-0.002967
 02,-0.00125544,-0.00000009,-0.00454281,0.00835326,-0.00000005,-0.03162
 380,-0.04190846,-0.00000019,-0.00343965,-0.00293487,-0.00000006,-0.167
 97186,-0.11127680,0.00000022,0.62703141,-0.00093619,0.00013162,-0.0000
 0003,0.00028905,-0.00083001,0.,-0.00172520,0.00193522,-0.00000004,0.00
 369317,0.00077220,0.00000010,-0.01935798,-0.00474759,0.00000004,0.0030
 1420,-0.00412799,-0.00000004,-0.07038819,-0.28100984,0.00000007,0.0568
 1298,0.42448371,0.00000003,0.,-0.00069005,0.,-0.00000001,-0.00006596,-
 0.00000001,0.,-0.00064459,-0.00000008,0.00000002,0.00212582,-0.0000005
 2,-0.00000033,0.00805474,-0.00000002,0.,0.00040143,0.00000016,0.000000
 92,-0.05946169,-0.00000030,0.00000021,0.03956441,0.00096643,0.00064055
 ,0.00000005,-0.00697399,-0.00567208,-0.00000026,-0.01980982,0.04455037
 ,-0.00000016,-0.11483172,0.02618542,-0.00000063,0.01359358,-0.00523806
 ,0.00000029,-0.00023812,-0.00068356,-0.00000013,-0.02621650,0.01736764
 ,0.00000020,0.00316167,-0.01010668,-0.00000003,0.46546958,-0.00176033,
 -0.00135371,-0.00000001,-0.00061148,0.00590198,0.,0.00941753,-0.008211
 74,0.00000016,0.04066286,-0.15358842,0.00000020,0.02107630,-0.03112357
 ,0.00000027,-0.00544743,-0.00325653,-0.00000018,-0.00337162,0.00784850
 ,0.00000007,0.00037428,-0.00422992,0.00000002,0.07384015,0.56851601,0.
 00000001,0.,-0.00127343,-0.00000026,-0.00000008,0.00688307,-0.00000031
 ,0.00000075,0.00145757,-0.00000052,-0.00000008,-0.06883705,0.00000037,
 -0.00000014,-0.00056851,-0.00000013,-0.00000007,0.00714329,-0.00000044
 ,0.00000044,-0.00229962,0.00000003,-0.00000018,-0.00154628,-0.00000508
 ,0.00000032,0.67227103,-0.00215997,0.00163875,-0.00000007,0.00038494,0
 .00007986,0.00000002,-0.00169284,0.00149350,0.,0.00540919,0.00316182,0
 .00000011,-0.03051442,0.03969093,0.00000045,-0.00420575,-0.00703237,-0
 .00000008,-0.26267198,0.21820194,0.00000317,0.03268816,-0.00848234,0.0
 0000004,-0.02169086,-0.02526580,-0.00000016,0.30771931,0.00196623,0.00
 173921,0.00000008,-0.00070478,0.00056731,0.,0.00244448,0.00188332,0.00
 000009,0.00103267,-0.01974650,0.00000002,0.03036776,-0.00579415,-0.000
 00023,-0.00177403,0.00508226,0.,0.19991124,-0.41262185,-0.00000485,0.0
 1728412,-0.09824142,-0.00000101,-0.05227822,-0.02016095,-0.00000078,-0
 .23631545,0.52115748,0.00000003,0.,-0.00187102,-0.00000003,0.00000003,
 0.00037470,0.00000008,-0.00000002,-0.00052253,-0.00000004,-0.00000014,
 -0.00011331,-0.00000034,-0.00000009,0.01718321,-0.00000007,0.00000007,
 0.00349476,0.00000392,-0.00000541,-0.06770977,-0.00000002,-0.00000038,
 0.02421067,-0.00000032,-0.00000012,0.01109331,-0.00000327,0.00000621,0
 .03623186,-0.12818261,0.12345791,-0.00000085,0.01107133,-0.01461288,0.
 00000005,-0.00086709,-0.00328507,-0.00000014,-0.00103509,-0.00103755,-
 0.00000003,-0.00470711,-0.00115570,-0.00000023,-0.01135678,0.02568595,
 -0.00000011,0.00047756,0.00150294,0.,-0.00012507,-0.00016199,0.,0.0003
 2966,0.00014548,0.00000002,-0.00075446,0.00029225,0.,0.13348824,0.1235
 4641,-0.26075919,0.00000088,0.01412870,-0.01668458,0.00000013,-0.00307
 099,-0.00279048,-0.00000010,-0.00115019,0.00010639,-0.00000002,-0.0011
 6744,0.00124654,-0.00000006,-0.00309586,0.00513648,-0.00000004,-0.0001
 2845,0.00028882,0.,0.00001375,0.00000529,0.,0.00029431,0.00005467,0.00
 000001,-0.00012924,0.00007633,0.,-0.12988640,0.27276930,-0.00000086,0.
 00000089,-0.03715922,0.00000020,-0.00000035,0.00363467,-0.00000014,-0.
 00000012,0.00674726,-0.00000003,-0.00000002,0.00003608,-0.00000020,-0.
 00000003,0.00681381,-0.00000026,0.00000044,0.00340263,0.,0.00000001,0.
 00043430,0.,0.,0.00000811,0.00000002,0.,-0.00112765,-0.00000001,0.,-0.
 00029896,0.00000112,-0.00000086,0.02501033,-0.00834720,0.00205515,-0.0
 0000021,-0.33411833,-0.00561195,-0.00000497,-0.00945886,-0.00217454,-0
 .00000024,0.00085405,0.00205598,-0.00000008,0.00091657,-0.00014316,0.0
 0000003,0.00024165,-0.00236237,-0.00000012,-0.00040368,-0.00002507,0.0
 0000002,0.00003210,0.00004883,0.,-0.00064965,-0.00017892,-0.00000002,0
 .00004011,-0.00016707,0.,0.00065005,0.00006739,0.00000007,0.34983584,-
 0.02646877,0.00395204,-0.00000044,-0.00614567,-0.05473772,-0.00000020,
 0.02671447,0.00303891,0.00000044,0.00138577,-0.00364686,-0.00000003,0.
 00007763,-0.00118633,0.,-0.00251498,-0.00462666,-0.00000011,0.00016872
 ,-0.00034281,0.,-0.00006171,0.00015994,0.,0.00229151,-0.00023878,0.000
 00004,-0.00000919,0.00042565,0.,0.00009671,0.00074027,0.00000002,0.006
 02146,0.05583544,-0.00000034,0.00000006,0.00501296,-0.00000498,-0.0000
 0018,-0.03796821,-0.00000005,-0.00000007,0.00402395,-0.00000012,-0.000
 00003,0.00669789,0.00000005,0.,-0.00087376,-0.00000016,-0.00000008,0.0
 0686682,0.,0.,-0.00124177,0.,0.,0.00025795,0.00000001,-0.00000001,0.00
 016535,0.,0.,0.00015742,0.00000007,0.00000002,-0.00358546,0.00000546,0
 .00000027,0.02458070,-0.00149107,0.00320125,-0.00000011,0.01173495,0.0
 1481809,0.00000022,-0.12016809,-0.11709788,-0.00000204,-0.01069036,-0.
 02668859,-0.00000039,-0.00460262,0.00207529,-0.00000018,-0.00054612,0.
 00070836,0.00000001,0.00070222,-0.00174974,-0.00000003,-0.00071541,0.0
 0012057,0.,0.00314781,-0.00015856,0.00000013,0.00018386,0.00091270,0.,
 0.00049568,0.00076096,0.00000001,0.00066390,-0.00003329,0.00000007,0.1
 2393384,0.00373028,-0.00264652,0.00000002,-0.01394435,-0.01718576,-0.0
 0000035,-0.11704973,-0.26159668,-0.00000311,0.00325861,0.00195273,0.00
 000005,0.00052880,0.00135905,0.,0.00094775,-0.00000787,0.00000002,0.00
 061900,-0.00006636,0.,0.00000233,0.00005024,0.,0.00005764,0.00135493,0
 .00000003,-0.00007504,0.00028863,0.,-0.00082836,-0.00079606,-0.0000000
 2,-0.00010128,0.00088055,0.00000002,0.12369240,0.27591747,-0.00000011,
 0.00000001,0.00635701,0.00000006,0.00000013,0.00342510,-0.00000204,-0.
 00000310,-0.03300598,-0.00000022,-0.00000042,0.00305680,-0.00000018,-0
 .00000002,0.00567203,0.,0.00000002,-0.00103914,0.,-0.00000002,0.001418
 72,0.,0.,-0.00022243,0.00000011,0.,-0.00338754,0.,0.,-0.00013663,0.,0.
 ,-0.00003776,0.00000007,0.00000002,-0.00356678,0.00000233,0.00000334,0
 .02283645,-0.00893459,-0.02558067,-0.00000040,-0.00535164,0.00064791,-
 0.00000020,-0.00078292,0.00089464,0.,-0.00156281,0.00191229,-0.0000001
 0,0.01039733,0.01529346,0.00000024,-0.12013441,-0.12066760,-0.00000210
 ,0.00174805,0.00191632,0.00000009,-0.00347409,0.00029817,-0.00000003,-
 0.00022393,0.00151643,-0.00000002,-0.00003937,-0.00135691,-0.00000002,
 0.00081693,0.00000863,0.00000008,-0.00040219,-0.00127060,0.,0.00007957
 ,-0.00010202,0.00000001,0.12707479,0.00246439,0.00512514,0.00000005,0.
 00093656,0.00098939,-0.00000001,0.00028662,0.00026430,0.00000001,0.003
 54894,-0.00099968,0.00000004,-0.01188245,-0.01778765,-0.00000032,-0.11
 914807,-0.26902021,-0.00000331,-0.00151144,-0.00225553,0.00000001,-0.0
 0024114,0.00093393,-0.00000001,-0.00014194,-0.00092081,0.,0.00003948,0
 .00106274,0.,0.00002163,0.00063840,0.00000002,0.00025208,0.00018902,0.
 ,-0.00008886,0.00000423,0.,0.12596054,0.28184696,-0.00000018,-0.000000
 45,0.00516047,-0.00000021,-0.00000005,0.00679276,-0.00000002,0.0000000
 2,-0.00094605,-0.00000009,0.,0.00525684,0.00000016,0.00000007,0.002976
 96,-0.00000216,-0.00000320,-0.03674892,0.00000001,0.00000004,-0.003953
 13,-0.00000003,0.00000002,0.00049904,-0.00000003,0.00000001,0.00106776
 ,0.,-0.00000003,0.00055638,0.00000008,0.00000003,-0.00376995,0.,-0.000
 00002,-0.00049530,0.00000001,0.,-0.00072425,0.00000243,0.00000354,0.02
 445505,-0.00002666,0.00017078,0.,0.00004939,0.00031497,0.,0.00056735,-
 0.00063627,0.,-0.00131519,0.00033185,-0.00000001,0.00213398,-0.0023344
 5,0.00000014,0.00056517,0.00010624,0.,-0.02708770,-0.00776819,-0.00000
 025,-0.44557630,0.03127502,0.00000065,0.00154158,0.00054482,0.00000004
 ,0.00192502,0.00917985,0.00000011,0.00000852,0.00000017,0.,-0.00000684
 ,0.00001054,0.,-0.00005910,0.00000676,0.,-0.00001029,0.00008938,0.,0.4
 6930352,0.00007987,0.00032445,0.,0.00016920,-0.00002790,0.,-0.00002280
 ,-0.00056506,0.,-0.00158307,0.00095420,-0.00000004,-0.00100737,-0.0058
 9125,0.00000002,0.00085139,-0.00038450,0.,-0.05267434,0.00185419,0.000
 00008,0.07815927,-0.04742070,0.00000019,0.00183598,0.00090762,0.000000
 04,0.00655368,0.00236858,-0.00000007,0.00001941,0.00000837,0.,0.000014
 98,0.00002624,0.,-0.00013929,0.00000624,0.,-0.00031564,0.00062402,0.,-
 0.02974860,0.04923269,0.,0.,0.00009564,0.,0.,0.00009152,0.,0.00000001,
 -0.00032542,0.,-0.00000001,0.00081226,-0.00000018,-0.00000001,0.005358
 45,-0.00000002,0.00000001,-0.00040482,0.00000048,0.00000004,0.00278348
 ,0.00000043,0.00000013,-0.01608987,0.00000001,0.,0.00026570,-0.0000000
 5,0.00000008,-0.00553568,0.,0.,0.00002196,0.,0.,-0.00002889,0.,0.,-0.0
 0016780,0.,0.,-0.00016950,-0.00000066,-0.00000021,0.01348742,0.0005146
 9,0.00041220,-0.00019657,-0.00008788,-0.00054589,0.00073386,0.00053230
 ,0.00172353,0.00034333,0.00372649,0.01126914,-0.01599703,-0.00124568,0
 .00017981,-0.00117896,-0.00059628,0.00054046,0.00082892,-0.00090793,0.
 00095802,-0.00061564,0.00006077,-0.00044685,0.00067380,-0.06002934,-0.
 03827037,0.05743885,-0.00323629,-0.00306704,-0.00256737,-0.00002783,-0
 .00007035,-0.00010721,-0.00001271,0.00000281,-0.00001361,-0.00083545,-
 0.00033623,-0.00046319,-0.00006690,0.00007136,0.00018206,0.00004719,0.
 00006343,-0.00001795,0.05678394,0.00025392,0.00034937,0.00023603,-0.00
 012857,-0.00114416,-0.00113490,-0.00155281,0.00223563,-0.00026395,-0.0
 0406650,-0.01990044,0.01796660,0.00279310,-0.00125338,0.00114043,-0.00
 064863,-0.00064478,-0.00108016,0.00049595,-0.00097468,0.00049488,0.000
 09465,0.00049826,0.00013677,-0.03616218,-0.15178995,0.15438005,-0.0004
 8789,0.00087872,-0.00058229,0.00002025,0.00002402,0.00020571,-0.000021
 93,0.00008582,0.00000309,0.00033820,0.00024676,0.00077883,0.00020216,-
 0.00017338,-0.00021836,-0.00010626,-0.00006398,-0.00000050,0.03501697,
 0.16244818,-0.00028204,-0.00039770,0.00001000,0.00004693,0.00053357,0.
 00029806,0.00076747,-0.00118575,0.00043104,-0.00344031,0.00078532,0.00
 616227,0.00025327,-0.00152112,-0.00039016,0.00014625,-0.00042073,-0.00
 017147,0.00039318,0.00082593,0.00034668,-0.00029964,-0.00064040,-0.000
 02090,0.05061547,0.14483462,-0.27953436,-0.00156436,-0.00171454,-0.000
 56465,-0.00000994,-0.00002075,-0.00006539,0.00004866,-0.00008372,0.000
 01719,-0.00033938,0.00015874,-0.00014916,0.00004107,-0.00009789,0.0000
 2190,0.00009860,0.00007173,0.00006106,-0.05756937,-0.15918189,0.292744
 60,-0.00121322,-0.00105589,-0.00000002,-0.00026827,-0.00016399,-0.0000
 0002,0.00009840,-0.00115113,-0.00000002,-0.02416385,0.01778476,-0.0000
 0040,-0.00406899,0.00182134,-0.00000015,-0.00104676,-0.00344104,-0.000
 00008,0.03695036,-0.02555047,-0.00000015,-0.00334272,0.01650022,0.0000
 0011,-0.17752211,-0.03425088,-0.00000347,-0.01814844,0.03533905,-0.000
 00008,-0.00025409,-0.00005104,0.,0.00017791,-0.00026823,0.,-0.00099811
 ,-0.00007034,0.,0.00093337,-0.00072845,0.,-0.00210682,-0.00231951,-0.0
 0000002,0.00427077,-0.00059876,0.00309625,0.18643060,-0.00136518,-0.00
 080727,-0.00000002,0.00138555,0.00114407,0.00000001,0.00188008,-0.0079
 4704,0.00000002,0.02441126,0.01786713,0.00000071,-0.00246193,0.0001198
 2,-0.00000011,0.00010035,-0.00251394,-0.00000005,0.01740937,-0.0358202
 8,-0.00000009,-0.00094189,0.01113877,0.,-0.02062691,-0.05792486,-0.000
 00079,0.00742525,0.02015589,-0.00000016,-0.00029484,-0.00008860,0.,0.0
 0029234,-0.00064054,0.,-0.00100984,-0.00000836,0.,0.00044075,-0.000347
 47,0.,-0.00133037,-0.00188921,-0.00000001,-0.01205860,-0.00449960,0.00
 002388,-0.00119717,0.06656103,-0.00000002,-0.00000001,0.00019893,0.,0.
 ,0.00021156,0.,-0.00000003,0.00069214,-0.00000025,0.00000026,-0.001061
 56,-0.00000002,0.00000002,0.00075662,0.,-0.00000006,-0.00045427,0.0000
 0031,-0.00000059,-0.00127424,0.00000003,0.00000010,0.00364052,-0.00000
 387,-0.00000126,-0.06222767,0.,0.00000057,-0.01598518,0.,0.,0.00000062
 ,0.,0.,-0.00003728,-0.00000001,0.,-0.00017951,0.00000001,0.,-0.0000019
 5,-0.00000002,0.,-0.00031657,0.02652281,0.00514950,0.00233563,0.000004
 16,0.00000116,0.07136795,0.00051468,0.00041218,0.00019659,-0.00008786,
 -0.00054587,-0.00073390,0.00053231,0.00172350,-0.00034333,0.00372552,0
 .01126890,0.01599713,-0.00124572,0.00017965,0.00117894,-0.00059626,0.0
 0054045,-0.00082892,-0.00090774,0.00095796,0.00061562,0.00006073,-0.00
 044682,-0.00067381,-0.06002428,-0.03826246,-0.05742906,-0.00323621,-0.
 00306686,0.00256742,-0.00002784,-0.00007035,0.00010721,-0.00001271,0.0
 0000281,0.00001361,-0.00083548,-0.00033623,0.00046317,-0.00006689,0.00
 007136,-0.00018206,0.00004718,0.00006342,0.00001795,0.00111015,0.00455
 832,0.00799790,0.00427196,-0.01205821,-0.02652315,0.05677846,0.0002539
 2,0.00034936,-0.00023601,-0.00012861,-0.00114416,0.00113488,-0.0015528
 1,0.00223557,0.00026390,-0.00406555,-0.01990009,-0.01796724,0.00279309
 ,-0.00125334,-0.00114033,-0.00064863,-0.00064479,0.00108014,0.00049604
 ,-0.00097475,-0.00049490,0.00009463,0.00049827,-0.00013678,-0.03615397
 ,-0.15178448,-0.15437954,-0.00048790,0.00087876,0.00058235,0.00002026,
 0.00002402,-0.00020571,-0.00002192,0.00008582,-0.00000309,0.00033821,0
 .00024677,-0.00077880,0.00020215,-0.00017338,0.00021837,-0.00010626,-0
 .00006399,0.00000050,0.00455759,0.01367759,0.01803072,-0.00059847,-0.0
 0449951,-0.00514964,0.03500824,0.16244233,0.00028207,0.00039773,0.0000
 1001,-0.00004694,-0.00053362,0.00029804,-0.00076750,0.00118584,0.00043
 100,0.00344018,-0.00078528,0.00616292,-0.00025324,0.00152111,-0.000390
 11,-0.00014628,0.00042074,-0.00017149,-0.00039326,-0.00082589,0.000346
 65,0.00029966,0.00064040,-0.00002092,-0.05060566,-0.14483410,-0.279544
 96,0.00156419,0.00171440,-0.00056456,0.00000995,0.00002075,-0.00006539
 ,-0.00004866,0.00008372,0.00001720,0.00033935,-0.00015875,-0.00014914,
 -0.00004107,0.00009789,0.00002190,-0.00009860,-0.00007173,0.00006106,-
 0.00799672,-0.01802984,-0.02153236,-0.00309612,-0.00002455,0.00233426,
 0.05755867,0.15918118,0.29275589\\0.00000154,-0.00000379,-0.00000014,0
 .00000382,0.00000164,0.00000002,-0.00000276,0.00000114,-0.00000005,0.0
 0000437,0.00000255,0.00000023,-0.00000596,0.00000559,0.00000139,0.0000
 0655,-0.00000531,0.00000019,0.00000493,0.00000786,-0.00000516,-0.00002
 211,0.00000241,0.00000144,0.00000019,0.00000479,0.00000069,0.00000420,
 -0.00000611,0.00000235,0.00000311,-0.00000052,-0.00000001,0.00000240,0
 .00000066,0.00000002,0.00000201,0.00000202,-0.00000005,-0.00000026,-0.
 00000050,0.00000004,0.00000709,-0.00000887,0.00000010,-0.00000116,-0.0
 0000109,-0.00000008,-0.00000708,-0.00000144,-0.00000098,-0.00000088,-0
 .00000104,0.00000001\\\@


 MAN IS THE MEASURE OF ALL THINGS.
  -- PROTAGORAS (5TH CENTURY B.C.)
 Job cpu time:       0 days  0 hours 10 minutes 48.3 seconds.
 File lengths (MBytes):  RWF=    100 Int=      0 D2E=      0 Chk=      5 Scr=      1
 Normal termination of Gaussian 09 at Tue Dec 17 20:59:16 2024.
