 Entering Gaussian System, Link 0=g09
 Input=B2PLYPD3BJAnthranilicyang.gjf
 Output=B2PLYPD3BJAnthranilicyang.log
 Initial command:
 /home/c612/g09E/g09/l1.exe "/mnt/ja_sm883/scratch/Gau-1962133.inp" -scrdir="/mnt/ja_sm883/scratch/"
 Default is to use a total of  18 processors:
                               18 via shared-memory
                                1 via Linda
 Entering Link 1 = /home/c612/g09E/g09/l1.exe PID=   1962135.
  
 Copyright (c) 1988,1990,1992,1993,1995,1998,2003,2009,2015,
            Gaussian, Inc.  All Rights Reserved.
  
 This is part of the Gaussian(R) 09 program.  It is based on
 the Gaussian(R) 03 system (copyright 2003, Gaussian, Inc.),
 the Gaussian(R) 98 system (copyright 1998, Gaussian, Inc.),
 the Gaussian(R) 94 system (copyright 1995, Gaussian, Inc.),
 the Gaussian 92(TM) system (copyright 1992, Gaussian, Inc.),
 the Gaussian 90(TM) system (copyright 1990, Gaussian, Inc.),
 the Gaussian 88(TM) system (copyright 1988, Gaussian, Inc.),
 the Gaussian 86(TM) system (copyright 1986, Carnegie Mellon
 University), and the Gaussian 82(TM) system (copyright 1983,
 Carnegie Mellon University). Gaussian is a federally registered
 trademark of Gaussian, Inc.
  
 This software contains proprietary and confidential information,
 including trade secrets, belonging to Gaussian, Inc.
  
 This software is provided under written license and may be
 used, copied, transmitted, or stored only in accord with that
 written license.
  
 The following legend is applicable only to US Government
 contracts under FAR:
  
                    RESTRICTED RIGHTS LEGEND
  
 Use, reproduction and disclosure by the US Government is
 subject to restrictions as set forth in subparagraphs (a)
 and (c) of the Commercial Computer Software - Restricted
 Rights clause in FAR 52.227-19.
  
 Gaussian, Inc.
 340 Quinnipiac St., Bldg. 40, Wallingford CT 06492
  
  
 ---------------------------------------------------------------
 Warning -- This program may not be used in any manner that
 competes with the business of Gaussian, Inc. or will provide
 assistance to any competitor of Gaussian, Inc.  The licensee
 of this program is prohibited from giving any competitor of
 Gaussian, Inc. access to this program.  By using this program,
 the user acknowledges that Gaussian, Inc. is engaged in the
 business of creating and licensing software in the field of
 computational chemistry and represents and warrants to the
 licensee that it is not a competitor of Gaussian, Inc. and that
 it will not use this program in any manner prohibited above.
 ---------------------------------------------------------------
  

 Cite this work as:
 Gaussian 09, Revision E.01,
 M. J. Frisch, G. W. Trucks, H. B. Schlegel, G. E. Scuseria, 
 M. A. Robb, J. R. Cheeseman, G. Scalmani, V. Barone, B. Mennucci, 
 G. A. Petersson, H. Nakatsuji, M. Caricato, X. Li, H. P. Hratchian, 
 A. F. Izmaylov, J. Bloino, G. Zheng, J. L. Sonnenberg, M. Hada, 
 M. Ehara, K. Toyota, R. Fukuda, J. Hasegawa, M. Ishida, T. Nakajima, 
 Y. Honda, O. Kitao, H. Nakai, T. Vreven, J. A. Montgomery, Jr., 
 J. E. Peralta, F. Ogliaro, M. Bearpark, J. J. Heyd, E. Brothers, 
 K. N. Kudin, V. N. Staroverov, T. Keith, R. Kobayashi, J. Normand, 
 K. Raghavachari, A. Rendell, J. C. Burant, S. S. Iyengar, J. Tomasi, 
 M. Cossi, N. Rega, J. M. Millam, M. Klene, J. E. Knox, J. B. Cross, 
 V. Bakken, C. Adamo, J. Jaramillo, R. Gomperts, R. E. Stratmann, 
 O. Yazyev, A. J. Austin, R. Cammi, C. Pomelli, J. W. Ochterski, 
 R. L. Martin, K. Morokuma, V. G. Zakrzewski, G. A. Voth, 
 P. Salvador, J. J. Dannenberg, S. Dapprich, A. D. Daniels, 
 O. Farkas, J. B. Foresman, J. V. Ortiz, J. Cioslowski, 
 and D. J. Fox, Gaussian, Inc., Wallingford CT, 2013.
 
 ******************************************
 Gaussian 09:  ES64L-G09RevE.01 30-Nov-2015
                19-Dec-2024 
 ******************************************
 %chk=B2PLYPD3BJAnthranilicyang.chk
 -------------------------------------------------------
 # opt freq B2PLYP/6-31+g(d,p) EmpiricalDispersion=GD3BJ
 -------------------------------------------------------
 1/18=20,19=15,38=1/1,3;
 2/9=110,12=2,17=6,18=5,40=1/2;
 3/5=1,6=6,7=111,11=9,16=1,25=1,30=1,71=1,74=-47,124=41/1,2,3;
 4//1;
 5/5=2,38=5/2;
 8/6=4,10=2/1;
 9/15=2,16=-3/6;
 10/5=1/2;
 6/7=2,8=2,9=2,10=2/1;
 7/12=2/1,2,3,16;
 1/18=20,19=15/3(2);
 2/9=110/2;
 99//99;
 2/9=110/2;
 3/5=1,6=6,7=111,11=9,16=1,25=1,30=1,71=1,74=-47,124=41/1,2,3;
 4/5=5,16=3,69=1/1;
 5/5=2,38=5/2;
 8/6=4,10=2/1;
 9/15=2,16=-3/6;
 10/5=1/2;
 7/12=2/1,2,3,16;
 1/18=20,19=15/3(-8);
 2/9=110/2;
 6/7=2,8=2,9=2,10=2/1;
 99//99;
 ----------
 [No Title]
 ----------
 Symbolic Z-matrix:
 Charge =  1 Multiplicity = 1
 C                     1.94172  -1.46615   0. 
 C                     2.61871  -0.24746  -0.00001 
 C                     1.90672   0.95473   0. 
 C                     0.52312   0.91213   0.00001 
 C                    -0.18408  -0.30273   0.00004 
 C                     0.54974  -1.49548   0.00002 
 C                    -1.6661   -0.30605   0.00012 
 O                    -2.21307  -1.50482  -0.00015 
 N                    -0.25197   2.16658  -0.00003 
 O                    -2.34129   0.72879   0.00007 
 H                     2.49908  -2.39715  -0.00001 
 H                     3.70381  -0.22433  -0.00002 
 H                     2.43446   1.90495  -0.00002 
 H                     0.01888  -2.4411    0.00004 
 H                    -3.18236  -1.41785  -0.00023 
 H                    -0.06343   2.73668  -0.82887 
 H                    -1.2872    1.85039  -0.00012 
 H                    -0.06354   2.73666   0.82886 
 

 GradGradGradGradGradGradGradGradGradGradGradGradGradGradGradGradGradGrad
 Berny optimization.
 Initialization pass.
                           ----------------------------
                           !    Initial Parameters    !
                           ! (Angstroms and Degrees)  !
 --------------------------                            --------------------------
 ! Name  Definition              Value          Derivative Info.                !
 --------------------------------------------------------------------------------
 ! R1    R(1,2)                  1.3941         estimate D2E/DX2                !
 ! R2    R(1,6)                  1.3923         estimate D2E/DX2                !
 ! R3    R(1,11)                 1.0851         estimate D2E/DX2                !
 ! R4    R(2,3)                  1.3972         estimate D2E/DX2                !
 ! R5    R(2,12)                 1.0854         estimate D2E/DX2                !
 ! R6    R(3,4)                  1.3843         estimate D2E/DX2                !
 ! R7    R(3,13)                 1.0869         estimate D2E/DX2                !
 ! R8    R(4,5)                  1.4057         estimate D2E/DX2                !
 ! R9    R(4,9)                  1.4746         estimate D2E/DX2                !
 ! R10   R(5,6)                  1.4004         estimate D2E/DX2                !
 ! R11   R(5,7)                  1.482          estimate D2E/DX2                !
 ! R12   R(6,14)                 1.0844         estimate D2E/DX2                !
 ! R13   R(7,8)                  1.3177         estimate D2E/DX2                !
 ! R14   R(7,10)                 1.2356         estimate D2E/DX2                !
 ! R15   R(8,15)                 0.9732         estimate D2E/DX2                !
 ! R16   R(9,16)                 1.0235         estimate D2E/DX2                !
 ! R17   R(9,17)                 1.0824         estimate D2E/DX2                !
 ! R18   R(9,18)                 1.0235         estimate D2E/DX2                !
 ! A1    A(2,1,6)              120.2596         estimate D2E/DX2                !
 ! A2    A(2,1,11)             120.0399         estimate D2E/DX2                !
 ! A3    A(6,1,11)             119.7005         estimate D2E/DX2                !
 ! A4    A(1,2,3)              120.3121         estimate D2E/DX2                !
 ! A5    A(1,2,12)             120.2739         estimate D2E/DX2                !
 ! A6    A(3,2,12)             119.414          estimate D2E/DX2                !
 ! A7    A(2,3,4)              118.8723         estimate D2E/DX2                !
 ! A8    A(2,3,13)             120.3173         estimate D2E/DX2                !
 ! A9    A(4,3,13)             120.8104         estimate D2E/DX2                !
 ! A10   A(3,4,5)              121.9677         estimate D2E/DX2                !
 ! A11   A(3,4,9)              119.9476         estimate D2E/DX2                !
 ! A12   A(5,4,9)              118.0847         estimate D2E/DX2                !
 ! A13   A(4,5,6)              118.1946         estimate D2E/DX2                !
 ! A14   A(4,5,7)              120.3324         estimate D2E/DX2                !
 ! A15   A(6,5,7)              121.473          estimate D2E/DX2                !
 ! A16   A(1,6,5)              120.3938         estimate D2E/DX2                !
 ! A17   A(1,6,14)             120.5164         estimate D2E/DX2                !
 ! A18   A(5,6,14)             119.0898         estimate D2E/DX2                !
 ! A19   A(5,7,8)              114.654          estimate D2E/DX2                !
 ! A20   A(5,7,10)             122.9946         estimate D2E/DX2                !
 ! A21   A(8,7,10)             122.3514         estimate D2E/DX2                !
 ! A22   A(7,8,15)             109.399          estimate D2E/DX2                !
 ! A23   A(4,9,16)             112.1508         estimate D2E/DX2                !
 ! A24   A(4,9,17)             104.727          estimate D2E/DX2                !
 ! A25   A(4,9,18)             112.1511         estimate D2E/DX2                !
 ! A26   A(16,9,17)            109.8046         estimate D2E/DX2                !
 ! A27   A(16,9,18)            108.1598         estimate D2E/DX2                !
 ! A28   A(17,9,18)            109.8065         estimate D2E/DX2                !
 ! D1    D(6,1,2,3)             -0.0004         estimate D2E/DX2                !
 ! D2    D(6,1,2,12)          -180.0            estimate D2E/DX2                !
 ! D3    D(11,1,2,3)          -180.0            estimate D2E/DX2                !
 ! D4    D(11,1,2,12)            0.0004         estimate D2E/DX2                !
 ! D5    D(2,1,6,5)             -0.0002         estimate D2E/DX2                !
 ! D6    D(2,1,6,14)          -179.9991         estimate D2E/DX2                !
 ! D7    D(11,1,6,5)           179.9994         estimate D2E/DX2                !
 ! D8    D(11,1,6,14)            0.0005         estimate D2E/DX2                !
 ! D9    D(1,2,3,4)             -0.0002         estimate D2E/DX2                !
 ! D10   D(1,2,3,13)          -179.9991         estimate D2E/DX2                !
 ! D11   D(12,2,3,4)           179.9994         estimate D2E/DX2                !
 ! D12   D(12,2,3,13)            0.0004         estimate D2E/DX2                !
 ! D13   D(2,3,4,5)              0.0014         estimate D2E/DX2                !
 ! D14   D(2,3,4,9)           -179.9979         estimate D2E/DX2                !
 ! D15   D(13,3,4,5)          -179.9997         estimate D2E/DX2                !
 ! D16   D(13,3,4,9)             0.001          estimate D2E/DX2                !
 ! D17   D(3,4,5,6)             -0.002          estimate D2E/DX2                !
 ! D18   D(3,4,5,7)            179.9969         estimate D2E/DX2                !
 ! D19   D(9,4,5,6)            179.9973         estimate D2E/DX2                !
 ! D20   D(9,4,5,7)             -0.0038         estimate D2E/DX2                !
 ! D21   D(3,4,9,16)            60.9655         estimate D2E/DX2                !
 ! D22   D(3,4,9,17)           179.9939         estimate D2E/DX2                !
 ! D23   D(3,4,9,18)           -60.9754         estimate D2E/DX2                !
 ! D24   D(5,4,9,16)          -119.0338         estimate D2E/DX2                !
 ! D25   D(5,4,9,17)            -0.0055         estimate D2E/DX2                !
 ! D26   D(5,4,9,18)           119.0253         estimate D2E/DX2                !
 ! D27   D(4,5,6,1)              0.0014         estimate D2E/DX2                !
 ! D28   D(4,5,6,14)          -179.9998         estimate D2E/DX2                !
 ! D29   D(7,5,6,1)           -179.9975         estimate D2E/DX2                !
 ! D30   D(7,5,6,14)             0.0013         estimate D2E/DX2                !
 ! D31   D(4,5,7,8)            179.9861         estimate D2E/DX2                !
 ! D32   D(4,5,7,10)             0.0047         estimate D2E/DX2                !
 ! D33   D(6,5,7,8)             -0.015          estimate D2E/DX2                !
 ! D34   D(6,5,7,10)          -179.9964         estimate D2E/DX2                !
 ! D35   D(5,7,8,15)          -179.9903         estimate D2E/DX2                !
 ! D36   D(10,7,8,15)           -0.0088         estimate D2E/DX2                !
 --------------------------------------------------------------------------------
 Trust Radius=3.00D-01 FncErr=1.00D-07 GrdErr=1.00D-07
 Number of steps in this run=     92 maximum allowed number of steps=    108.
 GradGradGradGradGradGradGradGradGradGradGradGradGradGradGradGradGradGrad

                          Input orientation:                          
 ---------------------------------------------------------------------
 Center     Atomic      Atomic             Coordinates (Angstroms)
 Number     Number       Type             X           Y           Z
 ---------------------------------------------------------------------
      1          6           0        1.941720   -1.466149    0.000000
      2          6           0        2.618705   -0.247464   -0.000005
      3          6           0        1.906724    0.954728    0.000003
      4          6           0        0.523117    0.912134    0.000012
      5          6           0       -0.184078   -0.302734    0.000042
      6          6           0        0.549736   -1.495483    0.000021
      7          6           0       -1.666101   -0.306046    0.000119
      8          8           0       -2.213068   -1.504818   -0.000149
      9          7           0       -0.251972    2.166576   -0.000026
     10          8           0       -2.341287    0.728793    0.000074
     11          1           0        2.499082   -2.397147   -0.000006
     12          1           0        3.703814   -0.224327   -0.000022
     13          1           0        2.434464    1.904952   -0.000015
     14          1           0        0.018883   -2.441097    0.000040
     15          1           0       -3.182365   -1.417851   -0.000232
     16          1           0       -0.063428    2.736676   -0.828874
     17          1           0       -1.287195    1.850394   -0.000122
     18          1           0       -0.063544    2.736660    0.828859
 ---------------------------------------------------------------------
                    Distance matrix (angstroms):
                    1          2          3          4          5
     1  C    0.000000
     2  C    1.394095   0.000000
     3  C    2.421130   1.397205   0.000000
     4  C    2.769235   2.395027   1.384262   0.000000
     5  C    2.423335   2.803328   2.439808   1.405713   0.000000
     6  C    1.392293   2.416233   2.800884   2.407764   1.400405
     7  C    3.789751   4.285206   3.788750   2.505322   1.482027
     8  O    4.154968   4.992692   4.798130   3.650803   2.358348
     9  N    4.243698   3.750783   2.475590   1.474581   2.470243
    10  O    4.812683   5.055156   4.254015   2.870266   2.391150
    11  H    1.085085   2.153009   3.403815   3.854319   3.403809
    12  H    2.155713   1.085356   2.149349   3.377629   3.888683
    13  H    3.406922   2.160287   1.086938   2.153819   3.425002
    14  H    2.155882   3.401632   3.885302   3.390931   2.147973
    15  H    5.124313   5.917957   5.614976   4.377148   3.198939
    16  H    4.729840   4.097066   2.782782   2.088071   3.152724
    17  H    4.628752   4.433629   3.317128   2.039010   2.419262
    18  H    4.729873   4.097130   2.782847   2.088074   3.152679
                    6          7          8          9         10
     6  C    0.000000
     7  C    2.514894   0.000000
     8  O    2.762820   1.317660   0.000000
     9  N    3.748788   2.848442   4.162335   0.000000
    10  O    3.647659   1.235624   2.237288   2.536229   0.000000
    11  H    2.147777   4.660628   4.795895   5.328777   5.762003
    12  H    3.400595   5.370537   6.053854   4.622192   6.119778
    13  H    3.887822   4.658663   5.764207   2.699145   4.918450
    14  H    1.084431   2.719855   2.420377   4.615627   3.952038
    15  H    3.732908   1.880204   0.973191   4.629829   2.305535
    16  H    4.355939   3.537506   4.826801   1.023500   3.147601
    17  H    3.816963   2.189476   3.480616   1.082431   1.539188
    18  H    4.355929   3.537380   4.826784   1.023499   3.147464
                   11         12         13         14         15
    11  H    0.000000
    12  H    2.484457   0.000000
    13  H    4.302584   2.478927   0.000000
    14  H    2.480588   4.300324   4.972240   0.000000
    15  H    5.765229   6.988845   6.526085   3.360807   0.000000
    16  H    5.797380   4.862782   2.760115   5.244350   5.260657
    17  H    5.690123   5.405057   3.722059   4.485837   3.777975
    18  H    5.797417   4.862867   2.760220   5.244321   5.260646
                   16         17         18
    16  H    0.000000
    17  H    1.723349   0.000000
    18  H    1.657733   1.723368   0.000000
 Stoichiometry    C7H8NO2(1+)
 Framework group  C1[X(C7H8NO2)]
 Deg. of freedom    48
 Full point group                 C1      NOp   1
 Largest Abelian subgroup         C1      NOp   1
 Largest concise Abelian subgroup C1      NOp   1
                         Standard orientation:                         
 ---------------------------------------------------------------------
 Center     Atomic      Atomic             Coordinates (Angstroms)
 Number     Number       Type             X           Y           Z
 ---------------------------------------------------------------------
      1          6           0       -1.941720   -1.466149   -0.000000
      2          6           0       -2.618705   -0.247464    0.000005
      3          6           0       -1.906724    0.954728   -0.000003
      4          6           0       -0.523117    0.912134   -0.000012
      5          6           0        0.184078   -0.302734   -0.000042
      6          6           0       -0.549736   -1.495483   -0.000021
      7          6           0        1.666101   -0.306046   -0.000119
      8          8           0        2.213068   -1.504818    0.000149
      9          7           0        0.251972    2.166576    0.000026
     10          8           0        2.341287    0.728793   -0.000074
     11          1           0       -2.499082   -2.397147    0.000006
     12          1           0       -3.703814   -0.224327    0.000022
     13          1           0       -2.434464    1.904952    0.000015
     14          1           0       -0.018883   -2.441097   -0.000040
     15          1           0        3.182365   -1.417851    0.000232
     16          1           0        0.063428    2.736676    0.828874
     17          1           0        1.287195    1.850394    0.000122
     18          1           0        0.063544    2.736660   -0.828859
 ---------------------------------------------------------------------
 Rotational constants (GHZ):      2.2524529      1.2092096      0.7902223
 Standard basis: 6-31+G(d,p) (6D, 7F)
 There are   230 symmetry adapted cartesian basis functions of A   symmetry.
 There are   230 symmetry adapted basis functions of A   symmetry.
   230 basis functions,   376 primitive gaussians,   230 cartesian basis functions
    36 alpha electrons       36 beta electrons
       nuclear repulsion energy       515.6376277979 Hartrees.
 NAtoms=   18 NActive=   18 NUniq=   18 SFac= 1.00D+00 NAtFMM=   60 NAOKFM=F Big=F
 Integral buffers will be    131072 words long.
 Regular integral format.
 Two-electron integral symmetry is turned on.
 Nuclear repulsion after empirical dispersion term =      515.6176453322 Hartrees.
 One-electron integrals computed using PRISM.
 NBasis=   230 RedAO= T EigKep=  2.28D-06  NBF=   230
 NBsUse=   230 1.00D-06 EigRej= -1.00D+00 NBFU=   230
 ExpMin= 4.38D-02 ExpMax= 5.48D+03 ExpMxC= 8.25D+02 IAcc=2 IRadAn=         4 AccDes= 0.00D+00
 Harris functional with IExCor=  419 and IRadAn=       4 diagonalized for initial guess.
 HarFok:  IExCor=  419 AccDes= 0.00D+00 IRadAn=         4 IDoV= 1 UseB2=F ITyADJ=14
 ICtDFT=  3500011 ScaDFX=  1.000000  1.000000  1.000000  1.000000
 FoFCou: FMM=F IPFlag=           0 FMFlag=      100000 FMFlg1=           0
         NFxFlg=           0 DoJE=T BraDBF=F KetDBF=T FulRan=T
         wScrn=  0.000000 ICntrl=     500 IOpCl=  0 I1Cent=   200000004 NGrid=           0
         NMat0=    1 NMatS0=      1 NMatT0=    0 NMatD0=    1 NMtDS0=    0 NMtDT0=    0
 Petite list used in FoFCou.
 Keep R1 ints in memory in canonical form, NReq=359209085.
 Requested convergence on RMS density matrix=1.00D-08 within 128 cycles.
 Requested convergence on MAX density matrix=1.00D-06.
 Requested convergence on             energy=1.00D-06.
 No special actions if energy rises.
 SCF Done:  E(RB2PLYP) =  -475.645125768     A.U. after   16 cycles
            NFock= 16  Conv=0.20D-08     -V/T= 2.0068
 DoSCS=T DFT=T ScalE2(SS,OS)=  0.270000  0.270000
 ExpMin= 4.38D-02 ExpMax= 5.48D+03 ExpMxC= 8.25D+02 IAcc=3 IRadAn=         5 AccDes= 0.00D+00
 HarFok:  IExCor=  205 AccDes= 0.00D+00 IRadAn=         5 IDoV=-2 UseB2=F ITyADJ=14
 ICtDFT= 12500011 ScaDFX=  1.000000  1.000000  1.000000  1.000000
 Range of M.O.s used for correlation:    11   230
 NBasis=   230 NAE=    36 NBE=    36 NFC=    10 NFV=     0
 NROrb=    220 NOA=    26 NOB=    26 NVA=   194 NVB=   194

 **** Warning!!: The largest alpha MO coefficient is  0.16066149D+03

 DoSCS=T DFT=T ScalE2(SS,OS)=  0.270000  0.270000
 Fully direct method using O(ONN) memory.
 JobTyp=1 Pass  1:  I=  11 to  17 NPSUse= 18 ParTrn=T ParDer=T DoDerP=T.
 JobTyp=1 Pass  2:  I=  18 to  24 NPSUse= 18 ParTrn=T ParDer=T DoDerP=T.
 JobTyp=1 Pass  3:  I=  25 to  31 NPSUse= 18 ParTrn=T ParDer=T DoDerP=T.
 JobTyp=1 Pass  4:  I=  32 to  36 NPSUse= 18 ParTrn=T ParDer=T DoDerP=T.
 Spin components of T(2) and E(2):
     alpha-alpha T2 =       0.1067199699D+00 E2=     -0.6541356245D-01
     alpha-beta  T2 =       0.5494352444D+00 E2=     -0.3531473777D+00
     beta-beta   T2 =       0.1067199699D+00 E2=     -0.6541356245D-01
 E2(B2PLYP) =    -0.4839745026D+00 E(B2PLYP) =    -0.47612910027049D+03
          IDoAtm=111111111111111111
          Differentiating once with respect to electric field.
                with respect to dipole field.
          Differentiating once with respect to nuclear coordinates.
 Keep R1 ints in memory in canonical form, NReq=359028194.
          There are     1 degrees of freedom in the 1st order CPHF.  IDoFFX=0 NUNeed=     1.
 LinEq1:  Iter=  0 NonCon=     1 RMS=1.78D-03 Max=6.54D-02 NDo=     1
 AX will form     1 AO Fock derivatives at one time.
 LinEq1:  Iter=  1 NonCon=     1 RMS=7.42D-04 Max=1.48D-02 NDo=     1
 LinEq1:  Iter=  2 NonCon=     1 RMS=2.83D-04 Max=7.17D-03 NDo=     1
 LinEq1:  Iter=  3 NonCon=     1 RMS=2.13D-04 Max=6.38D-03 NDo=     1
 LinEq1:  Iter=  4 NonCon=     1 RMS=8.54D-05 Max=2.28D-03 NDo=     1
 LinEq1:  Iter=  5 NonCon=     1 RMS=4.04D-05 Max=1.32D-03 NDo=     1
 LinEq1:  Iter=  6 NonCon=     1 RMS=1.88D-05 Max=7.61D-04 NDo=     1
 LinEq1:  Iter=  7 NonCon=     1 RMS=1.00D-05 Max=3.82D-04 NDo=     1
 LinEq1:  Iter=  8 NonCon=     1 RMS=3.48D-06 Max=9.08D-05 NDo=     1
 LinEq1:  Iter=  9 NonCon=     1 RMS=1.76D-06 Max=3.42D-05 NDo=     1
 LinEq1:  Iter= 10 NonCon=     1 RMS=5.08D-07 Max=9.77D-06 NDo=     1
 LinEq1:  Iter= 11 NonCon=     1 RMS=2.62D-07 Max=1.15D-05 NDo=     1
 LinEq1:  Iter= 12 NonCon=     1 RMS=1.21D-07 Max=3.17D-06 NDo=     1
 LinEq1:  Iter= 13 NonCon=     1 RMS=3.71D-08 Max=7.15D-07 NDo=     1
 LinEq1:  Iter= 14 NonCon=     1 RMS=2.12D-08 Max=5.97D-07 NDo=     1
 LinEq1:  Iter= 15 NonCon=     1 RMS=5.51D-09 Max=1.09D-07 NDo=     1
 LinEq1:  Iter= 16 NonCon=     1 RMS=1.32D-09 Max=1.89D-08 NDo=     1
 LinEq1:  Iter= 17 NonCon=     1 RMS=6.25D-10 Max=8.15D-09 NDo=     1
 LinEq1:  Iter= 18 NonCon=     1 RMS=1.92D-10 Max=3.73D-09 NDo=     1
 LinEq1:  Iter= 19 NonCon=     1 RMS=5.31D-11 Max=1.08D-09 NDo=     1
 LinEq1:  Iter= 20 NonCon=     0 RMS=2.68D-11 Max=6.69D-10 NDo=     1
 Linear equations converged to 1.000D-10 1.000D-09 after    20 iterations.
 End of Minotr F.D. properties file   721 does not exist.
 End of Minotr F.D. properties file   722 does not exist.
 End of Minotr F.D. properties file   788 does not exist.

 **********************************************************************

            Population analysis using the SCF density.

 **********************************************************************

 Orbital symmetries:
       Occupied  (A) (A) (A) (A) (A) (A) (A) (A) (A) (A) (A) (A)
                 (A) (A) (A) (A) (A) (A) (A) (A) (A) (A) (A) (A)
                 (A) (A) (A) (A) (A) (A) (A) (A) (A) (A) (A) (A)
       Virtual   (A) (A) (A) (A) (A) (A) (A) (A) (A) (A) (A) (A)
                 (A) (A) (A) (A) (A) (A) (A) (A) (A) (A) (A) (A)
                 (A) (A) (A) (A) (A) (A) (A) (A) (A) (A) (A) (A)
                 (A) (A) (A) (A) (A) (A) (A) (A) (A) (A) (A) (A)
                 (A) (A) (A) (A) (A) (A) (A) (A) (A) (A) (A) (A)
                 (A) (A) (A) (A) (A) (A) (A) (A) (A) (A) (A) (A)
                 (A) (A) (A) (A) (A) (A) (A) (A) (A) (A) (A) (A)
                 (A) (A) (A) (A) (A) (A) (A) (A) (A) (A) (A) (A)
                 (A) (A) (A) (A) (A) (A) (A) (A) (A) (A) (A) (A)
                 (A) (A) (A) (A) (A) (A) (A) (A) (A) (A) (A) (A)
                 (A) (A) (A) (A) (A) (A) (A) (A) (A) (A) (A) (A)
                 (A) (A) (A) (A) (A) (A) (A) (A) (A) (A) (A) (A)
                 (A) (A) (A) (A) (A) (A) (A) (A) (A) (A) (A) (A)
                 (A) (A) (A) (A) (A) (A) (A) (A) (A) (A) (A) (A)
                 (A) (A) (A) (A) (A) (A) (A) (A) (A) (A) (A) (A)
                 (A) (A) (A) (A) (A) (A) (A) (A) (A) (A) (A) (A)
                 (A) (A)
 The electronic state is 1-A.
 Alpha  occ. eigenvalues --  -19.96931 -19.92329 -15.14341 -10.96116 -10.87346
 Alpha  occ. eigenvalues --  -10.83042 -10.81530 -10.81038 -10.80862 -10.79844
 Alpha  occ. eigenvalues --   -1.44227  -1.34915  -1.30400  -1.16099  -1.06369
 Alpha  occ. eigenvalues --   -1.03701  -0.93889  -0.90155  -0.86880  -0.83195
 Alpha  occ. eigenvalues --   -0.82122  -0.79079  -0.76452  -0.75305  -0.70599
 Alpha  occ. eigenvalues --   -0.70294  -0.68889  -0.68047  -0.64501  -0.60847
 Alpha  occ. eigenvalues --   -0.60305  -0.59161  -0.56686  -0.53839  -0.47171
 Alpha  occ. eigenvalues --   -0.46947
 Alpha virt. eigenvalues --   -0.17445  -0.13433  -0.13079  -0.08485  -0.07953
 Alpha virt. eigenvalues --   -0.06608  -0.06156  -0.05418  -0.05214  -0.04466
 Alpha virt. eigenvalues --   -0.02861  -0.02755  -0.01753  -0.01334  -0.00144
 Alpha virt. eigenvalues --    0.00198   0.01960   0.02197   0.03239   0.04096
 Alpha virt. eigenvalues --    0.04269   0.05222   0.05977   0.06833   0.07289
 Alpha virt. eigenvalues --    0.08147   0.08335   0.08899   0.09533   0.09656
 Alpha virt. eigenvalues --    0.10306   0.10791   0.11606   0.12632   0.12737
 Alpha virt. eigenvalues --    0.13078   0.14149   0.15101   0.15231   0.16485
 Alpha virt. eigenvalues --    0.16640   0.16847   0.17606   0.18779   0.19193
 Alpha virt. eigenvalues --    0.20222   0.20939   0.22028   0.23088   0.24088
 Alpha virt. eigenvalues --    0.25764   0.26470   0.27247   0.28964   0.30122
 Alpha virt. eigenvalues --    0.32256   0.36160   0.36761   0.39410   0.42359
 Alpha virt. eigenvalues --    0.51024   0.55155   0.58774   0.58884   0.60540
 Alpha virt. eigenvalues --    0.62441   0.64618   0.65519   0.66919   0.67075
 Alpha virt. eigenvalues --    0.67767   0.70530   0.70828   0.74443   0.74832
 Alpha virt. eigenvalues --    0.75710   0.77559   0.79665   0.81393   0.84685
 Alpha virt. eigenvalues --    0.87000   0.87246   0.88389   0.89458   0.91977
 Alpha virt. eigenvalues --    0.95017   0.97347   0.98580   1.02783   1.04724
 Alpha virt. eigenvalues --    1.05157   1.07005   1.09150   1.11107   1.11581
 Alpha virt. eigenvalues --    1.13817   1.14372   1.17004   1.17947   1.20999
 Alpha virt. eigenvalues --    1.21934   1.24330   1.25867   1.26537   1.29078
 Alpha virt. eigenvalues --    1.31523   1.31861   1.32201   1.34969   1.35914
 Alpha virt. eigenvalues --    1.37023   1.38406   1.44154   1.52795   1.53352
 Alpha virt. eigenvalues --    1.62108   1.63641   1.65821   1.66867   1.71462
 Alpha virt. eigenvalues --    1.74474   1.76064   1.78631   1.79519   1.82381
 Alpha virt. eigenvalues --    1.85438   1.88991   1.90542   1.93465   1.93617
 Alpha virt. eigenvalues --    1.96104   1.97366   1.98063   1.98697   2.01568
 Alpha virt. eigenvalues --    2.05768   2.06717   2.15081   2.15228   2.23107
 Alpha virt. eigenvalues --    2.25104   2.25671   2.30953   2.32714   2.34405
 Alpha virt. eigenvalues --    2.34753   2.37380   2.38472   2.39202   2.40174
 Alpha virt. eigenvalues --    2.46445   2.48092   2.48961   2.51693   2.53749
 Alpha virt. eigenvalues --    2.55773   2.57538   2.59181   2.61081   2.63520
 Alpha virt. eigenvalues --    2.65912   2.68988   2.71290   2.73191   2.76495
 Alpha virt. eigenvalues --    2.79591   2.84503   2.84969   2.90266   2.95137
 Alpha virt. eigenvalues --    3.03882   3.07721   3.14474   3.16420   3.23174
 Alpha virt. eigenvalues --    3.26387   3.28362   3.32707   3.33357   3.36563
 Alpha virt. eigenvalues --    3.48358   3.49243   3.57429   3.85934   4.22227
 Alpha virt. eigenvalues --    4.28192   4.30255   4.31870   4.38131   4.47995
 Alpha virt. eigenvalues --    4.49657   4.56438   4.82744   4.86465
          Condensed to atoms (all electrons):
               1          2          3          4          5          6
     1  C    7.383693  -0.064170   1.038978  -1.013406   0.460747  -2.085952
     2  C   -0.064170   6.134819  -1.135487   1.513474  -1.443537   1.250512
     3  C    1.038978  -1.135487  13.524782  -4.336042  -0.578314  -3.664638
     4  C   -1.013406   1.513474  -4.336042  16.768948  -4.178278  -0.889990
     5  C    0.460747  -1.443537  -0.578314  -4.178278  11.805159  -1.475666
     6  C   -2.085952   1.250512  -3.664638  -0.889990  -1.475666  14.100333
     7  C   -0.158462  -0.168199   0.519329  -0.673746   0.183593  -0.605186
     8  O    0.102747  -0.004320   0.021318   0.037834   0.005055  -0.164368
     9  N   -0.031137  -0.002065  -0.580636   0.221853   0.188645   0.154926
    10  O    0.043919  -0.009317   0.071073  -0.282747   0.034738  -0.012208
    11  H    0.218577   0.048237  -0.002682  -0.001285   0.010564   0.060686
    12  H    0.072077   0.215244   0.077832  -0.051576   0.036102  -0.015337
    13  H   -0.000257   0.093346   0.258865   0.028802  -0.039690  -0.013004
    14  H    0.084671  -0.025585   0.034680   0.018804   0.113346   0.093376
    15  H   -0.007384  -0.000240   0.003290  -0.006302   0.006664   0.003602
    16  H    0.000459  -0.006236  -0.020494  -0.042823   0.045888   0.001196
    17  H    0.001728  -0.002223   0.168800   0.091059  -0.215487  -0.066350
    18  H    0.000463  -0.006228  -0.020398  -0.042721   0.045724   0.001144
               7          8          9         10         11         12
     1  C   -0.158462   0.102747  -0.031137   0.043919   0.218577   0.072077
     2  C   -0.168199  -0.004320  -0.002065  -0.009317   0.048237   0.215244
     3  C    0.519329   0.021318  -0.580636   0.071073  -0.002682   0.077832
     4  C   -0.673746   0.037834   0.221853  -0.282747  -0.001285  -0.051576
     5  C    0.183593   0.005055   0.188645   0.034738   0.010564   0.036102
     6  C   -0.605186  -0.164368   0.154926  -0.012208   0.060686  -0.015337
     7  C    5.553442   0.145758  -0.087029   0.393204   0.003410   0.002465
     8  O    0.145758   8.242387  -0.008616  -0.127220   0.000059   0.000006
     9  N   -0.087029  -0.008616   6.992187  -0.028911   0.000137  -0.000274
    10  O    0.393204  -0.127220  -0.028911   8.370305   0.000023  -0.000001
    11  H    0.003410   0.000059   0.000137   0.000023   0.471235  -0.003069
    12  H    0.002465   0.000006  -0.000274  -0.000001  -0.003069   0.471527
    13  H    0.004256   0.000012   0.000574   0.000094  -0.000112  -0.003135
    14  H    0.011236   0.000463  -0.000997   0.000099  -0.002994  -0.000110
    15  H    0.023742   0.222921   0.000434   0.000865  -0.000000   0.000000
    16  H    0.004737   0.000130   0.316323   0.001068   0.000000  -0.000002
    17  H    0.020613   0.002363   0.207087   0.082823  -0.000000   0.000001
    18  H    0.004743   0.000130   0.316322   0.001069   0.000000  -0.000002
              13         14         15         16         17         18
     1  C   -0.000257   0.084671  -0.007384   0.000459   0.001728   0.000463
     2  C    0.093346  -0.025585  -0.000240  -0.006236  -0.002223  -0.006228
     3  C    0.258865   0.034680   0.003290  -0.020494   0.168800  -0.020398
     4  C    0.028802   0.018804  -0.006302  -0.042823   0.091059  -0.042721
     5  C   -0.039690   0.113346   0.006664   0.045888  -0.215487   0.045724
     6  C   -0.013004   0.093376   0.003602   0.001196  -0.066350   0.001144
     7  C    0.004256   0.011236   0.023742   0.004737   0.020613   0.004743
     8  O    0.000012   0.000463   0.222921   0.000130   0.002363   0.000130
     9  N    0.000574  -0.000997   0.000434   0.316323   0.207087   0.316322
    10  O    0.000094   0.000099   0.000865   0.001068   0.082823   0.001069
    11  H   -0.000112  -0.002994  -0.000000   0.000000  -0.000000   0.000000
    12  H   -0.003135  -0.000110   0.000000  -0.000002   0.000001  -0.000002
    13  H    0.484925   0.000009  -0.000000   0.000409   0.000040   0.000409
    14  H    0.000009   0.459916   0.000043   0.000002   0.000006   0.000002
    15  H   -0.000000   0.000043   0.325250  -0.000001  -0.000003  -0.000001
    16  H    0.000409   0.000002  -0.000001   0.325691  -0.009355  -0.023548
    17  H    0.000040   0.000006  -0.000003  -0.009355   0.253397  -0.009352
    18  H    0.000409   0.000002  -0.000001  -0.023548  -0.009352   0.325685
 Mulliken charges:
               1
     1  C   -0.047293
     2  C   -0.388027
     3  C    0.619744
     4  C   -1.161859
     5  C    0.994748
     6  C   -0.673078
     7  C    0.822094
     8  O   -0.476663
     9  N   -0.658825
    10  O   -0.538877
    11  H    0.197214
    12  H    0.198250
    13  H    0.184456
    14  H    0.213031
    15  H    0.427118
    16  H    0.406555
    17  H    0.474853
    18  H    0.406559
 Sum of Mulliken charges =   1.00000
 Mulliken charges with hydrogens summed into heavy atoms:
               1
     1  C    0.149921
     2  C   -0.189777
     3  C    0.804200
     4  C   -1.161859
     5  C    0.994748
     6  C   -0.460047
     7  C    0.822094
     8  O   -0.049545
     9  N    0.629142
    10  O   -0.538877
 Electronic spatial extent (au):  <R**2>=           1368.7505
 Charge=              1.0000 electrons
 Dipole moment (field-independent basis, Debye):
    X=             -1.2062    Y=              4.1962    Z=              0.0002  Tot=              4.3661
 Quadrupole moment (field-independent basis, Debye-Ang):
   XX=            -36.6401   YY=            -29.3083   ZZ=            -56.9235
   XY=             -3.5686   XZ=              0.0007   YZ=              0.0005
 Traceless Quadrupole moment (field-independent basis, Debye-Ang):
   XX=              4.3172   YY=             11.6490   ZZ=            -15.9662
   XY=             -3.5686   XZ=              0.0007   YZ=              0.0005
 Octapole moment (field-independent basis, Debye-Ang**2):
  XXX=             10.4822  YYY=             49.9062  ZZZ=              0.0006  XYY=              0.6258
  XXY=            -25.9029  XXZ=              0.0048  XZZ=             11.7931  YZZ=              9.7797
  YYZ=              0.0013  XYZ=             -0.0006
 Hexadecapole moment (field-independent basis, Debye-Ang**3):
 XXXX=           -794.3052 YYYY=           -405.6064 ZZZZ=            -62.3149 XXXY=            -85.6218
 XXXZ=              0.0137 YYYX=              8.5944 YYYZ=              0.0035 ZZZX=             -0.0011
 ZZZY=              0.0028 XXYY=           -226.3482 XXZZ=           -199.3774 YYZZ=            -97.8822
 XXYZ=             -0.0028 YYXZ=              0.0018 ZZXY=             -3.2896
 N-N= 5.156176453322D+02 E-N=-2.128162877007D+03  KE= 4.724185878617D+02
 Calling FoFJK, ICntrl=  10002127 FMM=F ISym2X=0 I1Cent= 0 IOpClX= 0 NMat=1 NMatS=1 NMatT=0.
 ***** Axes restored to original set *****
 -------------------------------------------------------------------
 Center     Atomic                   Forces (Hartrees/Bohr)
 Number     Number              X              Y              Z
 -------------------------------------------------------------------
      1        6           0.001877418   -0.003269199   -0.000000756
      2        6           0.003982440    0.000540515    0.000000136
      3        6           0.002124804    0.003123969   -0.000002487
      4        6          -0.000045263   -0.001249982    0.000001896
      5        6           0.000029626    0.000090799    0.000011958
      6        6          -0.002594407   -0.003487316    0.000002649
      7        6           0.004186748   -0.001136902   -0.000044346
      8        8          -0.000498252   -0.005569824    0.000013459
      9        7          -0.003388678    0.001570620   -0.000007170
     10        8          -0.005001588    0.005146504    0.000012130
     11        1          -0.001027368    0.001689664   -0.000000368
     12        1          -0.001963211   -0.000033821    0.000000517
     13        1          -0.001058223   -0.001469570   -0.000000260
     14        1           0.000908483    0.001737550    0.000000090
     15        1          -0.000970484    0.000095254    0.000001006
     16        1          -0.000105978   -0.000343216    0.000512751
     17        1           0.003655218    0.002908409    0.000010418
     18        1          -0.000111284   -0.000343454   -0.000511623
 -------------------------------------------------------------------
 Cartesian Forces:  Max     0.005569824 RMS     0.002014282

 GradGradGradGradGradGradGradGradGradGradGradGradGradGradGradGradGradGrad
 Berny optimization.
 FormGI is forming the generalized inverse of G from B-inverse, IUseBI=4.
 Internal  Forces:  Max     0.007042344 RMS     0.001847649
 Search for a local minimum.
 Step number   1 out of a maximum of   92
 All quantities printed in internal units (Hartrees-Bohrs-Radians)
 Mixed Optimization -- RFO/linear search
 Second derivative matrix not updated -- first step.
 ITU=  0
     Eigenvalues ---    0.00705   0.01004   0.01590   0.01591   0.01730
     Eigenvalues ---    0.02063   0.02134   0.02146   0.02160   0.02179
     Eigenvalues ---    0.02192   0.02227   0.02781   0.07033   0.07830
     Eigenvalues ---    0.16000   0.16000   0.16000   0.16000   0.16000
     Eigenvalues ---    0.16000   0.16000   0.16000   0.22000   0.22493
     Eigenvalues ---    0.24484   0.25000   0.25000   0.25000   0.25000
     Eigenvalues ---    0.34339   0.35169   0.35198   0.35355   0.35387
     Eigenvalues ---    0.35464   0.35702   0.41676   0.42397   0.43784
     Eigenvalues ---    0.43784   0.45547   0.45832   0.46607   0.47866
     Eigenvalues ---    0.52730   0.62518   0.88783
 RFO step:  Lambda=-8.10106029D-04 EMin= 7.05223089D-03
 Linear search not attempted -- first point.
 Iteration  1 RMS(Cart)=  0.03120672 RMS(Int)=  0.00028277
 Iteration  2 RMS(Cart)=  0.00040489 RMS(Int)=  0.00000487
 Iteration  3 RMS(Cart)=  0.00000008 RMS(Int)=  0.00000487
 Variable       Old X    -DE/DX   Delta X   Delta X   Delta X     New X
                                 (Linear)    (Quad)   (Total)
    R1        2.63446   0.00159   0.00000   0.00324   0.00324   2.63770
    R2        2.63105   0.00178   0.00000   0.00371   0.00371   2.63477
    R3        2.05051  -0.00198   0.00000  -0.00558  -0.00558   2.04494
    R4        2.64034   0.00123   0.00000   0.00258   0.00258   2.64292
    R5        2.05102  -0.00196   0.00000  -0.00554  -0.00554   2.04548
    R6        2.61588   0.00217   0.00000   0.00457   0.00457   2.62045
    R7        2.05402  -0.00180   0.00000  -0.00510  -0.00510   2.04892
    R8        2.65641   0.00403   0.00000   0.00916   0.00916   2.66557
    R9        2.78655   0.00320   0.00000   0.00907   0.00907   2.79563
   R10        2.64638   0.00179   0.00000   0.00399   0.00399   2.65037
   R11        2.80062   0.00229   0.00000   0.00664   0.00664   2.80726
   R12        2.04928  -0.00196   0.00000  -0.00552  -0.00552   2.04376
   R13        2.49002   0.00559   0.00000   0.00893   0.00893   2.49895
   R14        2.33499   0.00704   0.00000   0.00792   0.00792   2.34292
   R15        1.83906   0.00097   0.00000   0.00184   0.00184   1.84091
   R16        1.93413  -0.00063   0.00000  -0.00143  -0.00143   1.93271
   R17        2.04550  -0.00434   0.00000  -0.01214  -0.01214   2.03336
   R18        1.93413  -0.00063   0.00000  -0.00143  -0.00143   1.93271
    A1        2.09893   0.00010   0.00000  -0.00018  -0.00018   2.09875
    A2        2.09509  -0.00004   0.00000   0.00016   0.00016   2.09526
    A3        2.08917  -0.00006   0.00000   0.00001   0.00001   2.08918
    A4        2.09984  -0.00024   0.00000  -0.00169  -0.00169   2.09815
    A5        2.09917   0.00013   0.00000   0.00091   0.00091   2.10008
    A6        2.08417   0.00011   0.00000   0.00078   0.00078   2.08495
    A7        2.07471   0.00085   0.00000   0.00374   0.00374   2.07845
    A8        2.09993  -0.00021   0.00000  -0.00051  -0.00051   2.09942
    A9        2.10854  -0.00064   0.00000  -0.00323  -0.00323   2.10531
   A10        2.12874  -0.00066   0.00000  -0.00230  -0.00230   2.12644
   A11        2.09348  -0.00425   0.00000  -0.01713  -0.01714   2.07635
   A12        2.06097   0.00492   0.00000   0.01943   0.01943   2.08040
   A13        2.06288  -0.00075   0.00000  -0.00265  -0.00265   2.06024
   A14        2.10020   0.00520   0.00000   0.02055   0.02055   2.12075
   A15        2.12010  -0.00445   0.00000  -0.01790  -0.01790   2.10220
   A16        2.10127   0.00070   0.00000   0.00307   0.00307   2.10434
   A17        2.10341  -0.00029   0.00000  -0.00117  -0.00117   2.10224
   A18        2.07851  -0.00041   0.00000  -0.00190  -0.00190   2.07661
   A19        2.00109  -0.00262   0.00000  -0.01046  -0.01046   1.99063
   A20        2.14666   0.00292   0.00000   0.01164   0.01164   2.15830
   A21        2.13544  -0.00030   0.00000  -0.00118  -0.00118   2.13425
   A22        1.90937  -0.00001   0.00000  -0.00007  -0.00007   1.90930
   A23        1.95740  -0.00041   0.00000  -0.00351  -0.00353   1.95387
   A24        1.82783   0.00262   0.00000   0.01809   0.01808   1.84591
   A25        1.95741  -0.00041   0.00000  -0.00353  -0.00354   1.95386
   A26        1.91645  -0.00086   0.00000  -0.00358  -0.00359   1.91286
   A27        1.88774  -0.00006   0.00000  -0.00346  -0.00349   1.88425
   A28        1.91648  -0.00087   0.00000  -0.00369  -0.00370   1.91278
    D1       -0.00001   0.00000   0.00000   0.00003   0.00003   0.00002
    D2       -3.14159  -0.00000   0.00000  -0.00000  -0.00000   3.14159
    D3       -3.14159   0.00000   0.00000   0.00000   0.00000  -3.14159
    D4        0.00001  -0.00000   0.00000  -0.00003  -0.00003  -0.00002
    D5       -0.00000   0.00000   0.00000   0.00001   0.00002   0.00001
    D6       -3.14158  -0.00000   0.00000  -0.00005  -0.00005   3.14156
    D7        3.14158   0.00000   0.00000   0.00004   0.00004  -3.14157
    D8        0.00001  -0.00000   0.00000  -0.00003  -0.00003  -0.00002
    D9       -0.00000   0.00000   0.00000   0.00001   0.00001   0.00000
   D10       -3.14158  -0.00000   0.00000  -0.00005  -0.00005   3.14156
   D11        3.14158   0.00000   0.00000   0.00003   0.00003  -3.14157
   D12        0.00001  -0.00000   0.00000  -0.00002  -0.00002  -0.00001
   D13        0.00002  -0.00000   0.00000  -0.00008  -0.00008  -0.00006
   D14       -3.14156  -0.00000   0.00000  -0.00012  -0.00012   3.14151
   D15       -3.14159  -0.00000   0.00000  -0.00002  -0.00002   3.14157
   D16        0.00002  -0.00000   0.00000  -0.00006  -0.00006  -0.00005
   D17       -0.00003   0.00000   0.00000   0.00012   0.00012   0.00009
   D18        3.14154   0.00000   0.00000   0.00018   0.00018  -3.14146
   D19        3.14155   0.00000   0.00000   0.00016   0.00016  -3.14148
   D20       -0.00007   0.00000   0.00000   0.00022   0.00022   0.00016
   D21        1.06405  -0.00034   0.00000  -0.00460  -0.00460   1.05945
   D22        3.14149   0.00001   0.00000   0.00031   0.00031  -3.14139
   D23       -1.06422   0.00034   0.00000   0.00508   0.00507  -1.05915
   D24       -2.07753  -0.00034   0.00000  -0.00464  -0.00464  -2.08217
   D25       -0.00010   0.00001   0.00000   0.00027   0.00027   0.00018
   D26        2.07738   0.00034   0.00000   0.00504   0.00504   2.08242
   D27        0.00002  -0.00000   0.00000  -0.00009  -0.00009  -0.00006
   D28       -3.14159  -0.00000   0.00000  -0.00002  -0.00002   3.14158
   D29       -3.14155  -0.00000   0.00000  -0.00015  -0.00015   3.14149
   D30        0.00002  -0.00000   0.00000  -0.00008  -0.00008  -0.00006
   D31        3.14135   0.00001   0.00000   0.00085   0.00085  -3.14099
   D32        0.00008  -0.00001   0.00000  -0.00038  -0.00039  -0.00030
   D33       -0.00026   0.00001   0.00000   0.00091   0.00091   0.00065
   D34       -3.14153  -0.00001   0.00000  -0.00032  -0.00032   3.14133
   D35       -3.14142  -0.00001   0.00000  -0.00065  -0.00064   3.14112
   D36       -0.00015   0.00001   0.00000   0.00058   0.00058   0.00042
         Item               Value     Threshold  Converged?
 Maximum Force            0.007042     0.000450     NO 
 RMS     Force            0.001848     0.000300     NO 
 Maximum Displacement     0.137571     0.001800     NO 
 RMS     Displacement     0.031352     0.001200     NO 
 Predicted change in Energy=-4.062123D-04
 GradGradGradGradGradGradGradGradGradGradGradGradGradGradGradGradGradGrad

                          Input orientation:                          
 ---------------------------------------------------------------------
 Center     Atomic      Atomic             Coordinates (Angstroms)
 Number     Number       Type             X           Y           Z
 ---------------------------------------------------------------------
      1          6           0        1.932668   -1.467217    0.000005
      2          6           0        2.614444   -0.249238    0.000069
      3          6           0        1.903642    0.955238    0.000030
      4          6           0        0.517412    0.919910   -0.000069
      5          6           0       -0.195875   -0.297015   -0.000201
      6          6           0        0.538627   -1.491820   -0.000122
      7          6           0       -1.681124   -0.326409   -0.000470
      8          8           0       -2.196144   -1.544384    0.000167
      9          7           0       -0.231777    2.195562   -0.000002
     10          8           0       -2.388623    0.691724   -0.000283
     11          1           0        2.485343   -2.397574    0.000039
     12          1           0        3.696673   -0.228696    0.000168
     13          1           0        2.432029    1.902012    0.000113
     14          1           0        0.007080   -2.433694   -0.000206
     15          1           0       -3.168466   -1.484465    0.000378
     16          1           0       -0.025034    2.760354   -0.827210
     17          1           0       -1.272741    1.923193    0.000111
     18          1           0       -0.024926    2.760318    0.827203
 ---------------------------------------------------------------------
                    Distance matrix (angstroms):
                    1          2          3          4          5
     1  C    0.000000
     2  C    1.395812   0.000000
     3  C    2.422628   1.398571   0.000000
     4  C    2.775126   2.400927   1.386680   0.000000
     5  C    2.429005   2.810724   2.444607   1.410561   0.000000
     6  C    1.394258   2.419302   2.802027   2.411823   1.402516
     7  C    3.789582   4.296261   3.806989   2.527226   1.485540
     8  O    4.129532   4.981883   4.801703   3.665532   2.357330
     9  N    4.254500   3.752069   2.469498   1.479383   2.492835
    10  O    4.830587   5.090784   4.300346   2.914979   2.405358
    11  H    1.082134   2.152211   3.402899   3.857260   3.406065
    12  H    2.155376   1.082424   2.148641   3.380384   3.893147
    13  H    3.406033   2.158970   1.084239   2.151810   3.426601
    14  H    2.154522   3.401498   3.883530   3.392211   2.146297
    15  H    5.101163   5.913360   5.628359   4.400763   3.200990
    16  H    4.731726   4.087649   2.768133   2.089412   3.171850
    17  H    4.665783   4.453052   3.320595   2.052127   2.467583
    18  H    4.731647   4.087524   2.768015   2.089405   3.171925
                    6          7          8          9         10
     6  C    0.000000
     7  C    2.507085   0.000000
     8  O    2.735276   1.322387   0.000000
     9  N    3.767002   2.908770   4.224444   0.000000
    10  O    3.651938   1.239818   2.244376   2.629356   0.000000
    11  H    2.147113   4.652867   4.758598   5.336632   5.770555
    12  H    3.401284   5.378684   6.037907   4.616248   6.154510
    13  H    3.886266   4.678022   5.770410   2.679933   4.970260
    14  H    1.081513   2.700127   2.375936   4.635414   3.937973
    15  H    3.707100   1.885015   0.974167   4.708157   2.311699
    16  H    4.368383   3.599200   4.891731   1.022744   3.248013
    17  H    3.865666   2.286370   3.588421   1.076007   1.661839
    18  H    4.368379   3.599434   4.891691   1.022744   3.248212
                   11         12         13         14         15
    11  H    0.000000
    12  H    2.484220   0.000000
    13  H    4.299916   2.477749   0.000000
    14  H    2.478526   4.298268   4.967768   0.000000
    15  H    5.727070   6.979046   6.544752   3.314382   0.000000
    16  H    5.795736   4.844592   2.731003   5.259572   5.346452
    17  H    5.726450   5.415321   3.704831   4.540971   3.899476
    18  H    5.795645   4.844429   2.730824   5.259601   5.346370
                   16         17         18
    16  H    0.000000
    17  H    1.715247   0.000000
    18  H    1.654413   1.715197   0.000000
 Stoichiometry    C7H8NO2(1+)
 Framework group  C1[X(C7H8NO2)]
 Deg. of freedom    48
 Full point group                 C1      NOp   1
 Largest Abelian subgroup         C1      NOp   1
 Largest concise Abelian subgroup C1      NOp   1
                         Standard orientation:                         
 ---------------------------------------------------------------------
 Center     Atomic      Atomic             Coordinates (Angstroms)
 Number     Number       Type             X           Y           Z
 ---------------------------------------------------------------------
      1          6           0       -1.908244   -1.500552   -0.000072
      2          6           0       -2.614377   -0.296531   -0.000136
      3          6           0       -1.927942    0.921996   -0.000097
      4          6           0       -0.541282    0.914554    0.000002
      5          6           0        0.196334   -0.287779    0.000134
      6          6           0       -0.513990   -1.497114    0.000055
      7          6           0        1.681874   -0.287298    0.000403
      8          8           0        2.221285   -1.494668   -0.000234
      9          7           0        0.182101    2.205016   -0.000065
     10          8           0        2.368754    0.744858    0.000216
     11          1           0       -2.442097   -2.441836   -0.000106
     12          1           0       -3.696800   -0.297758   -0.000235
     13          1           0       -2.475264    1.857952   -0.000180
     14          1           0        0.036391   -2.428108    0.000139
     15          1           0        3.192205   -1.415207   -0.000445
     16          1           0       -0.035959    2.765535    0.827143
     17          1           0        1.228332    1.953637   -0.000178
     18          1           0       -0.036067    2.765498   -0.827270
 ---------------------------------------------------------------------
 Rotational constants (GHZ):      2.2164708      1.2045698      0.7837720
 Standard basis: 6-31+G(d,p) (6D, 7F)
 There are   230 symmetry adapted cartesian basis functions of A   symmetry.
 There are   230 symmetry adapted basis functions of A   symmetry.
   230 basis functions,   376 primitive gaussians,   230 cartesian basis functions
    36 alpha electrons       36 beta electrons
       nuclear repulsion energy       513.6263352976 Hartrees.
 NAtoms=   18 NActive=   18 NUniq=   18 SFac= 1.00D+00 NAtFMM=   60 NAOKFM=F Big=F
 Integral buffers will be    131072 words long.
 Regular integral format.
 Two-electron integral symmetry is turned on.
 Nuclear repulsion after empirical dispersion term =      513.6064239742 Hartrees.
 One-electron integrals computed using PRISM.
 NBasis=   230 RedAO= T EigKep=  2.29D-06  NBF=   230
 NBsUse=   230 1.00D-06 EigRej= -1.00D+00 NBFU=   230
 Initial guess from the checkpoint file:  "B2PLYPD3BJAnthranilicyang.chk"
 B after Tr=     0.000000    0.000000    0.000000
         Rot=    0.999967   -0.000011    0.000015   -0.008176 Ang=  -0.94 deg.
 ExpMin= 4.38D-02 ExpMax= 5.48D+03 ExpMxC= 8.25D+02 IAcc=2 IRadAn=         4 AccDes= 0.00D+00
 Harris functional with IExCor=  419 and IRadAn=       4 diagonalized for initial guess.
 HarFok:  IExCor=  419 AccDes= 0.00D+00 IRadAn=         4 IDoV= 1 UseB2=F ITyADJ=14
 ICtDFT=  3500011 ScaDFX=  1.000000  1.000000  1.000000  1.000000
 FoFCou: FMM=F IPFlag=           0 FMFlag=      100000 FMFlg1=           0
         NFxFlg=           0 DoJE=T BraDBF=F KetDBF=T FulRan=T
         wScrn=  0.000000 ICntrl=     500 IOpCl=  0 I1Cent=   200000004 NGrid=           0
         NMat0=    1 NMatS0=      1 NMatT0=    0 NMatD0=    1 NMtDS0=    0 NMtDT0=    0
 Petite list used in FoFCou.
 Keep R1 ints in memory in canonical form, NReq=359209085.
 Requested convergence on RMS density matrix=1.00D-08 within 128 cycles.
 Requested convergence on MAX density matrix=1.00D-06.
 Requested convergence on             energy=1.00D-06.
 No special actions if energy rises.
 SCF Done:  E(RB2PLYP) =  -475.644516607     A.U. after   13 cycles
            NFock= 13  Conv=0.97D-08     -V/T= 2.0071
 DoSCS=T DFT=T ScalE2(SS,OS)=  0.270000  0.270000
 ExpMin= 4.38D-02 ExpMax= 5.48D+03 ExpMxC= 8.25D+02 IAcc=3 IRadAn=         5 AccDes= 0.00D+00
 HarFok:  IExCor=  205 AccDes= 0.00D+00 IRadAn=         5 IDoV=-2 UseB2=F ITyADJ=14
 ICtDFT= 12500011 ScaDFX=  1.000000  1.000000  1.000000  1.000000
 Range of M.O.s used for correlation:    11   230
 NBasis=   230 NAE=    36 NBE=    36 NFC=    10 NFV=     0
 NROrb=    220 NOA=    26 NOB=    26 NVA=   194 NVB=   194

 **** Warning!!: The largest alpha MO coefficient is  0.16356692D+03

 DoSCS=T DFT=T ScalE2(SS,OS)=  0.270000  0.270000
 Fully direct method using O(ONN) memory.
 JobTyp=1 Pass  1:  I=  11 to  17 NPSUse= 18 ParTrn=T ParDer=T DoDerP=T.
 JobTyp=1 Pass  2:  I=  18 to  24 NPSUse= 18 ParTrn=T ParDer=T DoDerP=T.
 JobTyp=1 Pass  3:  I=  25 to  31 NPSUse= 18 ParTrn=T ParDer=T DoDerP=T.
 JobTyp=1 Pass  4:  I=  32 to  36 NPSUse= 18 ParTrn=T ParDer=T DoDerP=T.
 Spin components of T(2) and E(2):
     alpha-alpha T2 =       0.1070942817D+00 E2=     -0.6539700224D-01
     alpha-beta  T2 =       0.5523163757D+00 E2=     -0.3536226886D+00
     beta-beta   T2 =       0.1070942817D+00 E2=     -0.6539700224D-01
 E2(B2PLYP) =    -0.4844166931D+00 E(B2PLYP) =    -0.47612893330026D+03
          IDoAtm=111111111111111111
          Differentiating once with respect to electric field.
                with respect to dipole field.
          Differentiating once with respect to nuclear coordinates.
 Keep R1 ints in memory in canonical form, NReq=359028194.
          There are     1 degrees of freedom in the 1st order CPHF.  IDoFFX=0 NUNeed=     1.
 LinEq1:  Iter=  0 NonCon=     1 RMS=1.80D-03 Max=6.48D-02 NDo=     1
 AX will form     1 AO Fock derivatives at one time.
 LinEq1:  Iter=  1 NonCon=     1 RMS=7.61D-04 Max=1.60D-02 NDo=     1
 LinEq1:  Iter=  2 NonCon=     1 RMS=2.96D-04 Max=6.52D-03 NDo=     1
 LinEq1:  Iter=  3 NonCon=     1 RMS=2.22D-04 Max=6.31D-03 NDo=     1
 LinEq1:  Iter=  4 NonCon=     1 RMS=8.97D-05 Max=2.16D-03 NDo=     1
 LinEq1:  Iter=  5 NonCon=     1 RMS=4.17D-05 Max=1.34D-03 NDo=     1
 LinEq1:  Iter=  6 NonCon=     1 RMS=2.00D-05 Max=9.10D-04 NDo=     1
 LinEq1:  Iter=  7 NonCon=     1 RMS=1.07D-05 Max=4.59D-04 NDo=     1
 LinEq1:  Iter=  8 NonCon=     1 RMS=3.69D-06 Max=9.76D-05 NDo=     1
 LinEq1:  Iter=  9 NonCon=     1 RMS=1.88D-06 Max=4.14D-05 NDo=     1
 LinEq1:  Iter= 10 NonCon=     1 RMS=5.43D-07 Max=1.23D-05 NDo=     1
 LinEq1:  Iter= 11 NonCon=     1 RMS=2.84D-07 Max=1.37D-05 NDo=     1
 LinEq1:  Iter= 12 NonCon=     1 RMS=1.27D-07 Max=3.88D-06 NDo=     1
 LinEq1:  Iter= 13 NonCon=     1 RMS=4.08D-08 Max=9.11D-07 NDo=     1
 LinEq1:  Iter= 14 NonCon=     1 RMS=2.33D-08 Max=7.36D-07 NDo=     1
 LinEq1:  Iter= 15 NonCon=     1 RMS=5.81D-09 Max=1.11D-07 NDo=     1
 LinEq1:  Iter= 16 NonCon=     1 RMS=1.73D-09 Max=3.05D-08 NDo=     1
 LinEq1:  Iter= 17 NonCon=     1 RMS=8.02D-10 Max=1.19D-08 NDo=     1
 LinEq1:  Iter= 18 NonCon=     1 RMS=2.20D-10 Max=3.99D-09 NDo=     1
 LinEq1:  Iter= 19 NonCon=     1 RMS=8.99D-11 Max=2.03D-09 NDo=     1
 LinEq1:  Iter= 20 NonCon=     0 RMS=3.72D-11 Max=6.12D-10 NDo=     1
 Linear equations converged to 1.000D-10 1.000D-09 after    20 iterations.
 End of Minotr F.D. properties file   721 does not exist.
 End of Minotr F.D. properties file   722 does not exist.
 End of Minotr F.D. properties file   788 does not exist.
 Calling FoFJK, ICntrl=  10002127 FMM=F ISym2X=0 I1Cent= 0 IOpClX= 0 NMat=1 NMatS=1 NMatT=0.
 ***** Axes restored to original set *****
 -------------------------------------------------------------------
 Center     Atomic                   Forces (Hartrees/Bohr)
 Number     Number              X              Y              Z
 -------------------------------------------------------------------
      1        6           0.000146948    0.000278554    0.000002078
      2        6           0.000086608   -0.000004106   -0.000000131
      3        6          -0.000185771    0.000352757    0.000005421
      4        6           0.000094677   -0.004489383   -0.000005158
      5        6           0.000660340    0.001463806   -0.000032112
      6        6           0.000480521    0.000285261   -0.000007024
      7        6          -0.002358075    0.006434817    0.000124962
      8        8          -0.000550542   -0.003578652   -0.000036701
      9        7          -0.011439212   -0.004355827    0.000009634
     10        8           0.006329044    0.001145749   -0.000039364
     11        1           0.000042882   -0.000074850    0.000000926
     12        1           0.000029576    0.000072256   -0.000001225
     13        1           0.000118968    0.000162053    0.000000963
     14        1           0.000009537    0.000205457   -0.000000512
     15        1           0.000255253    0.000561830   -0.000003282
     16        1          -0.000572212   -0.000131936   -0.000610215
     17        1           0.007413159    0.001803804   -0.000017280
     18        1          -0.000561699   -0.000131590    0.000609018
 -------------------------------------------------------------------
 Cartesian Forces:  Max     0.011439212 RMS     0.002489692

 GradGradGradGradGradGradGradGradGradGradGradGradGradGradGradGradGradGrad
 Berny optimization.
 Using GEDIIS/GDIIS optimizer.
 FormGI is forming the generalized inverse of G from B-inverse, IUseBI=4.
 Internal  Forces:  Max     0.013673588 RMS     0.003148861
 Search for a local minimum.
 Step number   2 out of a maximum of   92
 All quantities printed in internal units (Hartrees-Bohrs-Radians)
 Mixed Optimization -- RFO/linear search
 Update second derivatives using D2CorX and points    2    1
 DE=  1.67D-04 DEPred=-4.06D-04 R=-4.11D-01
 Trust test=-4.11D-01 RLast= 5.38D-02 DXMaxT set to 1.50D-01
 ITU= -1  0
 Use linear search instead of GDIIS.
     Eigenvalues ---    0.00705   0.01004   0.01584   0.01589   0.01728
     Eigenvalues ---    0.02064   0.02134   0.02146   0.02160   0.02179
     Eigenvalues ---    0.02192   0.02227   0.02781   0.07081   0.07727
     Eigenvalues ---    0.14744   0.16000   0.16000   0.16000   0.16000
     Eigenvalues ---    0.16000   0.16000   0.16014   0.21958   0.22550
     Eigenvalues ---    0.23630   0.24490   0.25000   0.25000   0.28880
     Eigenvalues ---    0.33819   0.35066   0.35180   0.35315   0.35374
     Eigenvalues ---    0.35450   0.39495   0.42268   0.43705   0.43784
     Eigenvalues ---    0.44599   0.45620   0.46606   0.47483   0.52668
     Eigenvalues ---    0.59814   0.80493   1.04149
 RFO step:  Lambda=-2.73029113D-04 EMin= 7.05224315D-03
 Quartic linear search produced a step of -0.60461.
 Iteration  1 RMS(Cart)=  0.01906283 RMS(Int)=  0.00010935
 Iteration  2 RMS(Cart)=  0.00015010 RMS(Int)=  0.00000310
 Iteration  3 RMS(Cart)=  0.00000000 RMS(Int)=  0.00000310
 Variable       Old X    -DE/DX   Delta X   Delta X   Delta X     New X
                                 (Linear)    (Quad)   (Total)
    R1        2.63770   0.00134  -0.00196   0.00439   0.00243   2.64013
    R2        2.63477   0.00100  -0.00224   0.00438   0.00213   2.63690
    R3        2.04494   0.00009   0.00337  -0.00486  -0.00149   2.04345
    R4        2.64292   0.00055  -0.00156   0.00295   0.00139   2.64431
    R5        2.04548   0.00003   0.00335  -0.00489  -0.00154   2.04394
    R6        2.62045  -0.00075  -0.00276   0.00339   0.00062   2.62107
    R7        2.04892   0.00020   0.00308  -0.00431  -0.00122   2.04769
    R8        2.66557  -0.00968  -0.00554  -0.00058  -0.00612   2.65946
    R9        2.79563   0.00019  -0.00549   0.00827   0.00278   2.79841
   R10        2.65037  -0.00076  -0.00241   0.00282   0.00041   2.65078
   R11        2.80726  -0.00377  -0.00401   0.00155  -0.00246   2.80480
   R12        2.04376  -0.00018   0.00333  -0.00511  -0.00177   2.04199
   R13        2.49895   0.00289  -0.00540   0.01008   0.00468   2.50363
   R14        2.34292  -0.00267  -0.00479   0.00624   0.00145   2.34436
   R15        1.84091  -0.00022  -0.00112   0.00152   0.00041   1.84132
   R16        1.93271   0.00030   0.00086  -0.00102  -0.00015   1.93255
   R17        2.03336  -0.00763   0.00734  -0.01924  -0.01190   2.02146
   R18        1.93271   0.00031   0.00086  -0.00102  -0.00015   1.93255
    A1        2.09875  -0.00013   0.00011   0.00078   0.00089   2.09964
    A2        2.09526   0.00006  -0.00010  -0.00033  -0.00043   2.09483
    A3        2.08918   0.00006  -0.00001  -0.00045  -0.00046   2.08872
    A4        2.09815  -0.00034   0.00102  -0.00092   0.00010   2.09825
    A5        2.10008   0.00024  -0.00055   0.00069   0.00015   2.10023
    A6        2.08495   0.00010  -0.00047   0.00023  -0.00024   2.08471
    A7        2.07845  -0.00225  -0.00226  -0.00079  -0.00305   2.07540
    A8        2.09942   0.00110   0.00031   0.00141   0.00172   2.10114
    A9        2.10531   0.00115   0.00195  -0.00062   0.00133   2.10664
   A10        2.12644   0.00280   0.00139   0.00173   0.00312   2.12956
   A11        2.07635   0.00750   0.01036  -0.00245   0.00791   2.08425
   A12        2.08040  -0.01030  -0.01175   0.00072  -0.01103   2.06937
   A13        2.06024   0.00224   0.00160   0.00057   0.00217   2.06241
   A14        2.12075  -0.01367  -0.01243  -0.00366  -0.01609   2.10466
   A15        2.10220   0.01144   0.01082   0.00309   0.01392   2.11612
   A16        2.10434  -0.00233  -0.00186  -0.00137  -0.00323   2.10111
   A17        2.10224   0.00126   0.00071   0.00121   0.00192   2.10415
   A18        2.07661   0.00107   0.00115   0.00016   0.00131   2.07792
   A19        1.99063   0.00377   0.00632  -0.00299   0.00333   1.99396
   A20        2.15830  -0.00874  -0.00704  -0.00384  -0.01088   2.14742
   A21        2.13425   0.00497   0.00072   0.00684   0.00755   2.14180
   A22        1.90930  -0.00106   0.00005  -0.00267  -0.00263   1.90667
   A23        1.95387   0.00025   0.00213  -0.00132   0.00083   1.95470
   A24        1.84591  -0.00050  -0.01093   0.01144   0.00051   1.84642
   A25        1.95386   0.00025   0.00214  -0.00132   0.00084   1.95470
   A26        1.91286  -0.00024   0.00217  -0.00507  -0.00289   1.90997
   A27        1.88425   0.00041   0.00211   0.00109   0.00321   1.88747
   A28        1.91278  -0.00022   0.00224  -0.00507  -0.00282   1.90996
    D1        0.00002  -0.00000  -0.00002  -0.00003  -0.00004  -0.00002
    D2        3.14159   0.00000   0.00000   0.00001   0.00001  -3.14158
    D3       -3.14159  -0.00000  -0.00000  -0.00000  -0.00001   3.14159
    D4       -0.00002   0.00000   0.00002   0.00003   0.00005   0.00003
    D5        0.00001  -0.00000  -0.00001  -0.00002  -0.00003  -0.00002
    D6        3.14156   0.00000   0.00003   0.00006   0.00009  -3.14154
    D7       -3.14157  -0.00000  -0.00002  -0.00005  -0.00007   3.14155
    D8       -0.00002   0.00000   0.00002   0.00003   0.00005   0.00003
    D9        0.00000  -0.00000  -0.00000  -0.00000  -0.00000  -0.00000
   D10        3.14156   0.00000   0.00003   0.00006   0.00009  -3.14154
   D11       -3.14157  -0.00000  -0.00002  -0.00004  -0.00006   3.14156
   D12       -0.00001   0.00000   0.00001   0.00002   0.00003   0.00002
   D13       -0.00006   0.00000   0.00005   0.00008   0.00013   0.00007
   D14        3.14151   0.00000   0.00007   0.00013   0.00020  -3.14147
   D15        3.14157   0.00000   0.00001   0.00002   0.00004  -3.14157
   D16       -0.00005   0.00000   0.00004   0.00007   0.00011   0.00007
   D17        0.00009  -0.00001  -0.00007  -0.00013  -0.00020  -0.00012
   D18       -3.14146  -0.00001  -0.00011  -0.00021  -0.00032   3.14140
   D19       -3.14148  -0.00001  -0.00010  -0.00018  -0.00028   3.14143
   D20        0.00016  -0.00001  -0.00013  -0.00026  -0.00039  -0.00024
   D21        1.05945   0.00045   0.00278  -0.00112   0.00166   1.06111
   D22       -3.14139  -0.00001  -0.00019  -0.00088  -0.00107   3.14072
   D23       -1.05915  -0.00045  -0.00307  -0.00064  -0.00371  -1.06286
   D24       -2.08217   0.00045   0.00280  -0.00107   0.00173  -2.08044
   D25        0.00018  -0.00001  -0.00017  -0.00084  -0.00100  -0.00082
   D26        2.08242  -0.00045  -0.00304  -0.00059  -0.00364   2.07878
   D27       -0.00006   0.00000   0.00005   0.00010   0.00015   0.00009
   D28        3.14158   0.00000   0.00001   0.00002   0.00003  -3.14158
   D29        3.14149   0.00001   0.00009   0.00018   0.00027  -3.14143
   D30       -0.00006   0.00000   0.00005   0.00010   0.00015   0.00009
   D31       -3.14099  -0.00003  -0.00051  -0.00176  -0.00227   3.13993
   D32       -0.00030   0.00003   0.00023   0.00063   0.00085   0.00055
   D33        0.00065  -0.00003  -0.00055  -0.00185  -0.00239  -0.00174
   D34        3.14133   0.00003   0.00020   0.00054   0.00073  -3.14112
   D35        3.14112   0.00003   0.00039   0.00121   0.00161  -3.14046
   D36        0.00042  -0.00002  -0.00035  -0.00114  -0.00149  -0.00107
         Item               Value     Threshold  Converged?
 Maximum Force            0.013674     0.000450     NO 
 RMS     Force            0.003149     0.000300     NO 
 Maximum Displacement     0.072798     0.001800     NO 
 RMS     Displacement     0.019097     0.001200     NO 
 Predicted change in Energy=-2.777953D-04
 GradGradGradGradGradGradGradGradGradGradGradGradGradGradGradGradGradGrad

                          Input orientation:                          
 ---------------------------------------------------------------------
 Center     Atomic      Atomic             Coordinates (Angstroms)
 Number     Number       Type             X           Y           Z
 ---------------------------------------------------------------------
      1          6           0        1.941314   -1.469262    0.000058
      2          6           0        2.620410   -0.248318   -0.000205
      3          6           0        1.906086    0.954930   -0.000183
      4          6           0        0.519748    0.911745    0.000101
      5          6           0       -0.188815   -0.304191    0.000455
      6          6           0        0.546242   -1.498907    0.000372
      7          6           0       -1.673025   -0.313456    0.001000
      8          8           0       -2.209526   -1.524830   -0.000719
      9          7           0       -0.247444    2.178374   -0.000026
     10          8           0       -2.355868    0.722291    0.000597
     11          1           0        2.496503   -2.397203    0.000037
     12          1           0        3.701760   -0.224703   -0.000456
     13          1           0        2.430055    1.903416   -0.000434
     14          1           0        0.016742   -2.440858    0.000624
     15          1           0       -3.180710   -1.445942   -0.001273
     16          1           0       -0.050332    2.745491   -0.827894
     17          1           0       -1.278692    1.894109   -0.000652
     18          1           0       -0.051240    2.745110    0.828319
 ---------------------------------------------------------------------
                    Distance matrix (angstroms):
                    1          2          3          4          5
     1  C    0.000000
     2  C    1.397096   0.000000
     3  C    2.424448   1.399308   0.000000
     4  C    2.773092   2.399692   1.387010   0.000000
     5  C    2.427929   2.809781   2.444176   1.407324   0.000000
     6  C    1.395387   2.422013   2.805440   2.410798   1.402732
     7  C    3.794645   4.293929   3.797214   2.511846   1.484239
     8  O    4.151212   4.995774   4.804942   3.658666   2.360770
     9  N    4.253929   3.756783   2.476794   1.480856   2.483257
    10  O    4.823761   5.070051   4.268298   2.881850   2.397870
    11  H    1.081346   2.152455   3.403731   3.854438   3.404649
    12  H    2.155945   1.081609   2.148484   3.378863   3.891388
    13  H    3.407907   2.160138   1.083592   2.152367   3.425202
    14  H    2.155916   3.403868   3.886000   3.390126   2.146532
    15  H    5.122077   5.923453   5.624916   4.387719   3.202348
    16  H    4.734586   4.096440   2.778270   2.091218   3.163210
    17  H    4.656254   4.448931   3.320371   2.049251   2.453641
    18  H    4.734682   4.096922   2.778899   2.091220   3.162676
                    6          7          8          9         10
     6  C    0.000000
     7  C    2.516036   0.000000
     8  O    2.755890   1.324864   0.000000
     9  N    3.761959   2.870801   4.190882   0.000000
    10  O    3.654581   1.240583   2.251882   2.562348   0.000000
    11  H    2.147197   4.661219   4.786203   5.335275   5.768600
    12  H    3.403072   5.375518   6.052573   4.622878   6.131204
    13  H    3.889031   4.663667   5.768760   2.691580   4.929515
    14  H    1.080574   2.716827   2.407359   4.626781   3.954085
    15  H    3.727328   1.885641   0.974383   4.662587   2.319829
    16  H    4.365415   3.560528   4.856128   1.022663   3.177299
    17  H    3.852654   2.242509   3.543388   1.069710   1.591686
    18  H    4.365107   3.559419   4.855707   1.022663   3.176197
                   11         12         13         14         15
    11  H    0.000000
    12  H    2.484433   0.000000
    13  H    4.301133   2.479138   0.000000
    14  H    2.480145   4.300082   4.969587   0.000000
    15  H    5.756356   6.989980   6.534438   3.348665   0.000000
    16  H    5.798202   4.856429   2.747016   5.252538   5.296290
    17  H    5.715545   5.412418   3.708759   4.524388   3.843646
    18  H    5.798312   4.857125   2.748109   5.252043   5.295915
                   16         17         18
    16  H    0.000000
    17  H    1.708230   0.000000
    18  H    1.656214   1.708225   0.000000
 Stoichiometry    C7H8NO2(1+)
 Framework group  C1[X(C7H8NO2)]
 Deg. of freedom    48
 Full point group                 C1      NOp   1
 Largest Abelian subgroup         C1      NOp   1
 Largest concise Abelian subgroup C1      NOp   1
                         Standard orientation:                         
 ---------------------------------------------------------------------
 Center     Atomic      Atomic             Coordinates (Angstroms)
 Number     Number       Type             X           Y           Z
 ---------------------------------------------------------------------
      1          6           0       -1.934754   -1.477718    0.000034
      2          6           0       -2.620863   -0.260701    0.000297
      3          6           0       -1.913473    0.946636    0.000275
      4          6           0       -0.526911    0.911427   -0.000009
      5          6           0        0.188637   -0.300411   -0.000363
      6          6           0       -0.539534   -1.499337   -0.000280
      7          6           0        1.672875   -0.301138   -0.000909
      8          8           0        2.216337   -1.509405    0.000811
      9          7           0        0.232982    2.182450    0.000118
     10          8           0        2.349748    0.738521   -0.000505
     11          1           0       -2.484595   -2.408838    0.000055
     12          1           0       -3.702332   -0.243308    0.000548
     13          1           0       -2.442891    1.892092    0.000526
     14          1           0       -0.004624   -2.438226   -0.000532
     15          1           0        3.187050   -1.424931    0.001365
     16          1           0        0.032610    2.748423    0.827986
     17          1           0        1.265848    1.904122    0.000744
     18          1           0        0.033521    2.748047   -0.828227
 ---------------------------------------------------------------------
 Rotational constants (GHZ):      2.2311535      1.2063660      0.7863711
 Standard basis: 6-31+G(d,p) (6D, 7F)
 There are   230 symmetry adapted cartesian basis functions of A   symmetry.
 There are   230 symmetry adapted basis functions of A   symmetry.
   230 basis functions,   376 primitive gaussians,   230 cartesian basis functions
    36 alpha electrons       36 beta electrons
       nuclear repulsion energy       514.3187497359 Hartrees.
 NAtoms=   18 NActive=   18 NUniq=   18 SFac= 1.00D+00 NAtFMM=   60 NAOKFM=F Big=F
 Integral buffers will be    131072 words long.
 Regular integral format.
 Two-electron integral symmetry is turned on.
 Nuclear repulsion after empirical dispersion term =      514.2988062354 Hartrees.
 One-electron integrals computed using PRISM.
 NBasis=   230 RedAO= T EigKep=  2.29D-06  NBF=   230
 NBsUse=   230 1.00D-06 EigRej= -1.00D+00 NBFU=   230
 Lowest energy guess from the checkpoint file:  "B2PLYPD3BJAnthranilicyang.chk"
 B after Tr=     0.000000    0.000000   -0.000000
         Rot=    0.999997    0.000013   -0.000022   -0.002262 Ang=   0.26 deg.
 B after Tr=     0.000000   -0.000000   -0.000000
         Rot=    0.999983    0.000025   -0.000037    0.005913 Ang=   0.68 deg.
 Keep R1 ints in memory in canonical form, NReq=359209085.
 Requested convergence on RMS density matrix=1.00D-08 within 128 cycles.
 Requested convergence on MAX density matrix=1.00D-06.
 Requested convergence on             energy=1.00D-06.
 No special actions if energy rises.
 SCF Done:  E(RB2PLYP) =  -475.644914395     A.U. after   12 cycles
            NFock= 12  Conv=0.75D-08     -V/T= 2.0070
 DoSCS=T DFT=T ScalE2(SS,OS)=  0.270000  0.270000
 ExpMin= 4.38D-02 ExpMax= 5.48D+03 ExpMxC= 8.25D+02 IAcc=3 IRadAn=         5 AccDes= 0.00D+00
 HarFok:  IExCor=  205 AccDes= 0.00D+00 IRadAn=         5 IDoV=-2 UseB2=F ITyADJ=14
 ICtDFT= 12500011 ScaDFX=  1.000000  1.000000  1.000000  1.000000
 Range of M.O.s used for correlation:    11   230
 NBasis=   230 NAE=    36 NBE=    36 NFC=    10 NFV=     0
 NROrb=    220 NOA=    26 NOB=    26 NVA=   194 NVB=   194

 **** Warning!!: The largest alpha MO coefficient is  0.16526542D+03

 DoSCS=T DFT=T ScalE2(SS,OS)=  0.270000  0.270000
 Fully direct method using O(ONN) memory.
 JobTyp=1 Pass  1:  I=  11 to  17 NPSUse= 18 ParTrn=T ParDer=T DoDerP=T.
 JobTyp=1 Pass  2:  I=  18 to  24 NPSUse= 18 ParTrn=T ParDer=T DoDerP=T.
 JobTyp=1 Pass  3:  I=  25 to  31 NPSUse= 18 ParTrn=T ParDer=T DoDerP=T.
 JobTyp=1 Pass  4:  I=  32 to  36 NPSUse= 18 ParTrn=T ParDer=T DoDerP=T.
 Spin components of T(2) and E(2):
     alpha-alpha T2 =       0.1070929941D+00 E2=     -0.6543642798D-01
     alpha-beta  T2 =       0.5518150857D+00 E2=     -0.3535929563D+00
     beta-beta   T2 =       0.1070929941D+00 E2=     -0.6543642798D-01
 E2(B2PLYP) =    -0.4844658122D+00 E(B2PLYP) =    -0.47612938020772D+03
          IDoAtm=111111111111111111
          Differentiating once with respect to electric field.
                with respect to dipole field.
          Differentiating once with respect to nuclear coordinates.
 Keep R1 ints in memory in canonical form, NReq=359028194.
          There are     1 degrees of freedom in the 1st order CPHF.  IDoFFX=0 NUNeed=     1.
 LinEq1:  Iter=  0 NonCon=     1 RMS=1.80D-03 Max=6.59D-02 NDo=     1
 AX will form     1 AO Fock derivatives at one time.
 LinEq1:  Iter=  1 NonCon=     1 RMS=7.57D-04 Max=1.57D-02 NDo=     1
 LinEq1:  Iter=  2 NonCon=     1 RMS=2.93D-04 Max=7.00D-03 NDo=     1
 LinEq1:  Iter=  3 NonCon=     1 RMS=2.20D-04 Max=6.24D-03 NDo=     1
 LinEq1:  Iter=  4 NonCon=     1 RMS=8.92D-05 Max=2.27D-03 NDo=     1
 LinEq1:  Iter=  5 NonCon=     1 RMS=4.17D-05 Max=1.30D-03 NDo=     1
 LinEq1:  Iter=  6 NonCon=     1 RMS=1.99D-05 Max=8.56D-04 NDo=     1
 LinEq1:  Iter=  7 NonCon=     1 RMS=1.07D-05 Max=4.26D-04 NDo=     1
 LinEq1:  Iter=  8 NonCon=     1 RMS=3.69D-06 Max=9.77D-05 NDo=     1
 LinEq1:  Iter=  9 NonCon=     1 RMS=1.89D-06 Max=3.78D-05 NDo=     1
 LinEq1:  Iter= 10 NonCon=     1 RMS=5.38D-07 Max=1.07D-05 NDo=     1
 LinEq1:  Iter= 11 NonCon=     1 RMS=2.83D-07 Max=1.29D-05 NDo=     1
 LinEq1:  Iter= 12 NonCon=     1 RMS=1.26D-07 Max=3.47D-06 NDo=     1
 LinEq1:  Iter= 13 NonCon=     1 RMS=3.98D-08 Max=8.06D-07 NDo=     1
 LinEq1:  Iter= 14 NonCon=     1 RMS=2.29D-08 Max=6.82D-07 NDo=     1
 LinEq1:  Iter= 15 NonCon=     1 RMS=5.79D-09 Max=1.16D-07 NDo=     1
 LinEq1:  Iter= 16 NonCon=     1 RMS=1.51D-09 Max=2.36D-08 NDo=     1
 LinEq1:  Iter= 17 NonCon=     1 RMS=7.14D-10 Max=9.87D-09 NDo=     1
 LinEq1:  Iter= 18 NonCon=     1 RMS=2.04D-10 Max=3.88D-09 NDo=     1
 LinEq1:  Iter= 19 NonCon=     1 RMS=6.83D-11 Max=1.54D-09 NDo=     1
 LinEq1:  Iter= 20 NonCon=     0 RMS=3.20D-11 Max=6.43D-10 NDo=     1
 Linear equations converged to 1.000D-10 1.000D-09 after    20 iterations.
 End of Minotr F.D. properties file   721 does not exist.
 End of Minotr F.D. properties file   722 does not exist.
 End of Minotr F.D. properties file   788 does not exist.
 Calling FoFJK, ICntrl=  10002127 FMM=F ISym2X=0 I1Cent= 0 IOpClX= 0 NMat=1 NMatS=1 NMatT=0.
 ***** Axes restored to original set *****
 -------------------------------------------------------------------
 Center     Atomic                   Forces (Hartrees/Bohr)
 Number     Number              X              Y              Z
 -------------------------------------------------------------------
      1        6          -0.000775274    0.001157357   -0.000005051
      2        6          -0.001407543   -0.000121848    0.000001119
      3        6          -0.000613738   -0.000424627   -0.000009629
      4        6           0.000272297   -0.001114204    0.000009989
[...]
 0.0187463,-0.0000004,0.0000014,0.0000003,-0.0630414,-0.2669153,0.12075
 48,0.0000003,0.1792699,-0.0152075,0.000001,-0.0000033,-0.0000094,-0.08
 97453,0.430914,-0.2021578,0.0000065,-0.0061013,0.4227626,-0.0000093,0.
 0000374,0.0000299,-0.0574356,-0.7497648,0.0317168,-0.0000028,-0.061802
 ,-0.0992616,0.000001,-0.0000055,-0.0000112,0.023882,0.0894701,0.120617
 3,0.000002,-0.0587716,0.0275105,0.0000015,0.,0.0000032,-0.0589289,2.02
 75852,0.0471647,0.0000062,0.2381759,1.7448084,0.0000911,0.0000351,0.00
 01116,0.3515607,-0.8674027,-0.5128822,-0.0000349,-0.5374988,-1.0462713
 ,-0.0000452,-0.0000689,-0.0000817,-0.3299773,-0.472217,-0.1574418,-0.0
 000248,0.0436099,-0.5212638,0.0000119,-0.0000717,-0.0000789,-0.0465406
 ,-1.0632423,0.1832522,0.0000262,0.068443,-1.1710834,-0.0000265,0.00005
 11,0.0000422,-0.3394947,0.0663704,0.0222718,0.0000004,0.0285265,0.0412
 328,-0.0000006,-0.0000018,0.,0.1447639,0.0338501,-0.0025057,-0.0000001
 ,-0.0064226,0.0853117,0.0000004,0.0000025,0.0000001,0.1418639,0.092542
 5,-0.0107107,-0.000001,-0.0218976,-0.0092199,0.0000022,-0.0000019,0.00
 00112,0.1519844,0.0938444,-0.0165541,0.0000008,-0.0159583,0.0837923,0.
 ,0.0000089,0.0000012,0.1397847,0.4360235,0.1313689,0.0000089,0.1302603
 ,0.3190095,-0.0000023,0.0000153,0.000001,0.3672697,0.2015398,0.0099796
 ,0.0118347,0.0145185,0.2511289,-0.0510198,0.0211332,-0.0828351,0.26696
 63,0.6379806,0.3997359,0.0000045,0.2195676,0.5352563,-0.0000374,0.0000
 093,-0.0000403,0.2003938,0.2015591,0.0100049,-0.0118232,0.0145248,0.25
 10976,0.0510312,-0.0211359,0.0828584,0.2669833\Polar=116.0367458,-0.66
 96808,101.4365345,-0.000274,0.0004445,48.7523142\PG=C01 [X(C7H8N1O2)]\
 NImag=0\\0.70506970,-0.03882313,0.74636809,-0.00000159,0.00000262,0.12
 182850,-0.18399799,-0.12149159,-0.00000031,0.76555446,-0.06176997,-0.2
 9919298,-0.00000141,0.00449761,0.67706670,-0.00000023,-0.00000122,-0.0
 5092562,-0.00000215,0.00000182,0.12546834,0.06202009,0.02048262,-0.000
 00033,-0.18545111,0.06239537,0.00000144,0.70789705,-0.01366618,-0.0523
 5353,0.,0.12516718,-0.28784113,-0.00000096,0.03620727,0.74623687,-0.00
 000018,0.00000006,-0.00252147,0.00000037,0.00000014,-0.04918392,-0.000
 00005,-0.00000393,0.11240143,-0.04891859,-0.02741939,0.00000017,-0.028
 32192,0.07948910,-0.00000060,-0.35319940,-0.06345069,-0.00000072,0.717
 50354,-0.02791352,-0.01756535,0.00000026,0.02805265,0.03102680,-0.0000
 0050,0.01383791,-0.12226983,0.00000079,0.05166963,0.61749518,0.0000002
 2,0.00000003,0.00290340,0.00000012,0.00000016,-0.00631916,-0.00000119,
 0.00000045,-0.04500333,-0.00000168,-0.00000831,0.13491731,-0.02777618,
 0.02755892,0.00000036,0.00035370,-0.00600851,0.00000021,-0.03296773,-0
 .02083812,-0.00000017,-0.17039375,-0.11729791,0.00000448,0.65844101,0.
 06438352,0.03157686,-0.00000076,0.00251226,-0.05759999,0.00000015,-0.0
 6670051,0.02430864,-0.00000031,-0.05843158,-0.25728479,0.00000405,-0.0
 0613933,0.70711725,0.00000020,0.00000007,-0.00318198,0.00000002,-0.000
 00019,0.00309880,-0.00000039,0.00000026,-0.00189971,0.00000449,0.00000
 278,-0.03477509,-0.00000541,0.00000150,0.10156797,-0.35199813,0.026409
 86,0.00000059,-0.02308553,-0.06859529,0.00000014,-0.04547732,0.0187632
 6,0.,0.05788379,0.02687829,-0.00000052,-0.17255410,0.05933648,0.000001
 60,0.71028772,-0.03378600,-0.13233981,0.00000045,-0.03433090,0.0307723
 1,0.,0.02759149,-0.01242339,0.,-0.01882686,-0.05567456,-0.00000019,0.1
 1171624,-0.27930641,-0.00000294,0.04554651,0.73246749,0.00000116,-0.00
 000029,-0.05051439,0.00000005,0.00000056,-0.00303062,0.00000026,-0.000
 00034,0.00314034,-0.00000064,0.00000005,-0.00737734,0.00000214,-0.0000
 0320,-0.04276094,-0.00000500,0.00000089,0.12203453,0.00302250,0.002314
 78,-0.00000004,-0.00032288,0.00457215,0.00000024,0.01059983,-0.0040541
 4,0.00000035,-0.02219676,-0.02803060,-0.00000027,-0.20626264,-0.002976
 71,0.00000234,-0.02063931,0.01623485,0.00000073,0.71828511,0.00443093,
 -0.00638373,-0.00000020,0.00048505,-0.00337764,-0.00000006,-0.00425876
 ,-0.00714356,-0.00000002,-0.03391165,0.01327523,0.00000054,-0.01172027
 ,-0.10246931,0.00000087,0.02781237,0.01159632,-0.00000026,-0.09798399,
 0.86703832,-0.00000021,-0.00000020,0.00925955,-0.00000018,0.00000017,-
 0.00202136,-0.00000003,0.00000002,0.00707726,-0.00000003,0.00000011,-0
 .00584363,0.00000018,0.00000179,-0.06501271,0.00000023,0.00000006,-0.0
 0425725,0.00000587,0.00002841,0.19653672,0.00121174,-0.00057779,0.0000
 0015,-0.00014787,-0.00217194,-0.00000012,-0.00313474,-0.00141529,0.000
 00019,-0.00517548,0.00852625,-0.00000005,-0.03084685,-0.04528369,-0.00
 000324,-0.00435470,-0.00204542,-0.00000045,-0.17800158,-0.11383767,-0.
 00001190,0.67143376,-0.00051129,0.00057368,0.00000016,0.00020122,-0.00
 098702,-0.00000003,-0.00166149,0.00174885,-0.00000002,0.00364734,0.000
 78564,0.00000008,-0.01758889,-0.00553001,-0.00000175,0.00195355,-0.004
 19852,-0.00000009,-0.07199033,-0.29911311,-0.00001840,0.06487305,0.451
 89175,-0.00000002,-0.00000008,-0.00117238,-0.00000003,-0.00000003,0.00
 012107,0.,0.00000013,-0.00062966,-0.00000026,0.00000028,0.00203447,-0.
 00000131,-0.00000204,0.00833992,0.00000018,-0.00000030,0.00145962,-0.0
 0000929,-0.00002160,-0.06196614,0.00002715,0.00003103,0.03964145,0.000
 97516,0.00046752,0.00000018,-0.00739485,-0.00595559,0.00000056,-0.0201
 1401,0.04796992,-0.00000029,-0.12498247,0.02857832,-0.00000009,0.01406
 540,-0.00700759,-0.00000030,-0.00080805,-0.00104759,-0.00000044,-0.021
 88072,0.01502669,0.00000211,0.00263922,-0.00857237,-0.00000155,0.57045
 665,-0.00201829,-0.00136760,-0.00000015,-0.00060345,0.00551322,0.00000
 125,0.00786340,-0.00843402,-0.00000003,0.04013995,-0.16731042,0.000002
 93,0.02360913,-0.02972409,0.00000025,-0.00536292,-0.00395804,0.0000007
 0,-0.00208604,0.00647028,0.00000047,0.00018357,-0.00345890,-0.00000087
 ,0.08999080,0.60909998,0.00000014,-0.00000030,-0.00159771,-0.00000041,
 -0.00000025,0.00750239,-0.00000122,0.00000153,0.00022886,0.00000070,0.
 00000319,-0.06937880,-0.00000275,0.00000057,-0.00364802,0.00000124,0.0
 0000065,0.00835437,-0.00000059,0.00000060,-0.00234287,-0.00000048,-0.0
 0000059,-0.00131767,-0.00003800,-0.00000198,0.71981991,-0.00205899,0.0
 0186620,-0.00000001,0.00030438,0.00007171,0.,-0.00156005,0.00119257,0.
 00000029,0.00543754,0.00381991,0.00000012,-0.03132417,0.04304614,0.000
 00109,-0.00529842,-0.00735814,0.00000029,-0.28857396,0.24067680,0.0000
 0790,0.03544552,-0.00632880,-0.00000103,-0.01662959,-0.02138130,0.0000
 0518,0.32492854,0.00137644,0.00132227,0.00000013,-0.00050202,0.0006175
 3,0.00000016,0.00215476,0.00204488,0.00000048,0.00198830,-0.01747847,-
 0.00000005,0.02770842,-0.00494378,-0.00000135,-0.00072519,0.00390581,0
 .00000023,0.22550590,-0.44621815,-0.00000876,0.01895052,-0.10452925,-0
 .00000853,-0.04400447,-0.01722235,0.00000143,-0.26609852,0.55707257,0.
 00000002,-0.00000005,-0.00169450,0.00000007,-0.00000006,0.00025364,0.0
 0000006,-0.00000059,-0.00052671,-0.00000049,0.00000191,0.00043331,0.00
 000109,-0.00000051,0.01711054,-0.00000033,-0.00000010,0.00338254,0.000
 00936,-0.00001152,-0.07122468,0.00000040,-0.00000565,0.02645464,0.0000
 0839,0.00000477,0.00959132,-0.00001090,0.00001991,0.03523254,-0.138553
 06,0.13075827,0.00000066,0.01253949,-0.01606711,-0.00000016,-0.0010313
 2,-0.00360884,0.,-0.00117516,-0.00116593,-0.00000003,-0.00513949,-0.00
 109592,0.00000008,-0.01162037,0.02784813,0.00000016,0.00050558,0.00162
 794,-0.00000001,-0.00014309,-0.00019989,0.,0.00031697,0.00013216,0.000
 00002,-0.00080578,0.00026021,-0.00000002,0.14294616,0.13082638,-0.2792
 2353,-0.00000115,0.01532321,-0.01730271,-0.00000015,-0.00312439,-0.003
 10461,0.,-0.00126823,0.00009810,-0.00000005,-0.00132314,0.00123887,0.0
 0000002,-0.00361349,0.00624400,0.00000003,-0.00014952,0.00031538,-0.00
 000001,0.00002869,0.00000162,0.,0.00028329,0.00005882,0.00000007,-0.00
 015041,0.00007428,0.,-0.13765194,0.29079736,0.00000058,-0.00000100,-0.
 03816274,0.00000012,-0.00000021,0.00259637,-0.00000016,-0.00000004,0.0
 0802245,-0.00000005,0.00000004,-0.00054687,0.00000009,0.00000011,0.008
 06409,0.00000019,-0.00000008,0.00227316,0.00000003,0.00000003,0.000306
 95,-0.00000001,-0.00000003,-0.00004236,-0.00000007,-0.00000012,-0.0011
 0453,-0.00000007,-0.00000004,-0.00029346,-0.00000071,0.00000125,0.0265
 4193,-0.00827984,0.00235905,0.00000005,-0.35699722,-0.00614821,0.00000
 172,-0.00950572,-0.00244260,0.00000002,0.00083116,0.00205327,0.0000000
 6,0.00095460,-0.00016953,-0.00000003,0.00017433,-0.00231217,0.00000008
 ,-0.00036987,-0.00003473,0.,0.00001096,0.00005032,0.,-0.00066214,-0.00
 013573,-0.00000005,0.00004399,-0.00014118,0.00000003,0.00074387,0.0000
 8312,-0.00000003,0.37261089,-0.02876416,0.00481129,0.00000006,-0.00663
 111,-0.06087089,-0.00000009,0.02899831,0.00387977,-0.00000010,0.001721
 25,-0.00395512,-0.00000005,0.00003706,-0.00141082,-0.00000003,-0.00277
 086,-0.00501303,-0.00000001,0.00019557,-0.00035893,0.,-0.00008810,0.00
 016042,0.,0.00233487,-0.00022409,0.00000015,-0.00002809,0.00039584,-0.
 00000006,0.00031757,0.00097755,0.00000003,0.00646327,0.06066878,-0.000
 00022,-0.00000008,0.00387001,0.00000189,-0.00000006,-0.03896163,-0.000
 00003,0.00000019,0.00276113,0.00000009,0.00000007,0.00780912,0.0000000
 4,0.00000005,-0.00127959,0.00000008,-0.00000017,0.00806397,-0.00000013
 ,0.00000004,-0.00111595,0.00000001,0.,0.00018759,-0.00000004,-0.000000
 09,0.00013589,-0.00000001,-0.00000011,0.00013668,0.,0.00000001,-0.0036
 5500,-0.00000183,0.00000011,0.02628526,-0.00172190,0.00349631,0.000000
 08,0.01321211,0.01621502,-0.00000029,-0.12913055,-0.12310531,0.0000012
 5,-0.01100145,-0.02897244,0.00000012,-0.00498353,0.00208949,0.00000021
 ,-0.00064006,0.00080298,-0.00000004,0.00072815,-0.00178503,-0.00000002
 ,-0.00074760,0.00007771,0.00000001,0.00327912,-0.00014910,0.00000060,0
 .00010000,0.00083954,-0.00000016,0.00055342,0.00081512,0.00000002,0.00
 074529,-0.00026169,0.,0.13219814,0.00380569,-0.00294057,0.00000005,-0.
 01525887,-0.01774621,0.00000012,-0.12310848,-0.28050298,0.00000303,0.0
 0369117,0.00276688,-0.00000008,0.00069376,0.00130329,0.00000010,0.0010
 3272,-0.00000970,-0.00000003,0.00060703,-0.00003972,-0.00000005,0.0000
 0609,0.00007314,0.,0.00009759,0.00154129,0.,-0.00007836,0.00029098,0.,
 -0.00087428,-0.00081610,-0.00000002,-0.00012362,0.00111662,-0.00000002
 ,0.13039040,0.29442669,0.00000027,0.00000013,0.00744268,0.00000026,-0.
 00000047,0.00244432,0.00000096,0.00000326,-0.03327603,-0.00000006,0.00
 000061,0.00148708,-0.00000002,-0.00000006,0.00661853,-0.00000019,0.000
 00017,-0.00152937,-0.00000010,0.00000003,0.00146116,0.00000005,0.,-0.0
 0024186,-0.00000038,-0.00000089,-0.00321070,-0.00000002,-0.00000012,-0
 .00015304,0.00000001,0.,-0.00017445,-0.00000002,0.,-0.00360765,-0.0000
 0135,-0.00000298,0.02403474,-0.00904331,-0.02756690,0.00000020,-0.0057
 0609,0.00050197,0.00000009,-0.00099555,0.00099781,0.,-0.00171333,0.002
 32778,0.00000012,0.01180311,0.01664551,-0.00000011,-0.13015365,-0.1284
 6257,0.00000145,0.00189988,0.00183140,0.00000018,-0.00385975,0.0001651
 5,-0.00000025,-0.00003753,0.00163091,-0.00000022,-0.00000389,-0.001304
 20,0.00000003,0.00110983,0.00011979,-0.00000006,-0.00039732,-0.0013379
 1,-0.00000003,0.00008869,-0.00008548,-0.00000002,0.13643036,0.00296607
 ,0.00633725,-0.00000007,0.00121551,0.00090471,0.00000003,0.00034579,0.
 00028209,0.,0.00358719,-0.00124855,-0.00000008,-0.01296244,-0.01865723
 ,0.00000013,-0.12637963,-0.28840230,0.00000156,-0.00134900,-0.00223576
 ,-0.00000017,-0.00085464,0.00108485,0.00000005,-0.00024890,-0.00101484
 ,0.00000017,-0.00005941,0.00115978,-0.00000003,-0.00007633,0.00066159,
 0.,0.00027272,0.00023796,0.,-0.00008986,0.00002109,0.,0.13403245,0.300
 77535,-0.00000022,0.00000009,0.00404869,0.,0.00000008,0.00792675,0.000
 00017,0.00000009,-0.00153172,0.00000028,-0.00000009,0.00643359,-0.0000
 0021,0.00000005,0.00176077,0.00000176,0.00000167,-0.03768093,-0.000000
 06,0.00000005,-0.00386667,-0.00000024,-0.00000002,0.00059617,-0.000000
 23,-0.00000017,0.00100484,0.00000002,-0.00000019,0.00057763,-0.0000000
 2,0.,-0.00375161,0.,0.,-0.00059863,-0.00000001,0.,-0.00064101,-0.00000
 142,-0.00000160,0.02593784,-0.00015521,0.00008484,-0.00000003,0.000080
 57,0.00037429,0.00000002,0.00055996,-0.00052601,0.,-0.00116341,0.00013
 356,-0.00000012,0.00192939,-0.00207400,-0.00000047,0.00077387,0.000082
 68,0.00000007,-0.02578603,-0.00777963,-0.00000083,-0.48181692,0.022469
 57,-0.00001650,0.00132700,0.00050696,0.00000018,0.00145709,0.01031203,
 0.00000027,0.00002193,-0.00000495,0.,-0.00000024,0.00001340,0.,-0.0000
 3164,0.00001104,0.00000002,-0.00008230,0.00008689,0.00000003,0.5046009
 0,0.00008449,0.00035036,-0.00000005,0.00016863,-0.00002007,0.00000002,
 -0.00001747,-0.00053834,-0.00000002,-0.00165039,0.00086039,0.00000007,
 -0.00115066,-0.00628910,-0.00000093,0.00096496,-0.00044395,0.00000015,
 -0.05675305,0.00131111,-0.00000211,0.07408134,-0.04982676,-0.00000062,
 0.00149026,0.00071425,-0.00000008,0.00702669,0.00300760,0.00000048,0.0
 0001970,0.00000862,0.,0.00001498,0.00002939,0.,-0.00012929,0.00000641,
 0.00000002,-0.00021683,0.00071332,-0.00000002,-0.02212280,0.05178549,-
 0.00000007,0.00000001,0.00031476,0.00000004,0.00000009,-0.00000804,0.0
 0000010,-0.00000015,-0.00023995,-0.00000038,0.00000018,0.00077795,0.00
 000031,-0.00000083,0.00528453,0.00000021,-0.00000003,-0.00064629,-0.00
 000614,-0.00000050,0.00309869,-0.00001216,-0.00000218,-0.01616877,0.00
 000042,0.00000017,0.00022257,0.00000086,0.00000092,-0.00580438,0.,0.,0
 .00003875,0.,0.,-0.00002539,-0.00000002,0.,-0.00015317,0.00000002,0.00
 000003,-0.00024868,0.00001722,0.00000262,0.01359696,0.00054711,0.00044
 296,-0.00019584,-0.00009689,-0.00057652,0.00060189,0.00070501,0.001705
 60,0.00037446,0.00477687,0.01171956,-0.01621917,-0.00149536,0.00014613
 ,-0.00117994,-0.00064332,0.00060264,0.00082833,-0.00073621,0.00071385,
 -0.00044968,0.00005287,-0.00034578,0.00055902,-0.07082759,-0.04221047,
 0.06109755,-0.00276368,-0.00260282,-0.00238137,-0.00002966,-0.00006998
 ,-0.00008283,-0.00002235,0.00000086,0.00000053,-0.00090250,-0.00035478
 ,-0.00042891,-0.00007822,0.00008445,0.00017841,0.00004027,0.00004185,-
 0.00000368,0.06633367,0.00025871,0.00033694,0.00022197,-0.00013345,-0.
 00108389,-0.00113978,-0.00150968,0.00231559,-0.00035113,-0.00527305,-0
 .02009998,0.01970623,0.00289529,-0.00147795,0.00116199,-0.00069645,-0.
 00061191,-0.00116636,0.00037652,-0.00095580,0.00061862,0.00013994,0.00
 053777,0.00008047,-0.04201444,-0.16191520,0.16131758,-0.00035019,0.000
 80101,-0.00051056,0.00001988,0.00002993,0.00020218,-0.00002730,0.00009
 145,0.00000552,0.00033424,0.00026402,0.00077304,0.00019196,-0.00016782
 ,-0.00020636,-0.00011276,-0.00006637,0.00000084,0.04071565,0.17136236,
 -0.00030426,-0.00042087,0.00000761,0.00001394,0.00048795,0.00030638,0.
 00067135,-0.00120083,0.00033095,-0.00352688,0.00006830,0.00682447,0.00
 042643,-0.00133494,-0.00029642,0.00019083,-0.00051013,-0.00021196,0.00
 061723,0.00079678,0.00037755,-0.00035436,-0.00062607,-0.00002528,0.057
 91560,0.15244630,-0.29752568,-0.00140751,-0.00140491,-0.00064619,-0.00
 001157,-0.00002332,-0.00006018,0.00005575,-0.00008208,0.00002508,-0.00
 034350,0.00014816,-0.00014700,0.00005989,-0.00010982,0.00001679,0.0001
 0693,0.00006121,0.00006222,-0.06510088,-0.16687843,0.31072339,-0.00089
 012,-0.00080535,-0.00000007,-0.00042534,-0.00024767,-0.00000012,0.0000
 8126,-0.00060199,-0.00000082,-0.02295766,0.01406617,-0.00000225,-0.002
 30854,0.00157494,-0.00000034,-0.00120320,-0.00285815,0.00000017,0.0304
 6201,-0.02200468,-0.00000327,-0.00261794,0.01410571,0.00000331,-0.2589
 4576,-0.04797401,-0.00005310,-0.01593779,0.02888014,-0.00001027,-0.000
 20965,-0.00005360,0.00000002,0.00014199,-0.00020114,0.00000011,-0.0008
 4343,-0.00009710,0.00000007,0.00081718,-0.00065520,0.00000007,-0.00179
 544,-0.00189403,-0.00000040,0.00314932,-0.00033441,0.00213757,0.270323
 32,-0.00113833,-0.00064637,0.00000009,0.00146136,0.00120519,-0.0000006
 5,0.00201353,-0.00851932,0.00000036,0.02955930,0.01667362,0.00000664,-
 0.00208258,0.00062626,0.00000061,0.00014130,-0.00199254,-0.00000039,0.
 01518882,-0.03075356,-0.00000066,-0.00065467,0.01024780,0.00000258,-0.
 03545169,-0.06691299,-0.00001249,0.00448304,0.01889728,-0.00000922,-0.
 00026348,-0.00008909,0.00000007,0.00026560,-0.00062755,0.,-0.00090202,
 -0.00001893,0.00000021,0.00033733,-0.00028375,0.00000004,-0.00134236,-
 0.00153593,-0.00000034,-0.01552573,-0.00437824,-0.00066669,0.01943233,
 0.07248551,0.00000013,0.00000003,0.00008802,0.00000008,-0.00000020,0.0
 0042600,0.00000049,-0.00000001,0.00051917,-0.00000042,0.00000005,-0.00
 120643,0.00000030,-0.00000054,0.00130556,0.00000011,0.,-0.00048705,-0.
 00000124,0.00000282,-0.00084419,0.00000047,-0.00000247,0.00275440,-0.0
 0005842,-0.00001683,-0.06910235,-0.00000213,-0.00000240,-0.01218316,0.
 00000003,0.,0.00000766,0.00000002,0.,-0.00005599,-0.00000009,-0.000000
 07,-0.00020703,0.,-0.00000001,-0.00000067,0.00000018,0.00000041,-0.000
 16399,0.03124387,0.00540403,0.00282185,0.00006598,0.00002036,0.0735195
 1,0.00054702,0.00044282,0.00019579,-0.00009704,-0.00057642,-0.00060265
 ,0.00070430,0.00170556,-0.00037470,0.00476648,0.01171711,0.01622012,-0
 .00149488,0.00014438,0.00118020,-0.00064354,0.00060228,-0.00082831,-0.
 00073310,0.00071137,0.00044969,0.00005244,-0.00034479,-0.00055942,-0.0
 7077680,-0.04213559,-0.06100879,-0.00276075,-0.00259787,0.00238382,-0.
 00002966,-0.00006996,0.00008294,-0.00002236,0.00000088,-0.00000047,-0.
 00090227,-0.00035451,0.00042941,-0.00007813,0.00008433,-0.00017833,0.0
 0004021,0.00004164,0.00000368,0.00199067,0.00551954,0.00885344,0.00315
 978,-0.01552175,-0.03124937,0.06627763,0.00025863,0.00033673,-0.000222
 00,-0.00013331,-0.00108393,0.00113990,-0.00150967,0.00231403,0.0003507
 2,-0.00526137,-0.02009476,-0.01971236,0.00289304,-0.00147768,-0.001161
 39,-0.00069546,-0.00061177,0.00116679,0.00037776,-0.00095736,-0.000619
 30,0.00013977,0.00053805,-0.00008049,-0.04193662,-0.16185531,-0.161310
 25,-0.00034986,0.00080218,0.00051128,0.00001985,0.00002993,-0.00020220
 ,-0.00002727,0.00009135,-0.00000548,0.00033392,0.00026381,-0.00077293,
 0.00019183,-0.00016775,0.00020634,-0.00011277,-0.00006643,-0.00000084,
 0.00551253,0.01501809,0.01924940,-0.00033196,-0.00437741,-0.00540515,0
 .04063096,0.17129823,0.00030426,0.00042104,0.00000758,-0.00001389,-0.0
 0048809,0.00030631,-0.00067143,0.00120093,0.00033089,0.00352650,-0.000
 06972,0.00682997,-0.00042576,0.00133491,-0.00029624,-0.00019111,0.0005
 1006,-0.00021237,-0.00061831,-0.00079601,0.00037755,0.00035459,0.00062
 603,-0.00002520,-0.05782747,-0.15243572,-0.29763184,0.00140591,0.00140
 320,-0.00064672,0.00001157,0.00002330,-0.00006017,-0.00005575,0.000082
 07,0.00002511,0.00034318,-0.00014821,-0.00014720,-0.00005987,0.0001098
 0,0.00001686,-0.00010696,-0.00006117,0.00006222,-0.00884177,-0.0192398
 5,-0.02258357,-0.00213666,0.00065947,0.00280870,0.06500296,0.16686797,
 0.31083815\\0.00001089,-0.00000194,0.,0.00000306,-0.00000671,-0.000000
 14,0.00000197,0.00000759,0.00000185,-0.00000783,0.00001138,-0.00000061
 ,-0.00003037,0.00001486,-0.00000267,0.00000300,-0.00001026,-0.00000171
 ,0.00001753,-0.00002897,0.00001272,-0.00000456,-0.00000391,-0.00000452
 ,0.00001494,0.00000353,0.00000855,-0.00001151,0.00002498,0.00000085,0.
 00000319,0.00000125,0.00000028,0.00000235,0.00000083,-0.00000040,0.000
 00313,0.00000073,0.00000007,0.00000117,0.00000047,0.00000012,0.0000004
 0,-0.00000192,-0.00000068,-0.00000272,0.00000368,-0.00000353,-0.000008
 11,-0.00001993,-0.00001308,0.00000347,0.00000432,0.00000291\\\@


 MATERIAL COPIED FROM ONE SCHOLARLY BOOK WITHOUT CREDIT COMPRISES PLAGIARISM.
 MATERIAL COPIED FROM TWO SCHOLARLY BOOKS COMPRISES AN ESSAY.
 MATERIAL COPIED FROM THREE SCHOLARLY BOOKS COMPRISES A DISSERTATION.
 MATERIAL COPIED FROM FOUR SCHOLARLY BOOKS COMPRISES A FIFTH SCHOLARLY BOOK.

                               -- C&EN, 25 FEB 1980
 Job cpu time:       0 days  3 hours  3 minutes 42.8 seconds.
 File lengths (MBytes):  RWF=  14483 Int=      0 D2E=      0 Chk=      7 Scr=      1
 Normal termination of Gaussian 09 at Thu Dec 19 12:01:21 2024.
