 Entering Gaussian System, Link 0=g09
 Input=gd3b3lypAnthranilic.gjf
 Output=gd3b3lypAnthranilic.log
 Initial command:
 /home/phzd/g09E/g09/l1.exe "/home/phzd/g09E/scratch/Gau-165195.inp" -scrdir="/home/phzd/g09E/scratch/"
 Default is to use a total of  18 processors:
                               18 via shared-memory
                                1 via Linda
 Entering Link 1 = /home/phzd/g09E/g09/l1.exe PID=    165197.
  
 Copyright (c) 1988,1990,1992,1993,1995,1998,2003,2009,2015,
            Gaussian, Inc.  All Rights Reserved.
  
 This is part of the Gaussian(R) 09 program.  It is based on
 the Gaussian(R) 03 system (copyright 2003, Gaussian, Inc.),
 the Gaussian(R) 98 system (copyright 1998, Gaussian, Inc.),
 the Gaussian(R) 94 system (copyright 1995, Gaussian, Inc.),
 the Gaussian 92(TM) system (copyright 1992, Gaussian, Inc.),
 the Gaussian 90(TM) system (copyright 1990, Gaussian, Inc.),
 the Gaussian 88(TM) system (copyright 1988, Gaussian, Inc.),
 the Gaussian 86(TM) system (copyright 1986, Carnegie Mellon
 University), and the Gaussian 82(TM) system (copyright 1983,
 Carnegie Mellon University). Gaussian is a federally registered
 trademark of Gaussian, Inc.
  
 This software contains proprietary and confidential information,
 including trade secrets, belonging to Gaussian, Inc.
  
 This software is provided under written license and may be
 used, copied, transmitted, or stored only in accord with that
 written license.
  
 The following legend is applicable only to US Government
 contracts under FAR:
  
                    RESTRICTED RIGHTS LEGEND
  
 Use, reproduction and disclosure by the US Government is
 subject to restrictions as set forth in subparagraphs (a)
 and (c) of the Commercial Computer Software - Restricted
 Rights clause in FAR 52.227-19.
  
 Gaussian, Inc.
 340 Quinnipiac St., Bldg. 40, Wallingford CT 06492
  
  
 ---------------------------------------------------------------
 Warning -- This program may not be used in any manner that
 competes with the business of Gaussian, Inc. or will provide
 assistance to any competitor of Gaussian, Inc.  The licensee
 of this program is prohibited from giving any competitor of
 Gaussian, Inc. access to this program.  By using this program,
 the user acknowledges that Gaussian, Inc. is engaged in the
 business of creating and licensing software in the field of
 computational chemistry and represents and warrants to the
 licensee that it is not a competitor of Gaussian, Inc. and that
 it will not use this program in any manner prohibited above.
 ---------------------------------------------------------------
  

 Cite this work as:
 Gaussian 09, Revision E.01,
 M. J. Frisch, G. W. Trucks, H. B. Schlegel, G. E. Scuseria, 
 M. A. Robb, J. R. Cheeseman, G. Scalmani, V. Barone, B. Mennucci, 
 G. A. Petersson, H. Nakatsuji, M. Caricato, X. Li, H. P. Hratchian, 
 A. F. Izmaylov, J. Bloino, G. Zheng, J. L. Sonnenberg, M. Hada, 
 M. Ehara, K. Toyota, R. Fukuda, J. Hasegawa, M. Ishida, T. Nakajima, 
 Y. Honda, O. Kitao, H. Nakai, T. Vreven, J. A. Montgomery, Jr., 
 J. E. Peralta, F. Ogliaro, M. Bearpark, J. J. Heyd, E. Brothers, 
 K. N. Kudin, V. N. Staroverov, T. Keith, R. Kobayashi, J. Normand, 
 K. Raghavachari, A. Rendell, J. C. Burant, S. S. Iyengar, J. Tomasi, 
 M. Cossi, N. Rega, J. M. Millam, M. Klene, J. E. Knox, J. B. Cross, 
 V. Bakken, C. Adamo, J. Jaramillo, R. Gomperts, R. E. Stratmann, 
 O. Yazyev, A. J. Austin, R. Cammi, C. Pomelli, J. W. Ochterski, 
 R. L. Martin, K. Morokuma, V. G. Zakrzewski, G. A. Voth, 
 P. Salvador, J. J. Dannenberg, S. Dapprich, A. D. Daniels, 
 O. Farkas, J. B. Foresman, J. V. Ortiz, J. Cioslowski, 
 and D. J. Fox, Gaussian, Inc., Wallingford CT, 2013.
 
 ******************************************
 Gaussian 09:  ES64L-G09RevE.01 30-Nov-2015
                22-Jun-2024 
 ******************************************
 %chk=gd3b3lypAnthranilic.chk
 -------------------------------------
 # opt freq b3lyp/6-31+g(d,p) em=gd3bj
 -------------------------------------
 1/14=-1,18=20,19=15,26=3,38=1/1,3;
 2/9=110,12=2,17=6,18=5,40=1/2;
 3/5=1,6=6,7=111,11=2,16=1,25=1,30=1,71=1,74=-5,124=41/1,2,3;
 4//1;
 5/5=2,38=5/2;
 6/7=2,8=2,9=2,10=2,28=1/1;
 7//1,2,3,16;
 1/14=-1,18=20,19=15,26=3/3(2);
 2/9=110/2;
 99//99;
 2/9=110/2;
 3/5=1,6=6,7=111,11=2,16=1,25=1,30=1,71=1,74=-5,124=41/1,2,3;
 4/5=5,16=3,69=1/1;
 5/5=2,38=5/2;
 7//1,2,3,16;
 1/14=-1,18=20,19=15,26=3/3(-5);
 2/9=110/2;
 6/7=2,8=2,9=2,10=2,19=2,28=1/1;
 99/9=1/99;
 ----------
 [No Title]
 ----------
 Symbolic Z-matrix:
 Charge =  0 Multiplicity = 1
 C                    -1.85922  -1.52339  -0.00002 
 C                    -2.58942  -0.32163   0.00022 
 C                    -1.94402   0.90306   0.0002 
 C                    -0.52993   0.98772  -0.00006 
 C                     0.2135   -0.23165  -0.00031 
 C                    -0.47524  -1.46411  -0.00026 
 C                     1.67932  -0.20226  -0.00059 
 O                     2.26063  -1.43192   0.00033 
 N                     0.07582   2.20817  -0.00011 
 O                     2.38053   0.80802   0.00027 
 H                    -2.36991  -2.48036  -0.00001 
 H                    -3.67574  -0.34762   0.00042 
 H                    -2.52086   1.82439   0.00038 
 H                     0.10944  -2.37662  -0.00044 
 H                     3.21937  -1.27704   0.00085 
 H                     1.08639   2.25698  -0.0004 
 H                    -0.47851   3.04778   0.00005 
 

 GradGradGradGradGradGradGradGradGradGradGradGradGradGradGradGradGradGrad
 Berny optimization.
 Initialization pass.
                           ----------------------------
                           !    Initial Parameters    !
                           ! (Angstroms and Degrees)  !
 --------------------------                            --------------------------
 ! Name  Definition              Value          Derivative Info.                !
 --------------------------------------------------------------------------------
 ! R1    R(1,2)                  1.4062         estimate D2E/DX2                !
 ! R2    R(1,6)                  1.3852         estimate D2E/DX2                !
 ! R3    R(1,11)                 1.0847         estimate D2E/DX2                !
 ! R4    R(2,3)                  1.3843         estimate D2E/DX2                !
 ! R5    R(2,12)                 1.0866         estimate D2E/DX2                !
 ! R6    R(3,4)                  1.4166         estimate D2E/DX2                !
 ! R7    R(3,13)                 1.087          estimate D2E/DX2                !
 ! R8    R(4,5)                  1.4281         estimate D2E/DX2                !
 ! R9    R(4,9)                  1.3625         estimate D2E/DX2                !
 ! R10   R(5,6)                  1.4119         estimate D2E/DX2                !
 ! R11   R(5,7)                  1.4661         estimate D2E/DX2                !
 ! R12   R(6,14)                 1.0838         estimate D2E/DX2                !
 ! R13   R(7,8)                  1.3601         estimate D2E/DX2                !
 ! R14   R(7,10)                 1.2298         estimate D2E/DX2                !
 ! R15   R(8,15)                 0.9712         estimate D2E/DX2                !
 ! R16   R(9,16)                 1.0118         estimate D2E/DX2                !
 ! R17   R(9,17)                 1.0061         estimate D2E/DX2                !
 ! A1    A(2,1,6)              118.8307         estimate D2E/DX2                !
 ! A2    A(2,1,11)             120.6302         estimate D2E/DX2                !
 ! A3    A(6,1,11)             120.5391         estimate D2E/DX2                !
 ! A4    A(1,2,3)              120.9276         estimate D2E/DX2                !
 ! A5    A(1,2,12)             119.9125         estimate D2E/DX2                !
 ! A6    A(3,2,12)             119.1599         estimate D2E/DX2                !
 ! A7    A(2,3,4)              121.2151         estimate D2E/DX2                !
 ! A8    A(2,3,13)             120.1599         estimate D2E/DX2                !
 ! A9    A(4,3,13)             118.625          estimate D2E/DX2                !
 ! A10   A(3,4,5)              117.9442         estimate D2E/DX2                !
 ! A11   A(3,4,9)              119.8226         estimate D2E/DX2                !
 ! A12   A(5,4,9)              122.2332         estimate D2E/DX2                !
 ! A13   A(4,5,6)              119.4319         estimate D2E/DX2                !
 ! A14   A(4,5,7)              120.2215         estimate D2E/DX2                !
 ! A15   A(6,5,7)              120.3466         estimate D2E/DX2                !
 ! A16   A(1,6,5)              121.6505         estimate D2E/DX2                !
 ! A17   A(1,6,14)             120.1971         estimate D2E/DX2                !
 ! A18   A(5,6,14)             118.1524         estimate D2E/DX2                !
 ! A19   A(5,7,8)              114.1529         estimate D2E/DX2                !
 ! A20   A(5,7,10)             125.9119         estimate D2E/DX2                !
 ! A21   A(8,7,10)             119.9351         estimate D2E/DX2                !
 ! A22   A(7,8,15)             106.1252         estimate D2E/DX2                !
 ! A23   A(4,9,16)             119.1615         estimate D2E/DX2                !
 ! A24   A(4,9,17)             120.1696         estimate D2E/DX2                !
 ! A25   A(16,9,17)            120.6689         estimate D2E/DX2                !
 ! D1    D(6,1,2,3)              0.0008         estimate D2E/DX2                !
 ! D2    D(6,1,2,12)          -179.9993         estimate D2E/DX2                !
 ! D3    D(11,1,2,3)          -179.9997         estimate D2E/DX2                !
 ! D4    D(11,1,2,12)            0.0002         estimate D2E/DX2                !
 ! D5    D(2,1,6,5)             -0.0023         estimate D2E/DX2                !
 ! D6    D(2,1,6,14)           179.9993         estimate D2E/DX2                !
 ! D7    D(11,1,6,5)           179.9983         estimate D2E/DX2                !
 ! D8    D(11,1,6,14)           -0.0002         estimate D2E/DX2                !
 ! D9    D(1,2,3,4)              0.0001         estimate D2E/DX2                !
 ! D10   D(1,2,3,13)           179.9994         estimate D2E/DX2                !
 ! D11   D(12,2,3,4)          -179.9998         estimate D2E/DX2                !
 ! D12   D(12,2,3,13)           -0.0005         estimate D2E/DX2                !
 ! D13   D(2,3,4,5)              0.0003         estimate D2E/DX2                !
 ! D14   D(2,3,4,9)            179.9982         estimate D2E/DX2                !
 ! D15   D(13,3,4,5)          -179.999          estimate D2E/DX2                !
 ! D16   D(13,3,4,9)            -0.0011         estimate D2E/DX2                !
 ! D17   D(3,4,5,6)             -0.0016         estimate D2E/DX2                !
 ! D18   D(3,4,5,7)            179.9999         estimate D2E/DX2                !
 ! D19   D(9,4,5,6)           -179.9995         estimate D2E/DX2                !
 ! D20   D(9,4,5,7)              0.002          estimate D2E/DX2                !
 ! D21   D(3,4,9,16)          -179.9928         estimate D2E/DX2                !
 ! D22   D(3,4,9,17)             0.0001         estimate D2E/DX2                !
 ! D23   D(5,4,9,16)             0.005          estimate D2E/DX2                !
 ! D24   D(5,4,9,17)           179.9978         estimate D2E/DX2                !
 ! D25   D(4,5,6,1)              0.0027         estimate D2E/DX2                !
 ! D26   D(4,5,6,14)          -179.9988         estimate D2E/DX2                !
 ! D27   D(7,5,6,1)           -179.9988         estimate D2E/DX2                !
 ! D28   D(7,5,6,14)            -0.0003         estimate D2E/DX2                !
 ! D29   D(4,5,7,8)            179.947          estimate D2E/DX2                !
 ! D30   D(4,5,7,10)             0.0521         estimate D2E/DX2                !
 ! D31   D(6,5,7,8)             -0.0515         estimate D2E/DX2                !
 ! D32   D(6,5,7,10)          -179.9464         estimate D2E/DX2                !
 ! D33   D(5,7,8,15)          -179.9503         estimate D2E/DX2                !
 ! D34   D(10,7,8,15)           -0.0485         estimate D2E/DX2                !
 --------------------------------------------------------------------------------
 Trust Radius=3.00D-01 FncErr=1.00D-07 GrdErr=1.00D-06
 Number of steps in this run=     86 maximum allowed number of steps=    102.
 GradGradGradGradGradGradGradGradGradGradGradGradGradGradGradGradGradGrad

                          Input orientation:                          
 ---------------------------------------------------------------------
 Center     Atomic      Atomic             Coordinates (Angstroms)
 Number     Number       Type             X           Y           Z
 ---------------------------------------------------------------------
      1          6           0       -1.859221   -1.523389   -0.000022
      2          6           0       -2.589424   -0.321626    0.000218
      3          6           0       -1.944016    0.903063    0.000202
      4          6           0       -0.529934    0.987718   -0.000059
      5          6           0        0.213499   -0.231649   -0.000312
      6          6           0       -0.475244   -1.464112   -0.000259
      7          6           0        1.679323   -0.202258   -0.000591
      8          8           0        2.260625   -1.431921    0.000334
      9          7           0        0.075816    2.208172   -0.000106
     10          8           0        2.380526    0.808024    0.000272
     11          1           0       -2.369909   -2.480363   -0.000013
     12          1           0       -3.675740   -0.347621    0.000418
     13          1           0       -2.520863    1.824385    0.000379
     14          1           0        0.109444   -2.376621   -0.000435
     15          1           0        3.219372   -1.277043    0.000848
     16          1           0        1.086391    2.256975   -0.000404
     17          1           0       -0.478512    3.047779    0.000045
 ---------------------------------------------------------------------
                    Distance matrix (angstroms):
                    1          2          3          4          5
     1  C    0.000000
     2  C    1.406212   0.000000
     3  C    2.427933   1.384346   0.000000
     4  C    2.841243   2.440467   1.416614   0.000000
     5  C    2.442286   2.804367   2.437713   1.428128   0.000000
     6  C    1.385246   2.403130   2.785823   2.452440   1.411854
     7  C    3.777126   4.270416   3.788182   2.509354   1.466119
     8  O    4.120861   4.975513   4.809486   3.693491   2.373052
     9  N    4.203441   3.674695   2.404793   1.362513   2.443703
    10  O    4.838485   5.096716   4.325586   2.916002   2.403524
    11  H    1.084713   2.169869   3.410126   3.925951   3.425013
    12  H    2.163833   1.086627   2.136136   3.417488   3.890968
    13  H    3.412530   2.147106   1.087008   2.159586   3.421113
    14  H    2.145611   3.392181   3.869499   3.424556   2.147494
    15  H    5.084564   5.886844   5.604769   4.380233   3.182471
    16  H    4.792471   4.490078   3.319103   2.055120   2.637269
    17  H    4.775137   3.976033   2.597597   2.060703   3.351645
                    6          7          8          9         10
     6  C    0.000000
     7  C    2.496885   0.000000
     8  O    2.736058   1.360141   0.000000
     9  N    3.713400   2.895066   4.245429   0.000000
    10  O    3.649387   1.229779   2.243152   2.696684   0.000000
    11  H    2.150005   4.646078   4.747744   5.288093   5.777553
    12  H    3.389650   5.357036   6.034578   4.539411   6.165539
    13  H    3.872825   4.663566   5.784994   2.624888   5.005657
    14  H    1.083759   2.681860   2.349476   4.584916   3.911493
    15  H    3.699349   1.878008   0.971176   4.693471   2.247480
    16  H    4.035492   2.529703   3.871276   1.011753   1.942742
    17  H    4.511892   3.901153   5.250770   1.006091   3.631887
                   11         12         13         14         15
    11  H    0.000000
    12  H    2.500757   0.000000
    13  H    4.307394   2.459949   0.000000
    14  H    2.481522   4.294701   4.956508   0.000000
    15  H    5.717346   6.957470   6.524504   3.298594   0.000000
    16  H    5.864161   5.427874   3.633100   4.735466   4.127819
    17  H    5.842751   4.663798   2.380733   5.456172   5.690205
                   16         17
    16  H    0.000000
    17  H    1.753366   0.000000
 Stoichiometry    C7H7NO2
 Framework group  C1[X(C7H7NO2)]
 Deg. of freedom    45
 Full point group                 C1      NOp   1
 Largest Abelian subgroup         C1      NOp   1
 Largest concise Abelian subgroup C1      NOp   1
                         Standard orientation:                         
 ---------------------------------------------------------------------
 Center     Atomic      Atomic             Coordinates (Angstroms)
 Number     Number       Type             X           Y           Z
 ---------------------------------------------------------------------
      1          6           0       -1.859221   -1.523389   -0.000022
      2          6           0       -2.589424   -0.321626    0.000218
      3          6           0       -1.944016    0.903063    0.000202
      4          6           0       -0.529934    0.987718   -0.000059
      5          6           0        0.213499   -0.231649   -0.000312
      6          6           0       -0.475244   -1.464112   -0.000259
      7          6           0        1.679323   -0.202258   -0.000591
      8          8           0        2.260625   -1.431921    0.000334
      9          7           0        0.075816    2.208172   -0.000106
     10          8           0        2.380526    0.808024    0.000272
     11          1           0       -2.369909   -2.480363   -0.000013
     12          1           0       -3.675740   -0.347621    0.000418
     13          1           0       -2.520863    1.824385    0.000379
     14          1           0        0.109444   -2.376621   -0.000435
     15          1           0        3.219372   -1.277043    0.000848
     16          1           0        1.086391    2.256975   -0.000404
     17          1           0       -0.478512    3.047779    0.000045
 ---------------------------------------------------------------------
 Rotational constants (GHZ):      2.2923684      1.2100986      0.7920109
 Standard basis: 6-31+G(d,p) (6D, 7F)
 There are   225 symmetry adapted cartesian basis functions of A   symmetry.
 There are   225 symmetry adapted basis functions of A   symmetry.
   225 basis functions,   369 primitive gaussians,   225 cartesian basis functions
    36 alpha electrons       36 beta electrons
       nuclear repulsion energy       500.0782038866 Hartrees.
 NAtoms=   17 NActive=   17 NUniq=   17 SFac= 1.00D+00 NAtFMM=   60 NAOKFM=F Big=F
 Integral buffers will be    131072 words long.
 Raffenetti 2 integral format.
 Two-electron integral symmetry is turned on.
 Nuclear repulsion after empirical dispersion term =      500.0471044817 Hartrees.
 One-electron integrals computed using PRISM.
 NBasis=   225 RedAO= T EigKep=  2.75D-06  NBF=   225
 NBsUse=   225 1.00D-06 EigRej= -1.00D+00 NBFU=   225
 ExpMin= 4.38D-02 ExpMax= 5.48D+03 ExpMxC= 8.25D+02 IAcc=2 IRadAn=         4 AccDes= 0.00D+00
 Harris functional with IExCor=  402 and IRadAn=       4 diagonalized for initial guess.
 HarFok:  IExCor=  402 AccDes= 0.00D+00 IRadAn=         4 IDoV= 1 UseB2=F ITyADJ=14
 ICtDFT=  3500011 ScaDFX=  1.000000  1.000000  1.000000  1.000000
 FoFCou: FMM=F IPFlag=           0 FMFlag=      100000 FMFlg1=           0
         NFxFlg=           0 DoJE=T BraDBF=F KetDBF=T FulRan=T
         wScrn=  0.000000 ICntrl=     500 IOpCl=  0 I1Cent=   200000004 NGrid=           0
         NMat0=    1 NMatS0=      1 NMatT0=    0 NMatD0=    1 NMtDS0=    0 NMtDT0=    0
 Petite list used in FoFCou.
 Keep R1 ints in memory in canonical form, NReq=329175655.
 Requested convergence on RMS density matrix=1.00D-08 within 128 cycles.
 Requested convergence on MAX density matrix=1.00D-06.
 Requested convergence on             energy=1.00D-06.
 No special actions if energy rises.
 SCF Done:  E(RB3LYP) =  -476.256022014     A.U. after   15 cycles
            NFock= 15  Conv=0.30D-08     -V/T= 2.0096

 **********************************************************************

            Population analysis using the SCF density.

 **********************************************************************

 Orbital symmetries:
       Occupied  (A) (A) (A) (A) (A) (A) (A) (A) (A) (A) (A) (A)
                 (A) (A) (A) (A) (A) (A) (A) (A) (A) (A) (A) (A)
                 (A) (A) (A) (A) (A) (A) (A) (A) (A) (A) (A) (A)
       Virtual   (A) (A) (A) (A) (A) (A) (A) (A) (A) (A) (A) (A)
                 (A) (A) (A) (A) (A) (A) (A) (A) (A) (A) (A) (A)
                 (A) (A) (A) (A) (A) (A) (A) (A) (A) (A) (A) (A)
                 (A) (A) (A) (A) (A) (A) (A) (A) (A) (A) (A) (A)
                 (A) (A) (A) (A) (A) (A) (A) (A) (A) (A) (A) (A)
                 (A) (A) (A) (A) (A) (A) (A) (A) (A) (A) (A) (A)
                 (A) (A) (A) (A) (A) (A) (A) (A) (A) (A) (A) (A)
                 (A) (A) (A) (A) (A) (A) (A) (A) (A) (A) (A) (A)
                 (A) (A) (A) (A) (A) (A) (A) (A) (A) (A) (A) (A)
                 (A) (A) (A) (A) (A) (A) (A) (A) (A) (A) (A) (A)
                 (A) (A) (A) (A) (A) (A) (A) (A) (A) (A) (A) (A)
                 (A) (A) (A) (A) (A) (A) (A) (A) (A) (A) (A) (A)
                 (A) (A) (A) (A) (A) (A) (A) (A) (A) (A) (A) (A)
                 (A) (A) (A) (A) (A) (A) (A) (A) (A) (A) (A) (A)
                 (A) (A) (A) (A) (A) (A) (A) (A) (A) (A) (A) (A)
                 (A) (A) (A) (A) (A) (A) (A) (A) (A)
 The electronic state is 1-A.
 Alpha  occ. eigenvalues --  -19.20717 -19.15278 -14.35745 -10.33218 -10.25769
 Alpha  occ. eigenvalues --  -10.20977 -10.20934 -10.20603 -10.19995 -10.19263
 Alpha  occ. eigenvalues --   -1.11509  -1.02256  -0.93813  -0.85248  -0.77742
 Alpha  occ. eigenvalues --   -0.74214  -0.66796  -0.62846  -0.59986  -0.54186
 Alpha  occ. eigenvalues --   -0.53000  -0.51436  -0.49460  -0.46267  -0.45823
 Alpha  occ. eigenvalues --   -0.44483  -0.43542  -0.40890  -0.39452  -0.37892
 Alpha  occ. eigenvalues --   -0.36102  -0.33290  -0.32330  -0.29029  -0.26836
 Alpha  occ. eigenvalues --   -0.21701
 Alpha virt. eigenvalues --   -0.05590  -0.00594  -0.00278   0.00710   0.01565
 Alpha virt. eigenvalues --    0.03119   0.04063   0.04454   0.05261   0.05304
 Alpha virt. eigenvalues --    0.06826   0.07272   0.08064   0.09250   0.09875
 Alpha virt. eigenvalues --    0.11601   0.12504   0.12996   0.13338   0.13569
 Alpha virt. eigenvalues --    0.14390   0.15946   0.16648   0.16954   0.17337
 Alpha virt. eigenvalues --    0.18073   0.18406   0.19102   0.19515   0.20086
 Alpha virt. eigenvalues --    0.20495   0.21614   0.21757   0.22554   0.22706
 Alpha virt. eigenvalues --    0.23602   0.24182   0.24822   0.24949   0.25985
 Alpha virt. eigenvalues --    0.26886   0.27501   0.28337   0.28685   0.28942
 Alpha virt. eigenvalues --    0.30167   0.30799   0.31887   0.32697   0.33480
 Alpha virt. eigenvalues --    0.34729   0.37514   0.39322   0.40345   0.41100
 Alpha virt. eigenvalues --    0.43674   0.46978   0.48115   0.50426   0.59516
 Alpha virt. eigenvalues --    0.61068   0.65700   0.66047   0.67968   0.71125
 Alpha virt. eigenvalues --    0.72231   0.72247   0.73301   0.74194   0.74322
 Alpha virt. eigenvalues --    0.76608   0.77313   0.80794   0.83410   0.84344
 Alpha virt. eigenvalues --    0.87821   0.90189   0.92971   0.93555   0.94767
 Alpha virt. eigenvalues --    0.95773   0.98741   1.02478   1.03378   1.04130
 Alpha virt. eigenvalues --    1.06451   1.09708   1.11319   1.12679   1.13453
 Alpha virt. eigenvalues --    1.14887   1.14957   1.20273   1.22208   1.22936
 Alpha virt. eigenvalues --    1.24601   1.26530   1.27008   1.29870   1.33198
 Alpha virt. eigenvalues --    1.33418   1.35239   1.35799   1.36900   1.38004
 Alpha virt. eigenvalues --    1.38413   1.40083   1.40485   1.41105   1.45667
 Alpha virt. eigenvalues --    1.47589   1.55882   1.57365   1.62430   1.66531
 Alpha virt. eigenvalues --    1.73357   1.73772   1.78225   1.79383   1.80686
 Alpha virt. eigenvalues --    1.83005   1.85789   1.90204   1.91759   1.92021
 Alpha virt. eigenvalues --    1.95294   1.96402   1.99469   2.00076   2.02229
 Alpha virt. eigenvalues --    2.05252   2.05916   2.07853   2.11085   2.16289
 Alpha virt. eigenvalues --    2.19500   2.21322   2.25699   2.29476   2.32672
 Alpha virt. eigenvalues --    2.37599   2.37810   2.39665   2.39710   2.42628
 Alpha virt. eigenvalues --    2.44448   2.45580   2.50034   2.52284   2.53202
 Alpha virt. eigenvalues --    2.54695   2.57121   2.58294   2.60045   2.61890
 Alpha virt. eigenvalues --    2.62847   2.67657   2.67780   2.72819   2.73714
 Alpha virt. eigenvalues --    2.75927   2.76123   2.81483   2.87315   2.95315
 Alpha virt. eigenvalues --    3.00448   3.05124   3.09006   3.12184   3.20215
 Alpha virt. eigenvalues --    3.24083   3.26874   3.31918   3.35617   3.46914
 Alpha virt. eigenvalues --    3.50220   3.52514   3.67078   3.86286   4.19127
 Alpha virt. eigenvalues --    4.26752   4.28931   4.30703   4.31657   4.45376
 Alpha virt. eigenvalues --    4.49611   4.54933   4.77540   4.87428
          Condensed to atoms (all electrons):
               1          2          3          4          5          6
     1  C    7.672621   0.415091   0.180070  -0.411762  -0.318710  -1.897088
     2  C    0.415091   6.047789  -0.445050   1.411084  -1.652677   0.502203
     3  C    0.180070  -0.445050  10.347755  -0.383746  -1.567994  -2.612512
     4  C   -0.411762   1.411084  -0.383746  19.354892  -6.775650  -4.867767
     5  C   -0.318710  -1.652677  -1.567994  -6.775650  15.660962  -0.629985
     6  C   -1.897088   0.502203  -2.612512  -4.867767  -0.629985  15.912852
     7  C   -0.116090  -0.159724  -0.040253  -1.268661   0.368084   0.031372
     8  O    0.130741   0.002316  -0.032985  -0.189899  -0.120115   0.036846
     9  N   -0.005694   0.047096  -0.140127   0.007957  -0.035091   0.194485
    10  O    0.042490  -0.002074   0.041165  -0.072580  -0.071414  -0.110064
    11  H    0.227509   0.001409   0.009634  -0.002083   0.007205   0.070297
    12  H    0.055220   0.223924   0.070449  -0.050909   0.005754   0.004629
    13  H    0.007017   0.046483   0.144625   0.064570   0.070430  -0.022367
    14  H    0.061152   0.008306   0.000132   0.029175   0.058060   0.162496
    15  H   -0.010307  -0.000937   0.007201   0.010728   0.068806  -0.021956
    16  H    0.003714   0.002164   0.102497   0.152583  -0.212877  -0.046192
    17  H   -0.002873   0.002006  -0.115232  -0.085884   0.161508   0.029895
               7          8          9         10         11         12
     1  C   -0.116090   0.130741  -0.005694   0.042490   0.227509   0.055220
     2  C   -0.159724   0.002316   0.047096  -0.002074   0.001409   0.223924
     3  C   -0.040253  -0.032985  -0.140127   0.041165   0.009634   0.070449
     4  C   -1.268661  -0.189899   0.007957  -0.072580  -0.002083  -0.050909
     5  C    0.368084  -0.120115  -0.035091  -0.071414   0.007205   0.005754
     6  C    0.031372   0.036846   0.194485  -0.110064   0.070297   0.004629
     7  C    5.918130   0.193460  -0.115236   0.391558  -0.000460   0.000520
     8  O    0.193460   8.440234   0.002481  -0.162773   0.000147   0.000006
     9  N   -0.115236   0.002481   7.102666  -0.016832   0.000224  -0.000407
    10  O    0.391558  -0.162773  -0.016832   8.456656   0.000021  -0.000001
    11  H   -0.000460   0.000147   0.000224   0.000021   0.571612  -0.005049
    12  H    0.000520   0.000006  -0.000407  -0.000001  -0.005049   0.575215
    13  H    0.008121   0.000019  -0.022104  -0.000025  -0.000166  -0.006130
    14  H   -0.015470   0.000596  -0.001019  -0.000061  -0.005309  -0.000175
    15  H   -0.015398   0.186517  -0.000266   0.006558  -0.000000  -0.000000
    16  H   -0.001672   0.000632   0.305303   0.025305  -0.000000   0.000003
    17  H   -0.000564   0.000201   0.313775   0.002236  -0.000000  -0.000013
              13         14         15         16         17
     1  C    0.007017   0.061152  -0.010307   0.003714  -0.002873
     2  C    0.046483   0.008306  -0.000937   0.002164   0.002006
     3  C    0.144625   0.000132   0.007201   0.102497  -0.115232
     4  C    0.064570   0.029175   0.010728   0.152583  -0.085884
     5  C    0.070430   0.058060   0.068806  -0.212877   0.161508
     6  C   -0.022367   0.162496  -0.021956  -0.046192   0.029895
     7  C    0.008121  -0.015470  -0.015398  -0.001672  -0.000564
     8  O    0.000019   0.000596   0.186517   0.000632   0.000201
     9  N   -0.022104  -0.001019  -0.000266   0.305303   0.313775
    10  O   -0.000025  -0.000061   0.006558   0.025305   0.002236
    11  H   -0.000166  -0.005309  -0.000000  -0.000000  -0.000000
    12  H   -0.006130  -0.000175  -0.000000   0.000003  -0.000013
    13  H    0.593572   0.000013  -0.000000   0.000039   0.005996
    14  H    0.000013   0.549664   0.000073  -0.000000   0.000003
    15  H   -0.000000   0.000073   0.383997   0.000015  -0.000001
    16  H    0.000039  -0.000000   0.000015   0.338736  -0.024115
    17  H    0.005996   0.000003  -0.000001  -0.024115   0.409000
 Mulliken charges:
               1
     1  C   -0.033101
     2  C   -0.449408
     3  C    0.434371
     4  C   -0.922048
     5  C    0.983705
     6  C   -0.737144
     7  C    0.822281
     8  O   -0.488425
     9  N   -0.637210
    10  O   -0.530165
    11  H    0.125009
    12  H    0.126964
    13  H    0.109906
    14  H    0.152365
    15  H    0.384971
    16  H    0.353867
    17  H    0.304063
 Sum of Mulliken charges =  -0.00000
 Mulliken charges with hydrogens summed into heavy atoms:
               1
     1  C    0.091909
     2  C   -0.322444
     3  C    0.544276
     4  C   -0.922048
     5  C    0.983705
     6  C   -0.584779
     7  C    0.822281
     8  O   -0.103454
     9  N    0.020719
    10  O   -0.530165
 Electronic spatial extent (au):  <R**2>=           1384.5659
 Charge=             -0.0000 electrons
 Dipole moment (field-independent basis, Debye):
    X=             -1.2333    Y=              0.5540    Z=             -0.0007  Tot=              1.3520
 Quadrupole moment (field-independent basis, Debye-Ang):
   XX=            -52.7077   YY=            -50.8261   ZZ=            -62.5030
   XY=             -5.2621   XZ=             -0.0015   YZ=             -0.0011
 Traceless Quadrupole moment (field-independent basis, Debye-Ang):
   XX=              2.6379   YY=              4.5195   ZZ=             -7.1574
   XY=             -5.2621   XZ=             -0.0015   YZ=             -0.0011
 Octapole moment (field-independent basis, Debye-Ang**2):
  XXX=             19.8785  YYY=             25.7057  ZZZ=              0.0033  XYY=             -3.0404
  XXY=            -16.6097  XXZ=              0.0127  XZZ=             12.1877  YZZ=              0.3556
  YYZ=              0.0017  XYZ=             -0.0081
 Hexadecapole moment (field-independent basis, Debye-Ang**3):
 XXXX=           -971.4553 YYYY=           -534.1600 ZZZZ=            -71.3707 XXXY=            -77.7482
 XXXZ=              0.0315 YYYX=            -10.6182 YYYZ=             -0.0011 ZZZX=              0.0080
 ZZZY=             -0.0029 XXYY=           -271.2093 XXZZ=           -211.9219 YYZZ=           -132.5682
 XXYZ=             -0.0237 YYXZ=              0.0036 ZZXY=             -5.0143
 N-N= 5.000471044817D+02 E-N=-2.109710661684D+03  KE= 4.717434908687D+02
 Calling FoFJK, ICntrl=      2127 FMM=F ISym2X=0 I1Cent= 0 IOpClX= 0 NMat=1 NMatS=1 NMatT=0.
 ***** Axes restored to original set *****
 -------------------------------------------------------------------
 Center     Atomic                   Forces (Hartrees/Bohr)
 Number     Number              X              Y              Z
 -------------------------------------------------------------------
      1        6           0.000281078    0.000308487    0.000005602
      2        6           0.000365542    0.000102677   -0.000000754
      3        6           0.000318709   -0.000143774    0.000005152
      4        6           0.000132121   -0.000128494   -0.000013882
      5        6           0.000042110    0.000060256   -0.000065491
      6        6           0.000169795    0.000323399   -0.000011625
      7        6          -0.000643888    0.000114090    0.000254105
      8        8          -0.000403002    0.000090441   -0.000075326
      9        7          -0.000062153   -0.000665215   -0.000002895
     10        8          -0.000479648    0.000018935   -0.000100519
     11        1           0.000153197    0.000234959    0.000001610
     12        1           0.000277105    0.000021937   -0.000000980
     13        1           0.000229316   -0.000193469    0.000000445
     14        1          -0.000011032    0.000299302   -0.000000992
     15        1          -0.000256285    0.000093516   -0.000001417
     16        1          -0.000111786   -0.000254508    0.000007800
     17        1          -0.000001179   -0.000282540   -0.000000832
 -------------------------------------------------------------------
 Cartesian Forces:  Max     0.000665215 RMS     0.000223197

 GradGradGradGradGradGradGradGradGradGradGradGradGradGradGradGradGradGrad
 Berny optimization.
 FormGI is forming the generalized inverse of G from B-inverse, IUseBI=4.
 Internal  Forces:  Max     0.001775339 RMS     0.000422348
 Search for a local minimum.
 Step number   1 out of a maximum of   86
 All quantities printed in internal units (Hartrees-Bohrs-Radians)
 Mixed Optimization -- En-DIIS/RFO-DIIS
 Second derivative matrix not updated -- first step.
 ITU=  0
     Eigenvalues ---    0.01214   0.01520   0.01648   0.01802   0.01930
     Eigenvalues ---    0.02040   0.02056   0.02100   0.02139   0.02161
     Eigenvalues ---    0.02188   0.02188   0.02209   0.02219   0.16000
     Eigenvalues ---    0.16000   0.16000   0.16000   0.16000   0.16000
     Eigenvalues ---    0.16000   0.22000   0.22477   0.24467   0.25000
     Eigenvalues ---    0.25000   0.25000   0.25000   0.35161   0.35205
     Eigenvalues ---    0.35431   0.35544   0.36209   0.39381   0.40635
     Eigenvalues ---    0.42777   0.44008   0.45680   0.46633   0.46772
     Eigenvalues ---    0.47813   0.52443   0.52919   0.53137   0.91179
 RFO step:  Lambda=-3.88948726D-05 EMin= 1.21413269D-02
 Linear search not attempted -- first point.
 Iteration  1 RMS(Cart)=  0.00445957 RMS(Int)=  0.00000555
 Iteration  2 RMS(Cart)=  0.00000720 RMS(Int)=  0.00000237
 Iteration  3 RMS(Cart)=  0.00000000 RMS(Int)=  0.00000237
 Variable       Old X    -DE/DX   Delta X   Delta X   Delta X     New X
                                 (Linear)    (Quad)   (Total)
    R1        2.65735  -0.00034   0.00000  -0.00068  -0.00068   2.65668
    R2        2.61774  -0.00065   0.00000  -0.00132  -0.00132   2.61642
    R3        2.04981  -0.00028   0.00000  -0.00079  -0.00079   2.04902
    R4        2.61604  -0.00056   0.00000  -0.00110  -0.00110   2.61493
    R5        2.05343  -0.00028   0.00000  -0.00079  -0.00079   2.05264
    R6        2.67701  -0.00099   0.00000  -0.00233  -0.00233   2.67468
    R7        2.05415  -0.00029   0.00000  -0.00081  -0.00081   2.05333
    R8        2.69877  -0.00158   0.00000  -0.00391  -0.00391   2.69486
    R9        2.57478  -0.00116   0.00000  -0.00220  -0.00220   2.57257
   R10        2.66802  -0.00117   0.00000  -0.00272  -0.00272   2.66530
   R11        2.77056  -0.00178   0.00000  -0.00490  -0.00490   2.76566
   R12        2.04801  -0.00026   0.00000  -0.00072  -0.00072   2.04728
   R13        2.57029  -0.00045   0.00000  -0.00085  -0.00085   2.56944
   R14        2.32395  -0.00026   0.00000  -0.00028  -0.00028   2.32366
   R15        1.83526  -0.00024   0.00000  -0.00045  -0.00045   1.83481
   R16        1.91194  -0.00012   0.00000  -0.00027  -0.00027   1.91166
   R17        1.90124  -0.00023   0.00000  -0.00050  -0.00050   1.90073
    A1        2.07399  -0.00005   0.00000   0.00008   0.00008   2.07407
    A2        2.10539   0.00005   0.00000   0.00012   0.00012   2.10552
    A3        2.10380  -0.00000   0.00000  -0.00021  -0.00021   2.10360
    A4        2.11058   0.00000   0.00000   0.00034   0.00034   2.11092
    A5        2.09287   0.00001   0.00000  -0.00008  -0.00008   2.09279
    A6        2.07973  -0.00002   0.00000  -0.00026  -0.00026   2.07947
    A7        2.11560  -0.00028   0.00000  -0.00119  -0.00119   2.11441
    A8        2.09719   0.00023   0.00000   0.00118   0.00118   2.09836
    A9        2.07040   0.00005   0.00000   0.00001   0.00001   2.07041
   A10        2.05851   0.00016   0.00000   0.00047   0.00047   2.05898
   A11        2.09130   0.00049   0.00000   0.00205   0.00205   2.09335
   A12        2.13337  -0.00065   0.00000  -0.00252  -0.00252   2.13085
   A13        2.08448   0.00051   0.00000   0.00184   0.00184   2.08632
   A14        2.09826  -0.00068   0.00000  -0.00262  -0.00262   2.09564
   A15        2.10045   0.00017   0.00000   0.00078   0.00078   2.10122
   A16        2.12320  -0.00034   0.00000  -0.00155  -0.00155   2.12165
   A17        2.09784   0.00033   0.00000   0.00175   0.00175   2.09959
   A18        2.06215   0.00002   0.00000  -0.00020  -0.00020   2.06194
   A19        1.99234  -0.00041   0.00000  -0.00162  -0.00163   1.99072
   A20        2.19758  -0.00027   0.00000  -0.00107  -0.00108   2.19650
   A21        2.09326   0.00067   0.00000   0.00270   0.00269   2.09595
   A22        1.85223  -0.00025   0.00000  -0.00154  -0.00154   1.85070
   A23        2.07976  -0.00022   0.00000  -0.00135  -0.00135   2.07841
   A24        2.09736  -0.00004   0.00000  -0.00026  -0.00026   2.09710
   A25        2.10607   0.00026   0.00000   0.00161   0.00161   2.10768
    D1        0.00001  -0.00000   0.00000  -0.00005  -0.00005  -0.00004
    D2       -3.14158  -0.00000   0.00000  -0.00005  -0.00005   3.14156
    D3       -3.14159  -0.00000   0.00000  -0.00001  -0.00001   3.14159
    D4        0.00000  -0.00000   0.00000  -0.00001  -0.00001  -0.00000
    D5       -0.00004   0.00000   0.00000   0.00015   0.00015   0.00011
    D6        3.14158   0.00000   0.00000   0.00005   0.00005  -3.14156
    D7        3.14156   0.00000   0.00000   0.00011   0.00011  -3.14151
    D8       -0.00000   0.00000   0.00000   0.00000   0.00000  -0.00000
    D9        0.00000  -0.00000   0.00000  -0.00001  -0.00001  -0.00001
   D10        3.14158   0.00000   0.00000   0.00004   0.00004  -3.14156
   D11       -3.14159  -0.00000   0.00000  -0.00001  -0.00001   3.14159
   D12       -0.00001   0.00000   0.00000   0.00004   0.00004   0.00003
   D13        0.00000  -0.00000   0.00000  -0.00003  -0.00003  -0.00002
   D14        3.14156   0.00000   0.00000   0.00017   0.00017  -3.14146
   D15       -3.14157  -0.00000   0.00000  -0.00007  -0.00007   3.14154
   D16       -0.00002   0.00000   0.00000   0.00012   0.00012   0.00010
   D17       -0.00003   0.00000   0.00000   0.00012   0.00012   0.00010
   D18        3.14159   0.00000   0.00000  -0.00001  -0.00001   3.14158
   D19       -3.14158  -0.00000   0.00000  -0.00008  -0.00007   3.14153
   D20        0.00004  -0.00000   0.00000  -0.00021  -0.00021  -0.00017
   D21       -3.14147  -0.00001   0.00000  -0.00040  -0.00040   3.14132
   D22        0.00000  -0.00000   0.00000  -0.00013  -0.00013  -0.00013
   D23        0.00009  -0.00000   0.00000  -0.00019  -0.00019  -0.00011
   D24        3.14156   0.00000   0.00000   0.00007   0.00007  -3.14156
   D25        0.00005  -0.00000   0.00000  -0.00019  -0.00019  -0.00014
   D26       -3.14157  -0.00000   0.00000  -0.00009  -0.00009   3.14153
   D27       -3.14157  -0.00000   0.00000  -0.00006  -0.00006   3.14156
   D28       -0.00001   0.00000   0.00000   0.00005   0.00005   0.00004
   D29        3.14067   0.00006   0.00000   0.00407   0.00407  -3.13845
   D30        0.00091  -0.00007   0.00000  -0.00435  -0.00435  -0.00344
   D31       -0.00090   0.00006   0.00000   0.00394   0.00393   0.00304
   D32       -3.14066  -0.00007   0.00000  -0.00449  -0.00448   3.13805
   D33       -3.14072  -0.00006   0.00000  -0.00398  -0.00399   3.13847
   D34       -0.00085   0.00006   0.00000   0.00389   0.00389   0.00305
         Item               Value     Threshold  Converged?
 Maximum Force            0.001775     0.000450     NO 
 RMS     Force            0.000422     0.000300     NO 
 Maximum Displacement     0.017013     0.001800     NO 
 RMS     Displacement     0.004462     0.001200     NO 
 Predicted change in Energy=-1.944718D-05
 GradGradGradGradGradGradGradGradGradGradGradGradGradGradGradGradGradGrad

                          Input orientation:                          
 ---------------------------------------------------------------------
 Center     Atomic      Atomic             Coordinates (Angstroms)
 Number     Number       Type             X           Y           Z
 ---------------------------------------------------------------------
      1          6           0       -1.858024   -1.523031    0.000258
      2          6           0       -2.587889   -0.321482   -0.000555
      3          6           0       -1.943010    0.902826   -0.000501
      4          6           0       -0.530078    0.986027    0.000379
      5          6           0        0.211661   -0.231950    0.001241
      6          6           0       -0.474733   -1.464074    0.001073
      7          6           0        1.674825   -0.199516    0.002153
      8          8           0        2.256537   -1.428484   -0.000988
      9          7           0        0.078839    2.203601    0.000570
     10          8           0        2.372714    0.812871   -0.001161
     11          1           0       -2.368521   -2.479635    0.000216
     12          1           0       -3.673789   -0.347414   -0.001235
     13          1           0       -2.518739    1.824340   -0.001108
     14          1           0        0.111153   -2.375358    0.001678
     15          1           0        3.214732   -1.271695   -0.002920
     16          1           0        1.089473    2.247972    0.001442
     17          1           0       -0.473019    3.044515   -0.000028
 ---------------------------------------------------------------------
                    Distance matrix (angstroms):
                    1          2          3          4          5
     1  C    0.000000
     2  C    1.405853   0.000000
     3  C    2.427345   1.383762   0.000000
     4  C    2.838805   2.438066   1.415380   0.000000
     5  C    2.439362   2.800981   2.435226   1.426059   0.000000
     6  C    1.384547   2.402279   2.785329   2.450726   1.410414
     7  C    3.772628   4.264459   3.782050   2.503421   1.463524
     8  O    4.115648   4.969297   4.803250   3.687152   2.369223
     9  N    4.199907   3.672530   2.404140   1.361347   2.439170
    10  O    4.832762   5.088648   4.316662   2.907953   2.400377
    11  H    1.084296   2.169273   3.409120   3.923096   3.421904
    12  H    2.163117   1.086210   2.135110   3.414818   3.887165
    13  H    3.411955   2.146936   1.086578   2.158134   3.418101
    14  H    2.145723   3.391643   3.868602   3.422001   2.145764
    15  H    5.078980   5.879908   5.597397   4.372748   3.177975
    16  H    4.786252   4.486100   3.317436   2.053157   2.630697
    17  H    4.772915   3.975250   2.597635   2.059279   3.347239
                    6          7          8          9         10
     6  C    0.000000
     7  C    2.493935   0.000000
     8  O    2.731503   1.359692   0.000000
     9  N    3.709216   2.884813   4.234904   0.000000
    10  O    3.645881   1.229629   2.244365   2.682536   0.000000
    11  H    2.148905   4.641938   4.743003   5.284152   5.772340
    12  H    3.388346   5.350659   6.028057   4.537608   6.156822
    13  H    3.871903   4.656392   5.777900   2.625119   4.994936
    14  H    1.083375   2.679432   2.345048   4.579073   3.908897
    15  H    3.694480   1.876408   0.970940   4.680974   2.248203
    16  H    4.028155   2.516513   3.857250   1.011608   1.925157
    17  H    4.508590   3.890627   5.240057   1.005825   3.616411
                   11         12         13         14         15
    11  H    0.000000
    12  H    2.500018   0.000000
    13  H    4.306595   2.459808   0.000000
    14  H    2.481866   4.293990   4.955179   0.000000
    15  H    5.712428   6.950253   6.515990   3.293978   0.000000
    16  H    5.857302   5.424454   3.632997   4.725706   4.111545
    17  H    5.840304   4.663701   2.381974   5.451264   5.677075
                   16         17
    16  H    0.000000
    17  H    1.753814   0.000000
 Stoichiometry    C7H7NO2
 Framework group  C1[X(C7H7NO2)]
 Deg. of freedom    45
 Full point group                 C1      NOp   1
 Largest Abelian subgroup         C1      NOp   1
 Largest concise Abelian subgroup C1      NOp   1
                         Standard orientation:                         
 ---------------------------------------------------------------------
 Center     Atomic      Atomic             Coordinates (Angstroms)
 Number     Number       Type             X           Y           Z
 ---------------------------------------------------------------------
      1          6           0       -1.860718   -1.518941    0.000131
      2          6           0       -2.587615   -0.315595   -0.000682
      3          6           0       -1.939718    0.907118   -0.000628
      4          6           0       -0.526585    0.986832    0.000252
      5          6           0        0.212146   -0.232971    0.001114
      6          6           0       -0.477286   -1.463399    0.000946
      7          6           0        1.675387   -0.204149    0.002026
      8          8           0        2.254064   -1.434549   -0.001114
      9          7           0        0.085335    2.202899    0.000443
     10          8           0        2.375772    0.806514   -0.001288
     11          1           0       -2.373574   -2.474282    0.000089
     12          1           0       -3.673576   -0.338847   -0.001362
     13          1           0       -2.513171    1.830050   -0.001235
     14          1           0        0.106350   -2.376125    0.001551
     15          1           0        3.212643   -1.280125   -0.003047
     16          1           0        1.096076    2.244777    0.001315
     17          1           0       -0.464446    3.045173   -0.000155
 ---------------------------------------------------------------------
 Rotational constants (GHZ):      2.2973201      1.2139264      0.7942418
 Standard basis: 6-31+G(d,p) (6D, 7F)
 There are   225 symmetry adapted cartesian basis functions of A   symmetry.
 There are   225 symmetry adapted basis functions of A   symmetry.
   225 basis functions,   369 primitive gaussians,   225 cartesian basis functions
    36 alpha electrons       36 beta electrons
       nuclear repulsion energy       500.6414819041 Hartrees.
 NAtoms=   17 NActive=   17 NUniq=   17 SFac= 1.00D+00 NAtFMM=   60 NAOKFM=F Big=F
 Integral buffers will be    131072 words long.
 Raffenetti 2 integral format.
 Two-electron integral symmetry is turned on.
 Nuclear repulsion after empirical dispersion term =      500.6103449154 Hartrees.
 One-electron integrals computed using PRISM.
 NBasis=   225 RedAO= T EigKep=  2.74D-06  NBF=   225
 NBsUse=   225 1.00D-06 EigRej= -1.00D+00 NBFU=   225
 Initial guess from the checkpoint file:  "gd3b3lypAnthranilic.chk"
 B after Tr=    -0.000000   -0.000000    0.000000
         Rot=    0.999999    0.000008   -0.000022    0.001056 Ang=   0.12 deg.
 Keep R1 ints in memory in canonical form, NReq=329175655.
 Requested convergence on RMS density matrix=1.00D-08 within 128 cycles.
 Requested convergence on MAX density matrix=1.00D-06.
 Requested convergence on             energy=1.00D-06.
 No special actions if energy rises.
 SCF Done:  E(RB3LYP) =  -476.256028054     A.U. after   11 cycles
            NFock= 11  Conv=0.65D-08     -V/T= 2.0095
 Calling FoFJK, ICntrl=      2127 FMM=F ISym2X=0 I1Cent= 0 IOpClX= 0 NMat=1 NMatS=1 NMatT=0.
 ***** Axes restored to original set *****
 -------------------------------------------------------------------
 Center     Atomic                   Forces (Hartrees/Bohr)
 Number     Number              X              Y              Z
 -------------------------------------------------------------------
      1        6          -0.000013637   -0.000050562   -0.000019359
      2        6          -0.000002597    0.000034428    0.000002154
      3        6          -0.000181155    0.000042977   -0.000019096
      4        6          -0.000000444    0.000439704    0.000048782
      5        6           0.000240148   -0.000102482    0.000238047
      6        6          -0.000065332   -0.000201399    0.000041268
      7        6          -0.000591107   -0.000333215   -0.000909770
      8        8           0.000360412    0.000274210    0.000268814
      9        7          -0.000437870    0.000367740    0.000010620
     10        8           0.000755357   -0.000254576    0.000361168
     11        1          -0.000041560   -0.000004380   -0.000005296
     12        1          -0.000022209   -0.000022464    0.000003063
     13        1          -0.000016548   -0.000000464   -0.000001291
     14        1          -0.000023527    0.000014064    0.000003397
     15        1           0.000097809   -0.000123006    0.000003569
     16        1           0.000059095   -0.000052288   -0.000028444
     17        1          -0.000116835   -0.000028288    0.000002373
 -------------------------------------------------------------------
 Cartesian Forces:  Max     0.000909770 RMS     0.000247133

 GradGradGradGradGradGradGradGradGradGradGradGradGradGradGradGradGradGrad
 Berny optimization.
 Using GEDIIS/GDIIS optimizer.
 FormGI is forming the generalized inverse of G from B-inverse, IUseBI=4.
 Internal  Forces:  Max     0.001198566 RMS     0.000314506
 Search for a local minimum.
 Step number   2 out of a maximum of   86
 All quantities printed in internal units (Hartrees-Bohrs-Radians)
 Mixed Optimization -- En-DIIS/RFO-DIIS
 Swapping is turned off.
 Update second derivatives using D2CorX and points    1    2
 DE= -6.04D-06 DEPred=-1.94D-05 R= 3.11D-01
 Trust test= 3.11D-01 RLast= 1.47D-02 DXMaxT set to 3.00D-01
 ITU=  0  0
     Eigenvalues ---    0.01214   0.01648   0.01758   0.01802   0.01931
     Eigenvalues ---    0.02040   0.02056   0.02100   0.02139   0.02161
     Eigenvalues ---    0.02188   0.02189   0.02209   0.02219   0.15549
     Eigenvalues ---    0.16000   0.16000   0.16000   0.16000   0.16000
     Eigenvalues ---    0.16090   0.21994   0.22211   0.24149   0.24595
     Eigenvalues ---    0.25000   0.25000   0.28545   0.35120   0.35196
     Eigenvalues ---    0.35409   0.35508   0.36965   0.40624   0.42248
     Eigenvalues ---    0.42978   0.45668   0.46574   0.46768   0.47186
     Eigenvalues ---    0.51440   0.52817   0.53065   0.57119   0.91473
 En-DIIS/RFO-DIIS IScMMF=        0 using points:     2    1
 RFO step:  Lambda=-1.10956497D-05.
 DidBck=T Rises=F RFO-DIIS coefs:    0.58661    0.41339
 Iteration  1 RMS(Cart)=  0.00364729 RMS(Int)=  0.00001250
 Iteration  2 RMS(Cart)=  0.00001580 RMS(Int)=  0.00000646
 Iteration  3 RMS(Cart)=  0.00000000 RMS(Int)=  0.00000646
 Variable       Old X    -DE/DX   Delta X   Delta X   Delta X     New X
                                 (Linear)    (Quad)   (Total)
    R1        2.65668  -0.00007   0.00028  -0.00058  -0.00030   2.65638
    R2        2.61642   0.00003   0.00055  -0.00085  -0.00030   2.61611
    R3        2.04902   0.00002   0.00033  -0.00048  -0.00015   2.04887
    R4        2.61493  -0.00004   0.00046  -0.00079  -0.00034   2.61460
    R5        2.05264   0.00002   0.00033  -0.00048  -0.00015   2.05249
    R6        2.67468   0.00025   0.00096  -0.00117  -0.00021   2.67448
    R7        2.05333   0.00001   0.00034  -0.00052  -0.00018   2.05315
    R8        2.69486   0.00111   0.00162  -0.00093   0.00068   2.69555
    R9        2.57257   0.00003   0.00091  -0.00140  -0.00049   2.57208
   R10        2.66530   0.00032   0.00113  -0.00132  -0.00020   2.66510
   R11        2.76566   0.00061   0.00203  -0.00221  -0.00019   2.76547
   R12        2.04728  -0.00002   0.00030  -0.00051  -0.00021   2.04707
   R13        2.56944   0.00006   0.00035  -0.00049  -0.00014   2.56930
   R14        2.32366   0.00022   0.00012  -0.00004   0.00007   2.32374
   R15        1.83481   0.00008   0.00018  -0.00021  -0.00002   1.83479
   R16        1.91166   0.00006   0.00011  -0.00011   0.00001   1.91167
   R17        1.90073   0.00004   0.00021  -0.00028  -0.00007   1.90066
    A1        2.07407   0.00006  -0.00003   0.00004   0.00001   2.07408
    A2        2.10552  -0.00006  -0.00005  -0.00004  -0.00009   2.10542
    A3        2.10360   0.00001   0.00008  -0.00000   0.00008   2.10368
    A4        2.11092   0.00005  -0.00014   0.00019   0.00005   2.11097
    A5        2.09279  -0.00005   0.00003  -0.00012  -0.00009   2.09270
    A6        2.07947  -0.00000   0.00011  -0.00007   0.00004   2.07951
    A7        2.11441   0.00017   0.00049  -0.00036   0.00013   2.11455
    A8        2.09836  -0.00010  -0.00049   0.00050   0.00002   2.09838
    A9        2.07041  -0.00007  -0.00000  -0.00014  -0.00015   2.07026
   A10        2.05898  -0.00014  -0.00019   0.00008  -0.00012   2.05887
   A11        2.09335  -0.00072  -0.00085  -0.00041  -0.00126   2.09209
   A12        2.13085   0.00087   0.00104   0.00033   0.00137   2.13223
   A13        2.08632  -0.00037  -0.00076   0.00046  -0.00030   2.08602
   A14        2.09564   0.00120   0.00108   0.00104   0.00212   2.09776
   A15        2.10122  -0.00083  -0.00032  -0.00150  -0.00182   2.09940
   A16        2.12165   0.00023   0.00064  -0.00041   0.00023   2.12188
   A17        2.09959  -0.00013  -0.00072   0.00080   0.00008   2.09967
   A18        2.06194  -0.00010   0.00008  -0.00039  -0.00031   2.06164
   A19        1.99072   0.00006   0.00067  -0.00089  -0.00025   1.99047
   A20        2.19650   0.00086   0.00045   0.00133   0.00175   2.19824
   A21        2.09595  -0.00092  -0.00111  -0.00037  -0.00152   2.09443
   A22        1.85070   0.00025   0.00064  -0.00009   0.00054   1.85124
   A23        2.07841   0.00000   0.00056  -0.00088  -0.00032   2.07809
   A24        2.09710  -0.00011   0.00011  -0.00057  -0.00047   2.09663
   A25        2.10768   0.00011  -0.00067   0.00145   0.00078   2.10846
    D1       -0.00004   0.00000   0.00002   0.00007   0.00009   0.00005
    D2        3.14156   0.00000   0.00002   0.00007   0.00009  -3.14154
    D3        3.14159   0.00000   0.00000   0.00001   0.00001  -3.14159
    D4       -0.00000   0.00000   0.00000   0.00000   0.00001   0.00000
    D5        0.00011  -0.00001  -0.00006  -0.00021  -0.00027  -0.00016
    D6       -3.14156  -0.00000  -0.00002  -0.00007  -0.00009   3.14154
    D7       -3.14151  -0.00001  -0.00005  -0.00015  -0.00019   3.14148
    D8       -0.00000  -0.00000  -0.00000  -0.00000  -0.00000  -0.00000
    D9       -0.00001   0.00000   0.00000   0.00001   0.00002   0.00001
   D10       -3.14156  -0.00000  -0.00002  -0.00005  -0.00007   3.14155
   D11        3.14159   0.00000   0.00000   0.00002   0.00002  -3.14158
   D12        0.00003  -0.00000  -0.00001  -0.00005  -0.00006  -0.00004
   D13       -0.00002   0.00000   0.00001   0.00004   0.00005   0.00003
   D14       -3.14146  -0.00001  -0.00007  -0.00025  -0.00031   3.14141
   D15        3.14154   0.00001   0.00003   0.00010   0.00013  -3.14152
   D16        0.00010  -0.00001  -0.00005  -0.00018  -0.00023  -0.00013
   D17        0.00010  -0.00001  -0.00005  -0.00017  -0.00023  -0.00013
   D18        3.14158   0.00000   0.00000   0.00003   0.00004  -3.14157
   D19        3.14153   0.00001   0.00003   0.00012   0.00015  -3.14151
   D20       -0.00017   0.00001   0.00009   0.00033   0.00041   0.00024
   D21        3.14132   0.00003   0.00016   0.00059   0.00076  -3.14111
   D22       -0.00013   0.00001   0.00006   0.00018   0.00024   0.00011
   D23       -0.00011   0.00002   0.00008   0.00029   0.00038   0.00027
   D24       -3.14156  -0.00000  -0.00003  -0.00011  -0.00014   3.14148
   D25       -0.00014   0.00001   0.00008   0.00027   0.00034   0.00020
   D26        3.14153   0.00001   0.00004   0.00012   0.00016  -3.14150
   D27        3.14156   0.00000   0.00002   0.00006   0.00008  -3.14155
   D28        0.00004  -0.00000  -0.00002  -0.00008  -0.00011  -0.00006
   D29       -3.13845  -0.00022  -0.00168  -0.00592  -0.00760   3.13713
   D30       -0.00344   0.00024   0.00180   0.00641   0.00821   0.00478
   D31        0.00304  -0.00022  -0.00163  -0.00571  -0.00734  -0.00430
   D32        3.13805   0.00024   0.00185   0.00662   0.00848  -3.13666
   D33        3.13847   0.00022   0.00165   0.00584   0.00748  -3.13723
   D34        0.00305  -0.00022  -0.00161  -0.00572  -0.00732  -0.00427
         Item               Value     Threshold  Converged?
 Maximum Force            0.001199     0.000450     NO 
 RMS     Force            0.000315     0.000300     NO 
 Maximum Displacement     0.013343     0.001800     NO 
 RMS     Displacement     0.003648     0.001200     NO 
 Predicted change in Energy=-1.034959D-05
 GradGradGradGradGradGradGradGradGradGradGradGradGradGradGradGradGradGrad

                          Input orientation:                          
 ---------------------------------------------------------------------
 Center     Atomic      Atomic             Coordinates (Angstroms)
 Number     Number       Type             X           Y           Z
 ---------------------------------------------------------------------
      1          6           0       -1.856825   -1.522491   -0.000265
      2          6           0       -2.587111   -0.321385    0.000897
      3          6           0       -1.942892    0.903069    0.000817
      4          6           0       -0.530119    0.987113   -0.000448
      5          6           0        0.212397   -0.230814   -0.001678
      6          6           0       -0.473717   -1.462973   -0.001436
      7          6           0        1.675513   -0.200779   -0.002981
      8          8           0        2.254877   -1.430770    0.001467
      9          7           0        0.076420    2.205583   -0.000709
     10          8           0        2.376850    0.809264    0.001606
     11          1           0       -2.366969   -2.479192   -0.000201
     12          1           0       -3.672916   -0.347868    0.001873
     13          1           0       -2.518985    1.824241    0.001687
     14          1           0        0.112555   -2.373874   -0.002297
     15          1           0        3.213435   -1.276306    0.004141
     16          1           0        1.086988    2.251512   -0.002046
     17          1           0       -0.477368    3.045182    0.000088
 ---------------------------------------------------------------------
                    Distance matrix (angstroms):
                    1          2          3          4          5
     1  C    0.000000
     2  C    1.405694   0.000000
     3  C    2.427087   1.383585   0.000000
     4  C    2.838708   2.437906   1.415271   0.000000
     5  C    2.439285   2.800974   2.435358   1.426421   0.000000
     6  C    1.384388   2.402012   2.785074   2.450736   1.410308
     7  C    3.771517   4.264331   3.783034   2.505176   1.463425
     8  O    4.112724   4.967452   4.802922   3.688138   2.368887
     9  N    4.199520   3.671507   2.402949   1.361087   2.440188
    10  O    4.833331   5.091098   4.320760   2.912405   2.401381
    11  H    1.084216   2.169008   3.408744   3.922919   3.421744
    12  H    2.162853   1.086129   2.134908   3.414580   3.887078
    13  H    3.411609   2.146707   1.086481   2.157864   3.418144
    14  H    2.145533   3.391300   3.868233   3.421880   2.145384
    15  H    5.076235   5.878624   5.597981   4.374618   3.177942
    16  H    4.786349   4.485399   3.316395   2.052740   2.631891
    17  H    4.771429   3.973007   2.595459   2.058745   3.347825
                    6          7          8          9         10
     6  C    0.000000
     7  C    2.492454   0.000000
     8  O    2.728785   1.359617   0.000000
     9  N    3.709576   2.889235   4.238954   0.000000
    10  O    3.645382   1.229668   2.243352   2.691039   0.000000
    11  H    2.148745   4.640348   4.739266   5.283679   5.772154
    12  H    3.387971   5.350454   6.025895   4.536259   6.159434
    13  H    3.871551   4.657740   5.777963   2.623272   4.999938
    14  H    1.083261   2.676785   2.340727   4.579599   3.906331
    15  H    3.691879   1.876703   0.970928   4.686623   2.247106
    16  H    4.029045   2.521923   3.863053   1.011612   1.934900
    17  H    4.508157   3.895019   5.243978   1.005788   3.625727
                   11         12         13         14         15
    11  H    0.000000
    12  H    2.499609   0.000000
    13  H    4.306117   2.459596   0.000000
    14  H    2.481760   4.293543   4.954713   0.000000
    15  H    5.708578   6.948658   6.517211   3.289401   0.000000
    16  H    5.857421   5.423420   3.631200   4.726914   4.119141
    17  H    5.838604   4.660936   2.378845   5.451072   5.683072
                   16         17
    16  H    0.000000
    17  H    1.754174   0.000000
 Stoichiometry    C7H7NO2
 Framework group  C1[X(C7H7NO2)]
 Deg. of freedom    45
 Full point group                 C1      NOp   1
 Largest Abelian subgroup         C1      NOp   1
 Largest concise Abelian subgroup C1      NOp   1
                         Standard orientation:                         
 ---------------------------------------------------------------------
 Center     Atomic      Atomic             Coordinates (Angstroms)
 Number     Number       Type             X           Y           Z
 ---------------------------------------------------------------------
      1          6           0       -1.857067   -1.521625   -0.000158
      2          6           0       -2.586603   -0.320062    0.001004
      3          6           0       -1.941618    0.903989    0.000924
      4          6           0       -0.528793    0.987150   -0.000342
      5          6           0        0.212961   -0.231241   -0.001571
      6          6           0       -0.473923   -1.462971   -0.001329
      7          6           0        1.676096   -0.202121   -0.002874
      8          8           0        2.254691   -1.432473    0.001574
      9          7           0        0.078507    2.205240   -0.000602
     10          8           0        2.378064    0.807484    0.001713
     11          1           0       -2.367809   -2.478007   -0.000094
     12          1           0       -3.672425   -0.345867    0.001980
     13          1           0       -2.517136    1.825520    0.001794
     14          1           0        0.111780   -2.374238   -0.002190
     15          1           0        3.213346   -1.278608    0.004248
     16          1           0        1.089103    2.250538   -0.001939
     17          1           0       -0.474757    3.045185    0.000195
 ---------------------------------------------------------------------
 Rotational constants (GHZ):      2.2959495      1.2137141      0.7939875
 Standard basis: 6-31+G(d,p) (6D, 7F)
 There are   225 symmetry adapted cartesian basis functions of A   symmetry.
 There are   225 symmetry adapted basis functions of A   symmetry.
   225 basis functions,   369 primitive gaussians,   225 cartesian basis functions
    36 alpha electrons       36 beta electrons
       nuclear repulsion energy       500.5902147316 Hartrees.
 NAtoms=   17 NActive=   17 NUniq=   17 SFac= 1.00D+00 NAtFMM=   60 NAOKFM=F Big=F
 Integral buffers will be    131072 words long.
 Raffenetti 2 integral format.
 Two-electron integral symmetry is turned on.
 Nuclear repulsion after empirical dispersion term =      500.5590812967 Hartrees.
 One-electron integrals computed using PRISM.
 NBasis=   225 RedAO= T EigKep=  2.74D-06  NBF=   225
 NBsUse=   225 1.00D-06 EigRej= -1.00D+00 NBFU=   225
 Initial guess from the checkpoint file:  "gd3b3lypAnthranilic.chk"
 B after Tr=     0.000000   -0.000000   -0.000000
         Rot=    1.000000   -0.000018    0.000043   -0.000768 Ang=  -0.09 deg.
 Keep R1 ints in memory in canonical form, NReq=329175655.
 Requested convergence on RMS density matrix=1.00D-08 within 128 cycles.
 Requested convergence on MAX density matrix=1.00D-06.
 Requested convergence on             energy=1.00D-06.
 No special actions if energy rises.
 SCF Done:  E(RB3LYP) =  -476.256030010     A.U. after   11 cycles
            NFock= 11  Conv=0.63D-08     -V/T= 2.0095
 Calling FoFJK, ICntrl=      2127 FMM=F ISym2X=0 I1Cent= 0 IOpClX= 0 NMat=1 NMatS=1 NMatT=0.
 ***** Axes restored to original set *****
 -------------------------------------------------------------------
 Center     Atomic                   Forces (Hartrees/Bohr)
 Number     Number              X              Y              Z
 -------------------------------------------------------------------
      1        6          -0.000096384   -0.000101413    0.000026842
      2        6          -0.000117766   -0.000028736   -0.000002707
      3        6          -0.000146197    0.000012092    0.000026728
      4        6          -0.000034400    0.000046942   -0.000068690
      5        6           0.000080032    0.000100188   -0.000332915
      6        6          -0.000110245   -0.000221418   -0.000057090
      7        6          -0.000048527   -0.000083808    0.001275853
      8        8           0.000282724   -0.000058630   -0.000377252
      9        7           0.000153763    0.000189644   -0.000015136
     10        8           0.000125925    0.000152229   -0.000507128
     11        1          -0.000060903   -0.000059018    0.000007371
     12        1          -0.000082974   -0.000018315   -0.000004227
     13        1          -0.000055580    0.000057322    0.000001840
     14        1          -0.000020972   -0.000046176   -0.000004961
     15        1           0.000054248   -0.000037180   -0.000005280
     16        1           0.000075988    0.000046879    0.000040567
     17        1           0.000001267    0.000049399   -0.000003815
 -------------------------------------------------------------------
 Cartesian Forces:  Max     0.001275853 RMS     0.000222105

 GradGradGradGradGradGradGradGradGradGradGradGradGradGradGradGradGradGrad
 Berny optimization.
 Using GEDIIS/GDIIS optimizer.
 FormGI is forming the generalized inverse of G from B-inverse, IUseBI=4.
 Internal  Forces:  Max     0.000455855 RMS     0.000159478
 Search for a local minimum.
 Step number   3 out of a maximum of   86
 All quantities printed in internal units (Hartrees-Bohrs-Radians)
 Mixed Optimization -- En-DIIS/RFO-DIIS
 Swapping is turned off.
 Update second derivatives using D2CorX and points    1    2    3
 DE= -1.96D-06 DEPred=-1.03D-05 R= 1.89D-01
 Trust test= 1.89D-01 RLast= 1.95D-02 DXMaxT set to 3.00D-01
 ITU=  0  0  0
     Eigenvalues ---    0.01215   0.01648   0.01802   0.01928   0.02040
     Eigenvalues ---    0.02056   0.02100   0.02139   0.02160   0.02184
     Eigenvalues ---    0.02188   0.02209   0.02219   0.04390   0.15011
     Eigenvalues ---    0.16000   0.16000   0.16000   0.16000   0.16005
     Eigenvalues ---    0.16129   0.21988   0.22167   0.24187   0.24650
     Eigenvalues ---    0.25000   0.26019   0.29210   0.35084   0.35194
     Eigenvalues ---    0.35392   0.35505   0.36876   0.40615   0.42810
     Eigenvalues ---    0.42939   0.45689   0.46511   0.46767   0.47130
     Eigenvalues ---    0.51205   0.52827   0.53126   0.58300   0.91773
 En-DIIS/RFO-DIIS IScMMF=        0 using points:     3    2    1
 RFO step:  Lambda=-4.26883540D-06.
 DidBck=T Rises=F RFO-DIIS coefs:    0.38004    0.38057    0.23939
 Iteration  1 RMS(Cart)=  0.00205382 RMS(Int)=  0.00000491
 Iteration  2 RMS(Cart)=  0.00000695 RMS(Int)=  0.00000137
 Iteration  3 RMS(Cart)=  0.00000000 RMS(Int)=  0.00000137
 Variable       Old X    -DE/DX   Delta X   Delta X   Delta X     New X
                                 (Linear)    (Quad)   (Total)
    R1        2.65638   0.00013   0.00035  -0.00028   0.00006   2.65644
    R2        2.61611   0.00023   0.00050  -0.00034   0.00017   2.61628
    R3        2.04887   0.00008   0.00028  -0.00020   0.00009   2.04896
    R4        2.61460   0.00020   0.00047  -0.00035   0.00012   2.61472
    R5        2.05249   0.00008   0.00028  -0.00019   0.00009   2.05258
    R6        2.67448   0.00034   0.00069  -0.00034   0.00035   2.67482
    R7        2.05315   0.00008   0.00031  -0.00023   0.00008   2.05323
    R8        2.69555   0.00028   0.00051   0.00007   0.00058   2.69613
    R9        2.57208   0.00036   0.00083  -0.00059   0.00024   2.57232
   R10        2.66510   0.00046   0.00078  -0.00031   0.00046   2.66556
   R11        2.76547   0.00041   0.00129  -0.00069   0.00060   2.76607
   R12        2.04707   0.00003   0.00031  -0.00029   0.00002   2.04708
   R13        2.56930   0.00023   0.00029  -0.00013   0.00016   2.56947
   R14        2.32374   0.00020   0.00002   0.00008   0.00011   2.32384
   R15        1.83479   0.00005   0.00012  -0.00007   0.00005   1.83484
   R16        1.91167   0.00008   0.00006   0.00001   0.00007   1.91174
   R17        1.90066   0.00004   0.00016  -0.00012   0.00004   1.90070
    A1        2.07408   0.00001  -0.00003   0.00003   0.00000   2.07408
    A2        2.10542  -0.00003   0.00003  -0.00011  -0.00008   2.10534
    A3        2.10368   0.00002  -0.00000   0.00008   0.00008   2.10376
    A4        2.11097   0.00001  -0.00011   0.00009  -0.00002   2.11095
    A5        2.09270  -0.00002   0.00007  -0.00012  -0.00005   2.09265
    A6        2.07951   0.00001   0.00004   0.00003   0.00007   2.07958
    A7        2.11455   0.00006   0.00020  -0.00004   0.00016   2.11471
    A8        2.09838  -0.00005  -0.00029   0.00016  -0.00013   2.09825
    A9        2.07026  -0.00001   0.00009  -0.00012  -0.00003   2.07023
   A10        2.05887  -0.00002  -0.00004  -0.00003  -0.00007   2.05880
   A11        2.09209   0.00009   0.00029  -0.00053  -0.00024   2.09185
   A12        2.13223  -0.00007  -0.00025   0.00055   0.00030   2.13253
   A13        2.08602  -0.00010  -0.00026  -0.00002  -0.00028   2.08575
   A14        2.09776  -0.00019  -0.00069   0.00099   0.00031   2.09807
   A15        2.09940   0.00029   0.00094  -0.00097  -0.00003   2.09937
   A16        2.12188   0.00005   0.00023  -0.00003   0.00020   2.12208
   A17        2.09967  -0.00007  -0.00047   0.00027  -0.00020   2.09947
   A18        2.06164   0.00002   0.00024  -0.00024  -0.00000   2.06164
   A19        1.99047   0.00039   0.00054   0.00005   0.00059   1.99106
   A20        2.19824  -0.00017  -0.00083   0.00102   0.00019   2.19843
   A21        2.09443  -0.00021   0.00030  -0.00104  -0.00075   2.09369
   A22        1.85124   0.00008   0.00003   0.00034   0.00037   1.85161
   A23        2.07809   0.00004   0.00052  -0.00044   0.00008   2.07817
   A24        2.09663   0.00001   0.00035  -0.00042  -0.00007   2.09656
   A25        2.10846  -0.00005  -0.00087   0.00086  -0.00001   2.10845
    D1        0.00005  -0.00001  -0.00004  -0.00002  -0.00007  -0.00001
    D2       -3.14154  -0.00000  -0.00004  -0.00002  -0.00006   3.14158
    D3       -3.14159  -0.00000  -0.00000  -0.00000  -0.00001   3.14159
    D4        0.00000  -0.00000  -0.00000  -0.00000  -0.00000  -0.00000
    D5       -0.00016   0.00002   0.00013   0.00006   0.00020   0.00004
    D6        3.14154   0.00000   0.00004   0.00002   0.00006  -3.14158
    D7        3.14148   0.00001   0.00009   0.00004   0.00014  -3.14157
    D8       -0.00000   0.00000   0.00000   0.00000   0.00001   0.00000
    D9        0.00001  -0.00000  -0.00001  -0.00000  -0.00001  -0.00000
   D10        3.14155   0.00000   0.00003   0.00002   0.00005  -3.14158
   D11       -3.14158  -0.00000  -0.00001  -0.00001  -0.00002   3.14159
   D12       -0.00004   0.00000   0.00003   0.00002   0.00005   0.00001
   D13        0.00003  -0.00000  -0.00003  -0.00001  -0.00004  -0.00001
   D14        3.14141   0.00002   0.00015   0.00008   0.00023  -3.14154
   D15       -3.14152  -0.00001  -0.00006  -0.00003  -0.00010   3.14157
   D16       -0.00013   0.00001   0.00012   0.00006   0.00017   0.00004
   D17       -0.00013   0.00001   0.00011   0.00005   0.00016   0.00003
   D18       -3.14157  -0.00000  -0.00002  -0.00001  -0.00003   3.14158
   D19       -3.14151  -0.00001  -0.00007  -0.00004  -0.00012   3.14156
   D20        0.00024  -0.00002  -0.00021  -0.00010  -0.00031  -0.00007
   D21       -3.14111  -0.00004  -0.00037  -0.00019  -0.00056   3.14152
   D22        0.00011  -0.00001  -0.00012  -0.00007  -0.00018  -0.00007
   D23        0.00027  -0.00002  -0.00019  -0.00009  -0.00028  -0.00001
   D24        3.14148   0.00001   0.00007   0.00003   0.00010   3.14158
   D25        0.00020  -0.00002  -0.00017  -0.00008  -0.00025  -0.00005
   D26       -3.14150  -0.00001  -0.00008  -0.00004  -0.00012   3.14157
   D27       -3.14155  -0.00001  -0.00004  -0.00002  -0.00005   3.14158
   D28       -0.00006   0.00000   0.00005   0.00002   0.00008   0.00002
   D29        3.13713   0.00032   0.00374   0.00176   0.00550  -3.14055
   D30        0.00478  -0.00033  -0.00405  -0.00191  -0.00597  -0.00119
   D31       -0.00430   0.00030   0.00361   0.00170   0.00531   0.00101
   D32       -3.13666  -0.00035  -0.00418  -0.00197  -0.00616   3.14036
   D33       -3.13723  -0.00031  -0.00368  -0.00174  -0.00542   3.14053
   D34       -0.00427   0.00030   0.00361   0.00170   0.00530   0.00103
         Item               Value     Threshold  Converged?
 Maximum Force            0.000456     0.000450     NO 
 RMS     Force            0.000159     0.000300     YES
 Maximum Displacement     0.009666     0.001800     NO 
 RMS     Displacement     0.002052     0.001200     NO 
 Predicted change in Energy=-5.994993D-06
 GradGradGradGradGradGradGradGradGradGradGradGradGradGradGradGradGradGrad

                          Input orientation:                          
 ---------------------------------------------------------------------
 Center     Atomic      Atomic             Coordinates (Angstroms)
 Number     Number       Type             X           Y           Z
 ---------------------------------------------------------------------
      1          6           0       -1.857116   -1.522524    0.000117
      2          6           0       -2.587379   -0.321363   -0.000157
      3          6           0       -1.943063    0.903113   -0.000142
      4          6           0       -0.530116    0.987319    0.000149
      5          6           0        0.212611   -0.230842    0.000437
      6          6           0       -0.473917   -1.463052    0.000386
      7          6           0        1.676053   -0.201188    0.000735
      8          8           0        2.255852   -1.431077   -0.000307
      9          7           0        0.076060    2.206112    0.000221
     10          8           0        2.377875    0.808596   -0.000417
     11          1           0       -2.367396   -2.479204    0.000106
     12          1           0       -3.673232   -0.347862   -0.000382
     13          1           0       -2.519249    1.824275   -0.000344
     14          1           0        0.112143   -2.374100    0.000588
     15          1           0        3.214449   -1.276662   -0.000974
     16          1           0        1.086648    2.252475    0.000497
     17          1           0       -0.478090    3.045498    0.000002
 ---------------------------------------------------------------------
                    Distance matrix (angstroms):
                    1          2          3          4          5
     1  C    0.000000
     2  C    1.405728   0.000000
     3  C    2.427158   1.383648   0.000000
     4  C    2.839056   2.438233   1.415454   0.000000
     5  C    2.439715   2.801452   2.435730   1.426730   0.000000
     6  C    1.384477   2.402119   2.785162   2.451015   1.410554
     7  C    3.772162   4.265125   3.783845   2.505938   1.463743
     8  O    4.113985   4.968738   4.804095   3.689208   2.369684
     9  N    4.199987   3.671789   2.403053   1.361215   2.440777
    10  O    4.834177   5.092206   4.321972   2.913478   2.401833
    11  H    1.084262   2.169026   3.408831   3.923312   3.422216
    12  H    2.162893   1.086176   2.135046   3.414950   3.887604
    13  H    3.411669   2.146720   1.086523   2.158043   3.418562
    14  H    2.145498   3.391334   3.868332   3.422226   2.145611
    15  H    5.077521   5.879949   5.599227   4.375771   3.178800
    16  H    4.787104   4.485880   3.316614   2.052936   2.632642
    17  H    4.771639   3.973016   2.595373   2.058837   3.348354
                    6          7          8          9         10
     6  C    0.000000
     7  C    2.492924   0.000000
     8  O    2.729957   1.359704   0.000000
     9  N    3.710154   2.890514   4.240358   0.000000
    10  O    3.645972   1.229724   2.242994   2.692843   0.000000
    11  H    2.148913   4.640995   4.740569   5.284190   5.772974
    12  H    3.388106   5.351295   6.027221   4.536515   6.160624
    13  H    3.871680   4.658655   5.779179   2.623248   5.001343
    14  H    1.083270   2.677192   2.341962   4.580354   3.906801
    15  H    3.693073   1.877048   0.970954   4.688198   2.246810
    16  H    4.029951   2.523462   3.864659   1.011651   1.937022
    17  H    4.508553   3.896320   5.245395   1.005809   3.627709
                   11         12         13         14         15
    11  H    0.000000
    12  H    2.499566   0.000000
    13  H    4.306158   2.459645   0.000000
    14  H    2.481765   4.293565   4.954854   0.000000
    15  H    5.709912   6.950022   6.518520   3.290695   0.000000
    16  H    5.858260   5.423856   3.631233   4.728092   4.120964
    17  H    5.838820   4.660882   2.378595   5.451644   5.684709
                   16         17
    16  H    0.000000
    17  H    1.754222   0.000000
 Stoichiometry    C7H7NO2
 Framework group  C1[X(C7H7NO2)]
 Deg. of freedom    45
 Full point group                 C1      NOp   1
 Largest Abelian subgroup         C1      NOp   1
 Largest concise Abelian subgroup C1      NOp   1
                         Standard orientation:                         
 ---------------------------------------------------------------------
 Center     Atomic      Atomic             Coordinates (Angstroms)
 Number     Number       Type             X           Y           Z
 ---------------------------------------------------------------------
      1          6           0       -1.857014   -1.522193    0.000056
      2          6           0       -2.586919   -0.320814   -0.000218
      3          6           0       -1.942237    0.903469   -0.000204
      4          6           0       -0.529265    0.987253    0.000088
      5          6           0        0.213098   -0.231130    0.000376
      6          6           0       -0.473798   -1.463135    0.000325
      7          6           0        1.676549   -0.201913    0.000674
      8          8           0        2.255981   -1.431974   -0.000368
      9          7           0        0.077275    2.205865    0.000160
     10          8           0        2.378673    0.807662   -0.000478
     11          1           0       -2.367580   -2.478722    0.000045
     12          1           0       -3.672779   -0.346989   -0.000443
     13          1           0       -2.518148    1.824803   -0.000405
     14          1           0        0.111990   -2.374357    0.000527
     15          1           0        3.214623   -1.277846   -0.001036
     16          1           0        1.087877    2.251926    0.000435
     17          1           0       -0.476625    3.045417   -0.000059
[...]
 ! D20   D(9,4,5,7)             -0.0004         -DE/DX =    0.0                 !
 ! D21   D(3,4,9,16)          -179.9978         -DE/DX =    0.0                 !
 ! D22   D(3,4,9,17)            -0.0022         -DE/DX =    0.0                 !
 ! D23   D(5,4,9,16)             0.0025         -DE/DX =    0.0                 !
 ! D24   D(5,4,9,17)           179.9981         -DE/DX =    0.0                 !
 ! D25   D(4,5,6,1)              0.0001         -DE/DX =    0.0                 !
 ! D26   D(4,5,6,14)          -180.0            -DE/DX =    0.0                 !
 ! D27   D(7,5,6,1)           -179.9998         -DE/DX =    0.0                 !
 ! D28   D(7,5,6,14)             0.0001         -DE/DX =    0.0                 !
 ! D29   D(4,5,7,8)            179.9979         -DE/DX =    0.0                 !
 ! D30   D(4,5,7,10)             0.0            -DE/DX =    0.0                 !
 ! D31   D(6,5,7,8)             -0.0022         -DE/DX =    0.0                 !
 ! D32   D(6,5,7,10)           180.0            -DE/DX =    0.0                 !
 ! D33   D(5,7,8,15)           180.0008         -DE/DX =    0.0                 !
 ! D34   D(10,7,8,15)           -0.0012         -DE/DX =    0.0                 !
 --------------------------------------------------------------------------------
 GradGradGradGradGradGradGradGradGradGradGradGradGradGradGradGradGradGrad

 1\1\ WCSS.PL-BEM-QINLAB\Freq\RB3LYP\6-31+G(d,p)\C7H7N1O2\PHZD\22-Jun-2
 024\0\\#N Geom=AllCheck Guess=TCheck SCRF=Check GenChk RB3LYP/6-31+G(d
 ,p) Freq\\[No Title]\\0,1\C,-1.8577800498,-1.5227722975,0.0000415256\C
 ,-2.5878506299,-0.3213907584,0.000052604\C,-1.9432131885,0.9030390733,
 0.0000485703\C,-0.5300906011,0.9870007066,0.0000329388\C,0.2124328709,
 -0.2313300497,0.0000211894\C,-0.4744544431,-1.4635675663,0.0000270777\
 C,1.6760560715,-0.2009085624,0.0000015928\O,2.2570988759,-1.4303051512
 ,0.0000384121\N,0.0768734565,2.2056016116,0.0000350819\O,2.3767330351,
 0.8097136382,-0.0000058396\H,-2.3683037229,-2.4793903113,0.0000440113\
 H,-3.6737697771,-0.3476847405,0.0000640003\H,-2.5192990443,1.824339173
 7,0.0000577614\H,0.1113347557,-2.3748477111,0.0000182189\H,3.215551960
 8,-1.2749098047,0.0000334064\H,1.0875113496,2.2515242688,-0.0000099019
 \H,-0.4766979193,3.045401481,0.0000143507\\Version=ES64L-G09RevE.01\St
 ate=1-A\HF=-476.2560357\RMSD=4.230e-09\RMSF=1.739e-05\ZeroPoint=0.1320
 198\Thermal=0.1398875\Dipole=-0.4839306,0.2164066,-0.0000277\DipoleDer
 iv=-0.5550267,0.2687107,0.0000075,0.194782,-0.1712867,-0.0000068,0.000
 0018,-0.0000013,-0.1964184,0.1747074,0.0065373,-0.0000041,-0.2686056,0
 .502524,-0.000004,-0.0000002,-0.0000021,-0.0932572,-0.1285379,-0.64442
 02,-0.0000185,-0.0326855,-0.224359,0.0000093,-0.000008,0.0000187,-0.19
 75401,0.3755719,0.79488,0.0000191,0.2888333,1.2929725,0.0000009,0.,0.0
 000058,0.1147683,-1.0057693,0.297391,0.0000109,-0.3192126,-0.3634485,-
 0.0000054,0.0000065,0.0000099,-0.057199,0.5489012,-0.106153,-0.0000131
 ,0.4332469,0.0314749,0.0000116,0.0000022,-0.0000092,-0.0856367,2.34140
 55,-0.295175,-0.0000186,-0.1076416,1.5527947,-0.0000355,0.000006,-0.00
 00401,0.3004151,-0.8693795,0.5421568,-0.0000054,0.6377427,-1.0726491,0
 .0000113,-0.000024,0.0000263,-0.3761038,-0.427676,-0.5459221,-0.000012
 7,-0.3216902,-1.2871314,-0.0000106,-0.0000039,-0.0000511,-0.5508402,-1
 .2263275,-0.2749665,0.0000175,-0.4025449,-0.9130865,0.0000255,-0.00000
 08,0.0000098,-0.3773229,0.0162529,-0.0628059,0.0000012,-0.0740117,-0.0
 689693,0.0000005,0.0000013,-0.0000003,0.1549456,-0.1109956,-0.0047952,
 0.0000058,-0.0030984,0.0806163,-0.0000001,0.0000029,-0.0000004,0.12923
 89,0.0198745,0.0492409,0.0000036,0.0834599,-0.0942367,0.0000002,0.0000
 017,-0.0000026,0.1446873,0.0790628,0.0519413,0.0000026,0.0452058,0.005
 3267,-0.0000037,0.0000026,-0.000002,0.1283373,0.3102331,-0.0800407,-0.
 0000011,-0.1333907,0.281182,0.0000028,0.0000074,-0.0000013,0.3397724,0
 .3387912,-0.0235766,0.0000016,-0.0245046,0.2236333,0.,0.0000046,0.0000
 162,0.2983448,0.1189121,0.0269971,0.0000038,0.0041153,0.2246427,0.0000
 04,-0.0000003,0.0000235,0.3238087\Polar=128.9900731,4.0155292,115.7451
 03,-0.000718,-0.000005,54.1722491\PG=C01 [X(C7H7N1O2)]\NImag=1\\0.6978
 7776,0.04638845,0.71735218,-0.00000599,0.00000114,0.11993502,-0.176541
 39,0.11636411,0.00000154,0.73861306,0.05340539,-0.26788388,-0.00000097
 ,0.01937184,0.68065230,0.00000152,-0.00000180,-0.06136662,-0.00000640,
 0.00000105,0.13828884,0.05867041,-0.01664799,-0.00000045,-0.18167735,-
 0.07259910,0.00000102,0.65914430,0.02404235,-0.05681928,-0.00000051,-0
 .13173067,-0.32154846,0.00000085,0.00070829,0.76086336,-0.00000083,-0.
 00000002,0.00908535,0.00000109,0.00000023,-0.05590309,-0.00000569,0.00
 000183,0.11924172,-0.05336509,0.02964005,0.00000049,-0.01923478,-0.078
 88665,0.00000015,-0.28749658,0.03709481,0.00000258,0.68140381,0.022875
 70,-0.00403234,-0.00000034,-0.03764219,0.02034457,0.00000060,-0.017148
 23,-0.12270645,-0.00000018,0.03439828,0.72305331,0.00000069,-0.0000002
 8,-0.00527185,0.00000007,0.00000077,0.00145462,0.00000241,-0.00000048,
 -0.07057511,-0.00000612,0.00000069,0.16986004,-0.03857798,-0.02314889,
 0.00000052,-0.00201795,-0.01289454,0.,-0.01465777,0.02536935,0.0000000
 4,-0.18025984,0.07470989,0.00000166,0.63460879,-0.06389457,0.01975289,
 0.00000107,0.00573014,-0.04968241,-0.00000039,0.04839418,0.02848570,0.
 ,0.04471753,-0.22513110,-0.00000107,0.01440053,0.68443111,0.00000019,0
 .00000022,0.00934735,0.00000003,0.00000047,-0.00559774,0.00000053,-0.0
 0000061,0.00848483,0.00000199,-0.00000157,-0.06916106,-0.00000572,0.00
 000067,0.13264671,-0.36385001,-0.04168604,0.00000306,-0.03348344,0.073
 91020,0.00000050,-0.04359947,-0.02701377,0.00000063,0.06705029,-0.0084
 3660,-0.00000081,-0.14963306,-0.05424673,0.00000133,0.72952753,0.01946
 314,-0.12650387,-0.00000057,0.02823687,0.03202081,-0.00000030,-0.02189
 610,-0.01712073,0.00000064,0.02374282,-0.05194131,-0.00000046,-0.09301
 003,-0.27110532,0.00000115,-0.04513628,0.69453992,0.00000340,0.0000003
 9,-0.06223580,0.00000049,-0.00000110,0.00709139,0.00000028,0.00000039,
 -0.00406302,-0.00000080,0.00000053,0.00221030,0.00000102,-0.00000031,-
 0.05792934,-0.00000681,0.00000137,0.14088885,0.02002966,-0.00793449,-0
 .00000029,0.00099641,0.01395144,0.00000014,-0.00852572,-0.00092096,-0.
 00000017,-0.01034594,0.04138001,0.00000015,-0.20626668,0.00398424,0.00
 000198,-0.03646210,-0.02819795,0.00000102,0.73263708,-0.00180403,-0.00
 833576,-0.00000004,0.00025317,-0.00017063,0.00000009,0.00077056,-0.006
 54764,-0.00000031,0.03402250,0.02085109,-0.00000041,0.01688122,-0.1043
 5157,-0.00000053,-0.03246702,0.00750264,0.00000079,0.15311532,0.779863
 28,0.00000011,0.00000015,0.00751837,-0.00000011,-0.00000029,-0.0008972
 9,0.00000007,0.00000013,0.00597406,-0.00000015,-0.00000014,-0.00059249
 ,0.00000127,-0.00000040,-0.07603852,0.00000001,-0.00000025,-0.00378005
 ,-0.00000134,-0.00000733,0.20757946,-0.00206161,0.00170364,0.00000007,
 -0.00068458,-0.00094047,0.,-0.00004996,0.00196416,0.00000013,-0.006214
 01,-0.00997552,0.,-0.03365806,0.04247376,-0.00000091,-0.00263905,0.003
 27964,-0.00000020,-0.15714879,0.07719804,-0.00000221,0.64924860,0.0036
 5101,0.00029810,-0.00000007,-0.00003176,0.00149993,0.,-0.00032305,0.00
 093677,0.00000004,-0.00235629,0.00181953,0.00000012,0.02090832,-0.0033
 2148,0.00000050,-0.00467908,-0.00664611,-0.00000002,0.03726103,-0.2184
 0822,0.00000386,0.00308974,0.38729545,-0.00000011,0.,-0.00063112,0.000
 00002,0.00000012,-0.00008866,0.00000007,-0.00000013,-0.00076084,0.0000
 0011,-0.00000011,0.00255752,-0.00000010,0.00000032,0.01091692,0.000000
 15,0.00000012,0.00071123,-0.00000130,0.00000455,-0.06221931,-0.0000005
 4,-0.00000877,0.03510112,0.00923443,-0.00849406,-0.00000010,-0.0042843
 0,0.01658060,0.00000002,-0.04008441,-0.05761714,0.00000011,-0.17923303
 ,-0.08789688,0.00000083,0.03093339,0.01686528,-0.00000015,-0.01413814,
 -0.00187027,0.00000024,-0.01985005,-0.00985530,0.00000029,0.00216158,0
 .00332127,-0.00000013,0.85886134,0.00101770,-0.00810021,-0.00000002,0.
 00581314,0.00829585,0.00000006,-0.02863438,-0.01006240,0.00000008,-0.0
 9396391,-0.31850772,-0.00000118,0.00401485,-0.05037456,-0.00000055,0.0
 0034221,0.00048586,0.00000006,-0.02158597,-0.00555164,0.00000010,0.003
 49494,-0.00272613,0.00000013,-0.05238848,0.79824871,0.00000002,-0.0000
 0025,-0.00088420,0.00000034,0.00000033,0.00418615,-0.00000011,0.000000
 54,0.01092799,0.00000295,0.00000293,-0.03924525,0.00000063,-0.00000062
 ,0.00737165,-0.00000006,-0.00000003,0.00373442,-0.00000048,-0.00000013
 ,-0.00122337,0.00000010,-0.00000021,-0.00012066,-0.00001937,-0.0000126
 2,0.01380679,-0.00605547,-0.00007120,0.00000010,-0.00001405,-0.0045103
 3,-0.00000009,0.00285414,0.00059957,0.00000011,0.00053888,-0.01083546,
 -0.00000004,-0.03852288,-0.04538604,0.00000067,-0.00184550,0.00976433,
 -0.00000021,-0.29807728,-0.25095810,0.00000219,0.03579254,0.00146555,0
 .,0.00026947,0.01565513,0.00000006,0.31780548,-0.00760668,0.00427240,0
 .00000008,0.00017813,-0.00738026,-0.00000004,0.00626997,0.00349724,-0.
 00000001,-0.00663889,-0.02333798,0.00000005,-0.04187067,-0.00455030,0.
 00000051,0.00682967,0.00694635,-0.00000025,-0.24012318,-0.45397824,0.0
 0000361,-0.01641590,-0.10666429,0.00000239,0.02114573,0.00411961,0.000
 00025,0.29103998,0.56543550,-0.00000002,0.00000002,-0.00171464,0.00000
 002,-0.00000001,0.00037648,0.00000002,0.,-0.00071607,-0.00000006,0.000
 00005,-0.00059549,0.00000076,0.00000050,0.01924017,0.00000012,-0.00000
 003,0.00471093,0.00000178,0.00000306,-0.07615413,0.00000030,0.00000298
 ,0.02670425,0.00000007,-0.00000006,0.00239290,-0.00000319,-0.00000612,
 0.03544621,-0.12098462,-0.11803905,0.00000056,0.01168686,0.01666266,-0
 .00000005,-0.00151257,0.00288838,0.,-0.00099030,0.00081415,0.00000002,
 -0.00493663,0.00189394,0.00000007,-0.01081755,-0.02980366,0.00000012,0
 .00079003,-0.00166647,0.00000005,-0.00022801,0.00028806,-0.00000002,0.
 00037920,-0.00013602,0.,-0.00099110,-0.00023552,0.,0.12541938,-0.11821
 009,-0.28028994,0.00000048,-0.01497649,-0.01858973,0.00000017,0.004187
 23,-0.00227015,-0.00000023,0.00087222,0.00007971,0.00000002,0.00041895
 ,0.00162279,-0.00000020,0.00179951,0.00302822,0.00000015,0.00049174,-0
 .00001801,0.00000010,-0.00018739,0.00013206,-0.00000004,-0.00023274,0.
 00012991,0.00000002,-0.00017026,-0.00000205,0.,0.12669526,0.29549312,0
 .00000059,0.00000049,-0.03079809,-0.00000016,-0.00000028,0.00091412,0.
 00000005,0.,0.00545010,0.00000006,-0.00000003,-0.00037647,0.00000017,-
 0.00000005,0.00696797,0.00000010,0.00000037,0.00140785,-0.00000002,0.,
 0.00138512,0.,0.,-0.00002277,-0.00000001,0.,-0.00053393,0.00000001,0.0
 0000002,-0.00059128,-0.00000069,-0.00000053,0.02358251,-0.01168159,-0.
 00345714,0.00000015,-0.33865417,-0.00689568,0.00000313,-0.01081740,0.0
 0205938,0.00000022,0.00129145,-0.00221744,0.00000008,0.00068738,-0.000
 03030,0.00000005,0.00013682,0.00359803,0.,0.00024688,0.00005500,-0.000
 00005,-0.00019786,0.00006832,0.,-0.00096737,-0.00001810,0.,-0.00018629
 ,-0.00007344,0.,0.00080569,0.00019672,-0.00000003,0.35894310,0.0271018
 0,0.00647648,-0.00000028,-0.00609494,-0.06023525,0.00000003,-0.0286468
 1,0.00345960,0.00000029,-0.00202027,-0.00502006,-0.00000004,-0.0005097
 0,-0.00105066,0.00000001,0.00291782,-0.00477720,-0.00000006,0.00036765
 ,-0.00021151,0.,-0.00000582,0.00021987,0.,-0.00138902,0.00066355,0.000
 00007,-0.00006300,0.00004286,0.,-0.00057079,0.00093511,0.00000002,0.00
 738948,0.05867408,0.00000023,0.00000005,0.00436464,0.00000312,0.,-0.03
 951184,0.00000005,-0.00000002,0.00430555,0.00000012,-0.00000003,0.0084
 5963,-0.00000001,-0.00000005,-0.00065104,0.00000008,-0.00000002,0.0061
 8267,0.,0.,-0.00111289,0.,0.,0.00019435,0.,0.,-0.00014408,0.,0.0000000
 1,0.00013010,-0.00000004,0.00000001,-0.00329803,-0.00000348,0.,0.02612
 549,-0.00053553,-0.00300404,0.00000007,0.01176213,-0.01411150,-0.00000
 016,-0.13830698,0.12516604,0.00000163,-0.01267214,0.02873077,0.0000003
 2,-0.00481790,-0.00223926,0.00000021,-0.00107729,-0.00114400,-0.000000
 07,0.00040330,0.00166361,-0.00000007,-0.00081244,0.00004951,0.,0.00210
 979,0.00107558,-0.00000017,-0.00010856,-0.00036564,0.,0.00043215,-0.00
 073704,0.,0.00093510,0.00028482,-0.00000006,0.14360388,-0.00437902,-0.
 00263378,0.,0.01738535,-0.01990076,-0.00000023,0.12556527,-0.25534487,
 -0.00000214,-0.00360683,0.00143411,0.00000007,-0.00019368,0.00132447,-
 0.00000011,-0.00078743,0.00009837,0.00000009,-0.00104151,-0.00019091,0
 .00000006,0.00018137,-0.00004877,-0.00000002,-0.00095872,0.00223499,0.
 ,0.00032249,0.00041299,0.,0.00088014,-0.00103182,0.,-0.00021067,0.0009
 7591,0.00000003,-0.13413919,0.27228772,0.00000008,0.00000005,0.0071404
 4,-0.00000007,0.00000011,0.00217952,0.00000161,-0.00000213,-0.03179019
 ,0.00000008,-0.00000022,0.00380195,0.00000014,-0.00000005,0.00466857,0
 .00000001,-0.00000006,-0.00059539,0.00000004,0.00000002,0.00011585,0.,
 -0.00000001,-0.00005304,0.00000003,-0.00000008,-0.00273361,-0.00000002
 ,-0.00000001,0.00000080,0.,0.00000002,0.00062951,-0.00000008,0.0000000
 1,-0.00458592,-0.00000181,0.00000224,0.02219897,-0.01073863,0.02704302
 ,0.00000025,-0.00567047,-0.00127530,0.00000013,-0.00040802,-0.00096330
 ,0.00000004,-0.00154182,-0.00309430,0.00000007,0.01120592,-0.01307919,
 -0.00000011,-0.14110490,0.13203053,0.00000154,0.00148850,-0.00161660,0
 .,-0.00461838,-0.00066960,-0.00000007,0.00054005,-0.00070830,0.,0.0002
 0422,0.00094852,-0.00000003,0.00107608,-0.00028356,-0.00000005,-0.0006
 4292,0.00132391,0.,0.00007155,0.00009490,-0.00000002,0.15006577,-0.003
 08001,0.00618640,0.00000004,-0.00098684,0.00106925,0.00000002,-0.00042
 243,0.00020683,-0.00000009,-0.00422863,-0.00235336,0.00000003,0.014973
 46,-0.01903249,-0.00000033,0.12901611,-0.26402549,-0.00000193,0.002696
 27,-0.00277976,0.00000013,0.00055940,0.00172291,-0.00000004,0.00114476
 ,-0.00084527,0.00000004,-0.00030342,0.00093307,-0.00000002,0.00029154,
 0.00076559,0.,-0.00026973,0.00019119,0.,0.00010693,-0.00000062,0.00000
 002,-0.13947343,0.27760264,0.00000014,-0.00000032,0.00535210,0.0000001
 4,-0.00000009,0.00761200,-0.00000004,0.00000006,-0.00078243,0.00000011
 ,0.00000006,0.00548459,-0.00000006,-0.00000006,0.00329875,0.00000155,-
 0.00000192,-0.03894419,0.00000004,0.00000003,-0.00357405,-0.00000007,0
 .00000001,0.00044004,0.,0.,0.00035945,0.,0.00000003,0.00050975,-0.0000
 0006,0.00000004,-0.00459614,0.00000001,-0.00000002,-0.00020333,0.,0.00
 000001,-0.00079647,-0.00000175,0.00000217,0.02612749,0.00049842,-0.000
 25646,0.,0.00007806,0.00030180,-0.00000003,-0.00013639,0.00036607,0.00
 000005,-0.00089817,-0.00011365,-0.00000006,0.00258603,0.00300858,-0.00
 000010,0.00036854,-0.00025178,0.,-0.03304151,0.00575969,0.00000002,-0.
 47772702,-0.05809416,0.00000182,0.00045911,-0.00058488,-0.00000002,0.0
 0278759,-0.00865552,0.00000015,0.00001421,0.00002109,-0.00000001,0.000
 03230,0.00000138,0.,-0.00006133,-0.00002934,0.,-0.00009128,-0.00003250
 ,0.,0.50561851,-0.00026243,0.00041899,0.,-0.00016121,-0.00016437,0.000
 00001,0.00011010,-0.00045767,-0.00000005,0.00157389,0.00085656,0.00000
 001,0.00109644,-0.00675150,0.00000022,-0.00085060,-0.00062631,0.,0.054
 99101,0.00735490,0.,-0.10682207,-0.06087385,0.00000166,-0.00054215,0.0
 0024726,0.,-0.00780385,0.00144166,-0.00000023,-0.00003149,-0.00002078,
 0.,-0.00004191,0.00003392,0.,0.00013228,0.00001425,0.,0.00010623,0.000
 70937,0.00000002,0.05796680,0.05849430,0.00000005,0.,0.00019052,0.,-0.
 00000010,0.00006484,-0.00000008,0.00000010,-0.00033959,-0.00000004,0.0
 0000011,0.00103705,0.00000028,0.00000011,0.00386282,-0.00000004,-0.000
 00004,-0.00039257,-0.00000192,0.00000004,0.00339673,0.00000341,0.00000
 148,-0.01343360,-0.00000003,-0.00000005,-0.00004439,0.00000021,-0.0000
 0010,-0.00567070,0.00000001,0.00000004,-0.00000994,0.,0.,-0.00002937,-
 0.00000002,0.00000002,-0.00002155,0.,0.00000001,-0.00029367,-0.0000018
 5,-0.00000163,0.01161495,-0.00226202,0.00218022,0.00000005,-0.00064685
 ,-0.00324033,0.00000002,0.00590573,0.00143351,0.00000014,-0.01295537,-
 0.01226664,0.00000045,-0.00630454,0.00158111,-0.00000005,0.00130222,0.
 00159947,-0.00000007,0.01650906,0.01147932,-0.00000019,-0.00155611,-0.
 00485013,0.00000021,-0.44447849,-0.01958276,0.00001886,-0.01262081,-0.
 00903754,0.,-0.00009104,0.00002838,0.,0.00008237,-0.00009211,-0.000000
 02,-0.00013441,0.00011566,0.,0.00025735,0.00024016,0.,-0.00056685,0.00
 070954,-0.00000002,0.45801398,0.00200795,-0.00114734,-0.00000002,-0.00
 152899,0.00293679,-0.00000002,-0.00276668,-0.00738759,0.00000002,-0.03
 302532,0.00916991,0.00000155,0.00444920,0.00058454,-0.00000005,-0.0015
 9463,-0.00139184,0.,-0.00881460,-0.01454671,0.00000025,0.00054030,0.00
 416426,-0.00000014,-0.02121834,-0.07512295,0.00000174,0.00198404,0.007
 94946,-0.00000012,0.00012690,-0.00002321,0.,-0.00021639,-0.00042503,0.
 ,-0.00009817,0.00019721,0.,-0.00008827,-0.00004551,0.,0.00048587,-0.00
 060436,0.00000001,0.03382330,0.06867026,-0.00000005,0.00000010,0.00011
 678,-0.00000007,-0.00000012,0.00201485,0.00000010,-0.00000015,0.003814
 60,-0.00000118,-0.00000072,-0.00421952,-0.00000016,0.00000013,-0.00111
 417,0.00000007,0.00000002,-0.00060789,0.00000005,0.,-0.00029337,-0.000
 00001,0.00000005,0.00128346,0.00002240,0.00000272,-0.00152634,0.000000
 06,-0.00000009,-0.00485442,0.,-0.00000001,-0.00014910,0.,-0.00000002,-
 0.00039272,0.00000003,-0.00000001,-0.00078246,0.,-0.00000001,-0.000031
 01,0.,0.,0.00009073,-0.00001956,-0.00000163,0.01222630,0.00034327,-0.0
 0058014,-0.00000003,-0.00022721,0.00116996,0.00000008,0.00069804,-0.00
 344606,-0.00000008,0.01492264,-0.01328189,0.00000029,-0.00036822,-0.00
 417321,-0.00000002,0.00026512,-0.00040476,0.00000003,-0.00338285,-0.00
 283090,0.00000011,0.00039318,0.00090125,-0.00000010,-0.20191259,0.1861
 8925,-0.00000274,-0.00183040,0.00461099,0.00000008,-0.00005177,0.00008
 650,0.,-0.00001348,0.00000559,0.00000001,-0.00079130,0.00080123,-0.000
 00003,-0.00009302,-0.00023163,0.00000001,0.00007979,-0.00017057,0.0000
 0003,-0.00045422,0.02593383,-0.00000168,0.19242302,-0.00071666,0.00098
 896,0.00000002,-0.00017965,-0.00126374,-0.00000010,0.00307919,0.002815
 75,-0.00000012,0.01866470,-0.02457848,0.00000061,-0.00559470,-0.000850
 12,0.00000020,0.00208266,-0.00048399,-0.00000009,0.00037994,-0.0004813
 0,0.00000004,-0.00013784,0.00059996,-0.00000003,0.18340546,-0.34313487
 ,0.00000795,-0.00072942,0.00086196,0.,-0.00005803,0.00005915,0.0000000
 1,0.00006387,0.00004711,0.,-0.00137069,0.00017150,0.00000009,-0.000295
 24,-0.00030475,0.,0.00010701,-0.00007237,0.,-0.00412117,0.00702211,-0.
 00000025,-0.19457943,0.35860312,-0.00000002,0.00000007,-0.00014826,-0.
 00000002,-0.00000011,-0.00081759,0.00000016,0.00000015,-0.00235386,-0.
 00000029,-0.00000163,-0.00482846,-0.00000046,0.00000020,0.00368612,0.0
 0000010,0.00000001,0.00161061,0.00000033,0.00000016,-0.00008412,-0.000
 00006,0.00000004,-0.00057889,-0.00000420,0.00001142,0.00367647,0.00000
 013,-0.00000032,0.00078513,0.,-0.00000002,0.00003858,0.00000002,0.,0.0
 0016679,0.00000009,0.,0.00062301,0.,-0.00000003,0.00003711,0.00000001,
 0.,-0.00002225,0.00000019,-0.00000159,-0.00557574,0.00000403,-0.000008
 35,0.00378534\\-0.00001660,0.00000938,-0.00000012,0.00000074,-0.000017
 30,0.00000004,0.00001325,0.00001029,-0.00000015,-0.00001036,-0.0000231
 5,0.00000037,-0.00004614,0.00000614,0.00000133,0.00001198,0.00000644,0
 .00000020,0.00003063,0.00005462,-0.00000527,0.00002701,0.00002985,0.00
 000171,0.00000613,-0.00001639,0.00000005,-0.00002393,-0.00006377,0.000
 00203,0.00000471,0.00000181,-0.00000005,0.00000438,0.00000117,0.000000
 01,0.00000088,-0.00000560,0.,-0.00001118,0.00000768,0.00000001,0.00001
 254,-0.00001311,0.,-0.00001258,0.00001151,-0.00000025,0.00000854,0.000
 00046,0.00000011\\\@


 IF IT HAPPENS, IT MUST BE POSSIBLE.

 -- THE UNNAMED LAW FROM PAUL DICKSON'S 
    "THE OFFICIAL RULES"
 Job cpu time:       0 days  0 hours 21 minutes 34.2 seconds.
 File lengths (MBytes):  RWF=     93 Int=      0 D2E=      0 Chk=      5 Scr=      1
 Normal termination of Gaussian 09 at Sat Jun 22 17:14:04 2024.
