 Entering Gaussian System, Link 0=g09
 Input=gd3b3lypAnthranilicyang.gjf
 Output=gd3b3lypAnthranilicyang.log
 Initial command:
 /home/phzd/g09E/g09/l1.exe "/home/phzd/g09E/scratch/Gau-132948.inp" -scrdir="/home/phzd/g09E/scratch/"
 Default is to use a total of  18 processors:
                               18 via shared-memory
                                1 via Linda
 Entering Link 1 = /home/phzd/g09E/g09/l1.exe PID=    132950.
  
 Copyright (c) 1988,1990,1992,1993,1995,1998,2003,2009,2015,
            Gaussian, Inc.  All Rights Reserved.
  
 This is part of the Gaussian(R) 09 program.  It is based on
 the Gaussian(R) 03 system (copyright 2003, Gaussian, Inc.),
 the Gaussian(R) 98 system (copyright 1998, Gaussian, Inc.),
 the Gaussian(R) 94 system (copyright 1995, Gaussian, Inc.),
 the Gaussian 92(TM) system (copyright 1992, Gaussian, Inc.),
 the Gaussian 90(TM) system (copyright 1990, Gaussian, Inc.),
 the Gaussian 88(TM) system (copyright 1988, Gaussian, Inc.),
 the Gaussian 86(TM) system (copyright 1986, Carnegie Mellon
 University), and the Gaussian 82(TM) system (copyright 1983,
 Carnegie Mellon University). Gaussian is a federally registered
 trademark of Gaussian, Inc.
  
 This software contains proprietary and confidential information,
 including trade secrets, belonging to Gaussian, Inc.
  
 This software is provided under written license and may be
 used, copied, transmitted, or stored only in accord with that
 written license.
  
 The following legend is applicable only to US Government
 contracts under FAR:
  
                    RESTRICTED RIGHTS LEGEND
  
 Use, reproduction and disclosure by the US Government is
 subject to restrictions as set forth in subparagraphs (a)
 and (c) of the Commercial Computer Software - Restricted
 Rights clause in FAR 52.227-19.
  
 Gaussian, Inc.
 340 Quinnipiac St., Bldg. 40, Wallingford CT 06492
  
  
 ---------------------------------------------------------------
 Warning -- This program may not be used in any manner that
 competes with the business of Gaussian, Inc. or will provide
 assistance to any competitor of Gaussian, Inc.  The licensee
 of this program is prohibited from giving any competitor of
 Gaussian, Inc. access to this program.  By using this program,
 the user acknowledges that Gaussian, Inc. is engaged in the
 business of creating and licensing software in the field of
 computational chemistry and represents and warrants to the
 licensee that it is not a competitor of Gaussian, Inc. and that
 it will not use this program in any manner prohibited above.
 ---------------------------------------------------------------
  

 Cite this work as:
 Gaussian 09, Revision E.01,
 M. J. Frisch, G. W. Trucks, H. B. Schlegel, G. E. Scuseria, 
 M. A. Robb, J. R. Cheeseman, G. Scalmani, V. Barone, B. Mennucci, 
 G. A. Petersson, H. Nakatsuji, M. Caricato, X. Li, H. P. Hratchian, 
 A. F. Izmaylov, J. Bloino, G. Zheng, J. L. Sonnenberg, M. Hada, 
 M. Ehara, K. Toyota, R. Fukuda, J. Hasegawa, M. Ishida, T. Nakajima, 
 Y. Honda, O. Kitao, H. Nakai, T. Vreven, J. A. Montgomery, Jr., 
 J. E. Peralta, F. Ogliaro, M. Bearpark, J. J. Heyd, E. Brothers, 
 K. N. Kudin, V. N. Staroverov, T. Keith, R. Kobayashi, J. Normand, 
 K. Raghavachari, A. Rendell, J. C. Burant, S. S. Iyengar, J. Tomasi, 
 M. Cossi, N. Rega, J. M. Millam, M. Klene, J. E. Knox, J. B. Cross, 
 V. Bakken, C. Adamo, J. Jaramillo, R. Gomperts, R. E. Stratmann, 
 O. Yazyev, A. J. Austin, R. Cammi, C. Pomelli, J. W. Ochterski, 
 R. L. Martin, K. Morokuma, V. G. Zakrzewski, G. A. Voth, 
 P. Salvador, J. J. Dannenberg, S. Dapprich, A. D. Daniels, 
 O. Farkas, J. B. Foresman, J. V. Ortiz, J. Cioslowski, 
 and D. J. Fox, Gaussian, Inc., Wallingford CT, 2013.
 
 ******************************************
 Gaussian 09:  ES64L-G09RevE.01 30-Nov-2015
                22-Jun-2024 
 ******************************************
 %chk=gd3b3lypAnthranilicyang.chk
 -------------------------------------
 # opt freq b3lyp/6-31+g(d,p) em=gd3bj
 -------------------------------------
 1/14=-1,18=20,19=15,26=3,38=1/1,3;
 2/9=110,12=2,17=6,18=5,40=1/2;
 3/5=1,6=6,7=111,11=2,16=1,25=1,30=1,71=1,74=-5,124=41/1,2,3;
 4//1;
 5/5=2,38=5/2;
 6/7=2,8=2,9=2,10=2,28=1/1;
 7//1,2,3,16;
 1/14=-1,18=20,19=15,26=3/3(2);
 2/9=110/2;
 99//99;
 2/9=110/2;
 3/5=1,6=6,7=111,11=2,16=1,25=1,30=1,71=1,74=-5,124=41/1,2,3;
 4/5=5,16=3,69=1/1;
 5/5=2,38=5/2;
 7//1,2,3,16;
 1/14=-1,18=20,19=15,26=3/3(-5);
 2/9=110/2;
 6/7=2,8=2,9=2,10=2,19=2,28=1/1;
 99/9=1/99;
 ----------
 [No Title]
 ----------
 Symbolic Z-matrix:
 Charge =  1 Multiplicity = 1
 C                    -1.93939  -1.47584  -0.0003 
 C                    -2.62312  -0.25842   0.00012 
 C                    -1.91407   0.94845   0.00037 
 C                    -0.5284    0.91123   0.00015 
 C                     0.18707  -0.3019   -0.00007 
 C                    -0.54476  -1.49913  -0.0003 
 C                     1.67336  -0.3022   0. 
 O                     2.22273  -1.5063    0.00051 
 N                     0.23835   2.18198  -0.00008 
 O                     2.34896   0.73349  -0.00035 
 H                    -2.4921   -2.40916  -0.00063 
 H                    -3.70788  -0.2395    0.00021 
 H                    -2.44514   1.8964    0.00077 
 H                    -0.01099  -2.44225  -0.00035 
 H                     3.19406  -1.4217    0.00047 
 H                     0.04136   2.75161   0.82897 
 H                     1.2724    1.88936   0.00009 
 H                     0.04211   2.75063  -0.83 
 

 GradGradGradGradGradGradGradGradGradGradGradGradGradGradGradGradGradGrad
 Berny optimization.
 Initialization pass.
                           ----------------------------
                           !    Initial Parameters    !
                           ! (Angstroms and Degrees)  !
 --------------------------                            --------------------------
 ! Name  Definition              Value          Derivative Info.                !
 --------------------------------------------------------------------------------
 ! R1    R(1,2)                  1.3963         estimate D2E/DX2                !
 ! R2    R(1,6)                  1.3948         estimate D2E/DX2                !
 ! R3    R(1,11)                 1.0847         estimate D2E/DX2                !
 ! R4    R(2,3)                  1.3997         estimate D2E/DX2                !
 ! R5    R(2,12)                 1.0849         estimate D2E/DX2                !
 ! R6    R(3,4)                  1.3862         estimate D2E/DX2                !
 ! R7    R(3,13)                 1.0866         estimate D2E/DX2                !
 ! R8    R(4,5)                  1.4084         estimate D2E/DX2                !
 ! R9    R(4,9)                  1.4842         estimate D2E/DX2                !
 ! R10   R(5,6)                  1.4032         estimate D2E/DX2                !
 ! R11   R(5,7)                  1.4863         estimate D2E/DX2                !
 ! R12   R(6,14)                 1.0837         estimate D2E/DX2                !
 ! R13   R(7,8)                  1.3235         estimate D2E/DX2                !
 ! R14   R(7,10)                 1.2366         estimate D2E/DX2                !
 ! R15   R(8,15)                 0.975          estimate D2E/DX2                !
 ! R16   R(9,16)                 1.025          estimate D2E/DX2                !
 ! R17   R(9,17)                 1.0747         estimate D2E/DX2                !
 ! R18   R(9,18)                 1.025          estimate D2E/DX2                !
 ! A1    A(2,1,6)              120.2761         estimate D2E/DX2                !
 ! A2    A(2,1,11)             120.0466         estimate D2E/DX2                !
 ! A3    A(6,1,11)             119.6774         estimate D2E/DX2                !
 ! A4    A(1,2,3)              120.2459         estimate D2E/DX2                !
 ! A5    A(1,2,12)             120.3186         estimate D2E/DX2                !
 ! A6    A(3,2,12)             119.4355         estimate D2E/DX2                !
 ! A7    A(2,3,4)              118.896          estimate D2E/DX2                !
 ! A8    A(2,3,13)             120.306          estimate D2E/DX2                !
 ! A9    A(4,3,13)             120.798          estimate D2E/DX2                !
 ! A10   A(3,4,5)              122.0696         estimate D2E/DX2                !
 ! A11   A(3,4,9)              119.5674         estimate D2E/DX2                !
 ! A12   A(5,4,9)              118.363          estimate D2E/DX2                !
 ! A13   A(4,5,6)              118.033          estimate D2E/DX2                !
 ! A14   A(4,5,7)              120.5423         estimate D2E/DX2                !
 ! A15   A(6,5,7)              121.4247         estimate D2E/DX2                !
 ! A16   A(1,6,5)              120.4795         estimate D2E/DX2                !
 ! A17   A(1,6,14)             120.4648         estimate D2E/DX2                !
 ! A18   A(5,6,14)             119.0557         estimate D2E/DX2                !
 ! A19   A(5,7,8)              114.5363         estimate D2E/DX2                !
 ! A20   A(5,7,10)             123.1059         estimate D2E/DX2                !
 ! A21   A(8,7,10)             122.3579         estimate D2E/DX2                !
 ! A22   A(7,8,15)             109.547          estimate D2E/DX2                !
 ! A23   A(4,9,16)             112.1121         estimate D2E/DX2                !
 ! A24   A(4,9,17)             105.3054         estimate D2E/DX2                !
 ! A25   A(4,9,18)             112.0996         estimate D2E/DX2                !
 ! A26   A(16,9,17)            109.6413         estimate D2E/DX2                !
 ! A27   A(16,9,18)            108.0461         estimate D2E/DX2                !
 ! A28   A(17,9,18)            109.5972         estimate D2E/DX2                !
 ! D1    D(6,1,2,3)              0.0083         estimate D2E/DX2                !
 ! D2    D(6,1,2,12)          -179.9943         estimate D2E/DX2                !
 ! D3    D(11,1,2,3)          -179.9921         estimate D2E/DX2                !
 ! D4    D(11,1,2,12)            0.0052         estimate D2E/DX2                !
 ! D5    D(2,1,6,5)             -0.0092         estimate D2E/DX2                !
 ! D6    D(2,1,6,14)           179.9827         estimate D2E/DX2                !
 ! D7    D(11,1,6,5)           179.9912         estimate D2E/DX2                !
 ! D8    D(11,1,6,14)           -0.0169         estimate D2E/DX2                !
 ! D9    D(1,2,3,4)              0.0022         estimate D2E/DX2                !
 ! D10   D(1,2,3,13)          -179.9955         estimate D2E/DX2                !
 ! D11   D(12,2,3,4)          -179.9951         estimate D2E/DX2                !
 ! D12   D(12,2,3,13)            0.0072         estimate D2E/DX2                !
 ! D13   D(2,3,4,5)             -0.0122         estimate D2E/DX2                !
 ! D14   D(2,3,4,9)            179.9784         estimate D2E/DX2                !
 ! D15   D(13,3,4,5)           179.9855         estimate D2E/DX2                !
 ! D16   D(13,3,4,9)            -0.0239         estimate D2E/DX2                !
 ! D17   D(3,4,5,6)              0.0112         estimate D2E/DX2                !
 ! D18   D(3,4,5,7)           -179.9863         estimate D2E/DX2                !
 ! D19   D(9,4,5,6)           -179.9795         estimate D2E/DX2                !
 ! D20   D(9,4,5,7)              0.023          estimate D2E/DX2                !
 ! D21   D(3,4,9,16)            60.8162         estimate D2E/DX2                !
 ! D22   D(3,4,9,17)           179.9828         estimate D2E/DX2                !
 ! D23   D(3,4,9,18)           -60.9105         estimate D2E/DX2                !
 ! D24   D(5,4,9,16)          -119.1928         estimate D2E/DX2                !
 ! D25   D(5,4,9,17)            -0.0262         estimate D2E/DX2                !
 ! D26   D(5,4,9,18)           119.0804         estimate D2E/DX2                !
 ! D27   D(4,5,6,1)             -0.0004         estimate D2E/DX2                !
 ! D28   D(4,5,6,14)          -179.9924         estimate D2E/DX2                !
 ! D29   D(7,5,6,1)            179.9971         estimate D2E/DX2                !
 ! D30   D(7,5,6,14)             0.0051         estimate D2E/DX2                !
 ! D31   D(4,5,7,8)            179.9649         estimate D2E/DX2                !
 ! D32   D(4,5,7,10)            -0.033          estimate D2E/DX2                !
 ! D33   D(6,5,7,8)             -0.0325         estimate D2E/DX2                !
 ! D34   D(6,5,7,10)           179.9696         estimate D2E/DX2                !
 ! D35   D(5,7,8,15)           179.9967         estimate D2E/DX2                !
 ! D36   D(10,7,8,15)           -0.0054         estimate D2E/DX2                !
 --------------------------------------------------------------------------------
 Trust Radius=3.00D-01 FncErr=1.00D-07 GrdErr=1.00D-06
 Number of steps in this run=     92 maximum allowed number of steps=    108.
 GradGradGradGradGradGradGradGradGradGradGradGradGradGradGradGradGradGrad

                          Input orientation:                          
 ---------------------------------------------------------------------
 Center     Atomic      Atomic             Coordinates (Angstroms)
 Number     Number       Type             X           Y           Z
 ---------------------------------------------------------------------
      1          6           0       -1.939390   -1.475838   -0.000302
      2          6           0       -2.623116   -0.258417    0.000119
      3          6           0       -1.914065    0.948453    0.000370
      4          6           0       -0.528397    0.911229    0.000146
      5          6           0        0.187071   -0.301902   -0.000072
      6          6           0       -0.544756   -1.499127   -0.000301
      7          6           0        1.673355   -0.302199   -0.000002
      8          8           0        2.222725   -1.506299    0.000512
      9          7           0        0.238354    2.181978   -0.000079
     10          8           0        2.348961    0.733494   -0.000352
     11          1           0       -2.492101   -2.409155   -0.000625
     12          1           0       -3.707882   -0.239496    0.000211
     13          1           0       -2.445144    1.896404    0.000772
     14          1           0       -0.010986   -2.442250   -0.000345
     15          1           0        3.194062   -1.421697    0.000471
     16          1           0        0.041360    2.751607    0.828966
     17          1           0        1.272402    1.889357    0.000085
     18          1           0        0.042110    2.750631   -0.830004
 ---------------------------------------------------------------------
                    Distance matrix (angstroms):
                    1          2          3          4          5
     1  C    0.000000
     2  C    1.396279   0.000000
     3  C    2.424423   1.399746   0.000000
     4  C    2.772903   2.399150   1.386168   0.000000
     5  C    2.428984   2.810523   2.445028   1.408397   0.000000
     6  C    1.394828   2.420525   2.804578   2.410412   1.403182
     7  C    3.798599   4.296694   3.799173   2.513985   1.486284
     8  O    4.162227   5.003937   4.810285   3.662392   2.365261
     9  N    4.257016   3.760790   2.480825   1.484153   2.484409
    10  O    4.824013   5.070053   4.268442   2.882842   2.397043
    11  H    1.084698   2.154725   3.407001   3.857601   3.408589
    12  H    2.157801   1.084931   2.151512   3.381315   3.895453
    13  H    3.409957   2.162158   1.086580   2.155108   3.429447
    14  H    2.157010   3.404754   3.888261   3.393160   2.149492
    15  H    5.133738   5.932350   5.631214   4.393091   3.208728
    16  H    4.741555   4.104469   2.785969   2.097274   3.167405
    17  H    4.651897   4.448370   3.322480   2.049295   2.445314
    18  H    4.741075   4.104498   2.786393   2.097147   3.166664
                    6          7          8          9         10
     6  C    0.000000
     7  C    2.520447   0.000000
     8  O    2.767490   1.323505   0.000000
     9  N    3.763482   2.868861   4.188212   0.000000
    10  O    3.654886   1.236569   2.243348   2.559837   0.000000
    11  H    2.149489   4.668007   4.800493   5.341712   5.771666
    12  H    3.404708   5.381602   6.064395   4.629937   6.134497
    13  H    3.891157   4.668607   5.776451   2.698651   4.933133
    14  H    1.083693   2.723384   2.421873   4.630945   3.956602
    15  H    3.739620   1.888339   0.975014   4.660760   2.314961
    16  H    4.370350   3.560383   4.855353   1.024988   3.175779
    17  H    3.844982   2.227932   3.526130   1.074655   1.579557
    18  H    4.369584   3.559443   4.854513   1.025014   3.174701
                   11         12         13         14         15
    11  H    0.000000
    12  H    2.487075   0.000000
    13  H    4.305815   2.481245   0.000000
    14  H    2.481336   4.303390   4.974841   0.000000
    15  H    5.771267   7.002459   6.542969   3.363608   0.000000
    16  H    5.808624   4.867273   2.756806   5.259909   5.295508
    17  H    5.713903   5.416202   3.717553   4.517732   3.828297
    18  H    5.808054   4.867500   2.757957   5.259008   5.294602
                   16         17         18
    16  H    0.000000
    17  H    1.716387   0.000000
    18  H    1.658970   1.715943   0.000000
 Stoichiometry    C7H8NO2(1+)
 Framework group  C1[X(C7H8NO2)]
 Deg. of freedom    48
 Full point group                 C1      NOp   1
 Largest Abelian subgroup         C1      NOp   1
 Largest concise Abelian subgroup C1      NOp   1
                         Standard orientation:                         
 ---------------------------------------------------------------------
 Center     Atomic      Atomic             Coordinates (Angstroms)
 Number     Number       Type             X           Y           Z
 ---------------------------------------------------------------------
      1          6           0        1.939390   -1.475838    0.000302
      2          6           0        2.623116   -0.258417   -0.000119
      3          6           0        1.914065    0.948453   -0.000370
      4          6           0        0.528397    0.911229   -0.000146
      5          6           0       -0.187071   -0.301902    0.000072
      6          6           0        0.544756   -1.499127    0.000301
      7          6           0       -1.673355   -0.302199    0.000002
      8          8           0       -2.222725   -1.506299   -0.000512
      9          7           0       -0.238354    2.181978    0.000079
     10          8           0       -2.348961    0.733494    0.000352
     11          1           0        2.492101   -2.409155    0.000625
     12          1           0        3.707882   -0.239497   -0.000211
     13          1           0        2.445144    1.896404   -0.000772
     14          1           0        0.010986   -2.442250    0.000345
     15          1           0       -3.194062   -1.421697   -0.000471
     16          1           0       -0.041360    2.751607   -0.828966
     17          1           0       -1.272402    1.889357   -0.000085
     18          1           0       -0.042110    2.750631    0.830004
 ---------------------------------------------------------------------
 Rotational constants (GHZ):      2.2343428      1.2032867      0.7854672
 Standard basis: 6-31+G(d,p) (6D, 7F)
 There are   230 symmetry adapted cartesian basis functions of A   symmetry.
 There are   230 symmetry adapted basis functions of A   symmetry.
   230 basis functions,   376 primitive gaussians,   230 cartesian basis functions
    36 alpha electrons       36 beta electrons
       nuclear repulsion energy       514.1645139868 Hartrees.
 NAtoms=   18 NActive=   18 NUniq=   18 SFac= 1.00D+00 NAtFMM=   60 NAOKFM=F Big=F
 Integral buffers will be    131072 words long.
 Raffenetti 2 integral format.
 Two-electron integral symmetry is turned on.
 Nuclear repulsion after empirical dispersion term =      514.1315580794 Hartrees.
 One-electron integrals computed using PRISM.
 NBasis=   230 RedAO= T EigKep=  2.28D-06  NBF=   230
 NBsUse=   230 1.00D-06 EigRej= -1.00D+00 NBFU=   230
 ExpMin= 4.38D-02 ExpMax= 5.48D+03 ExpMxC= 8.25D+02 IAcc=2 IRadAn=         4 AccDes= 0.00D+00
 Harris functional with IExCor=  402 and IRadAn=       4 diagonalized for initial guess.
 HarFok:  IExCor=  402 AccDes= 0.00D+00 IRadAn=         4 IDoV= 1 UseB2=F ITyADJ=14
 ICtDFT=  3500011 ScaDFX=  1.000000  1.000000  1.000000  1.000000
 FoFCou: FMM=F IPFlag=           0 FMFlag=      100000 FMFlg1=           0
         NFxFlg=           0 DoJE=T BraDBF=F KetDBF=T FulRan=T
         wScrn=  0.000000 ICntrl=     500 IOpCl=  0 I1Cent=   200000004 NGrid=           0
         NMat0=    1 NMatS0=      1 NMatT0=    0 NMatD0=    1 NMtDS0=    0 NMtDT0=    0
 Petite list used in FoFCou.
 Keep R1 ints in memory in canonical form, NReq=359209085.
 Requested convergence on RMS density matrix=1.00D-08 within 128 cycles.
 Requested convergence on MAX density matrix=1.00D-06.
 Requested convergence on             energy=1.00D-06.
 No special actions if energy rises.
 SCF Done:  E(RB3LYP) =  -476.610132133     A.U. after   15 cycles
            NFock= 15  Conv=0.31D-08     -V/T= 2.0095

 **********************************************************************

            Population analysis using the SCF density.

 **********************************************************************

 Orbital symmetries:
       Occupied  (A) (A) (A) (A) (A) (A) (A) (A) (A) (A) (A) (A)
                 (A) (A) (A) (A) (A) (A) (A) (A) (A) (A) (A) (A)
                 (A) (A) (A) (A) (A) (A) (A) (A) (A) (A) (A) (A)
       Virtual   (A) (A) (A) (A) (A) (A) (A) (A) (A) (A) (A) (A)
                 (A) (A) (A) (A) (A) (A) (A) (A) (A) (A) (A) (A)
                 (A) (A) (A) (A) (A) (A) (A) (A) (A) (A) (A) (A)
                 (A) (A) (A) (A) (A) (A) (A) (A) (A) (A) (A) (A)
                 (A) (A) (A) (A) (A) (A) (A) (A) (A) (A) (A) (A)
                 (A) (A) (A) (A) (A) (A) (A) (A) (A) (A) (A) (A)
                 (A) (A) (A) (A) (A) (A) (A) (A) (A) (A) (A) (A)
                 (A) (A) (A) (A) (A) (A) (A) (A) (A) (A) (A) (A)
                 (A) (A) (A) (A) (A) (A) (A) (A) (A) (A) (A) (A)
                 (A) (A) (A) (A) (A) (A) (A) (A) (A) (A) (A) (A)
                 (A) (A) (A) (A) (A) (A) (A) (A) (A) (A) (A) (A)
                 (A) (A) (A) (A) (A) (A) (A) (A) (A) (A) (A) (A)
                 (A) (A) (A) (A) (A) (A) (A) (A) (A) (A) (A) (A)
                 (A) (A) (A) (A) (A) (A) (A) (A) (A) (A) (A) (A)
                 (A) (A) (A) (A) (A) (A) (A) (A) (A) (A) (A) (A)
                 (A) (A) (A) (A) (A) (A) (A) (A) (A) (A) (A) (A)
                 (A) (A)
 The electronic state is 1-A.
 Alpha  occ. eigenvalues --  -19.37585 -19.33124 -14.62871 -10.51210 -10.43514
 Alpha  occ. eigenvalues --  -10.39462 -10.37946 -10.37235 -10.37141 -10.36281
 Alpha  occ. eigenvalues --   -1.29214  -1.20695  -1.17482  -1.03831  -0.94991
 Alpha  occ. eigenvalues --   -0.92692  -0.84217  -0.80996  -0.78073  -0.75788
 Alpha  occ. eigenvalues --   -0.74024  -0.71317  -0.68546  -0.66788  -0.63093
 Alpha  occ. eigenvalues --   -0.62975  -0.61687  -0.61009  -0.57063  -0.54562
 Alpha  occ. eigenvalues --   -0.54227  -0.52927  -0.50094  -0.47000  -0.43686
 Alpha  occ. eigenvalues --   -0.43506
 Alpha virt. eigenvalues --   -0.23072  -0.19189  -0.17077  -0.12639  -0.12280
 Alpha virt. eigenvalues --   -0.11441  -0.10224  -0.09536  -0.08333  -0.07412
 Alpha virt. eigenvalues --   -0.06360  -0.06177  -0.05211  -0.04149  -0.04147
 Alpha virt. eigenvalues --   -0.02940  -0.01526  -0.01273  -0.00742  -0.00274
 Alpha virt. eigenvalues --    0.00585   0.00606   0.00982   0.02298   0.03662
 Alpha virt. eigenvalues --    0.04169   0.04483   0.04702   0.05535   0.05945
 Alpha virt. eigenvalues --    0.06191   0.06603   0.07422   0.08234   0.08629
 Alpha virt. eigenvalues --    0.08808   0.09634   0.10365   0.10754   0.12075
 Alpha virt. eigenvalues --    0.12510   0.13170   0.13430   0.14288   0.15313
 Alpha virt. eigenvalues --    0.15967   0.16292   0.16380   0.17528   0.18616
 Alpha virt. eigenvalues --    0.19977   0.20613   0.21675   0.22824   0.24187
 Alpha virt. eigenvalues --    0.26539   0.27771   0.30858   0.33650   0.33979
 Alpha virt. eigenvalues --    0.42149   0.45140   0.48224   0.49795   0.52005
 Alpha virt. eigenvalues --    0.53240   0.55721   0.56290   0.57284   0.57504
 Alpha virt. eigenvalues --    0.58169   0.60839   0.61256   0.64838   0.64912
 Alpha virt. eigenvalues --    0.65557   0.68338   0.69993   0.71393   0.75034
 Alpha virt. eigenvalues --    0.77393   0.78210   0.78945   0.79812   0.83051
 Alpha virt. eigenvalues --    0.85362   0.88313   0.88638   0.93404   0.95022
 Alpha virt. eigenvalues --    0.95795   0.97620   0.99101   0.99852   1.01863
 Alpha virt. eigenvalues --    1.03628   1.04250   1.06429   1.08022   1.10364
 Alpha virt. eigenvalues --    1.10852   1.13943   1.15325   1.16638   1.18128
 Alpha virt. eigenvalues --    1.20798   1.21070   1.21308   1.23708   1.24389
 Alpha virt. eigenvalues --    1.24665   1.27635   1.33263   1.41568   1.41892
 Alpha virt. eigenvalues --    1.50162   1.51590   1.54147   1.55413   1.59540
 Alpha virt. eigenvalues --    1.62197   1.63646   1.66057   1.67452   1.69871
 Alpha virt. eigenvalues --    1.72708   1.75548   1.78075   1.80876   1.81118
 Alpha virt. eigenvalues --    1.83571   1.84405   1.85207   1.85643   1.89203
 Alpha virt. eigenvalues --    1.92495   1.93568   2.01763   2.01954   2.09457
 Alpha virt. eigenvalues --    2.12141   2.12173   2.16486   2.18795   2.21310
 Alpha virt. eigenvalues --    2.21422   2.24021   2.25097   2.25905   2.26648
 Alpha virt. eigenvalues --    2.32848   2.34432   2.35464   2.37611   2.40462
 Alpha virt. eigenvalues --    2.42142   2.43978   2.45670   2.46746   2.49668
 Alpha virt. eigenvalues --    2.52027   2.54851   2.57309   2.59337   2.62814
 Alpha virt. eigenvalues --    2.65253   2.70562   2.70618   2.75112   2.80362
 Alpha virt. eigenvalues --    2.88815   2.92676   2.99313   3.01597   3.07932
 Alpha virt. eigenvalues --    3.11614   3.12932   3.17002   3.17555   3.21152
 Alpha virt. eigenvalues --    3.32409   3.33500   3.40042   3.69333   4.04882
 Alpha virt. eigenvalues --    4.10068   4.12944   4.14599   4.19842   4.30470
 Alpha virt. eigenvalues --    4.32148   4.39067   4.64380   4.68511
          Condensed to atoms (all electrons):
               1          2          3          4          5          6
     1  C    7.147546   0.219043   0.783742  -0.811514   0.063664  -1.750362
     2  C    0.219043   5.854784  -0.843782   1.325448  -1.337971   1.041749
     3  C    0.783742  -0.843782  13.582828  -4.003331  -1.204258  -3.381711
     4  C   -0.811514   1.325448  -4.003331  19.302702  -4.623640  -3.446760
     5  C    0.063664  -1.337971  -1.204258  -4.623640  13.231205  -1.360949
     6  C   -1.750362   1.041749  -3.381711  -3.446760  -1.360949  16.043675
     7  C   -0.155057  -0.154768   0.509301  -0.590546  -0.071740  -0.387079
     8  O    0.108900  -0.004512   0.033207   0.006995  -0.050821  -0.116341
     9  N   -0.035256  -0.002310  -0.691560   0.033083   0.394781   0.191794
    10  O    0.043632  -0.009330   0.086146  -0.127816  -0.032577  -0.115416
    11  H    0.234650   0.015958   0.006241  -0.003653   0.011689   0.057555
    12  H    0.052170   0.232547   0.055364  -0.041931   0.022960  -0.000594
    13  H    0.015642   0.059151   0.326355  -0.026266  -0.035905  -0.027496
    14  H    0.068514  -0.014464   0.029408   0.043482   0.072850   0.124938
    15  H   -0.007239  -0.000218   0.002321  -0.011867   0.027343   0.004345
    16  H    0.000978  -0.005245  -0.000499  -0.044306   0.027021   0.003004
    17  H    0.003537  -0.003785   0.175785   0.078403  -0.214478  -0.068260
    18  H    0.000958  -0.005227  -0.000656  -0.044212   0.026960   0.003101
               7          8          9         10         11         12
     1  C   -0.155057   0.108900  -0.035256   0.043632   0.234650   0.052170
     2  C   -0.154768  -0.004512  -0.002310  -0.009330   0.015958   0.232547
     3  C    0.509301   0.033207  -0.691560   0.086146   0.006241   0.055364
     4  C   -0.590546   0.006995   0.033083  -0.127816  -0.003653  -0.041931
     5  C   -0.071740  -0.050821   0.394781  -0.032577   0.011689   0.022960
     6  C   -0.387079  -0.116341   0.191794  -0.115416   0.057555  -0.000594
     7  C    5.655780   0.126874  -0.101748   0.342438   0.000580   0.001672
     8  O    0.126874   8.279318  -0.013327  -0.147460   0.000111   0.000005
     9  N   -0.101748  -0.013327   7.134060  -0.046222   0.000127  -0.000345
    10  O    0.342438  -0.147460  -0.046222   8.386394   0.000023  -0.000003
    11  H    0.000580   0.000111   0.000127   0.000023   0.508633  -0.004575
    12  H    0.001672   0.000005  -0.000345  -0.000003  -0.004575   0.509255
    13  H    0.003049   0.000010   0.001031   0.000110  -0.000138  -0.004722
    14  H   -0.013989   0.003896  -0.001391   0.000085  -0.004566  -0.000136
    15  H    0.017332   0.202658   0.000704   0.001391  -0.000000   0.000000
    16  H    0.001595   0.000185   0.307575   0.001519   0.000000  -0.000002
    17  H    0.032925   0.003388   0.184361   0.092020  -0.000000   0.000002
    18  H    0.001587   0.000185   0.307578   0.001506   0.000000  -0.000002
              13         14         15         16         17         18
     1  C    0.015642   0.068514  -0.007239   0.000978   0.003537   0.000958
     2  C    0.059151  -0.014464  -0.000218  -0.005245  -0.003785  -0.005227
     3  C    0.326355   0.029408   0.002321  -0.000499   0.175785  -0.000656
     4  C   -0.026266   0.043482  -0.011867  -0.044306   0.078403  -0.044212
     5  C   -0.035905   0.072850   0.027343   0.027021  -0.214478   0.026960
     6  C   -0.027496   0.124938   0.004345   0.003004  -0.068260   0.003101
     7  C    0.003049  -0.013989   0.017332   0.001595   0.032925   0.001587
     8  O    0.000010   0.003896   0.202658   0.000185   0.003388   0.000185
     9  N    0.001031  -0.001391   0.000704   0.307575   0.184361   0.307578
    10  O    0.000110   0.000085   0.001391   0.001519   0.092020   0.001506
    11  H   -0.000138  -0.004566  -0.000000   0.000000  -0.000000   0.000000
    12  H   -0.004722  -0.000136   0.000000  -0.000002   0.000002  -0.000002
    13  H    0.523670   0.000011  -0.000000   0.000485   0.000079   0.000481
    14  H    0.000011   0.498878  -0.000023   0.000002   0.000007   0.000002
    15  H   -0.000000  -0.000023   0.345837  -0.000001  -0.000031  -0.000001
    16  H    0.000485   0.000002  -0.000001   0.337382  -0.009253  -0.023871
    17  H    0.000079   0.000007  -0.000031  -0.009253   0.289624  -0.009272
    18  H    0.000481   0.000002  -0.000001  -0.023871  -0.009272   0.337389
 Mulliken charges:
               1
     1  C    0.016451
     2  C   -0.367068
     3  C    0.535096
     4  C   -1.014270
     5  C    1.053865
     6  C   -0.815194
     7  C    0.781793
     8  O   -0.433271
     9  N   -0.662934
    10  O   -0.476439
    11  H    0.177363
    12  H    0.178336
    13  H    0.164453
    14  H    0.192495
    15  H    0.417448
    16  H    0.403431
    17  H    0.444949
    18  H    0.403495
 Sum of Mulliken charges =   1.00000
 Mulliken charges with hydrogens summed into heavy atoms:
               1
     1  C    0.193814
     2  C   -0.188731
     3  C    0.699548
     4  C   -1.014270
     5  C    1.053865
     6  C   -0.622699
     7  C    0.781793
     8  O   -0.015823
     9  N    0.588941
    10  O   -0.476439
 Electronic spatial extent (au):  <R**2>=           1375.8884
 Charge=              1.0000 electrons
 Dipole moment (field-independent basis, Debye):
    X=              1.2047    Y=              4.2323    Z=              0.0005  Tot=              4.4004
 Quadrupole moment (field-independent basis, Debye-Ang):
   XX=            -36.5057   YY=            -29.0312   ZZ=            -56.5877
   XY=              3.5778   XZ=              0.0007   YZ=             -0.0012
 Traceless Quadrupole moment (field-independent basis, Debye-Ang):
   XX=              4.2025   YY=             11.6770   ZZ=            -15.8795
   XY=              3.5778   XZ=              0.0007   YZ=             -0.0012
 Octapole moment (field-independent basis, Debye-Ang**2):
  XXX=            -11.1771  YYY=             50.5283  ZZZ=              0.0042  XYY=             -0.6047
  XXY=            -25.8961  XXZ=             -0.0123  XZZ=            -11.1396  YZZ=              9.6515
  YYZ=              0.0046  XYZ=             -0.0077
 Hexadecapole moment (field-independent basis, Debye-Ang**3):
 XXXX=           -802.2230 YYYY=           -410.1083 ZZZZ=            -62.0818 XXXY=             84.8586
 XXXZ=              0.0241 YYYX=             -7.8225 YYYZ=             -0.0143 ZZZX=              0.0014
 ZZZY=              0.0173 XXYY=           -228.1413 XXZZ=           -199.3628 YYZZ=            -98.5438
 XXYZ=             -0.0094 YYXZ=             -0.0043 ZZXY=              3.1994
 N-N= 5.141315580794D+02 E-N=-2.125418232305D+03  KE= 4.721121234230D+02
 Calling FoFJK, ICntrl=      2127 FMM=F ISym2X=0 I1Cent= 0 IOpClX= 0 NMat=1 NMatS=1 NMatT=0.
 ***** Axes restored to original set *****
 -------------------------------------------------------------------
 Center     Atomic                   Forces (Hartrees/Bohr)
 Number     Number              X              Y              Z
 -------------------------------------------------------------------
      1        6           0.000319225    0.000272759   -0.000002819
      2        6           0.000367664    0.000084170   -0.000001646
      3        6           0.000468091   -0.000100925    0.000002062
      4        6           0.000160611   -0.000197034   -0.000002320
      5        6          -0.000040192    0.000226861   -0.000001697
      6        6           0.000176548    0.000343716    0.000015147
      7        6          -0.000621508    0.000267468   -0.000001734
      8        8          -0.000390293    0.000206332   -0.000006202
      9        7          -0.000106628   -0.000511119   -0.000044273
     10        8          -0.000537167   -0.000101846    0.000005830
     11        1           0.000157038    0.000245219    0.000005015
     12        1           0.000287671   -0.000001483    0.000001375
     13        1           0.000269415   -0.000202478   -0.000007601
     14        1          -0.000004602    0.000323072   -0.000007551
     15        1          -0.000239140    0.000096504    0.000000838
     16        1          -0.000019774   -0.000373202   -0.000108356
     17        1          -0.000203216   -0.000210550    0.000023958
     18        1          -0.000043744   -0.000367466    0.000129975
 -------------------------------------------------------------------
 Cartesian Forces:  Max     0.000621508 RMS     0.000231142

 GradGradGradGradGradGradGradGradGradGradGradGradGradGradGradGradGradGrad
 Berny optimization.
 FormGI is forming the generalized inverse of G from B-inverse, IUseBI=4.
 Internal  Forces:  Max     0.001901443 RMS     0.000463857
 Search for a local minimum.
 Step number   1 out of a maximum of   92
 All quantities printed in internal units (Hartrees-Bohrs-Radians)
 Mixed Optimization -- En-DIIS/RFO-DIIS
 Second derivative matrix not updated -- first step.
 ITU=  0
     Eigenvalues ---    0.00579   0.00947   0.01524   0.01526   0.01687
     Eigenvalues ---    0.02028   0.02099   0.02114   0.02128   0.02148
     Eigenvalues ---    0.02162   0.02199   0.02704   0.06966   0.07701
     Eigenvalues ---    0.16000   0.16000   0.16000   0.16000   0.16000
     Eigenvalues ---    0.16000   0.16000   0.16000   0.22000   0.22493
     Eigenvalues ---    0.24483   0.25000   0.25000   0.25000   0.25000
     Eigenvalues ---    0.33860   0.34098   0.35211   0.35405   0.35433
     Eigenvalues ---    0.35552   0.36648   0.41342   0.42050   0.43548
     Eigenvalues ---    0.43552   0.45139   0.45398   0.46203   0.47508
     Eigenvalues ---    0.52365   0.61066   0.88403
 RFO step:  Lambda=-5.11074602D-05 EMin= 5.78597264D-03
 Linear search not attempted -- first point.
 Iteration  1 RMS(Cart)=  0.00564933 RMS(Int)=  0.00000589
 Iteration  2 RMS(Cart)=  0.00000903 RMS(Int)=  0.00000049
 Iteration  3 RMS(Cart)=  0.00000000 RMS(Int)=  0.00000049
 Variable       Old X    -DE/DX   Delta X   Delta X   Delta X     New X
                                 (Linear)    (Quad)   (Total)
    R1        2.63859  -0.00032   0.00000  -0.00056  -0.00056   2.63803
    R2        2.63584  -0.00064   0.00000  -0.00130  -0.00130   2.63454
    R3        2.04978  -0.00029   0.00000  -0.00082  -0.00082   2.04896
    R4        2.64514  -0.00055   0.00000  -0.00115  -0.00115   2.64399
    R5        2.05022  -0.00029   0.00000  -0.00081  -0.00081   2.04941
    R6        2.61948  -0.00122   0.00000  -0.00262  -0.00262   2.61686
    R7        2.05334  -0.00031   0.00000  -0.00087  -0.00087   2.05246
    R8        2.66148  -0.00190   0.00000  -0.00443  -0.00443   2.65705
    R9        2.80464  -0.00144   0.00000  -0.00423  -0.00423   2.80041
   R10        2.65163  -0.00121   0.00000  -0.00274  -0.00274   2.64889
   R11        2.80867  -0.00179   0.00000  -0.00529  -0.00529   2.80338
   R12        2.04788  -0.00028   0.00000  -0.00080  -0.00080   2.04708
   R13        2.50106  -0.00053   0.00000  -0.00088  -0.00088   2.50019
   R14        2.33678  -0.00038   0.00000  -0.00043  -0.00043   2.33635
   R15        1.84251  -0.00023   0.00000  -0.00044  -0.00044   1.84207
   R16        1.93695  -0.00029   0.00000  -0.00067  -0.00067   1.93628
   R17        2.03080  -0.00014   0.00000  -0.00037  -0.00037   2.03043
   R18        1.93700  -0.00030   0.00000  -0.00069  -0.00069   1.93630
    A1        2.09921  -0.00006   0.00000   0.00021   0.00021   2.09942
    A2        2.09521   0.00004   0.00000  -0.00005  -0.00005   2.09516
    A3        2.08876   0.00002   0.00000  -0.00016  -0.00016   2.08861
    A4        2.09869  -0.00003   0.00000   0.00031   0.00031   2.09900
    A5        2.09996   0.00002   0.00000  -0.00012  -0.00012   2.09984
    A6        2.08454   0.00001   0.00000  -0.00019  -0.00019   2.08435
    A7        2.07513  -0.00036   0.00000  -0.00158  -0.00158   2.07354
    A8        2.09974   0.00032   0.00000   0.00167   0.00167   2.10141
    A9        2.10832   0.00004   0.00000  -0.00009  -0.00009   2.10823
   A10        2.13052   0.00036   0.00000   0.00113   0.00113   2.13165
   A11        2.08684   0.00053   0.00000   0.00228   0.00228   2.08912
   A12        2.06582  -0.00089   0.00000  -0.00341  -0.00341   2.06242
   A13        2.06006   0.00051   0.00000   0.00172   0.00172   2.06179
   A14        2.10386  -0.00090   0.00000  -0.00346  -0.00346   2.10039
   A15        2.11926   0.00040   0.00000   0.00174   0.00174   2.12101
   A16        2.10276  -0.00041   0.00000  -0.00179  -0.00179   2.10098
   A17        2.10251   0.00036   0.00000   0.00188   0.00188   2.10438
   A18        2.07791   0.00005   0.00000  -0.00009  -0.00009   2.07782
   A19        1.99903  -0.00030   0.00000  -0.00121  -0.00121   1.99782
   A20        2.14860  -0.00031   0.00000  -0.00123  -0.00123   2.14737
   A21        2.13555   0.00061   0.00000   0.00244   0.00244   2.13799
   A22        1.91196  -0.00021   0.00000  -0.00132  -0.00132   1.91063
   A23        1.95672  -0.00020   0.00000  -0.00117  -0.00117   1.95555
   A24        1.83793  -0.00031   0.00000  -0.00221  -0.00221   1.83572
   A25        1.95651  -0.00020   0.00000  -0.00106  -0.00107   1.95544
   A26        1.91360   0.00019   0.00000   0.00087   0.00087   1.91447
   A27        1.88576   0.00030   0.00000   0.00233   0.00233   1.88809
   A28        1.91283   0.00022   0.00000   0.00123   0.00123   1.91406
    D1        0.00015  -0.00000   0.00000  -0.00007  -0.00007   0.00008
    D2       -3.14149  -0.00000   0.00000  -0.00003  -0.00003  -3.14153
    D3       -3.14145  -0.00000   0.00000  -0.00007  -0.00007  -3.14153
    D4        0.00009  -0.00000   0.00000  -0.00004  -0.00004   0.00005
    D5       -0.00016   0.00000   0.00000   0.00009   0.00009  -0.00007
    D6        3.14129   0.00000   0.00000   0.00019   0.00019   3.14148
    D7        3.14144   0.00000   0.00000   0.00009   0.00009   3.14153
    D8       -0.00029   0.00000   0.00000   0.00020   0.00020  -0.00010
    D9        0.00004  -0.00000   0.00000  -0.00005  -0.00005  -0.00001
   D10       -3.14151  -0.00000   0.00000  -0.00007  -0.00007  -3.14159
   D11       -3.14151  -0.00000   0.00000  -0.00008  -0.00008  -3.14159
   D12        0.00013  -0.00000   0.00000  -0.00011  -0.00011   0.00002
   D13       -0.00021   0.00000   0.00000   0.00015   0.00015  -0.00007
   D14        3.14122   0.00000   0.00000   0.00021   0.00021   3.14143
   D15        3.14134   0.00000   0.00000   0.00017   0.00017   3.14151
   D16       -0.00042   0.00000   0.00000   0.00024   0.00024  -0.00018
   D17        0.00020  -0.00000   0.00000  -0.00012  -0.00012   0.00007
   D18       -3.14135  -0.00000   0.00000  -0.00008  -0.00008  -3.14143
   D19       -3.14123  -0.00000   0.00000  -0.00019  -0.00019  -3.14142
   D20        0.00040  -0.00000   0.00000  -0.00015  -0.00015   0.00026
   D21        1.06144   0.00006   0.00000   0.00099   0.00099   1.06243
   D22        3.14129  -0.00001   0.00000   0.00004   0.00004   3.14133
   D23       -1.06309  -0.00004   0.00000  -0.00041  -0.00041  -1.06350
   D24       -2.08031   0.00006   0.00000   0.00105   0.00105  -2.07926
   D25       -0.00046  -0.00001   0.00000   0.00010   0.00010  -0.00035
   D26        2.07835  -0.00004   0.00000  -0.00035  -0.00035   2.07800
   D27       -0.00001   0.00000   0.00000   0.00001   0.00001  -0.00000
   D28       -3.14146  -0.00000   0.00000  -0.00010  -0.00010  -3.14156
   D29        3.14154  -0.00000   0.00000  -0.00004  -0.00004   3.14150
   D30        0.00009  -0.00000   0.00000  -0.00014  -0.00014  -0.00005
   D31        3.14098   0.00001   0.00000   0.00058   0.00058   3.14156
   D32       -0.00058   0.00001   0.00000   0.00060   0.00060   0.00003
   D33       -0.00057   0.00001   0.00000   0.00063   0.00063   0.00006
   D34        3.14106   0.00001   0.00000   0.00065   0.00065  -3.14148
   D35        3.14154   0.00000   0.00000   0.00004   0.00004   3.14157
   D36       -0.00009   0.00000   0.00000   0.00002   0.00002  -0.00007
         Item               Value     Threshold  Converged?
 Maximum Force            0.001901     0.000450     NO 
 RMS     Force            0.000464     0.000300     NO 
 Maximum Displacement     0.023778     0.001800     NO 
 RMS     Displacement     0.005649     0.001200     NO 
 Predicted change in Energy=-2.555392D-05
 GradGradGradGradGradGradGradGradGradGradGradGradGradGradGradGradGradGrad

                          Input orientation:                          
 ---------------------------------------------------------------------
 Center     Atomic      Atomic             Coordinates (Angstroms)
 Number     Number       Type             X           Y           Z
 ---------------------------------------------------------------------
      1          6           0       -1.938507   -1.474920   -0.000134
      2          6           0       -2.621833   -0.257611    0.000047
      3          6           0       -1.913211    0.948807    0.000133
      4          6           0       -0.528983    0.909567    0.000046
      5          6           0        0.184864   -0.301797   -0.000046
      6          6           0       -0.544573   -1.498784   -0.000138
      7          6           0        1.668344   -0.297480    0.000065
      8          8           0        2.219806   -1.500114   -0.000004
      9          7           0        0.241378    2.175509   -0.000078
     10          8           0        2.339325    0.740945    0.000268
     11          1           0       -2.491242   -2.407717   -0.000260
     12          1           0       -3.706168   -0.238600    0.000112
     13          1           0       -2.442572    1.897189    0.000278
     14          1           0       -0.009639   -2.440761   -0.000177
     15          1           0        3.190633   -1.412404    0.000058
     16          1           0        0.046445    2.744399    0.829523
     17          1           0        1.273471    1.876774    0.000142
     18          1           0        0.047024    2.743770   -0.830265
 ---------------------------------------------------------------------
                    Distance matrix (angstroms):
                    1          2          3          4          5
     1  C    0.000000
     2  C    1.395985   0.000000
     3  C    2.423859   1.399139   0.000000
     4  C    2.769934   2.396315   1.384784   0.000000
     5  C    2.425885   2.807044   2.442525   1.406052   0.000000
     6  C    1.394138   2.419817   2.804259   2.408401   1.401733
     7  C    3.794172   4.290362   3.792199   2.507033   1.483487
     8  O    4.158390   4.998528   4.804066   3.655463   2.361558
     9  N    4.251768   3.757400   2.479325   1.481913   2.477951
    10  O    4.817666   5.060652   4.257613   2.873260   2.393536
    11  H    1.084263   2.154068   3.405932   3.854197   3.405354
    12  H    2.157107   1.084501   2.150495   3.378282   3.891544
    13  H    3.409575   2.162244   1.086118   2.153420   3.426217
    14  H    2.157170   3.404364   3.887513   3.390342   2.147789
    15  H    5.129522   5.926070   5.623571   4.384872   3.204387
    16  H    4.736139   4.101195   2.784294   2.094220   3.160167
    17  H    4.642268   4.441733   3.319046   2.045564   2.435413
    18  H    4.735904   4.101280   2.784595   2.094158   3.159706
                    6          7          8          9         10
     6  C    0.000000
     7  C    2.517963   0.000000
     8  O    2.764380   1.323042   0.000000
     9  N    3.757412   2.855154   4.174252   0.000000
    10  O    3.651473   1.236342   2.244244   2.541525   0.000000
    11  H    2.148413   4.664253   4.797678   5.336026   5.766146
    12  H    3.403490   5.374835   6.058761   4.627207   6.124335
    13  H    3.890377   4.660065   5.768834   2.698343   4.919699
    14  H    1.083271   2.722000   2.419761   4.623090   3.954856
    15  H    3.736206   1.886907   0.974781   4.644483   2.315521
    16  H    4.363741   3.545643   4.840197   1.024633   3.155754
    17  H    3.834016   2.209820   3.506982   1.074457   1.557611
    18  H    4.363297   3.545043   4.839511   1.024648   3.155271
                   11         12         13         14         15
    11  H    0.000000
    12  H    2.486185   0.000000
    13  H    4.305181   2.481586   0.000000
    14  H    2.481822   4.302771   4.973628   0.000000
    15  H    5.768393   6.995976   6.533484   3.361438   0.000000
    16  H    5.802818   4.865009   2.756922   5.251422   5.277588
    17  H    5.703501   5.410324   3.716099   4.504163   3.807125
    18  H    5.802544   4.865234   2.757642   5.250868   5.276883
                   16         17         18
    16  H    0.000000
    17  H    1.716461   0.000000
    18  H    1.659788   1.716225   0.000000
 Stoichiometry    C7H8NO2(1+)
 Framework group  C1[X(C7H8NO2)]
 Deg. of freedom    48
 Full point group                 C1      NOp   1
 Largest Abelian subgroup         C1      NOp   1
 Largest concise Abelian subgroup C1      NOp   1
                         Standard orientation:                         
 ---------------------------------------------------------------------
 Center     Atomic      Atomic             Coordinates (Angstroms)
 Number     Number       Type             X           Y           Z
 ---------------------------------------------------------------------
      1          6           0        1.942193   -1.469551    0.000145
      2          6           0        2.621418   -0.249950   -0.000036
      3          6           0        1.908741    0.954077   -0.000121
      4          6           0        0.524653    0.910179   -0.000035
      5          6           0       -0.185114   -0.303580    0.000058
      6          6           0        0.548347   -1.498105    0.000149
      7          6           0       -1.668601   -0.304255   -0.000054
      8          8           0       -2.216013   -1.508738    0.000015
      9          7           0       -0.249964    2.173522    0.000089
     10          8           0       -2.343071    0.731907   -0.000257
     11          1           0        2.498063   -2.400483    0.000272
     12          1           0        3.705683   -0.227290   -0.000101
     13          1           0        2.434908    1.904235   -0.000267
     14          1           0        0.016586   -2.441877    0.000188
     15          1           0       -3.187129   -1.424295   -0.000047
     16          1           0       -0.056947    2.743064   -0.829512
     17          1           0       -1.281046    1.871316   -0.000131
     18          1           0       -0.057523    2.742433    0.830276
 ---------------------------------------------------------------------
 Rotational constants (GHZ):      2.2421243      1.2070568      0.7880387
 Standard basis: 6-31+G(d,p) (6D, 7F)
 There are   230 symmetry adapted cartesian basis functions of A   symmetry.
 There are   230 symmetry adapted basis functions of A   symmetry.
   230 basis functions,   376 primitive gaussians,   230 cartesian basis functions
    36 alpha electrons       36 beta electrons
       nuclear repulsion energy       514.8818652064 Hartrees.
 NAtoms=   18 NActive=   18 NUniq=   18 SFac= 1.00D+00 NAtFMM=   60 NAOKFM=F Big=F
 Integral buffers will be    131072 words long.
 Raffenetti 2 integral format.
 Two-electron integral symmetry is turned on.
 Nuclear repulsion after empirical dispersion term =      514.8488584871 Hartrees.
 One-electron integrals computed using PRISM.
 NBasis=   230 RedAO= T EigKep=  2.27D-06  NBF=   230
 NBsUse=   230 1.00D-06 EigRej= -1.00D+00 NBFU=   230
 Initial guess from the checkpoint file:  "gd3b3lypAnthranilicyang.chk"
 B after Tr=    -0.000000    0.000000   -0.000000
         Rot=    0.999999    0.000017    0.000009   -0.001395 Ang=   0.16 deg.
 ExpMin= 4.38D-02 ExpMax= 5.48D+03 ExpMxC= 8.25D+02 IAcc=2 IRadAn=         4 AccDes= 0.00D+00
 Harris functional with IExCor=  402 and IRadAn=       4 diagonalized for initial guess.
 HarFok:  IExCor=  402 AccDes= 0.00D+00 IRadAn=         4 IDoV= 1 UseB2=F ITyADJ=14
 ICtDFT=  3500011 ScaDFX=  1.000000  1.000000  1.000000  1.000000
 FoFCou: FMM=F IPFlag=           0 FMFlag=      100000 FMFlg1=           0
         NFxFlg=           0 DoJE=T BraDBF=F KetDBF=T FulRan=T
         wScrn=  0.000000 ICntrl=     500 IOpCl=  0 I1Cent=   200000004 NGrid=           0
         NMat0=    1 NMatS0=      1 NMatT0=    0 NMatD0=    1 NMtDS0=    0 NMtDT0=    0
 Petite list used in FoFCou.
 Keep R1 ints in memory in canonical form, NReq=359209085.
 Requested convergence on RMS density matrix=1.00D-08 within 128 cycles.
 Requested convergence on MAX density matrix=1.00D-06.
 Requested convergence on             energy=1.00D-06.
 No special actions if energy rises.
 SCF Done:  E(RB3LYP) =  -476.610127400     A.U. after   11 cycles
            NFock= 11  Conv=0.83D-08     -V/T= 2.0094
 Calling FoFJK, ICntrl=      2127 FMM=F ISym2X=0 I1Cent= 0 IOpClX= 0 NMat=1 NMatS=1 NMatT=0.
 ***** Axes restored to original set *****
 -------------------------------------------------------------------
 Center     Atomic                   Forces (Hartrees/Bohr)
 Number     Number              X              Y              Z
 -------------------------------------------------------------------
      1        6           0.000039321   -0.000065839    0.000000145
      2        6          -0.000016136    0.000008078   -0.000000332
      3        6          -0.000189990   -0.000042449    0.000000889
      4        6           0.000115008    0.000797154   -0.000001330
      5        6           0.000183389   -0.000070134    0.000000936
      6        6          -0.000052625   -0.000304023    0.000001656
      7        6          -0.000868159   -0.000990159    0.000003844
      8        8           0.000307213    0.000533656   -0.000002676
      9        7          -0.002064585    0.000938218   -0.000028569
     10        8           0.001614921   -0.000498514   -0.000005550
     11        1          -0.000039103   -0.000000198    0.000002080
     12        1          -0.000026477   -0.000047811   -0.000000440
     13        1           0.000017686   -0.000002928   -0.000002490
     14        1          -0.000029350   -0.000013723   -0.000001827
     15        1           0.000109385   -0.000149953    0.000001498
     16        1          -0.000089101    0.000016712   -0.000110428
     17        1           0.001092781   -0.000128410    0.000020372
     18        1          -0.000104177    0.000020324    0.000122220
 -------------------------------------------------------------------
 Cartesian Forces:  Max     0.002064585 RMS     0.000476056

 GradGradGradGradGradGradGradGradGradGradGradGradGradGradGradGradGradGrad
 Berny optimization.
 Using GEDIIS/GDIIS optimizer.
 FormGI is forming the generalized inverse of G from B-inverse, IUseBI=4.
 Internal  Forces:  Max     0.003285444 RMS     0.000754734
 Search for a local minimum.
 Step number   2 out of a maximum of   92
 All quantities printed in internal units (Hartrees-Bohrs-Radians)
 Mixed Optimization -- En-DIIS/RFO-DIIS
 Swapping is turned off.
 Update second derivatives using D2CorX and points    1    2
 DE=  4.73D-06 DEPred=-2.56D-05 R=-1.85D-01
 Trust test=-1.85D-01 RLast= 1.29D-02 DXMaxT set to 1.50D-01
 ITU= -1  0
     Eigenvalues ---    0.00579   0.00947   0.01525   0.01528   0.01687
     Eigenvalues ---    0.02028   0.02099   0.02114   0.02128   0.02148
     Eigenvalues ---    0.02162   0.02198   0.02704   0.07003   0.07719
     Eigenvalues ---    0.14803   0.16000   0.16000   0.16000   0.16000
     Eigenvalues ---    0.16000   0.16000   0.16033   0.21293   0.22000
     Eigenvalues ---    0.23648   0.24507   0.25000   0.25000   0.26921
     Eigenvalues ---    0.33840   0.35174   0.35368   0.35422   0.35533
     Eigenvalues ---    0.36094   0.38324   0.41949   0.43070   0.43550
     Eigenvalues ---    0.43935   0.45080   0.46198   0.46898   0.52338
     Eigenvalues ---    0.60783   0.86485   0.99704
 En-DIIS/RFO-DIIS IScMMF=        0 using points:     2    1
 RFO step:  Lambda=-4.93225400D-05.
 DidBck=T Rises=F RFO-DIIS coefs:    0.45721    0.54279
 Iteration  1 RMS(Cart)=  0.00553679 RMS(Int)=  0.00000955
 Iteration  2 RMS(Cart)=  0.00001313 RMS(Int)=  0.00000030
 Iteration  3 RMS(Cart)=  0.00000000 RMS(Int)=  0.00000030
 Variable       Old X    -DE/DX   Delta X   Delta X   Delta X     New X
                                 (Linear)    (Quad)   (Total)
    R1        2.63803  -0.00032   0.00030  -0.00094  -0.00063   2.63739
    R2        2.63454  -0.00016   0.00071  -0.00146  -0.00075   2.63379
    R3        2.04896   0.00002   0.00045  -0.00076  -0.00032   2.04864
    R4        2.64399  -0.00010   0.00062  -0.00125  -0.00063   2.64336
    R5        2.04941   0.00003   0.00044  -0.00075  -0.00031   2.04910
    R6        2.61686   0.00038   0.00142  -0.00211  -0.00069   2.61617
    R7        2.05246  -0.00001   0.00047  -0.00085  -0.00038   2.05209
    R8        2.65705   0.00230   0.00241  -0.00179   0.00062   2.65767
    R9        2.80041   0.00012   0.00230  -0.00391  -0.00161   2.79880
   R10        2.64889   0.00052   0.00149  -0.00206  -0.00057   2.64832
   R11        2.80338   0.00116   0.00287  -0.00352  -0.00065   2.80274
   R12        2.04708  -0.00000   0.00043  -0.00077  -0.00034   2.04675
   R13        2.50019  -0.00017   0.00047  -0.00097  -0.00049   2.49969
   R14        2.33635   0.00046   0.00023  -0.00018   0.00006   2.33640
   R15        1.84207   0.00009   0.00024  -0.00034  -0.00010   1.84197
   R16        1.93628  -0.00006   0.00036  -0.00071  -0.00035   1.93593
   R17        2.03043   0.00109   0.00020   0.00100   0.00120   2.03163
   R18        1.93630  -0.00007   0.00038  -0.00074  -0.00036   1.93594
    A1        2.09942   0.00006  -0.00011  -0.00000  -0.00011   2.09931
    A2        2.09516  -0.00007   0.00003  -0.00005  -0.00003   2.09513
    A3        2.08861   0.00001   0.00009   0.00006   0.00014   2.08875
    A4        2.09900   0.00006  -0.00017   0.00011  -0.00006   2.09894
    A5        2.09984  -0.00008   0.00007  -0.00015  -0.00009   2.09975
    A6        2.08435   0.00002   0.00010   0.00005   0.00015   2.08450
    A7        2.07354   0.00057   0.00086  -0.00038   0.00048   2.07402
    A8        2.10141  -0.00027  -0.00091   0.00109   0.00018   2.10159
    A9        2.10823  -0.00030   0.00005  -0.00070  -0.00065   2.10758
   A10        2.13165  -0.00061  -0.00061   0.00017  -0.00045   2.13120
   A11        2.08912  -0.00197  -0.00124  -0.00152  -0.00275   2.08637
   A12        2.06242   0.00258   0.00185   0.00135   0.00320   2.06562
   A13        2.06179  -0.00067  -0.00093   0.00063  -0.00031   2.06148
   A14        2.10039   0.00329   0.00188   0.00257   0.00446   2.10485
   A15        2.12101  -0.00261  -0.00095  -0.00320  -0.00415   2.11686
   A16        2.10098   0.00060   0.00097  -0.00052   0.00045   2.10143
   A17        2.10438  -0.00034  -0.00102   0.00110   0.00009   2.10447
   A18        2.07782  -0.00027   0.00005  -0.00059  -0.00054   2.07729
   A19        1.99782  -0.00058   0.00066  -0.00222  -0.00156   1.99626
   A20        2.14737   0.00219   0.00067   0.00282   0.00349   2.15086
   A21        2.13799  -0.00161  -0.00133  -0.00060  -0.00193   2.13606
   A22        1.91063   0.00030   0.00072  -0.00042   0.00030   1.91093
   A23        1.95555  -0.00008   0.00064  -0.00152  -0.00088   1.95467
   A24        1.83572   0.00032   0.00120  -0.00093   0.00027   1.83598
   A25        1.95544  -0.00008   0.00058  -0.00137  -0.00080   1.95465
   A26        1.91447  -0.00005  -0.00047   0.00092   0.00045   1.91492
   A27        1.88809  -0.00008  -0.00126   0.00156   0.00029   1.88838
   A28        1.91406  -0.00003  -0.00067   0.00139   0.00072   1.91478
    D1        0.00008  -0.00000   0.00004  -0.00010  -0.00006   0.00002
    D2       -3.14153  -0.00000   0.00002  -0.00005  -0.00003  -3.14156
    D3       -3.14153  -0.00000   0.00004  -0.00009  -0.00005  -3.14158
    D4        0.00005  -0.00000   0.00002  -0.00004  -0.00002   0.00003
    D5       -0.00007   0.00000  -0.00005   0.00011   0.00006  -0.00001
    D6        3.14148   0.00000  -0.00011   0.00023   0.00013  -3.14157
    D7        3.14153   0.00000  -0.00005   0.00011   0.00005   3.14159
    D8       -0.00010   0.00000  -0.00011   0.00023   0.00012   0.00002
    D9       -0.00001  -0.00000   0.00003  -0.00004  -0.00002  -0.00003
   D10       -3.14159   0.00000   0.00004  -0.00006  -0.00002   3.14158
   D11       -3.14159  -0.00000   0.00005  -0.00009  -0.00005   3.14155
   D12        0.00002  -0.00000   0.00006  -0.00010  -0.00004  -0.00003
   D13       -0.00007   0.00000  -0.00008   0.00018   0.00010   0.00003
   D14        3.14143   0.00000  -0.00012   0.00029   0.00018  -3.14158
   D15        3.14151   0.00000  -0.00009   0.00019   0.00010  -3.14158
   D16       -0.00018   0.00000  -0.00013   0.00031   0.00018  -0.00000
   D17        0.00007  -0.00000   0.00007  -0.00017  -0.00010  -0.00003
   D18       -3.14143  -0.00000   0.00004  -0.00015  -0.00011  -3.14154
   D19       -3.14142  -0.00000   0.00010  -0.00028  -0.00018   3.14159
   D20        0.00026  -0.00000   0.00008  -0.00026  -0.00019   0.00007
   D21        1.06243  -0.00011  -0.00054   0.00016  -0.00038   1.06206
   D22        3.14133  -0.00001  -0.00002  -0.00012  -0.00014   3.14119
   D23       -1.06350   0.00011   0.00022   0.00024   0.00046  -1.06304
   D24       -2.07926  -0.00010  -0.00057   0.00027  -0.00030  -2.07956
   D25       -0.00035  -0.00001  -0.00006  -0.00001  -0.00007  -0.00042
   D26        2.07800   0.00011   0.00019   0.00035   0.00054   2.07853
   D27       -0.00000   0.00000  -0.00000   0.00002   0.00001   0.00001
   D28       -3.14156  -0.00000   0.00005  -0.00010  -0.00005   3.14158
   D29        3.14150   0.00000   0.00002   0.00000   0.00003   3.14153
   D30       -0.00005   0.00000   0.00008  -0.00012  -0.00004  -0.00009
   D31        3.14156   0.00000  -0.00032   0.00054   0.00022  -3.14140
   D32        0.00003  -0.00000  -0.00033   0.00044   0.00012   0.00014
   D33        0.00006  -0.00000  -0.00034   0.00056   0.00021   0.00028
   D34       -3.14148  -0.00000  -0.00035   0.00046   0.00010  -3.14137
   D35        3.14157  -0.00000  -0.00002  -0.00000  -0.00002   3.14155
   D36       -0.00007   0.00000  -0.00001   0.00010   0.00009   0.00001
         Item               Value     Threshold  Converged?
 Maximum Force            0.003285     0.000450     NO 
 RMS     Force            0.000755     0.000300     NO 
 Maximum Displacement     0.021288     0.001800     NO 
 RMS     Displacement     0.005534     0.001200     NO 
 Predicted change in Energy=-2.714808D-05
 GradGradGradGradGradGradGradGradGradGradGradGradGradGradGradGradGradGrad

                          Input orientation:                          
 ---------------------------------------------------------------------
 Center     Atomic      Atomic             Coordinates (Angstroms)
 Number     Number       Type             X           Y           Z
 ---------------------------------------------------------------------
      1          6           0       -1.935530   -1.474055   -0.000020
      2          6           0       -2.619665   -0.257587   -0.000016
      3          6           0       -1.912105    0.949070   -0.000033
      4          6           0       -0.528194    0.911523   -0.000021
      5          6           0        0.186753   -0.299572   -0.000031
      6          6           0       -0.541972   -1.496637   -0.000023
      7          6           0        1.669897   -0.300721    0.000047
      8          8           0        2.214936   -1.505992   -0.000208
      9          7           0        0.236696    2.179784   -0.000021
     10          8           0        2.348327    0.732888    0.000271
     11          1           0       -2.487456   -2.407135   -0.000019
     12          1           0       -3.703855   -0.239543    0.000017
     13          1           0       -2.441901    1.896979   -0.000041
     14          1           0       -0.006184   -2.437923   -0.000045
     15          1           0        3.186180   -1.423669   -0.000175
     16          1           0        0.038643    2.747280    0.829569
     17          1           0        1.270656    1.885251    0.000409
     18          1           0        0.039339    2.746834   -0.830091
 ---------------------------------------------------------------------
                    Distance matrix (angstroms):
                    1          2          3          4          5
     1  C    0.000000
     2  C    1.395649   0.000000
     3  C    2.423238   1.398808   0.000000
     4  C    2.769762   2.396053   1.384420   0.000000
     5  C    2.425591   2.806732   2.442193   1.406379   0.000000
     6  C    1.393740   2.419102   2.803345   2.408200   1.401430
     7  C    3.791545   4.289779   3.793772   2.510207   1.483145
     8  O    4.150588   4.993184   4.802061   3.656384   2.359868
     9  N    4.250777   3.754941   2.476288   1.481061   2.479859
    10  O    4.818924   5.065766   4.265913   2.882062   2.395491
    11  H    1.084095   2.153610   3.405164   3.853856   3.404881
    12  H    2.156616   1.084340   2.150156   3.377836   3.891070
    13  H    3.408853   2.161887   1.085917   2.152532   3.425588
    14  H    2.156714   3.403549   3.886419   3.389880   2.147037
    15  H    5.121958   5.921789   5.623379   4.387448   3.203148
    16  H    4.733419   4.096833   2.779788   2.092732   3.161247
    17  H    4.643766   4.441436   3.317589   2.045484   2.438913
    18  H    4.733395   4.097057   2.780123   2.092720   3.160905
                    6          7          8          9         10
     6  C    0.000000
     7  C    2.514474   0.000000
     8  O    2.756924   1.322780   0.000000
     9  N    3.757978   2.864781   4.183106   0.000000
    10  O    3.650289   1.236372   2.242850   2.559783   0.000000
    11  H    2.148002   4.660532   4.787958   5.334870   5.765808
    12  H    3.402615   5.374100   6.052766   4.623969   6.129806
    13  H    3.889262   4.662270   5.767698   2.693485   4.929644
    14  H    1.083092   2.716041   2.408707   4.624090   3.949401
    15  H    3.728866   1.886830   0.974727   4.656643   2.313598
    16  H    4.363047   3.555194   4.849238   1.024450   3.174925
    17  H    3.837029   2.222131   3.520255   1.075092   1.577756
    18  H    4.362796   3.554636   4.848552   1.024457   3.174414
                   11         12         13         14         15
    11  H    0.000000
    12  H    2.485575   0.000000
    13  H    4.304355   2.481381   0.000000
    14  H    2.481463   4.301818   4.972332   0.000000
    15  H    5.758242   6.991047   6.534676   3.349612   0.000000
    16  H    5.799775   4.859584   2.750339   5.251343   5.290773
    17  H    5.705084   5.409298   3.712576   4.507788   3.823373
    18  H    5.799751   4.859941   2.750962   5.250977   5.290034
                   16         17         18
    16  H    0.000000
    17  H    1.717107   0.000000
    18  H    1.659660   1.717031   0.000000
 Stoichiometry    C7H8NO2(1+)
 Framework group  C1[X(C7H8NO2)]
 Deg. of freedom    48
 Full point group                 C1      NOp   1
 Largest Abelian subgroup         C1      NOp   1
 Largest concise Abelian subgroup C1      NOp   1
                         Standard orientation:                         
 ---------------------------------------------------------------------
 Center     Atomic      Atomic             Coordinates (Angstroms)
 Number     Number       Type             X           Y           Z
 ---------------------------------------------------------------------
      1          6           0        1.934171   -1.475825    0.000012
      2          6           0        2.619127   -0.259819    0.000008
      3          6           0        1.912382    0.947315    0.000025
      4          6           0        0.528446    0.910703    0.000013
      5          6           0       -0.187318   -0.299909    0.000023
      6          6           0        0.540598   -1.497466    0.000015
      7          6           0       -1.670463   -0.300057   -0.000056
      8          8           0       -2.216315   -1.504960    0.000200
      9          7           0       -0.235588    2.179480    0.000013
     10          8           0       -2.348195    0.734010   -0.000279
     11          1           0        2.485467   -2.409278    0.000010
     12          1           0        3.703329   -0.242507   -0.000025
     13          1           0        2.442818    1.894866    0.000032
     14          1           0        0.004175   -2.438390    0.000037
     15          1           0       -3.187504   -1.421981    0.000167
     16          1           0       -0.037151    2.746842   -0.829578
     17          1           0       -1.269746    1.885645   -0.000417
     18          1           0       -0.037848    2.746397    0.830082
 ---------------------------------------------------------------------
 Rotational constants (GHZ):      2.2383790      1.2073042      0.7876803
 Standard basis: 6-31+G(d,p) (6D, 7F)
 There are   230 symmetry adapted cartesian basis functions of A   symmetry.
 There are   230 symmetry adapted basis functions of A   symmetry.
   230 basis functions,   376 primitive gaussians,   230 cartesian basis functions
    36 alpha electrons       36 beta electrons
       nuclear repulsion energy       514.7758782628 Hartrees.
 NAtoms=   18 NActive=   18 NUniq=   18 SFac= 1.00D+00 NAtFMM=   60 NAOKFM=F Big=F
 Integral buffers will be    131072 words long.
 Raffenetti 2 integral format.
 Two-electron integral symmetry is turned on.
 Nuclear repulsion after empirical dispersion term =      514.7428778430 Hartrees.
 One-electron integrals computed using PRISM.
 NBasis=   230 RedAO= T EigKep=  2.26D-06  NBF=   230
 NBsUse=   230 1.00D-06 EigRej= -1.00D+00 NBFU=   230
 Initial guess from the checkpoint file:  "gd3b3lypAnthranilicyang.chk"
 B after Tr=    -0.000000    0.000000   -0.000000
         Rot=    0.999999    0.000001   -0.000004    0.001656 Ang=   0.19 deg.
 ExpMin= 4.38D-02 ExpMax= 5.48D+03 ExpMxC= 8.25D+02 IAcc=2 IRadAn=         4 AccDes= 0.00D+00
 Harris functional with IExCor=  402 and IRadAn=       4 diagonalized for initial guess.
 HarFok:  IExCor=  402 AccDes= 0.00D+00 IRadAn=         4 IDoV= 1 UseB2=F ITyADJ=14
 ICtDFT=  3500011 ScaDFX=  1.000000  1.000000  1.000000  1.000000
 FoFCou: FMM=F IPFlag=           0 FMFlag=      100000 FMFlg1=           0
         NFxFlg=           0 DoJE=T BraDBF=F KetDBF=T FulRan=T
         wScrn=  0.000000 ICntrl=     500 IOpCl=  0 I1Cent=   200000004 NGrid=           0
         NMat0=    1 NMatS0=      1 NMatT0=    0 NMatD0=    1 NMtDS0=    0 NMtDT0=    0
 Petite list used in FoFCou.
 Keep R1 ints in memory in canonical form, NReq=359209085.
 Requested convergence on RMS density matrix=1.00D-08 within 128 cycles.
 Requested convergence on MAX density matrix=1.00D-06.
 Requested convergence on             energy=1.00D-06.
 No special actions if energy rises.
 SCF Done:  E(RB3LYP) =  -476.610141474     A.U. after   11 cycles
            NFock= 11  Conv=0.66D-08     -V/T= 2.0094
 Calling FoFJK, ICntrl=      2127 FMM=F ISym2X=0 I1Cent= 0 IOpClX= 0 NMat=1 NMatS=1 NMatT=0.
 ***** Axes restored to original set *****
 -------------------------------------------------------------------
 Center     Atomic                   Forces (Hartrees/Bohr)
 Number     Number              X              Y              Z
 -------------------------------------------------------------------
      1        6          -0.000170371   -0.000159902    0.000000342
      2        6          -0.000259802   -0.000021314    0.000000540
      3        6          -0.000340400   -0.000031729    0.000001206
      4        6           0.000063415    0.000023577    0.000000287
      5        6           0.000031446    0.000147509    0.000005817
      6        6          -0.000163768   -0.000372612   -0.000004666
      7        6           0.000158060    0.000056355   -0.000008236
      8        8           0.000466408   -0.000282893    0.000001988
      9        7           0.000687721   -0.000236956   -0.000001714
     10        8          -0.000411678    0.000470638    0.000003936
     11        1          -0.000102748   -0.000105411    0.000000426
     12        1          -0.000141752   -0.000028017   -0.000001382
     13        1          -0.000117986    0.000115376    0.000000281
     14        1          -0.000019390   -0.000096476    0.000001433
     15        1           0.000084360   -0.000059185    0.000001183
     16        1           0.000094404    0.000159271    0.000062839
     17        1           0.000047438    0.000261907   -0.000004940
     18        1           0.000094643    0.000159863   -0.000059339
 -------------------------------------------------------------------
 Cartesian Forces:  Max     0.000687721 RMS     0.000188345

 GradGradGradGradGradGradGradGradGradGradGradGradGradGradGradGradGradGrad
 Berny optimization.
 Using GEDIIS/GDIIS optimizer.
 FormGI is forming the generalized inverse of G from B-inverse, IUseBI=4.
 Internal  Forces:  Max     0.001408855 RMS     0.000350178
 Search for a local minimum.
 Step number   3 out of a maximum of   92
 All quantities printed in internal units (Hartrees-Bohrs-Radians)
 Mixed Optimization -- En-DIIS/RFO-DIIS
 Swapping is turned off.
 Update second derivatives using D2CorX and points    1    2    3
 DE= -1.41D-05 DEPred=-2.71D-05 R= 5.18D-01
 TightC=F SS=  1.41D+00  RLast= 9.28D-03 DXNew= 2.5227D-01 2.7853D-02
 Trust test= 5.18D-01 RLast= 9.28D-03 DXMaxT set to 1.50D-01
 ITU=  1 -1  0
     Eigenvalues ---    0.00579   0.00947   0.01525   0.01525   0.01687
     Eigenvalues ---    0.02028   0.02099   0.02114   0.02128   0.02148
     Eigenvalues ---    0.02162   0.02198   0.02704   0.07014   0.07718
     Eigenvalues ---    0.15513   0.16000   0.16000   0.16000   0.16000
     Eigenvalues ---    0.16000   0.16005   0.16596   0.21996   0.22534
     Eigenvalues ---    0.24202   0.24954   0.25000   0.25669   0.32654
     Eigenvalues ---    0.33853   0.35166   0.35362   0.35421   0.35540
     Eigenvalues ---    0.37243   0.40332   0.41989   0.43356   0.43550
     Eigenvalues ---    0.44722   0.46174   0.46350   0.50946   0.52392
     Eigenvalues ---    0.61745   0.88382   1.12638
 En-DIIS/RFO-DIIS IScMMF=        0 using points:     3    2    1
 RFO step:  Lambda=-1.20402770D-05.
 DidBck=T Rises=F RFO-DIIS coefs:    0.45059    0.25396    0.29545
 Iteration  1 RMS(Cart)=  0.00225180 RMS(Int)=  0.00000174
 Iteration  2 RMS(Cart)=  0.00000297 RMS(Int)=  0.00000010
 Iteration  3 RMS(Cart)=  0.00000000 RMS(Int)=  0.00000010
 Variable       Old X    -DE/DX   Delta X   Delta X   Delta X     New X
                                 (Linear)    (Quad)   (Total)
    R1        2.63739   0.00036   0.00051  -0.00007   0.00044   2.63783
    R2        2.63379   0.00045   0.00080  -0.00012   0.00068   2.63447
    R3        2.04864   0.00014   0.00042  -0.00008   0.00034   2.04898
    R4        2.64336   0.00042   0.00068  -0.00006   0.00062   2.64399
    R5        2.04910   0.00014   0.00041  -0.00007   0.00033   2.04944
    R6        2.61617   0.00067   0.00115  -0.00001   0.00114   2.61731
    R7        2.05209   0.00016   0.00047  -0.00010   0.00037   2.05245
    R8        2.65767  -0.00008   0.00097  -0.00011   0.00086   2.65853
    R9        2.79880   0.00077   0.00214  -0.00031   0.00183   2.80063
   R10        2.64832   0.00069   0.00112   0.00011   0.00123   2.64955
   R11        2.80274   0.00030   0.00192  -0.00046   0.00146   2.80420
   R12        2.04675   0.00007   0.00042  -0.00018   0.00024   2.04699
   R13        2.49969   0.00054   0.00053   0.00003   0.00056   2.50025
   R14        2.33640   0.00017   0.00010   0.00008   0.00018   2.33658
   R15        1.84197   0.00008   0.00019  -0.00003   0.00015   1.84212
   R16        1.93593   0.00012   0.00039  -0.00014   0.00025   1.93618
   R17        2.03163  -0.00002  -0.00055   0.00064   0.00009   2.03172
   R18        1.93594   0.00012   0.00040  -0.00015   0.00025   1.93619
    A1        2.09931   0.00001   0.00000   0.00000   0.00000   2.09931
    A2        2.09513  -0.00004   0.00003  -0.00015  -0.00012   2.09501
    A3        2.08875   0.00003  -0.00003   0.00015   0.00012   2.08886
    A4        2.09894   0.00001  -0.00006   0.00003  -0.00003   2.09891
    A5        2.09975  -0.00004   0.00008  -0.00016  -0.00008   2.09967
    A6        2.08450   0.00002  -0.00003   0.00013   0.00011   2.08461
    A7        2.07402  -0.00001   0.00021   0.00011   0.00032   2.07433
    A8        2.10159  -0.00004  -0.00059   0.00014  -0.00045   2.10113
    A9        2.10758   0.00005   0.00039  -0.00025   0.00014   2.10772
   A10        2.13120  -0.00004  -0.00009  -0.00024  -0.00033   2.13087
   A11        2.08637   0.00078   0.00084  -0.00002   0.00082   2.08719
   A12        2.06562  -0.00074  -0.00075   0.00026  -0.00049   2.06513
   A13        2.06148   0.00014  -0.00034   0.00023  -0.00011   2.06136
   A14        2.10485  -0.00141  -0.00142  -0.00020  -0.00162   2.10323
   A15        2.11686   0.00126   0.00176  -0.00003   0.00174   2.11859
   A16        2.10143  -0.00013   0.00028  -0.00013   0.00015   2.10158
   A17        2.10447  -0.00001  -0.00060   0.00015  -0.00045   2.10402
   A18        2.07729   0.00013   0.00032  -0.00002   0.00031   2.07759
   A19        1.99626   0.00098   0.00122   0.00073   0.00194   1.99820
   A20        2.15086  -0.00119  -0.00155  -0.00018  -0.00174   2.14912
   A21        2.13606   0.00021   0.00034  -0.00054  -0.00020   2.13586
   A22        1.91093   0.00013   0.00023   0.00041   0.00064   1.91157
   A23        1.95467   0.00012   0.00083  -0.00029   0.00054   1.95521
   A24        1.83598   0.00032   0.00051   0.00087   0.00138   1.83736
   A25        1.95465   0.00012   0.00075  -0.00023   0.00052   1.95517
   A26        1.91492  -0.00021  -0.00050  -0.00023  -0.00073   1.91418
   A27        1.88838  -0.00014  -0.00085  -0.00005  -0.00090   1.88748
   A28        1.91478  -0.00021  -0.00076  -0.00006  -0.00081   1.91397
    D1        0.00002   0.00000   0.00005  -0.00004   0.00001   0.00003
    D2       -3.14156  -0.00000   0.00003  -0.00003  -0.00000  -3.14156
    D3       -3.14158  -0.00000   0.00005  -0.00004   0.00001  -3.14157
    D4        0.00003  -0.00000   0.00002  -0.00004  -0.00001   0.00002
    D5       -0.00001   0.00000  -0.00006   0.00005  -0.00001  -0.00002
    D6       -3.14157  -0.00000  -0.00013   0.00007  -0.00006   3.14155
    D7        3.14159   0.00000  -0.00006   0.00005  -0.00001   3.14158
    D8        0.00002  -0.00000  -0.00012   0.00007  -0.00006  -0.00003
    D9       -0.00003   0.00000   0.00002  -0.00000   0.00002  -0.00001
   D10        3.14158  -0.00000   0.00003  -0.00003   0.00000   3.14159
   D11        3.14155   0.00000   0.00005  -0.00001   0.00004   3.14159
   D12       -0.00003   0.00000   0.00006  -0.00004   0.00002  -0.00001
   D13        0.00003  -0.00000  -0.00010   0.00004  -0.00006  -0.00002
   D14       -3.14158  -0.00000  -0.00016   0.00009  -0.00007   3.14153
   D15       -3.14158  -0.00000  -0.00010   0.00007  -0.00004   3.14157
   D16       -0.00000  -0.00000  -0.00017   0.00011  -0.00006  -0.00006
   D17       -0.00003   0.00000   0.00009  -0.00004   0.00005   0.00003
   D18       -3.14154   0.00000   0.00008  -0.00002   0.00006  -3.14148
   D19        3.14159   0.00000   0.00015  -0.00008   0.00007  -3.14153
   D20        0.00007   0.00000   0.00015  -0.00007   0.00008   0.00015
   D21        1.06206  -0.00000  -0.00009  -0.00000  -0.00009   1.06197
   D22        3.14119   0.00000   0.00007   0.00010   0.00016   3.14135
   D23       -1.06304   0.00001  -0.00013   0.00044   0.00031  -1.06273
   D24       -2.07956  -0.00000  -0.00015   0.00004  -0.00011  -2.07966
   D25       -0.00042   0.00000   0.00001   0.00014   0.00015  -0.00028
   D26        2.07853   0.00001  -0.00019   0.00048   0.00029   2.07882
   D27        0.00001  -0.00000  -0.00001  -0.00001  -0.00002  -0.00000
   D28        3.14158   0.00000   0.00006  -0.00003   0.00003  -3.14158
   D29        3.14153  -0.00000  -0.00000  -0.00002  -0.00002   3.14150
   D30       -0.00009  -0.00000   0.00006  -0.00004   0.00002  -0.00007
   D31       -3.14140  -0.00000  -0.00030   0.00010  -0.00020   3.14159
   D32        0.00014   0.00000  -0.00024   0.00020  -0.00004   0.00010
   D33        0.00028  -0.00000  -0.00030   0.00011  -0.00019   0.00008
   D34       -3.14137   0.00000  -0.00025   0.00021  -0.00003  -3.14141
   D35        3.14155   0.00000   0.00000   0.00009   0.00009  -3.14154
   D36        0.00001  -0.00000  -0.00005  -0.00001  -0.00006  -0.00005
         Item               Value     Threshold  Converged?
 Maximum Force            0.001409     0.000450     NO 
 RMS     Force            0.000350     0.000300     NO 
 Maximum Displacement     0.007538     0.001800     NO 
 RMS     Displacement     0.002253     0.001200     NO 
 Predicted change in Energy=-7.679678D-06
 GradGradGradGradGradGradGradGradGradGradGradGradGradGradGradGradGradGrad

                          Input orientation:                          
 ---------------------------------------------------------------------
 Center     Atomic      Atomic             Coordinates (Angstroms)
 Number     Number       Type             X           Y           Z
 ---------------------------------------------------------------------
[...]
 ,0.0859607,-0.0000021,0.0000045,-0.0000093,0.1382945,0.0934119,0.01243
 89,0.,0.0235344,-0.0103107,-0.0000079,0.0000079,-0.0000105,0.1483757,0
 .093493,0.0182372,0.0000023,0.0165745,0.0830856,-0.0000019,-0.0000064,
 -0.0000042,0.1363096,0.4355575,-0.1251022,-0.0000121,-0.1315526,0.3212
 869,-0.0000164,-0.0000132,-0.0000157,0.3662439,0.200621,-0.0093079,0.0
 134844,-0.0157058,0.2441568,0.0463057,0.020801,0.0783848,0.2610223,0.6
 625537,-0.422502,0.0000559,-0.2374349,0.5470862,-0.0000246,0.0000744,-
 0.0000567,0.198278,0.2006491,-0.0093462,-0.0134757,-0.0157161,0.244061
 9,-0.0463064,-0.0208148,-0.0784044,0.2610254\Polar=117.8794937,0.55978
 16,102.1128743,-0.0000054,0.002129,48.7698085\PG=C01 [X(C7H8N1O2)]\NIm
 ag=0\\0.69453949,0.03863777,0.73635815,-0.00001157,0.00003200,0.137696
 97,-0.18273597,0.12080238,0.00001122,0.75453063,0.05833422,-0.29373729
 ,-0.00001554,-0.00490729,0.66622601,0.00000938,-0.00001772,-0.06405348
 ,-0.00002667,0.00002764,0.14099967,0.06465525,-0.02169332,-0.00000235,
 -0.18215023,-0.05675671,0.00000103,0.70114281,0.01595970,-0.05358736,-
 0.00000303,-0.12253626,-0.28202628,-0.00000571,-0.03779397,0.73364920,
 -0.00000087,-0.00000271,0.00670821,-0.00000085,-0.00000592,-0.06257246
 ,-0.00002671,0.00002600,0.12994287,-0.05183539,0.02865811,0.00000253,-
 0.02840390,-0.08386276,-0.00000191,-0.34883299,0.06353316,0.00001541,0
 .71065647,0.02946879,-0.01810657,-0.00000114,-0.02855095,0.03170326,0.
 00000228,-0.01597235,-0.12219806,-0.00000259,-0.04954298,0.60656953,0.
 00000323,-0.00000181,-0.00521999,0.00000047,0.00000336,0.00350729,0.00
 001240,-0.00000505,-0.06155886,-0.00002734,0.00000722,0.15945488,-0.02
 839413,-0.02712358,-0.00000003,0.00003517,0.00692803,-0.00000018,-0.03
 521042,0.01941527,0.00000206,-0.16785459,0.11444056,0.00000637,0.64867
 847,-0.06786497,0.03250913,0.00000186,-0.00227455,-0.06017708,-0.00000
 211,0.06965237,0.02547220,-0.00000100,0.05395201,-0.25069778,-0.000006
 27,0.00765755,0.69864627,-0.00000318,0.00000156,0.00724888,0.00000045,
 -0.00000317,-0.00556581,0.00000451,0.00000174,0.00988433,0.00000189,-0
 .00000859,-0.05793491,0.00001087,0.00002329,0.13556134,-0.34521394,-0.
 02944723,0.00000385,-0.02412949,0.07193784,0.00000363,-0.04756043,-0.0
 1955359,0.00000029,0.06012442,-0.02834532,-0.00000448,-0.16915750,-0.0
 5488529,0.00000019,0.70091422,0.03347789,-0.13188487,-0.00000278,0.034
 15332,0.03207430,-0.00000042,-0.02902070,-0.01316507,0.00000055,0.0207
 6094,-0.05743813,-0.00000353,-0.10926098,-0.27581090,-0.00000663,-0.04
 499694,0.72360363,0.00000548,-0.00000088,-0.06511953,0.00000193,-0.000
 00138,0.00654986,0.00000023,-0.00000006,-0.00513468,-0.00000082,-0.000
 00122,0.00461261,-0.00000131,-0.00000707,-0.06219463,-0.00000708,0.000
 02051,0.14196839,0.00349854,-0.00295324,-0.00000098,-0.00016569,-0.005
 09047,0.00000027,0.01173515,0.00521707,-0.00000041,-0.02481167,0.02979
 771,0.00000002,-0.19663207,0.00248559,-0.00000428,-0.02258660,-0.01797
 415,-0.00000218,0.71160513,-0.00438119,-0.00622331,-0.00000030,-0.0004
 4987,-0.00351149,0.00000003,0.00463937,-0.00677195,-0.00000061,0.03347
 874,0.01415299,-0.00000025,0.01106046,-0.10255308,0.00000147,-0.027860
 49,0.01069728,-0.00000019,0.09615066,0.86742498,0.00000096,-0.00000034
 ,0.00849892,-0.00000018,0.00000035,-0.00133314,0.00000055,-0.00000118,
 0.00605873,0.00000285,0.00000284,-0.00152580,-0.00000986,0.00000140,-0
 .07577583,-0.00000109,-0.00000143,-0.00069780,0.00006477,0.00008932,0.
 20607976,0.00104867,0.00060340,-0.00000008,-0.00014050,0.00224676,0.,-
 0.00331812,0.00115774,0.00000011,-0.00464511,-0.00863254,-0.00000056,-
 0.03245264,0.04487442,0.00000115,-0.00399303,0.00235792,-0.00000001,-0
 .18009365,0.11325972,-0.00000025,0.66876820,0.00058331,0.00047418,-0.0
 0000002,-0.00020728,-0.00117913,-0.00000003,0.00202115,0.00203111,0.00
 000007,-0.00408268,0.00110265,0.00000035,0.01950195,-0.00506360,-0.000
 00014,-0.00244615,-0.00456300,-0.00000058,0.07425471,-0.29484656,-0.00
 001614,-0.06419211,0.45122493,-0.00000030,0.00000013,-0.00062496,-0.00
 000003,-0.00000030,-0.00006247,0.00000025,0.00000048,-0.00061605,-0.00
 000118,-0.00000092,0.00213002,-0.00000059,0.00000204,0.00933976,-0.000
 00034,0.00000007,0.00040549,-0.00000328,-0.00001090,-0.06419784,0.0000
 5377,0.00003821,0.04167857,0.00103788,-0.00061825,0.00000005,-0.007206
 87,0.00573356,0.00000226,-0.02029000,-0.04758230,0.00000130,-0.1222107
 5,-0.02549344,0.00000718,0.01433809,0.00637322,-0.00000093,-0.00063947
 ,0.00092390,-0.00000031,-0.02340237,-0.01641101,-0.00000530,0.00272414
 ,0.00908869,0.00000221,0.54115117,0.00202763,-0.00154012,-0.00000019,0
 .00056260,0.00592555,-0.00000088,-0.00928285,-0.00879539,0.00000072,-0
 .03726186,-0.16116062,-0.00000003,-0.02267560,-0.03110402,0.00000069,0
 .00520470,-0.00381362,0.00000007,0.00198837,0.00677308,0.00000130,-0.0
 0003247,-0.00369955,-0.00000050,-0.08682756,0.59752064,-0.00000105,0.0
 0000107,-0.00123532,-0.00000035,-0.00000164,0.00714425,0.00000083,0.00
 000214,0.00181577,0.00000807,0.00000124,-0.07276102,-0.00000329,-0.000
 00311,-0.00081112,0.00000277,-0.00000046,0.00744515,-0.00000037,0.0000
 0038,-0.00283017,0.00000021,0.00000117,-0.00131519,-0.00006510,0.00004
 726,0.70717933,-0.00216495,-0.00161736,0.00000058,0.00024559,0.0001233
 4,-0.00000010,-0.00194816,-0.00154061,0.00000010,0.00585581,-0.0039205
 3,-0.00000027,-0.03285401,-0.04327137,-0.00001064,-0.00478022,0.007441
 05,-0.00000004,-0.28660596,-0.23964909,-0.00005675,0.03612899,0.006423
 91,0.00000124,-0.01902070,0.02328486,-0.00000182,0.32668564,-0.0016744
 3,0.00169521,0.00000039,0.00046821,0.00087221,-0.00000024,-0.00283051,
 0.00167866,0.00000003,-0.00137077,-0.01913748,0.00000112,-0.03086595,-
 0.00533832,-0.00000666,0.00146056,0.00474574,0.00000026,-0.22388992,-0
 .45014502,-0.00007665,-0.01686069,-0.10804082,-0.00001941,0.04794455,-
 0.01814602,0.00000226,0.26461479,0.56521528,-0.00000007,-0.00000049,-0
 .00187800,0.00000023,0.00000044,0.00035879,-0.00000098,-0.00000022,-0.
 00054323,0.00000089,-0.00000134,-0.00015633,-0.00000565,-0.00000836,0.
 01888761,-0.00000135,0.00000144,0.00341743,-0.00005946,-0.00008061,-0.
 07405731,-0.00000054,-0.00001476,0.02676328,-0.00000115,0.00000247,0.0
 1034148,0.00007044,0.00010004,0.03732443,-0.13473698,-0.12709133,-0.00
 000472,0.01240440,0.01559149,0.00000059,-0.00101567,0.00345871,0.00000
 041,-0.00105362,0.00106289,0.00000016,-0.00497681,0.00117912,0.0000001
 5,-0.01178522,-0.02759750,-0.00000087,0.00049862,-0.00154500,0.0000001
 6,-0.00013577,0.00019634,-0.00000003,0.00030898,-0.00012447,-0.0000000
 6,-0.00077596,-0.00027785,-0.00000017,0.13921555,-0.12716477,-0.274320
 22,-0.00000986,-0.01480148,-0.01771197,-0.00000069,0.00318060,-0.00292
 893,-0.00000075,0.00118213,0.00012810,0.,0.00118611,0.00127159,-0.0000
 0039,0.00285822,0.00586834,-0.00000002,0.00017517,0.00029940,-0.000000
 04,-0.00002600,0.00000732,0.,-0.00026824,0.00006245,0.,0.00011546,0.00
 004927,0.00000005,0.13431702,0.28651444,-0.00000497,-0.00000991,-0.040
 36729,-0.00000096,-0.00000180,0.00428162,0.00000073,-0.00000059,0.0071
 7052,0.00000011,0.00000009,0.00002008,0.00000014,-0.00000006,0.0071231
 2,0.00000058,0.00000082,0.00402436,0.00000005,0.00000005,0.00033565,0.
 00000001,0.00000003,0.00001724,-0.00000018,0.00000015,-0.00108899,0.,0
 .,-0.00027269,0.00000463,0.00001105,0.02699020,-0.00880723,-0.00187596
 ,0.00000049,-0.34927644,0.00474012,0.00001380,-0.00977881,0.00188368,0
 .00000067,0.00088656,-0.00208232,0.00000031,0.00092653,0.00016570,-0.0
 0000007,0.00020942,0.00239742,0.00000046,-0.00035165,0.00003029,-0.000
 00005,0.00001776,-0.00004717,0.,-0.00064634,0.00014073,-0.00000005,0.0
 0003950,0.00014171,0.,0.00073119,-0.00006525,-0.00000022,0.36560599,0.
 02824711,0.00479720,-0.00000127,0.00520464,-0.05993663,-0.00000144,-0.
 02855071,0.00370452,0.00000105,-0.00154529,-0.00386565,-0.00000027,-0.
 00003674,-0.00124716,-0.00000005,0.00264336,-0.00486452,-0.00000072,-0
 .00019036,-0.00034918,0.00000004,0.00007676,0.00015310,0.,-0.00226424,
 -0.00024004,-0.00000006,0.00002658,0.00040297,0.00000003,-0.00027936,0
 .00092781,0.00000027,-0.00504506,0.05964102,0.00000183,0.00000045,0.00
 561757,0.00001406,-0.00000189,-0.04129989,-0.00000061,0.00000025,0.004
 50328,-0.00000009,-0.00000043,0.00701809,-0.00000022,-0.00000015,-0.00
 082879,0.00000045,-0.00000090,0.00728340,0.00000007,-0.00000001,-0.001
 13618,0.00000002,0.00000002,0.00020256,-0.00000035,0.00000015,0.000145
 21,-0.00000003,0.,0.00013480,-0.00000014,0.00000030,-0.00394923,-0.000
 01516,0.00000206,0.02674533,-0.00164438,-0.00332230,0.00000018,0.01307
 582,-0.01557474,-0.00000090,-0.12831896,0.12134881,0.00000937,-0.01126
 358,0.02860703,0.00000140,-0.00481648,-0.00225695,0.00000040,-0.000487
 90,-0.00070428,-0.00000007,0.00070352,0.00175714,0.00000032,-0.0007135
 2,-0.00008461,-0.00000011,0.00325782,0.00013104,0.00000035,0.00011153,
 -0.00088636,-0.00000003,0.00052008,-0.00076851,-0.00000011,0.00073737,
 0.00022617,-0.00000019,0.13148039,-0.00382324,-0.00284094,-0.00000032,
 0.01493629,-0.01816928,-0.00000133,0.12130094,-0.27331093,-0.00001545,
 -0.00302288,0.00261833,0.00000017,-0.00061008,0.00135368,-0.00000022,-
 0.00098825,-0.00001361,0.00000010,-0.00062756,-0.00005842,-0.00000015,
 0.00000275,0.00005292,0.00000002,-0.00013582,0.00144045,0.00000022,0.0
 0008455,0.00030840,0.00000005,0.00083791,-0.00080694,-0.00000012,0.000
 10268,0.00106339,0.00000021,-0.12892459,0.28781827,-0.00000016,-0.0000
 0010,0.00666041,0.00000002,-0.00000096,0.00401838,0.00001059,-0.000015
 08,-0.03593192,-0.00000089,-0.00000148,0.00355706,0.00000064,-0.000000
 04,0.00590237,0.00000018,0.00000028,-0.00101467,-0.00000036,-0.0000003
 7,0.00143943,0.00000013,0.00000002,-0.00023610,-0.00000109,0.00000115,
 -0.00363344,0.,0.00000023,-0.00014548,0.,0.,-0.00010868,-0.00000022,0.
 00000019,-0.00386794,-0.00000996,0.00001664,0.02469845,-0.00937812,0.0
 2721587,0.00000110,-0.00558268,-0.00064799,0.00000016,-0.00083104,-0.0
 0093886,-0.00000007,-0.00164052,-0.00216238,0.00000002,0.01182001,-0.0
 1599629,-0.00000058,-0.12909912,0.12631949,0.00000414,0.00174988,-0.00
 182002,-0.00000025,-0.00358619,-0.00021564,-0.00000007,-0.00010736,-0.
 00155012,-0.00000017,0.00000725,0.00133440,0.00000020,0.00105712,-0.00
 010464,-0.00000005,-0.00040454,0.00127951,0.00000014,0.00007758,0.0000
 9014,0.,0.13527435,-0.00239291,0.00614634,0.00000006,-0.00111413,0.000
 92694,-0.00000006,-0.00028385,0.00030274,0.00000002,-0.00366208,-0.001
 16228,0.00000008,0.01273334,-0.01890866,-0.00000100,0.12427462,-0.2816
 5601,-0.00000827,0.00149360,-0.00225448,0.00000004,0.00075864,0.001135
 74,0.00000009,0.00020666,-0.00098358,-0.00000031,0.00000188,0.00112234
 ,0.00000010,0.00007184,0.00066011,0.00000009,-0.00025271,0.00022028,0.
 00000007,0.00008668,0.00001230,0.,-0.13230696,0.29439847,0.00000125,-0
 .00000078,0.00579166,0.00000022,0.00000019,0.00712397,-0.00000044,-0.0
 0000013,-0.00096002,0.00000029,-0.00000056,0.00560647,-0.00000020,0.00
 000014,0.00363627,0.00000314,-0.00000810,-0.04031431,0.00000071,0.0000
 0011,-0.00419691,0.,0.00000009,0.00037015,-0.00000005,-0.00000001,0.00
 105503,-0.00000021,-0.00000017,0.00059279,-0.00000008,0.00000028,-0.00
 408316,-0.00000002,0.00000007,-0.00054389,-0.00000004,0.00000003,-0.00
 068501,-0.00000470,0.00000895,0.02671476,-0.00007525,-0.00014743,0.,0.
 00005419,-0.00034638,-0.00000002,0.00057553,0.00055700,0.00000005,-0.0
 0120708,-0.00015219,0.,0.00231572,0.00203344,-0.00000061,0.00065668,-0
 .00012007,0.,-0.02677726,0.00888934,-0.00000149,-0.47696349,-0.0267000
 8,-0.00004851,0.00138024,-0.00054843,0.00000017,0.00183711,-0.00990473
 ,-0.00000050,0.00001579,0.00000242,0.,-0.00000194,-0.00001366,0.,-0.00
 003898,-0.00000924,0.00000002,-0.00006417,-0.00012426,0.,0.50008178,-0
 .00007608,0.00033464,0.00000005,-0.00016195,-0.00000648,-0.00000001,-0
 .00000539,-0.00054275,0.00000004,0.00162465,0.00086958,-0.00000016,0.0
 0095741,-0.00602918,-0.00000081,-0.00086746,-0.00037921,-0.00000001,0.
 05581695,0.00224602,0.00000556,-0.07594476,-0.05032154,-0.00001060,-0.
 00157965,0.00074182,-0.00000015,-0.00704146,0.00282553,0.00000006,-0.0
 0001933,0.00000852,0.,-0.00001365,0.00002601,0.,0.00012577,0.00000602,
 0.,0.00024041,0.00066404,0.,0.02500956,0.05131306,0.,-0.00000002,0.000
 07444,0.,-0.00000004,0.00008479,0.00000005,0.00000002,-0.00031137,-0.0
 0000007,0.,0.00078172,0.00000034,-0.00000091,0.00534875,0.00000005,0.,
 -0.00036703,0.00000170,0.00000114,0.00310576,-0.00005335,-0.00000608,-
 0.01669263,-0.00000005,0.00000006,0.00023900,0.00000012,0.00000009,-0.
 00576287,0.,0.,0.00002624,0.,0.,-0.00002562,0.,0.,-0.00015294,0.,-0.00
 000002,-0.00014600,0.00005115,0.00000579,0.01387108,0.00057964,-0.0004
 8900,-0.00020047,-0.00006383,0.00060671,0.00067422,0.00060795,-0.00166
 091,0.00031304,0.00476223,-0.01135716,-0.01629103,-0.00136658,-0.00009
 402,-0.00109916,-0.00072935,-0.00060727,0.00080126,-0.00071117,-0.0007
 4734,-0.00047945,0.00003987,0.00033388,0.00058389,-0.06854368,0.041210
 46,0.06062218,-0.00291692,0.00266156,-0.00246783,-0.00002752,0.0000692
 2,-0.00008000,-0.00001742,-0.00000091,-0.00000678,-0.00088819,0.000336
 74,-0.00045473,-0.00006851,-0.00007715,0.00017500,0.00004171,-0.000040
 11,-0.00000740,0.06404006,-0.00029824,0.00035987,-0.00022817,0.0001215
 8,-0.00118969,0.00116614,0.00159837,0.00236424,0.00035249,0.00477722,-
 0.02030998,-0.01927349,-0.00282527,-0.00133926,-0.00118521,0.00065154,
 -0.00061595,0.00112266,-0.00043824,-0.00101015,-0.00057532,-0.00013114
 ,0.00052812,-0.00009560,0.04053831,-0.15906163,-0.15858395,0.00035261,
 0.00090908,0.00054133,-0.00002052,0.00002437,-0.00019594,0.00002190,0.
 00008810,-0.00000845,-0.00034700,0.00027098,-0.00080245,-0.00018338,-0
 .00016701,0.00021228,0.00011381,-0.00006724,-0.00000143,-0.03929316,0.
 16860367,-0.00032380,0.00044622,0.00001277,-0.00000036,-0.00054279,0.0
 0028345,0.00078595,0.00120419,0.00043226,-0.00387801,-0.00079956,0.006
 71867,0.00034387,0.00140612,-0.00036854,0.00020876,0.00048406,-0.00020
 416,0.00055653,-0.00080971,0.00038662,-0.00035117,0.00062454,-0.000021
 98,0.05623366,-0.14955121,-0.29173616,-0.00146963,0.00152274,-0.000648
 64,-0.00001222,0.00001969,-0.00005902,0.00004854,0.00008085,0.00002172
 ,-0.00034617,-0.00012736,-0.00014798,0.00005431,0.00009936,0.00001885,
 0.00010864,-0.00006301,0.00006218,-0.06348233,0.16420390,0.30506683,-0
 .00095305,0.00095045,-0.00000015,-0.00042630,0.00033748,0.00000006,-0.
 00006865,0.00073604,-0.00000115,-0.02327489,-0.01580931,-0.00000178,-0
 .00303337,-0.00163904,-0.00000020,-0.00101233,0.00305689,0.00000043,0.
 03305565,0.02434288,0.00000630,-0.00272529,-0.01476142,-0.00000302,-0.
 23365535,0.04264977,-0.00004733,-0.01692877,-0.03272210,-0.00000252,-0
 .00021670,0.00004337,0.00000001,0.00014748,0.00022313,0.00000010,-0.00
 090453,0.00011342,0.00000013,0.00084445,0.00066374,0.00000012,-0.00187
 220,0.00201503,0.00000012,0.00351602,0.00080082,0.00298446,0.24398931,
 0.00123723,-0.00079335,-0.00000006,-0.00136677,0.00110661,0.00000093,-
 0.00180094,-0.00823826,0.00000025,-0.02837864,0.01723518,-0.00000792,0
 .00233983,0.00035400,0.,-0.00028972,-0.00216837,0.00000007,-0.01577682
 ,-0.03285900,-0.00000547,0.00061262,0.01047603,0.00000142,0.02994116,-
 0.06500632,0.00000562,-0.00578170,0.02007379,0.00000189,0.00026049,-0.
 00007802,-0.00000008,-0.00026398,-0.00060918,-0.00000012,0.00093314,-0
 .00001521,-0.00000035,-0.00037035,-0.00029042,-0.00000003,0.00134711,-
 0.00162159,-0.00000006,0.01458249,-0.00433413,0.00034125,-0.01180226,0
 .07110098,0.00000001,-0.00000002,0.00017617,0.00000023,0.00000023,0.00
 025149,0.00000055,0.00000094,0.00068012,0.00000202,-0.00000256,-0.0009
 7218,-0.00000081,-0.00000038,0.00091569,-0.00000019,0.00000030,-0.0004
 5534,0.00000533,0.00000161,-0.00054094,-0.00000099,-0.00000211,0.00288
 252,-0.00004112,0.00000492,-0.06803061,-0.00000051,-0.00000379,-0.0137
 0854,-0.00000003,0.00000002,-0.00000094,0.00000005,0.00000010,-0.00004
 215,-0.00000035,0.00000010,-0.00020335,0.00000009,0.00000008,0.0000003
 8,-0.00000021,0.00000031,-0.00019772,0.02992420,-0.00516820,0.00280637
 ,0.00004795,-0.00000850,0.07365060,0.00057992,-0.00048899,0.00020034,-
 0.00006391,0.00060680,-0.00067560,0.00060679,-0.00166067,-0.00031275,0
 .00474861,-0.01135551,0.01629389,-0.00136538,-0.00009095,0.00110003,-0
 .00073013,-0.00060693,-0.00080125,-0.00070839,-0.00074461,0.00047877,0
 .00003969,0.00033319,-0.00058393,-0.06847544,0.04110322,-0.06051498,-0
 .00291575,0.00265752,0.00246849,-0.00002750,0.00006917,0.00008022,-0.0
 0001742,-0.00000093,0.00000691,-0.00088758,0.00033625,0.00045569,-0.00
 006837,-0.00007696,-0.00017500,0.00004162,-0.00003995,0.00000734,0.001
 74570,-0.00543922,0.00853898,0.00351852,0.01457709,-0.02993624,0.06397
 902,-0.00029782,0.00035932,0.00022831,0.00012152,-0.00118957,-0.001166
 36,0.00159849,0.00236232,-0.00035219,0.00476298,-0.02030306,0.01928648
 ,-0.00282232,-0.00133783,0.00118411,0.00064959,-0.00061600,-0.00112327
 ,-0.00043906,-0.00101110,0.00057585,-0.00013100,0.00052808,0.00009578,
 0.04043046,-0.15891309,0.15852831,0.00035310,0.00090917,-0.00054211,-0
 .00002045,0.00002434,0.00019594,0.00002185,0.00008797,0.00000844,-0.00
 034644,0.00027060,0.00080229,-0.00018320,-0.00016687,-0.00021234,0.000
 11379,-0.00006725,0.00000146,-0.00543403,0.01494663,-0.01853927,0.0008
 0110,-0.00433274,0.00517695,-0.03917854,0.16844907,0.00032382,-0.00044
 666,0.00001257,0.00000056,0.00054322,0.00028368,-0.00078659,-0.0012047
 3,0.00043252,0.00387625,0.00080673,0.00672220,-0.00034217,-0.00140540,
 -0.00036847,-0.00020936,-0.00048379,-0.00020453,-0.00055812,0.00080885
 ,0.00038705,0.00035153,-0.00062462,-0.00002237,-0.05613105,0.14949388,
 -0.29192319,0.00146750,-0.00152025,-0.00064752,0.00001223,-0.00001965,
 -0.00005903,-0.00004854,-0.00008084,0.00002175,0.00034591,0.00012741,-
 0.00014860,-0.00005425,-0.00009929,0.00001897,-0.00010869,0.00006296,0
 .00006224,-0.00852461,0.01851942,-0.02262324,-0.00298353,-0.00032885,0
 .00278843,0.06336909,-0.16414839,0.30526755\\-0.00001277,0.00002311,-0
 .00000003,0.00001388,-0.00002946,-0.00000011,0.00004984,0.00002461,0.0
 0000050,-0.00008373,-0.00006148,0.00000043,-0.00003636,-0.00000353,0.0
 0000097,0.00001976,0.00003264,0.00000006,0.00005987,0.00008191,-0.0000
 1132,-0.00000545,0.00001251,0.00000368,0.00007580,-0.00002048,0.000013
 57,-0.00008866,-0.00011177,0.00000669,0.00001228,0.00000924,-0.0000005
 8,0.00001206,0.00000595,0.00000032,0.00001072,-0.00001365,0.00000055,-
 0.00001511,0.00001042,0.00000049,0.00001186,-0.00001520,-0.00000029,-0
 .00000395,-0.00001594,-0.00001372,-0.00002382,0.00008858,-0.00000922,0
 .00000378,-0.00001746,0.00000800\\\@


 EXPERIMENTALISTS THINK SILICON IS REALLY FUN TO USE
     ITS PLACE IN NOVEL COMPOUNDS IS CERTAIN TO AMUSE
 THEY SIT ALL DAY IN LABORATORIES MAKING ALL THIS SLUDGE
     "LOADED WITH THE SILICON THEY SAY", TO ME IT LOOKS LIKE FUDGE.
 FOR HAPPY THOUGH THEY BE WITH CRUD, I'D LIKE TO KNOW A LITTLE
      ABOUT THE PI BONDS ON THE EDGE AND SIGMAS IN THE MIDDLE.

 SO LETS DERIVE A WAVEFUNCTION.....6-31G*
     USE AN OPTIMAL GEOMETRY AND SEE WHERE ELECTRONS ARE.
 BUT WHAT OF CORRELATION?  ASKS THE WIRY LITTLE SKEPTIC.
     WE'LL THROW IN PERTURBATION AS AN ELECTRON ANTISEPTIC.
 AND WHEN THE PROGRAM GIVES US ANSWERS IN THEM WE CAN TRUST
     SINCE NOBODY CAN MAKE THE STUFF, WE HAVE NO CHOICE, WE MUST.

 SO THEORY GUYS HAVE GOT IT MADE, IN ROOMS FREE OF POLLUTION.
     INSTEAD OF PROBLEMS WITH THE REFLUX, THEY HAVE ONLY SOLUTIONS.
 AND WHEN THE FEDS ANNOUNCE THE LIST OF CARCINOGENIC TERRORS,
     THE THEORISTS SIT SAFELY AT THEIR TERMINALS FIXING ERRORS.
 IN OTHER WORDS, EXPERIMENTALISTS WILL LIKELY DIE OF CANCER
     FROM WORKING HARD YET FRUITLESSLY...TILL THEORY GIVES THE ANSWER.
          -- THOMAS A. HOLME, 1983
 Job cpu time:       0 days  0 hours 21 minutes 27.5 seconds.
 File lengths (MBytes):  RWF=    100 Int=      0 D2E=      0 Chk=      5 Scr=      1
 Normal termination of Gaussian 09 at Sat Jun 22 17:13:16 2024.
