 Entering Gaussian System, Link 0=g09
 Input=B3PWD3BJAnthranilic.gjf
 Output=B3PWD3BJAnthranilic.log
 Initial command:
 /home/c612/g09E/g09/l1.exe "/mnt/ja_sm883/scratch/Gau-1964849.inp" -scrdir="/mnt/ja_sm883/scratch/"
 Default is to use a total of  18 processors:
                               18 via shared-memory
                                1 via Linda
 Entering Link 1 = /home/c612/g09E/g09/l1.exe PID=   1964851.
  
 Copyright (c) 1988,1990,1992,1993,1995,1998,2003,2009,2015,
            Gaussian, Inc.  All Rights Reserved.
  
 This is part of the Gaussian(R) 09 program.  It is based on
 the Gaussian(R) 03 system (copyright 2003, Gaussian, Inc.),
 the Gaussian(R) 98 system (copyright 1998, Gaussian, Inc.),
 the Gaussian(R) 94 system (copyright 1995, Gaussian, Inc.),
 the Gaussian 92(TM) system (copyright 1992, Gaussian, Inc.),
 the Gaussian 90(TM) system (copyright 1990, Gaussian, Inc.),
 the Gaussian 88(TM) system (copyright 1988, Gaussian, Inc.),
 the Gaussian 86(TM) system (copyright 1986, Carnegie Mellon
 University), and the Gaussian 82(TM) system (copyright 1983,
 Carnegie Mellon University). Gaussian is a federally registered
 trademark of Gaussian, Inc.
  
 This software contains proprietary and confidential information,
 including trade secrets, belonging to Gaussian, Inc.
  
 This software is provided under written license and may be
 used, copied, transmitted, or stored only in accord with that
 written license.
  
 The following legend is applicable only to US Government
 contracts under FAR:
  
                    RESTRICTED RIGHTS LEGEND
  
 Use, reproduction and disclosure by the US Government is
 subject to restrictions as set forth in subparagraphs (a)
 and (c) of the Commercial Computer Software - Restricted
 Rights clause in FAR 52.227-19.
  
 Gaussian, Inc.
 340 Quinnipiac St., Bldg. 40, Wallingford CT 06492
  
  
 ---------------------------------------------------------------
 Warning -- This program may not be used in any manner that
 competes with the business of Gaussian, Inc. or will provide
 assistance to any competitor of Gaussian, Inc.  The licensee
 of this program is prohibited from giving any competitor of
 Gaussian, Inc. access to this program.  By using this program,
 the user acknowledges that Gaussian, Inc. is engaged in the
 business of creating and licensing software in the field of
 computational chemistry and represents and warrants to the
 licensee that it is not a competitor of Gaussian, Inc. and that
 it will not use this program in any manner prohibited above.
 ---------------------------------------------------------------
  

 Cite this work as:
 Gaussian 09, Revision E.01,
 M. J. Frisch, G. W. Trucks, H. B. Schlegel, G. E. Scuseria, 
 M. A. Robb, J. R. Cheeseman, G. Scalmani, V. Barone, B. Mennucci, 
 G. A. Petersson, H. Nakatsuji, M. Caricato, X. Li, H. P. Hratchian, 
 A. F. Izmaylov, J. Bloino, G. Zheng, J. L. Sonnenberg, M. Hada, 
 M. Ehara, K. Toyota, R. Fukuda, J. Hasegawa, M. Ishida, T. Nakajima, 
 Y. Honda, O. Kitao, H. Nakai, T. Vreven, J. A. Montgomery, Jr., 
 J. E. Peralta, F. Ogliaro, M. Bearpark, J. J. Heyd, E. Brothers, 
 K. N. Kudin, V. N. Staroverov, T. Keith, R. Kobayashi, J. Normand, 
 K. Raghavachari, A. Rendell, J. C. Burant, S. S. Iyengar, J. Tomasi, 
 M. Cossi, N. Rega, J. M. Millam, M. Klene, J. E. Knox, J. B. Cross, 
 V. Bakken, C. Adamo, J. Jaramillo, R. Gomperts, R. E. Stratmann, 
 O. Yazyev, A. J. Austin, R. Cammi, C. Pomelli, J. W. Ochterski, 
 R. L. Martin, K. Morokuma, V. G. Zakrzewski, G. A. Voth, 
 P. Salvador, J. J. Dannenberg, S. Dapprich, A. D. Daniels, 
 O. Farkas, J. B. Foresman, J. V. Ortiz, J. Cioslowski, 
 and D. J. Fox, Gaussian, Inc., Wallingford CT, 2013.
 
 ******************************************
 Gaussian 09:  ES64L-G09RevE.01 30-Nov-2015
                19-Dec-2024 
 ******************************************
 %chk=B3PWD3BJAnthranilic.chk
 -------------------------------------------------------
 # opt freq b3pw91/6-31+g(d,p) EmpiricalDispersion=GD3BJ
 -------------------------------------------------------
 1/14=-1,18=20,19=15,26=3,38=1/1,3;
 2/9=110,12=2,17=6,18=5,40=1/2;
 3/5=1,6=6,7=111,11=2,16=1,25=1,30=1,71=1,74=-6,124=41/1,2,3;
 4//1;
 5/5=2,38=5/2;
 6/7=2,8=2,9=2,10=2,28=1/1;
 7//1,2,3,16;
 1/14=-1,18=20,19=15,26=3/3(2);
 2/9=110/2;
 99//99;
 2/9=110/2;
 3/5=1,6=6,7=111,11=2,16=1,25=1,30=1,71=1,74=-6,124=41/1,2,3;
 4/5=5,16=3,69=1/1;
 5/5=2,38=5/2;
 7//1,2,3,16;
 1/14=-1,18=20,19=15,26=3/3(-5);
 2/9=110/2;
 6/7=2,8=2,9=2,10=2,19=2,28=1/1;
 99/9=1/99;
 ----------
 [No Title]
 ----------
 Symbolic Z-matrix:
 Charge =  0 Multiplicity = 1
 C                    -1.8597   -1.51697  0. 
 C                    -2.58481  -0.31511   0.00006 
 C                    -1.93787   0.90638   0.00006 
 C                    -0.52585   0.98761  -0.00001 
 C                     0.2118   -0.23213  -0.00008 
 C                    -0.47763  -1.46048  -0.00007 
 C                     1.67474  -0.20583  -0.00015 
 O                     2.25067  -1.43093   0.00006 
 N                     0.08522   2.1996   -0.00001 
 O                     2.37545   0.80257   0.00007 
 H                    -2.3729   -2.47295  0. 
 H                    -3.67157  -0.3378    0.00011 
 H                    -2.51344   1.82888   0.00011 
 H                     0.10645  -2.37429  -0.00011 
 H                     3.20723  -1.27408   0.00018 
 H                     1.09659   2.23647  -0.0001 
 H                    -0.46195   3.04264   0. 
 

 GradGradGradGradGradGradGradGradGradGradGradGradGradGradGradGradGradGrad
 Berny optimization.
 Initialization pass.
                           ----------------------------
                           !    Initial Parameters    !
                           ! (Angstroms and Degrees)  !
 --------------------------                            --------------------------
 ! Name  Definition              Value          Derivative Info.                !
 --------------------------------------------------------------------------------
 ! R1    R(1,2)                  1.4037         estimate D2E/DX2                !
 ! R2    R(1,6)                  1.3832         estimate D2E/DX2                !
 ! R3    R(1,11)                 1.085          estimate D2E/DX2                !
 ! R4    R(2,3)                  1.3822         estimate D2E/DX2                !
 ! R5    R(2,12)                 1.087          estimate D2E/DX2                !
 ! R6    R(3,4)                  1.4144         estimate D2E/DX2                !
 ! R7    R(3,13)                 1.0873         estimate D2E/DX2                !
 ! R8    R(4,5)                  1.4254         estimate D2E/DX2                !
 ! R9    R(4,9)                  1.3573         estimate D2E/DX2                !
 ! R10   R(5,6)                  1.4086         estimate D2E/DX2                !
 ! R11   R(5,7)                  1.4632         estimate D2E/DX2                !
 ! R12   R(6,14)                 1.0845         estimate D2E/DX2                !
 ! R13   R(7,8)                  1.3537         estimate D2E/DX2                !
 ! R14   R(7,10)                 1.2279         estimate D2E/DX2                !
 ! R15   R(8,15)                 0.9693         estimate D2E/DX2                !
 ! R16   R(9,16)                 1.012          estimate D2E/DX2                !
 ! R17   R(9,17)                 1.005          estimate D2E/DX2                !
 ! A1    A(2,1,6)              118.7631         estimate D2E/DX2                !
 ! A2    A(2,1,11)             120.668          estimate D2E/DX2                !
 ! A3    A(6,1,11)             120.5689         estimate D2E/DX2                !
 ! A4    A(1,2,3)              120.9891         estimate D2E/DX2                !
 ! A5    A(1,2,12)             119.9074         estimate D2E/DX2                !
 ! A6    A(3,2,12)             119.1035         estimate D2E/DX2                !
 ! A7    A(2,3,4)              121.1994         estimate D2E/DX2                !
 ! A8    A(2,3,13)             120.1315         estimate D2E/DX2                !
 ! A9    A(4,3,13)             118.6691         estimate D2E/DX2                !
 ! A10   A(3,4,5)              117.8717         estimate D2E/DX2                !
 ! A11   A(3,4,9)              120.0487         estimate D2E/DX2                !
 ! A12   A(5,4,9)              122.0796         estimate D2E/DX2                !
 ! A13   A(4,5,6)              119.5321         estimate D2E/DX2                !
 ! A14   A(4,5,7)              120.1338         estimate D2E/DX2                !
 ! A15   A(6,5,7)              120.3341         estimate D2E/DX2                !
 ! A16   A(1,6,5)              121.6447         estimate D2E/DX2                !
 ! A17   A(1,6,14)             120.2449         estimate D2E/DX2                !
 ! A18   A(5,6,14)             118.1104         estimate D2E/DX2                !
 ! A19   A(5,7,8)              114.1485         estimate D2E/DX2                !
 ! A20   A(5,7,10)             125.8246         estimate D2E/DX2                !
 ! A21   A(8,7,10)             120.0269         estimate D2E/DX2                !
 ! A22   A(7,8,15)             105.8662         estimate D2E/DX2                !
 ! A23   A(4,9,16)             118.8439         estimate D2E/DX2                !
 ! A24   A(4,9,17)             120.2582         estimate D2E/DX2                !
 ! A25   A(16,9,17)            120.8978         estimate D2E/DX2                !
 ! D1    D(6,1,2,3)              0.0001         estimate D2E/DX2                !
 ! D2    D(6,1,2,12)          -179.9999         estimate D2E/DX2                !
 ! D3    D(11,1,2,3)           179.9999         estimate D2E/DX2                !
 ! D4    D(11,1,2,12)            0.0            estimate D2E/DX2                !
 ! D5    D(2,1,6,5)             -0.0004         estimate D2E/DX2                !
 ! D6    D(2,1,6,14)           179.9999         estimate D2E/DX2                !
 ! D7    D(11,1,6,5)           179.9998         estimate D2E/DX2                !
 ! D8    D(11,1,6,14)            0.0            estimate D2E/DX2                !
 ! D9    D(1,2,3,4)              0.0001         estimate D2E/DX2                !
 ! D10   D(1,2,3,13)           179.9999         estimate D2E/DX2                !
 ! D11   D(12,2,3,4)          -180.0            estimate D2E/DX2                !
 ! D12   D(12,2,3,13)           -0.0001         estimate D2E/DX2                !
 ! D13   D(2,3,4,5)              0.0001         estimate D2E/DX2                !
 ! D14   D(2,3,4,9)            179.9997         estimate D2E/DX2                !
 ! D15   D(13,3,4,5)          -179.9998         estimate D2E/DX2                !
 ! D16   D(13,3,4,9)            -0.0001         estimate D2E/DX2                !
 ! D17   D(3,4,5,6)             -0.0003         estimate D2E/DX2                !
 ! D18   D(3,4,5,7)            179.9999         estimate D2E/DX2                !
 ! D19   D(9,4,5,6)            180.0            estimate D2E/DX2                !
 ! D20   D(9,4,5,7)              0.0002         estimate D2E/DX2                !
 ! D21   D(3,4,9,16)          -179.9974         estimate D2E/DX2                !
 ! D22   D(3,4,9,17)            -0.0019         estimate D2E/DX2                !
 ! D23   D(5,4,9,16)             0.0023         estimate D2E/DX2                !
 ! D24   D(5,4,9,17)           179.9978         estimate D2E/DX2                !
 ! D25   D(4,5,6,1)              0.0005         estimate D2E/DX2                !
 ! D26   D(4,5,6,14)          -179.9997         estimate D2E/DX2                !
 ! D27   D(7,5,6,1)           -179.9997         estimate D2E/DX2                !
 ! D28   D(7,5,6,14)             0.0001         estimate D2E/DX2                !
 ! D29   D(4,5,7,8)            179.9878         estimate D2E/DX2                !
 ! D30   D(4,5,7,10)             0.0133         estimate D2E/DX2                !
 ! D31   D(6,5,7,8)             -0.0119         estimate D2E/DX2                !
 ! D32   D(6,5,7,10)          -179.9865         estimate D2E/DX2                !
 ! D33   D(5,7,8,15)          -179.988          estimate D2E/DX2                !
 ! D34   D(10,7,8,15)           -0.0118         estimate D2E/DX2                !
 --------------------------------------------------------------------------------
 Trust Radius=3.00D-01 FncErr=1.00D-07 GrdErr=1.00D-06
 Number of steps in this run=     86 maximum allowed number of steps=    102.
 GradGradGradGradGradGradGradGradGradGradGradGradGradGradGradGradGradGrad

                          Input orientation:                          
 ---------------------------------------------------------------------
 Center     Atomic      Atomic             Coordinates (Angstroms)
 Number     Number       Type             X           Y           Z
 ---------------------------------------------------------------------
      1          6           0       -1.859697   -1.516973   -0.000004
      2          6           0       -2.584813   -0.315109    0.000059
      3          6           0       -1.937868    0.906384    0.000058
      4          6           0       -0.525849    0.987607   -0.000008
      5          6           0        0.211799   -0.232130   -0.000075
      6          6           0       -0.477634   -1.460482   -0.000066
      7          6           0        1.674740   -0.205827   -0.000148
      8          8           0        2.250672   -1.430933    0.000055
      9          7           0        0.085220    2.199604   -0.000013
     10          8           0        2.375451    0.802569    0.000072
     11          1           0       -2.372897   -2.472953   -0.000002
     12          1           0       -3.671573   -0.337802    0.000110
     13          1           0       -2.513443    1.828883    0.000106
     14          1           0        0.106448   -2.374294   -0.000113
     15          1           0        3.207233   -1.274077    0.000176
     16          1           0        1.096585    2.236467   -0.000101
     17          1           0       -0.461947    3.042642    0.000002
 ---------------------------------------------------------------------
                    Distance matrix (angstroms):
                    1          2          3          4          5
     1  C    0.000000
     2  C    1.403663   0.000000
     3  C    2.424617   1.382238   0.000000
     4  C    2.837617   2.436473   1.414353   0.000000
     5  C    2.437605   2.797843   2.432546   1.425441   0.000000
     6  C    1.383217   2.398350   2.781068   2.448564   1.408604
     7  C    3.769794   4.260955   3.779940   2.503373   1.463177
     8  O    4.111269   4.962558   4.796553   3.682174   2.365192
     9  N    4.194717   3.667814   2.401105   1.357329   2.435026
    10  O    4.828742   5.084626   4.314568   2.907195   2.398331
    11  H    1.085022   2.168225   3.407223   3.922635   3.420810
    12  H    2.161791   1.086997   2.133947   3.413545   3.884809
    13  H    3.409125   2.145180   1.087332   2.158304   3.416829
    14  H    2.144930   3.388677   3.865498   3.420845   2.144753
    15  H    5.072749   5.870896   5.588065   4.364758   3.171479
    16  H    4.777857   4.479200   3.313159   2.047424   2.622369
    17  H    4.769045   3.972537   2.596525   2.056028   3.343361
                    6          7          8          9         10
     6  C    0.000000
     7  C    2.491360   0.000000
     8  O    2.728466   1.353729   0.000000
     9  N    3.703111   2.883171   4.227290   0.000000
    10  O    3.641633   1.227949   2.236985   2.682697   0.000000
    11  H    2.148748   4.639313   4.739535   5.279690   5.768523
    12  H    3.385507   5.347942   6.022285   4.533423   6.153612
    13  H    3.868390   4.656278   5.772624   2.624973   4.995458
    14  H    1.084529   2.676152   2.342568   4.573947   3.903951
    15  H    3.689579   1.868072   0.969336   4.670484   2.237034
    16  H    4.018158   2.509793   3.844703   1.012037   1.921344
    17  H    4.503151   3.888185   5.231747   1.005040   3.615073
                   11         12         13         14         15
    11  H    0.000000
    12  H    2.499086   0.000000
    13  H    4.304131   2.456784   0.000000
    14  H    2.481307   4.291939   4.952830   0.000000
    15  H    5.707465   6.942232   6.508033   3.290189   0.000000
    16  H    5.849439   5.418689   3.632964   4.715876   4.096188
    17  H    5.837253   4.661448   2.383662   5.446675   5.665417
                   16         17
    16  H    0.000000
    17  H    1.754691   0.000000
 Stoichiometry    C7H7NO2
 Framework group  C1[X(C7H7NO2)]
 Deg. of freedom    45
 Full point group                 C1      NOp   1
 Largest Abelian subgroup         C1      NOp   1
 Largest concise Abelian subgroup C1      NOp   1
                         Standard orientation:                         
 ---------------------------------------------------------------------
 Center     Atomic      Atomic             Coordinates (Angstroms)
 Number     Number       Type             X           Y           Z
 ---------------------------------------------------------------------
      1          6           0       -1.859697   -1.516973   -0.000004
      2          6           0       -2.584813   -0.315109    0.000059
      3          6           0       -1.937868    0.906384    0.000058
      4          6           0       -0.525849    0.987607   -0.000008
      5          6           0        0.211799   -0.232130   -0.000075
      6          6           0       -0.477634   -1.460482   -0.000066
      7          6           0        1.674740   -0.205827   -0.000148
      8          8           0        2.250672   -1.430933    0.000055
      9          7           0        0.085220    2.199604   -0.000013
     10          8           0        2.375451    0.802569    0.000072
     11          1           0       -2.372897   -2.472953   -0.000002
     12          1           0       -3.671573   -0.337802    0.000110
     13          1           0       -2.513443    1.828883    0.000106
     14          1           0        0.106448   -2.374294   -0.000113
     15          1           0        3.207233   -1.274077    0.000176
     16          1           0        1.096585    2.236467   -0.000101
     17          1           0       -0.461947    3.042642    0.000002
 ---------------------------------------------------------------------
 Rotational constants (GHZ):      2.3049809      1.2158566      0.7959829
 Standard basis: 6-31+G(d,p) (6D, 7F)
 There are   225 symmetry adapted cartesian basis functions of A   symmetry.
 There are   225 symmetry adapted basis functions of A   symmetry.
   225 basis functions,   369 primitive gaussians,   225 cartesian basis functions
    36 alpha electrons       36 beta electrons
       nuclear repulsion energy       501.2620394173 Hartrees.
 NAtoms=   17 NActive=   17 NUniq=   17 SFac= 1.00D+00 NAtFMM=   60 NAOKFM=F Big=F
 Integral buffers will be    131072 words long.
 Raffenetti 2 integral format.
 Two-electron integral symmetry is turned on.
 Nuclear repulsion after empirical dispersion term =      501.2305219091 Hartrees.
 One-electron integrals computed using PRISM.
 NBasis=   225 RedAO= T EigKep=  2.72D-06  NBF=   225
 NBsUse=   225 1.00D-06 EigRej= -1.00D+00 NBFU=   225
 ExpMin= 4.38D-02 ExpMax= 5.48D+03 ExpMxC= 8.25D+02 IAcc=2 IRadAn=         4 AccDes= 0.00D+00
 Harris functional with IExCor=  408 and IRadAn=       4 diagonalized for initial guess.
 HarFok:  IExCor=  408 AccDes= 0.00D+00 IRadAn=         4 IDoV= 1 UseB2=F ITyADJ=14
 ICtDFT=  3500011 ScaDFX=  1.000000  1.000000  1.000000  1.000000
 FoFCou: FMM=F IPFlag=           0 FMFlag=      100000 FMFlg1=           0
         NFxFlg=           0 DoJE=T BraDBF=F KetDBF=T FulRan=T
         wScrn=  0.000000 ICntrl=     500 IOpCl=  0 I1Cent=   200000004 NGrid=           0
         NMat0=    1 NMatS0=      1 NMatT0=    0 NMatD0=    1 NMtDS0=    0 NMtDT0=    0
 Petite list used in FoFCou.
 Keep R1 ints in memory in canonical form, NReq=329175655.
 Requested convergence on RMS density matrix=1.00D-08 within 128 cycles.
 Requested convergence on MAX density matrix=1.00D-06.
 Requested convergence on             energy=1.00D-06.
 No special actions if energy rises.
 SCF Done:  E(RB3PW91) =  -476.070474378     A.U. after   15 cycles
            NFock= 15  Conv=0.28D-08     -V/T= 2.0094

 **********************************************************************

            Population analysis using the SCF density.

 **********************************************************************

 Orbital symmetries:
       Occupied  (A) (A) (A) (A) (A) (A) (A) (A) (A) (A) (A) (A)
                 (A) (A) (A) (A) (A) (A) (A) (A) (A) (A) (A) (A)
                 (A) (A) (A) (A) (A) (A) (A) (A) (A) (A) (A) (A)
       Virtual   (A) (A) (A) (A) (A) (A) (A) (A) (A) (A) (A) (A)
                 (A) (A) (A) (A) (A) (A) (A) (A) (A) (A) (A) (A)
                 (A) (A) (A) (A) (A) (A) (A) (A) (A) (A) (A) (A)
                 (A) (A) (A) (A) (A) (A) (A) (A) (A) (A) (A) (A)
                 (A) (A) (A) (A) (A) (A) (A) (A) (A) (A) (A) (A)
                 (A) (A) (A) (A) (A) (A) (A) (A) (A) (A) (A) (A)
                 (A) (A) (A) (A) (A) (A) (A) (A) (A) (A) (A) (A)
                 (A) (A) (A) (A) (A) (A) (A) (A) (A) (A) (A) (A)
                 (A) (A) (A) (A) (A) (A) (A) (A) (A) (A) (A) (A)
                 (A) (A) (A) (A) (A) (A) (A) (A) (A) (A) (A) (A)
                 (A) (A) (A) (A) (A) (A) (A) (A) (A) (A) (A) (A)
                 (A) (A) (A) (A) (A) (A) (A) (A) (A) (A) (A) (A)
                 (A) (A) (A) (A) (A) (A) (A) (A) (A) (A) (A) (A)
                 (A) (A) (A) (A) (A) (A) (A) (A) (A) (A) (A) (A)
                 (A) (A) (A) (A) (A) (A) (A) (A) (A) (A) (A) (A)
                 (A) (A) (A) (A) (A) (A) (A) (A) (A)
 The electronic state is 1-A.
 Alpha  occ. eigenvalues --  -19.19694 -19.14137 -14.34611 -10.31643 -10.24377
 Alpha  occ. eigenvalues --  -10.19615 -10.19570 -10.19265 -10.18633 -10.17893
 Alpha  occ. eigenvalues --   -1.12155  -1.02660  -0.94310  -0.85667  -0.78078
 Alpha  occ. eigenvalues --   -0.74471  -0.67076  -0.63097  -0.60210  -0.54419
 Alpha  occ. eigenvalues --   -0.53155  -0.51526  -0.49715  -0.46309  -0.46153
 Alpha  occ. eigenvalues --   -0.44478  -0.43527  -0.40894  -0.39735  -0.37783
 Alpha  occ. eigenvalues --   -0.35937  -0.33438  -0.32512  -0.29002  -0.27011
 Alpha  occ. eigenvalues --   -0.21772
 Alpha virt. eigenvalues --   -0.05546  -0.00441   0.00907   0.01860   0.02694
 Alpha virt. eigenvalues --    0.04196   0.04277   0.05543   0.06413   0.06468
 Alpha virt. eigenvalues --    0.07908   0.08248   0.09269   0.10456   0.11035
 Alpha virt. eigenvalues --    0.12645   0.13588   0.14174   0.14528   0.14622
 Alpha virt. eigenvalues --    0.15443   0.16809   0.17444   0.17867   0.18025
 Alpha virt. eigenvalues --    0.18964   0.19048   0.19777   0.20319   0.20890
 Alpha virt. eigenvalues --    0.21388   0.22261   0.22713   0.23551   0.23678
 Alpha virt. eigenvalues --    0.24278   0.25566   0.25614   0.25834   0.26678
 Alpha virt. eigenvalues --    0.27725   0.28096   0.28873   0.29314   0.30124
 Alpha virt. eigenvalues --    0.30849   0.31563   0.32732   0.33388   0.34304
 Alpha virt. eigenvalues --    0.35400   0.38245   0.40240   0.41085   0.41625
 Alpha virt. eigenvalues --    0.44359   0.47694   0.49132   0.50820   0.60012
 Alpha virt. eigenvalues --    0.61868   0.66323   0.66702   0.68387   0.71798
 Alpha virt. eigenvalues --    0.73005   0.73117   0.74104   0.74904   0.74922
 Alpha virt. eigenvalues --    0.77344   0.78110   0.81476   0.84145   0.84959
 Alpha virt. eigenvalues --    0.88729   0.90971   0.93829   0.94241   0.95418
 Alpha virt. eigenvalues --    0.96451   0.99502   1.03102   1.04008   1.04936
 Alpha virt. eigenvalues --    1.06841   1.10020   1.11783   1.13241   1.13942
 Alpha virt. eigenvalues --    1.15339   1.15399   1.20904   1.21993   1.22442
 Alpha virt. eigenvalues --    1.24932   1.27029   1.27485   1.29765   1.32660
 Alpha virt. eigenvalues --    1.33924   1.34626   1.36204   1.37347   1.37488
 Alpha virt. eigenvalues --    1.38982   1.39516   1.40474   1.40973   1.45030
 Alpha virt. eigenvalues --    1.48096   1.56163   1.56657   1.62985   1.66873
 Alpha virt. eigenvalues --    1.73383   1.73464   1.78208   1.79370   1.80875
 Alpha virt. eigenvalues --    1.82590   1.85839   1.90225   1.91455   1.92570
 Alpha virt. eigenvalues --    1.95474   1.96472   1.99591   1.99835   2.02231
 Alpha virt. eigenvalues --    2.05046   2.06007   2.08074   2.11139   2.16358
 Alpha virt. eigenvalues --    2.19917   2.21093   2.25335   2.29189   2.32920
 Alpha virt. eigenvalues --    2.37023   2.38005   2.39290   2.39588   2.42828
 Alpha virt. eigenvalues --    2.44509   2.45067   2.50122   2.52038   2.53422
 Alpha virt. eigenvalues --    2.54191   2.57132   2.57889   2.59786   2.61937
 Alpha virt. eigenvalues --    2.63082   2.67488   2.67988   2.72717   2.73950
 Alpha virt. eigenvalues --    2.75775   2.76361   2.81745   2.87659   2.95777
 Alpha virt. eigenvalues --    3.00585   3.05389   3.09582   3.12410   3.20394
 Alpha virt. eigenvalues --    3.24359   3.27113   3.32201   3.35964   3.47421
 Alpha virt. eigenvalues --    3.50842   3.53096   3.67961   3.87016   4.19747
 Alpha virt. eigenvalues --    4.27555   4.30241   4.31946   4.32658   4.46529
 Alpha virt. eigenvalues --    4.50552   4.55881   4.79071   4.88582
          Condensed to atoms (all electrons):
               1          2          3          4          5          6
     1  C    8.433525  -0.099084   0.770110  -0.850917   0.155288  -2.715881
     2  C   -0.099084   6.502128  -1.137352   1.811499  -1.750739   1.041261
     3  C    0.770110  -1.137352  11.249556  -1.739695  -0.709539  -3.088890
     4  C   -0.850917   1.811499  -1.739695  17.845598  -6.235320  -2.296026
     5  C    0.155288  -1.750739  -0.709539  -6.235320  13.956503  -1.049721
     6  C   -2.715881   1.041261  -3.088890  -2.296026  -1.049721  14.906003
     7  C   -0.145202  -0.186709   0.027886  -1.244397   0.513514  -0.303324
     8  O    0.141965   0.001386  -0.027515  -0.136023  -0.110787  -0.018844
     9  N   -0.015158   0.048266  -0.155923   0.167795  -0.118425   0.174725
    10  O    0.048412  -0.005176   0.033874  -0.193100  -0.039658  -0.020731
    11  H    0.182892   0.049839  -0.001740  -0.000577  -0.004008   0.090185
    12  H    0.089737   0.175237   0.109456  -0.068201   0.022263  -0.013731
    13  H   -0.014244   0.100365   0.036080   0.154598   0.051054  -0.009343
    14  H    0.102432  -0.009491   0.013275   0.002122   0.123271   0.067434
    15  H   -0.012410  -0.000962   0.007873   0.012590   0.059420  -0.025381
    16  H    0.004095   0.000470   0.117570   0.148732  -0.217001  -0.054313
    17  H   -0.002146  -0.000359  -0.115573  -0.081708   0.164380   0.025287
               7          8          9         10         11         12
     1  C   -0.145202   0.141965  -0.015158   0.048412   0.182892   0.089737
     2  C   -0.186709   0.001386   0.048266  -0.005176   0.049839   0.175237
     3  C    0.027886  -0.027515  -0.155923   0.033874  -0.001740   0.109456
     4  C   -1.244397  -0.136023   0.167795  -0.193100  -0.000577  -0.068201
     5  C    0.513514  -0.110787  -0.118425  -0.039658  -0.004008   0.022263
     6  C   -0.303324  -0.018844   0.174725  -0.020731   0.090185  -0.013731
     7  C    6.106507   0.178387  -0.128900   0.414254   0.003510   0.001625
     8  O    0.178387   8.402887   0.001861  -0.153027   0.000087   0.000009
     9  N   -0.128900   0.001861   7.056089  -0.010306   0.000265  -0.000400
    10  O    0.414254  -0.153027  -0.010306   8.407445   0.000025  -0.000001
    11  H    0.003510   0.000087   0.000265   0.000025   0.537064  -0.004453
    12  H    0.001625   0.000009  -0.000400  -0.000001  -0.004453   0.540949
    13  H    0.010902   0.000022  -0.024209  -0.000031  -0.000153  -0.005470
    14  H    0.012081   0.000151  -0.000718  -0.000011  -0.004594  -0.000162
    15  H   -0.001750   0.186873  -0.000321   0.007342  -0.000000   0.000000
    16  H    0.001274   0.000640   0.301997   0.029519  -0.000000   0.000002
    17  H    0.001676   0.000196   0.313120   0.002168  -0.000000  -0.000012
              13         14         15         16         17
     1  C   -0.014244   0.102432  -0.012410   0.004095  -0.002146
     2  C    0.100365  -0.009491  -0.000962   0.000470  -0.000359
     3  C    0.036080   0.013275   0.007873   0.117570  -0.115573
     4  C    0.154598   0.002122   0.012590   0.148732  -0.081708
     5  C    0.051054   0.123271   0.059420  -0.217001   0.164380
     6  C   -0.009343   0.067434  -0.025381  -0.054313   0.025287
     7  C    0.010902   0.012081  -0.001750   0.001274   0.001676
     8  O    0.000022   0.000151   0.186873   0.000640   0.000196
     9  N   -0.024209  -0.000718  -0.000321   0.301997   0.313120
    10  O   -0.000031  -0.000011   0.007342   0.029519   0.002168
    11  H   -0.000153  -0.004594  -0.000000  -0.000000  -0.000000
    12  H   -0.005470  -0.000162   0.000000   0.000002  -0.000012
    13  H    0.560509   0.000012  -0.000000   0.000024   0.005752
    14  H    0.000012   0.518869   0.000070  -0.000000   0.000003
    15  H   -0.000000   0.000070   0.378919   0.000016  -0.000001
    16  H    0.000024  -0.000000   0.000016   0.326582  -0.021426
    17  H    0.005752   0.000003  -0.000001  -0.021426   0.392402
 Mulliken charges:
               1
     1  C   -0.073415
     2  C   -0.540579
     3  C    0.610546
     4  C   -1.296971
     5  C    1.189504
     6  C   -0.708709
     7  C    0.738667
     8  O   -0.468268
     9  N   -0.609759
    10  O   -0.520997
    11  H    0.151657
    12  H    0.153152
    13  H    0.134131
    14  H    0.175257
    15  H    0.387723
    16  H    0.361819
    17  H    0.316243
 Sum of Mulliken charges =  -0.00000
 Mulliken charges with hydrogens summed into heavy atoms:
               1
     1  C    0.078242
     2  C   -0.387428
     3  C    0.744677
     4  C   -1.296971
     5  C    1.189504
     6  C   -0.533452
     7  C    0.738667
     8  O   -0.080545
     9  N    0.068303
    10  O   -0.520997
 Electronic spatial extent (au):  <R**2>=           1376.5003
 Charge=             -0.0000 electrons
 Dipole moment (field-independent basis, Debye):
    X=             -1.1403    Y=              0.5608    Z=             -0.0002  Tot=              1.2708
 Quadrupole moment (field-independent basis, Debye-Ang):
   XX=            -51.6672   YY=            -49.8069   ZZ=            -62.0678
   XY=             -5.2849   XZ=             -0.0005   YZ=             -0.0004
 Traceless Quadrupole moment (field-independent basis, Debye-Ang):
   XX=              2.8468   YY=              4.7070   ZZ=             -7.5538
   XY=             -5.2849   XZ=             -0.0005   YZ=             -0.0004
 Octapole moment (field-independent basis, Debye-Ang**2):
  XXX=             19.4914  YYY=             25.5995  ZZZ=              0.0006  XYY=             -3.1422
  XXY=            -16.7019  XXZ=              0.0028  XZZ=             12.1217  YZZ=              0.3305
  YYZ=             -0.0000  XYZ=             -0.0020
 Hexadecapole moment (field-independent basis, Debye-Ang**3):
 XXXX=           -947.2651 YYYY=           -518.3937 ZZZZ=            -68.1918 XXXY=            -76.8902
 XXXZ=              0.0074 YYYX=            -10.5055 YYYZ=             -0.0029 ZZZX=              0.0037
 ZZZY=             -0.0024 XXYY=           -264.2128 XXZZ=           -208.3001 YYZZ=           -129.6972
 XXYZ=             -0.0059 YYXZ=              0.0013 ZZXY=             -4.9273
 N-N= 5.012305219091D+02 E-N=-2.112105743713D+03  KE= 4.716565097360D+02
 Calling FoFJK, ICntrl=      2127 FMM=F ISym2X=0 I1Cent= 0 IOpClX= 0 NMat=1 NMatS=1 NMatT=0.
 ***** Axes restored to original set *****
 -------------------------------------------------------------------
 Center     Atomic                   Forces (Hartrees/Bohr)
 Number     Number              X              Y              Z
 -------------------------------------------------------------------
      1        6           0.000316500    0.000277763    0.000001279
      2        6           0.000331720    0.000107236   -0.000000093
      3        6           0.000327973   -0.000082920    0.000001123
      4        6           0.000151469   -0.000190285   -0.000003110
      5        6           0.000010572    0.000022276   -0.000016338
      6        6           0.000180061    0.000321989   -0.000002501
      7        6          -0.000634142    0.000102852    0.000062031
      8        8          -0.000409036    0.000127457   -0.000018470
      9        7          -0.000100570   -0.000518941   -0.000000821
     10        8          -0.000426392    0.000027284   -0.000024707
     11        1           0.000139054    0.000227854    0.000000329
     12        1           0.000267596    0.000012766   -0.000000222
     13        1           0.000207869   -0.000190373    0.000000096
     14        1          -0.000021558    0.000294998   -0.000000297
     15        1          -0.000216875    0.000076190   -0.000000206
     16        1          -0.000144194   -0.000290651    0.000002092
     17        1           0.000019955   -0.000325494   -0.000000186
 -------------------------------------------------------------------
 Cartesian Forces:  Max     0.000634142 RMS     0.000209898

 GradGradGradGradGradGradGradGradGradGradGradGradGradGradGradGradGradGrad
 Berny optimization.
 FormGI is forming the generalized inverse of G from B-inverse, IUseBI=4.
 Internal  Forces:  Max     0.001680949 RMS     0.000405417
 Search for a local minimum.
 Step number   1 out of a maximum of   86
 All quantities printed in internal units (Hartrees-Bohrs-Radians)
 Mixed Optimization -- En-DIIS/RFO-DIIS
 Second derivative matrix not updated -- first step.
 ITU=  0
     Eigenvalues ---    0.01253   0.01573   0.01687   0.01837   0.01974
     Eigenvalues ---    0.02072   0.02089   0.02132   0.02170   0.02191
     Eigenvalues ---    0.02238   0.02256   0.02256   0.02304   0.16000
     Eigenvalues ---    0.16000   0.16000   0.16000   0.16000   0.16000
     Eigenvalues ---    0.16000   0.22000   0.22477   0.24467   0.25000
     Eigenvalues ---    0.25000   0.25000   0.25000   0.35123   0.35162
     Eigenvalues ---    0.35394   0.35453   0.36569   0.39714   0.40969
     Eigenvalues ---    0.43197   0.44424   0.45633   0.46813   0.47140
     Eigenvalues ---    0.48184   0.53491   0.53513   0.54236   0.91946
 RFO step:  Lambda=-3.42353230D-05 EMin= 1.25303931D-02
 Linear search not attempted -- first point.
 Iteration  1 RMS(Cart)=  0.00402064 RMS(Int)=  0.00000317
 Iteration  2 RMS(Cart)=  0.00000447 RMS(Int)=  0.00000034
 Iteration  3 RMS(Cart)=  0.00000000 RMS(Int)=  0.00000034
 Variable       Old X    -DE/DX   Delta X   Delta X   Delta X     New X
                                 (Linear)    (Quad)   (Total)
    R1        2.65254  -0.00030   0.00000  -0.00059  -0.00059   2.65195
    R2        2.61390  -0.00064   0.00000  -0.00129  -0.00129   2.61261
    R3        2.05039  -0.00027   0.00000  -0.00075  -0.00075   2.04964
    R4        2.61205  -0.00053   0.00000  -0.00103  -0.00103   2.61102
    R5        2.05413  -0.00027   0.00000  -0.00076  -0.00076   2.05337
    R6        2.67274  -0.00097   0.00000  -0.00226  -0.00226   2.67048
    R7        2.05476  -0.00027   0.00000  -0.00077  -0.00077   2.05399
    R8        2.69369  -0.00151   0.00000  -0.00372  -0.00372   2.68998
    R9        2.56498  -0.00111   0.00000  -0.00208  -0.00208   2.56290
   R10        2.66188  -0.00115   0.00000  -0.00265  -0.00265   2.65923
   R11        2.76500  -0.00168   0.00000  -0.00460  -0.00460   2.76041
   R12        2.04946  -0.00026   0.00000  -0.00073  -0.00073   2.04873
   R13        2.55818  -0.00045   0.00000  -0.00083  -0.00083   2.55735
   R14        2.32049  -0.00022   0.00000  -0.00024  -0.00024   2.32025
   R15        1.83178  -0.00020   0.00000  -0.00038  -0.00038   1.83140
   R16        1.91247  -0.00015   0.00000  -0.00034  -0.00034   1.91213
   R17        1.89925  -0.00028   0.00000  -0.00061  -0.00061   1.89864
    A1        2.07281  -0.00003   0.00000   0.00013   0.00013   2.07294
    A2        2.10605   0.00003   0.00000   0.00002   0.00002   2.10608
    A3        2.10432   0.00000   0.00000  -0.00015  -0.00015   2.10417
    A4        2.11166  -0.00000   0.00000   0.00033   0.00033   2.11198
    A5        2.09278   0.00001   0.00000  -0.00011  -0.00011   2.09267
    A6        2.07875  -0.00001   0.00000  -0.00022  -0.00022   2.07853
    A7        2.11533  -0.00030   0.00000  -0.00124  -0.00124   2.11409
    A8        2.09669   0.00023   0.00000   0.00111   0.00111   2.09780
    A9        2.07117   0.00007   0.00000   0.00013   0.00013   2.07130
   A10        2.05725   0.00018   0.00000   0.00056   0.00056   2.05781
   A11        2.09524   0.00043   0.00000   0.00181   0.00181   2.09705
   A12        2.13069  -0.00061   0.00000  -0.00237  -0.00237   2.12832
   A13        2.08623   0.00049   0.00000   0.00174   0.00174   2.08797
   A14        2.09673  -0.00065   0.00000  -0.00250  -0.00250   2.09424
   A15        2.10023   0.00016   0.00000   0.00075   0.00075   2.10098
   A16        2.12310  -0.00033   0.00000  -0.00152  -0.00152   2.12158
   A17        2.09867   0.00031   0.00000   0.00165   0.00165   2.10032
   A18        2.06142   0.00002   0.00000  -0.00014  -0.00014   2.06128
   A19        1.99227  -0.00041   0.00000  -0.00162  -0.00162   1.99065
   A20        2.19605  -0.00022   0.00000  -0.00088  -0.00088   2.19517
   A21        2.09486   0.00063   0.00000   0.00250   0.00250   2.09737
   A22        1.84771  -0.00020   0.00000  -0.00125  -0.00125   1.84646
   A23        2.07422  -0.00026   0.00000  -0.00164  -0.00164   2.07257
   A24        2.09890  -0.00002   0.00000  -0.00012  -0.00012   2.09878
   A25        2.11007   0.00028   0.00000   0.00177   0.00177   2.11183
    D1        0.00000  -0.00000   0.00000  -0.00001  -0.00001  -0.00001
    D2       -3.14159  -0.00000   0.00000  -0.00001  -0.00001   3.14158
    D3        3.14159  -0.00000   0.00000  -0.00000  -0.00000   3.14159
    D4       -0.00000  -0.00000   0.00000  -0.00000  -0.00000  -0.00000
    D5       -0.00001   0.00000   0.00000   0.00003   0.00003   0.00003
    D6        3.14159   0.00000   0.00000   0.00001   0.00001  -3.14158
    D7        3.14159   0.00000   0.00000   0.00002   0.00002  -3.14157
    D8       -0.00000   0.00000   0.00000   0.00000   0.00000   0.00000
    D9        0.00000  -0.00000   0.00000  -0.00000  -0.00000  -0.00000
   D10        3.14159   0.00000   0.00000   0.00001   0.00001  -3.14158
   D11       -3.14159  -0.00000   0.00000  -0.00000  -0.00000   3.14159
   D12       -0.00000   0.00000   0.00000   0.00001   0.00001   0.00001
   D13        0.00000  -0.00000   0.00000  -0.00000  -0.00000  -0.00000
   D14        3.14159   0.00000   0.00000   0.00004   0.00004  -3.14155
   D15       -3.14159  -0.00000   0.00000  -0.00002  -0.00002   3.14158
   D16       -0.00000   0.00000   0.00000   0.00003   0.00003   0.00003
   D17       -0.00001   0.00000   0.00000   0.00002   0.00002   0.00002
   D18        3.14159  -0.00000   0.00000  -0.00001  -0.00001   3.14158
   D19        3.14159  -0.00000   0.00000  -0.00002  -0.00002   3.14157
   D20        0.00000  -0.00000   0.00000  -0.00005  -0.00005  -0.00005
   D21       -3.14155  -0.00000   0.00000  -0.00010  -0.00010   3.14154
   D22       -0.00003  -0.00000   0.00000  -0.00003  -0.00003  -0.00006
   D23        0.00004  -0.00000   0.00000  -0.00005  -0.00005  -0.00001
   D24        3.14155   0.00000   0.00000   0.00002   0.00002   3.14157
   D25        0.00001  -0.00000   0.00000  -0.00004  -0.00004  -0.00003
   D26       -3.14159  -0.00000   0.00000  -0.00002  -0.00002   3.14158
   D27       -3.14159  -0.00000   0.00000  -0.00001  -0.00001   3.14159
   D28        0.00000   0.00000   0.00000   0.00001   0.00001   0.00001
   D29        3.14138   0.00002   0.00000   0.00094   0.00094  -3.14086
   D30        0.00023  -0.00002   0.00000  -0.00104  -0.00104  -0.00080
   D31       -0.00021   0.00001   0.00000   0.00091   0.00091   0.00071
   D32       -3.14136  -0.00002   0.00000  -0.00107  -0.00107   3.14076
   D33       -3.14138  -0.00001   0.00000  -0.00093  -0.00093   3.14087
   D34       -0.00021   0.00001   0.00000   0.00092   0.00092   0.00072
         Item               Value     Threshold  Converged?
 Maximum Force            0.001681     0.000450     NO 
 RMS     Force            0.000405     0.000300     NO 
 Maximum Displacement     0.016721     0.001800     NO 
 RMS     Displacement     0.004021     0.001200     NO 
 Predicted change in Energy=-1.711789D-05
 GradGradGradGradGradGradGradGradGradGradGradGradGradGradGradGradGradGrad

                          Input orientation:                          
 ---------------------------------------------------------------------
 Center     Atomic      Atomic             Coordinates (Angstroms)
 Number     Number       Type             X           Y           Z
 ---------------------------------------------------------------------
      1          6           0       -1.858482   -1.516586    0.000062
      2          6           0       -2.583331   -0.314925   -0.000123
      3          6           0       -1.936933    0.906240   -0.000109
      4          6           0       -0.526026    0.985980    0.000094
      5          6           0        0.210064   -0.232400    0.000285
      6          6           0       -0.477088   -1.460423    0.000247
      7          6           0        1.670517   -0.203142    0.000487
      8          8           0        2.246790   -1.427603   -0.000247
      9          7           0        0.087951    2.195270    0.000150
     10          8           0        2.368191    0.807201   -0.000290
     11          1           0       -2.371555   -2.472181    0.000052
     12          1           0       -3.669688   -0.337634   -0.000278
     13          1           0       -2.511486    1.828894   -0.000245
     14          1           0        0.108097   -2.373068    0.000382
     15          1           0        3.202889   -1.269172   -0.000700
     16          1           0        1.099292    2.227619    0.000346
     17          1           0       -0.456774    3.039506   -0.000007
 ---------------------------------------------------------------------
                    Distance matrix (angstroms):
                    1          2          3          4          5
     1  C    0.000000
     2  C    1.403351   0.000000
     3  C    2.424096   1.381693   0.000000
     4  C    2.835185   2.434103   1.413159   0.000000
     5  C    2.434752   2.794614   2.430246   1.423473   0.000000
     6  C    1.382535   2.397588   2.780691   2.446892   1.407203
     7  C    3.765496   4.255316   3.774178   2.497761   1.460745
     8  O    4.106236   4.956624   4.790654   3.676124   2.361517
     9  N    4.191238   3.665628   2.400365   1.356227   2.430739
    10  O    4.823355   5.077080   4.306263   2.899734   2.395471
    11  H    1.084623   2.167626   3.406263   3.919803   3.417804
    12  H    2.161110   1.086594   2.132994   3.410948   3.881179
    13  H    3.408614   2.145023   1.086923   2.156979   3.414055
    14  H    2.144992   3.388176   3.864713   3.418378   2.143095
    15  H    5.067414   5.864378   5.581235   4.357810   3.167317
    16  H    4.771530   4.475069   3.311299   2.045318   2.615801
    17  H    4.766839   3.971707   2.596477   2.054694   3.339167
                    6          7          8          9         10
     6  C    0.000000
     7  C    2.488566   0.000000
     8  O    2.724076   1.353291   0.000000
     9  N    3.699103   2.873482   4.217321   0.000000
    10  O    3.638370   1.227821   2.238100   2.669500   0.000000
    11  H    2.147710   4.635394   4.735003   5.275820   5.763640
    12  H    3.384280   5.341898   6.016041   4.531606   6.145457
    13  H    3.867607   4.649551   5.765932   2.625130   4.985490
    14  H    1.084141   2.673898   2.338357   4.568382   3.901556
    15  H    3.684943   1.866704   0.969136   4.658883   2.237866
    16  H    4.010814   2.496978   3.831110   1.011858   1.904650
    17  H    4.499975   3.878161   5.221525   1.004718   3.600501
                   11         12         13         14         15
    11  H    0.000000
    12  H    2.498288   0.000000
    13  H    4.303351   2.456680   0.000000
    14  H    2.481632   4.291229   4.951636   0.000000
    15  H    5.702776   6.935422   6.500161   3.285776   0.000000
    16  H    5.842508   5.415135   3.632726   4.706249   4.080768
    17  H    5.834817   4.661319   2.384832   5.441969   5.653126
                   16         17
    16  H    0.000000
    17  H    1.755135   0.000000
 Stoichiometry    C7H7NO2
 Framework group  C1[X(C7H7NO2)]
 Deg. of freedom    45
 Full point group                 C1      NOp   1
 Largest Abelian subgroup         C1      NOp   1
 Largest concise Abelian subgroup C1      NOp   1
                         Standard orientation:                         
 ---------------------------------------------------------------------
 Center     Atomic      Atomic             Coordinates (Angstroms)
 Number     Number       Type             X           Y           Z
 ---------------------------------------------------------------------
      1          6           0       -1.860974   -1.512812    0.000035
      2          6           0       -2.583058   -0.309488   -0.000150
      3          6           0       -1.933853    0.910188   -0.000136
      4          6           0       -0.522767    0.986683    0.000066
      5          6           0        0.210520   -0.233386    0.000258
      6          6           0       -0.479455   -1.459826    0.000220
      7          6           0        1.671035   -0.207487    0.000460
      8          8           0        2.244492   -1.433270   -0.000274
      9          7           0        0.093989    2.194558    0.000123
     10          8           0        2.371032    0.801250   -0.000317
     11          1           0       -2.376243   -2.467225    0.000025
     12          1           0       -3.669464   -0.329698   -0.000306
     13          1           0       -2.506284    1.834161   -0.000272
     14          1           0        0.103630   -2.373814    0.000355
     15          1           0        3.200952   -1.277037   -0.000727
     16          1           0        1.105402    2.224582    0.000318
     17          1           0       -0.448793    3.040044   -0.000035
 ---------------------------------------------------------------------
 Rotational constants (GHZ):      2.3097827      1.2194877      0.7981116
 Standard basis: 6-31+G(d,p) (6D, 7F)
 There are   225 symmetry adapted cartesian basis functions of A   symmetry.
 There are   225 symmetry adapted basis functions of A   symmetry.
   225 basis functions,   369 primitive gaussians,   225 cartesian basis functions
    36 alpha electrons       36 beta electrons
       nuclear repulsion energy       501.8001979567 Hartrees.
 NAtoms=   17 NActive=   17 NUniq=   17 SFac= 1.00D+00 NAtFMM=   60 NAOKFM=F Big=F
 Integral buffers will be    131072 words long.
 Raffenetti 2 integral format.
 Two-electron integral symmetry is turned on.
 Nuclear repulsion after empirical dispersion term =      501.7686461116 Hartrees.
 One-electron integrals computed using PRISM.
 NBasis=   225 RedAO= T EigKep=  2.70D-06  NBF=   225
 NBsUse=   225 1.00D-06 EigRej= -1.00D+00 NBFU=   225
 Initial guess from the checkpoint file:  "B3PWD3BJAnthranilic.chk"
 B after Tr=    -0.000000   -0.000000   -0.000000
         Rot=    1.000000    0.000003   -0.000006    0.000978 Ang=   0.11 deg.
 Keep R1 ints in memory in canonical form, NReq=329175655.
 Requested convergence on RMS density matrix=1.00D-08 within 128 cycles.
 Requested convergence on MAX density matrix=1.00D-06.
 Requested convergence on             energy=1.00D-06.
 No special actions if energy rises.
 SCF Done:  E(RB3PW91) =  -476.070481642     A.U. after   11 cycles
            NFock= 11  Conv=0.44D-08     -V/T= 2.0093
 Calling FoFJK, ICntrl=      2127 FMM=F ISym2X=0 I1Cent= 0 IOpClX= 0 NMat=1 NMatS=1 NMatT=0.
 ***** Axes restored to original set *****
 -------------------------------------------------------------------
 Center     Atomic                   Forces (Hartrees/Bohr)
 Number     Number              X              Y              Z
 -------------------------------------------------------------------
      1        6          -0.000007996   -0.000047942   -0.000004592
      2        6          -0.000003034    0.000032903    0.000000501
      3        6          -0.000191911    0.000046079   -0.000004422
      4        6           0.000001216    0.000409772    0.000010966
      5        6           0.000221619   -0.000101769    0.000056710
      6        6          -0.000059492   -0.000207056    0.000009214
      7        6          -0.000558762   -0.000325707   -0.000213834
      8        8           0.000340063    0.000269697    0.000063651
      9        7          -0.000446943    0.000396592    0.000002834
     10        8           0.000723331   -0.000229147    0.000084940
     11        1          -0.000042599   -0.000005508   -0.000001253
     12        1          -0.000022964   -0.000027626    0.000000715
     13        1          -0.000017420   -0.000004586   -0.000000294
     14        1          -0.000019637    0.000011289    0.000000913
     15        1           0.000093971   -0.000115766    0.000000522
     16        1           0.000111557   -0.000068438   -0.000007185
     17        1          -0.000121000   -0.000032786    0.000000613
 -------------------------------------------------------------------
 Cartesian Forces:  Max     0.000723331 RMS     0.000196798

 GradGradGradGradGradGradGradGradGradGradGradGradGradGradGradGradGradGrad
 Berny optimization.
 Using GEDIIS/GDIIS optimizer.
 FormGI is forming the generalized inverse of G from B-inverse, IUseBI=4.
 Internal  Forces:  Max     0.001121887 RMS     0.000291136
 Search for a local minimum.
 Step number   2 out of a maximum of   86
 All quantities printed in internal units (Hartrees-Bohrs-Radians)
 Mixed Optimization -- En-DIIS/RFO-DIIS
 Swapping is turned off.
 Update second derivatives using D2CorX and points    1    2
 DE= -7.26D-06 DEPred=-1.71D-05 R= 4.24D-01
 Trust test= 4.24D-01 RLast= 1.04D-02 DXMaxT set to 3.00D-01
 ITU=  0  0
     Eigenvalues ---    0.01253   0.01589   0.01688   0.01837   0.01974
     Eigenvalues ---    0.02072   0.02089   0.02133   0.02170   0.02191
     Eigenvalues ---    0.02238   0.02256   0.02256   0.02304   0.15421
     Eigenvalues ---    0.16000   0.16000   0.16000   0.16000   0.16000
     Eigenvalues ---    0.16092   0.21991   0.22133   0.24190   0.24571
     Eigenvalues ---    0.25000   0.25000   0.28516   0.35094   0.35157
     Eigenvalues ---    0.35375   0.35426   0.37374   0.40959   0.42654
     Eigenvalues ---    0.43373   0.45601   0.46736   0.47136   0.47561
     Eigenvalues ---    0.52404   0.53473   0.54160   0.61574   0.92373
 En-DIIS/RFO-DIIS IScMMF=        0 using points:     2    1
 RFO step:  Lambda=-8.72970844D-06.
 DidBck=T Rises=F RFO-DIIS coefs:    0.63550    0.36450
 Iteration  1 RMS(Cart)=  0.00284846 RMS(Int)=  0.00000308
 Iteration  2 RMS(Cart)=  0.00000395 RMS(Int)=  0.00000069
 Iteration  3 RMS(Cart)=  0.00000000 RMS(Int)=  0.00000069
 Variable       Old X    -DE/DX   Delta X   Delta X   Delta X     New X
                                 (Linear)    (Quad)   (Total)
    R1        2.65195  -0.00006   0.00021  -0.00044  -0.00022   2.65173
    R2        2.61261   0.00003   0.00047  -0.00065  -0.00018   2.61244
    R3        2.04964   0.00002   0.00027  -0.00035  -0.00007   2.04957
    R4        2.61102  -0.00003   0.00038  -0.00060  -0.00022   2.61080
    R5        2.05337   0.00002   0.00028  -0.00035  -0.00007   2.05329
    R6        2.67048   0.00025   0.00082  -0.00078   0.00005   2.67053
    R7        2.05399   0.00001   0.00028  -0.00039  -0.00011   2.05388
    R8        2.68998   0.00106   0.00136  -0.00026   0.00110   2.69107
    R9        2.56290   0.00006   0.00076  -0.00101  -0.00025   2.56265
   R10        2.65923   0.00031   0.00097  -0.00089   0.00007   2.65930
   R11        2.76041   0.00059   0.00168  -0.00135   0.00032   2.76073
   R12        2.04873  -0.00002   0.00027  -0.00042  -0.00015   2.04858
   R13        2.55735   0.00005   0.00030  -0.00037  -0.00007   2.55728
   R14        2.32025   0.00022   0.00009   0.00003   0.00012   2.32036
   R15        1.83140   0.00007   0.00014  -0.00011   0.00003   1.83143
   R16        1.91213   0.00011   0.00012  -0.00002   0.00010   1.91224
   R17        1.89864   0.00004   0.00022  -0.00026  -0.00004   1.89860
    A1        2.07294   0.00006  -0.00005   0.00007   0.00002   2.07296
    A2        2.10608  -0.00007  -0.00001  -0.00013  -0.00014   2.10593
    A3        2.10417   0.00001   0.00006   0.00007   0.00012   2.10429
    A4        2.11198   0.00006  -0.00012   0.00015   0.00003   2.11201
    A5        2.09267  -0.00006   0.00004  -0.00015  -0.00011   2.09256
    A6        2.07853  -0.00000   0.00008   0.00000   0.00008   2.07862
    A7        2.11409   0.00015   0.00045  -0.00023   0.00022   2.11431
    A8        2.09780  -0.00009  -0.00041   0.00030  -0.00010   2.09770
    A9        2.07130  -0.00006  -0.00005  -0.00007  -0.00012   2.07118
   A10        2.05781  -0.00014  -0.00020   0.00005  -0.00015   2.05765
   A11        2.09705  -0.00066  -0.00066  -0.00081  -0.00147   2.09559
   A12        2.12832   0.00080   0.00086   0.00076   0.00162   2.12994
   A13        2.08797  -0.00034  -0.00063   0.00016  -0.00047   2.08750
   A14        2.09424   0.00112   0.00091   0.00150   0.00241   2.09664
   A15        2.10098  -0.00078  -0.00027  -0.00166  -0.00193   2.09905
   A16        2.12158   0.00021   0.00055  -0.00020   0.00036   2.12194
   A17        2.10032  -0.00012  -0.00060   0.00052  -0.00009   2.10024
   A18        2.06128  -0.00009   0.00005  -0.00032  -0.00027   2.06101
   A19        1.99065   0.00006   0.00059  -0.00069  -0.00010   1.99054
   A20        2.19517   0.00081   0.00032   0.00161   0.00193   2.19710
   A21        2.09737  -0.00087  -0.00091  -0.00092  -0.00183   2.09554
   A22        1.84646   0.00024   0.00046   0.00030   0.00076   1.84722
   A23        2.07257  -0.00002   0.00060  -0.00092  -0.00032   2.07225
   A24        2.09878  -0.00010   0.00005  -0.00048  -0.00043   2.09834
   A25        2.11183   0.00012  -0.00064   0.00140   0.00075   2.11259
    D1       -0.00001   0.00000   0.00000   0.00002   0.00003   0.00002
    D2        3.14158   0.00000   0.00000   0.00002   0.00002  -3.14158
    D3        3.14159   0.00000   0.00000   0.00000   0.00000  -3.14159
    D4       -0.00000   0.00000   0.00000   0.00000   0.00000   0.00000
    D5        0.00003  -0.00000  -0.00001  -0.00006  -0.00007  -0.00005
    D6       -3.14158  -0.00000  -0.00000  -0.00002  -0.00002   3.14158
    D7       -3.14157  -0.00000  -0.00001  -0.00004  -0.00005   3.14156
    D8        0.00000  -0.00000  -0.00000  -0.00000  -0.00000  -0.00000
    D9       -0.00000   0.00000   0.00000   0.00000   0.00000   0.00000
   D10       -3.14158  -0.00000  -0.00000  -0.00002  -0.00002   3.14158
   D11        3.14159   0.00000   0.00000   0.00001   0.00001  -3.14159
   D12        0.00001  -0.00000  -0.00000  -0.00001  -0.00002  -0.00001
   D13       -0.00000   0.00000   0.00000   0.00001   0.00001   0.00001
   D14       -3.14155  -0.00000  -0.00002  -0.00007  -0.00009   3.14154
   D15        3.14158   0.00000   0.00001   0.00003   0.00003  -3.14157
   D16        0.00003  -0.00000  -0.00001  -0.00005  -0.00006  -0.00003
   D17        0.00002  -0.00000  -0.00001  -0.00004  -0.00005  -0.00003
   D18        3.14158   0.00000   0.00000   0.00001   0.00001  -3.14159
   D19        3.14157   0.00000   0.00001   0.00004   0.00005  -3.14157
   D20       -0.00005   0.00000   0.00002   0.00009   0.00011   0.00006
   D21        3.14154   0.00001   0.00004   0.00017   0.00021  -3.14144
   D22       -0.00006   0.00000   0.00001   0.00005   0.00006  -0.00000
   D23       -0.00001   0.00000   0.00002   0.00009   0.00011   0.00010
   D24        3.14157  -0.00000  -0.00001  -0.00003  -0.00004   3.14154
   D25       -0.00003   0.00000   0.00001   0.00007   0.00009   0.00006
   D26        3.14158   0.00000   0.00001   0.00003   0.00004  -3.14157
   D27        3.14159   0.00000   0.00000   0.00002   0.00002  -3.14157
   D28        0.00001  -0.00000  -0.00000  -0.00002  -0.00002  -0.00001
   D29       -3.14086  -0.00005  -0.00034  -0.00161  -0.00195   3.14037
   D30       -0.00080   0.00006   0.00038   0.00174   0.00212   0.00132
   D31        0.00071  -0.00005  -0.00033  -0.00155  -0.00189  -0.00118
   D32        3.14076   0.00006   0.00039   0.00179   0.00218  -3.14024
   D33        3.14087   0.00005   0.00034   0.00158   0.00192  -3.14040
   D34        0.00072  -0.00005  -0.00034  -0.00156  -0.00189  -0.00118
         Item               Value     Threshold  Converged?
 Maximum Force            0.001122     0.000450     NO 
 RMS     Force            0.000291     0.000300     YES
 Maximum Displacement     0.009860     0.001800     NO 
 RMS     Displacement     0.002849     0.001200     NO 
 Predicted change in Energy=-6.198086D-06
 GradGradGradGradGradGradGradGradGradGradGradGradGradGradGradGradGradGrad

                          Input orientation:                          
 ---------------------------------------------------------------------
 Center     Atomic      Atomic             Coordinates (Angstroms)
 Number     Number       Type             X           Y           Z
 ---------------------------------------------------------------------
      1          6           0       -1.857377   -1.516076   -0.000074
      2          6           0       -2.582709   -0.314843    0.000250
      3          6           0       -1.936954    0.906531    0.000233
      4          6           0       -0.526078    0.987261   -0.000116
      5          6           0        0.210980   -0.231213   -0.000457
      6          6           0       -0.476101   -1.459321   -0.000395
      7          6           0        1.671654   -0.204669   -0.000823
      8          8           0        2.245509   -1.430223    0.000383
      9          7           0        0.085215    2.197762   -0.000182
     10          8           0        2.373190    0.803072    0.000437
     11          1           0       -2.370137   -2.471796   -0.000060
     12          1           0       -3.669013   -0.338165    0.000519
     13          1           0       -2.512015    1.828801    0.000476
     14          1           0        0.109356   -2.371698   -0.000636
     15          1           0        3.202049   -1.274389    0.001107
     16          1           0        1.096548    2.231983   -0.000569
     17          1           0       -0.461692    3.040560    0.000015
 ---------------------------------------------------------------------
                    Distance matrix (angstroms):
                    1          2          3          4          5
     1  C    0.000000
     2  C    1.403234   0.000000
     3  C    2.423913   1.381576   0.000000
     4  C    2.835323   2.434175   1.413184   0.000000
     5  C    2.434948   2.794940   2.430654   1.424055   0.000000
     6  C    1.382442   2.397421   2.780530   2.447093   1.407242
     7  C    3.764817   4.255789   3.775820   2.500145   1.460915
     8  O    4.103784   4.955376   4.790972   3.677760   2.361553
     9  N    4.191212   3.664833   2.399259   1.356094   2.432229
    10  O    4.824536   5.080420   4.311385   2.905113   2.396852
    11  H    1.084585   2.167403   3.405987   3.919903   3.417950
    12  H    2.160902   1.086555   2.132908   3.410982   3.881467
    13  H    3.408336   2.144809   1.086866   2.156881   3.414434
    14  H    2.144791   3.387900   3.864475   3.418535   2.142896
    15  H    5.065196   5.863800   5.582631   4.360504   3.167762
    16  H    4.772171   4.474735   3.310431   2.045054   2.617549
    17  H    4.765591   3.969564   2.594316   2.054307   3.340207
                    6          7          8          9         10
     6  C    0.000000
     7  C    2.487369   0.000000
     8  O    2.721765   1.353253   0.000000
     9  N    3.699910   2.878970   4.222457   0.000000
    10  O    3.638253   1.227883   2.236942   2.679551   0.000000
    11  H    2.147668   4.634214   4.731708   5.275750   5.764019
    12  H    3.384033   5.342335   6.014496   4.530470   6.149036
    13  H    3.867389   4.651676   5.766738   2.623307   4.991728
    14  H    1.084062   2.671477   2.334421   4.569524   3.899245
    15  H    3.682797   1.867194   0.969152   4.665886   2.236706
    16  H    4.012350   2.503601   3.838211   1.011912   1.916143
    17  H    4.499904   3.883642   5.226551   1.004696   3.611497
                   11         12         13         14         15
    11  H    0.000000
    12  H    2.497892   0.000000
    13  H    4.302937   2.456499   0.000000
    14  H    2.481513   4.290842   4.951341   0.000000
    15  H    5.699390   6.934552   6.502332   3.281591   0.000000
    16  H    5.843239   5.414447   3.631017   4.708335   4.089961
    17  H    5.833372   4.658615   2.381635   5.442300   5.660546
                   16         17
    16  H    0.000000
    17  H    1.755536   0.000000
 Stoichiometry    C7H7NO2
 Framework group  C1[X(C7H7NO2)]
 Deg. of freedom    45
 Full point group                 C1      NOp   1
 Largest Abelian subgroup         C1      NOp   1
 Largest concise Abelian subgroup C1      NOp   1
                         Standard orientation:                         
 ---------------------------------------------------------------------
 Center     Atomic      Atomic             Coordinates (Angstroms)
 Number     Number       Type             X           Y           Z
 ---------------------------------------------------------------------
      1          6           0       -1.857144   -1.515965   -0.000044
      2          6           0       -2.582239   -0.314589    0.000280
      3          6           0       -1.936242    0.906657    0.000262
      4          6           0       -0.525351    0.987109   -0.000086
      5          6           0        0.211466   -0.231511   -0.000427
      6          6           0       -0.475857   -1.459484   -0.000365
      7          6           0        1.672146   -0.205256   -0.000793
      8          8           0        2.245758   -1.430923    0.000413
      9          7           0        0.086181    2.197489   -0.000152
     10          8           0        2.373881    0.802347    0.000467
     11          1           0       -2.370093   -2.471585   -0.000030
     12          1           0       -3.668548   -0.337697    0.000549
     13          1           0       -2.511122    1.829041    0.000506
     14          1           0        0.109419   -2.371976   -0.000606
     15          1           0        3.202330   -1.275278    0.001137
     16          1           0        1.097521    2.231510   -0.000539
     17          1           0       -0.460559    3.040394    0.000045
 ---------------------------------------------------------------------
 Rotational constants (GHZ):      2.3078707      1.2188742      0.7976206
 Standard basis: 6-31+G(d,p) (6D, 7F)
 There are   225 symmetry adapted cartesian basis functions of A   symmetry.
 There are   225 symmetry adapted basis functions of A   symmetry.
   225 basis functions,   369 primitive gaussians,   225 cartesian basis functions
    36 alpha electrons       36 beta electrons
       nuclear repulsion energy       501.6889046452 Hartrees.
 NAtoms=   17 NActive=   17 NUniq=   17 SFac= 1.00D+00 NAtFMM=   60 NAOKFM=F Big=F
 Integral buffers will be    131072 words long.
 Raffenetti 2 integral format.
 Two-electron integral symmetry is turned on.
 Nuclear repulsion after empirical dispersion term =      501.6573597646 Hartrees.
 One-electron integrals computed using PRISM.
 NBasis=   225 RedAO= T EigKep=  2.71D-06  NBF=   225
 NBsUse=   225 1.00D-06 EigRej= -1.00D+00 NBFU=   225
 Initial guess from the checkpoint file:  "B3PWD3BJAnthranilic.chk"
 B after Tr=     0.000000    0.000000   -0.000000
         Rot=    1.000000   -0.000005    0.000012   -0.000879 Ang=  -0.10 deg.
 Keep R1 ints in memory in canonical form, NReq=329175655.
 Requested convergence on RMS density matrix=1.00D-08 within 128 cycles.
 Requested convergence on MAX density matrix=1.00D-06.
 Requested convergence on             energy=1.00D-06.
 No special actions if energy rises.
 SCF Done:  E(RB3PW91) =  -476.070485456     A.U. after   10 cycles
            NFock= 10  Conv=0.63D-08     -V/T= 2.0093
 Calling FoFJK, ICntrl=      2127 FMM=F ISym2X=0 I1Cent= 0 IOpClX= 0 NMat=1 NMatS=1 NMatT=0.
 ***** Axes restored to original set *****
 -------------------------------------------------------------------
 Center     Atomic                   Forces (Hartrees/Bohr)
 Number     Number              X              Y              Z
 -------------------------------------------------------------------
      1        6          -0.000069481   -0.000063829    0.000007606
      2        6          -0.000083031   -0.000027631   -0.000000824
      3        6          -0.000089931   -0.000011293    0.000007283
      4        6          -0.000032508   -0.000055291   -0.000018063
      5        6           0.000040528    0.000139201   -0.000093194
      6        6          -0.000080968   -0.000161617   -0.000015364
      7        6           0.000009901   -0.000019949    0.000353343
      8        8           0.000179308   -0.000102694   -0.000105161
      9        7           0.000250357    0.000072449   -0.000004726
     10        8          -0.000066235    0.000207535   -0.000140378
     11        1          -0.000040244   -0.000037246    0.000002072
     12        1          -0.000054028   -0.000016850   -0.000001182
     13        1          -0.000030682    0.000037502    0.000000499
     14        1          -0.000011441   -0.000022906   -0.000001486
     15        1           0.000007189   -0.000001993   -0.000001062
     16        1           0.000059963    0.000033824    0.000011644
     17        1           0.000011302    0.000030787   -0.000001007
 -------------------------------------------------------------------
 Cartesian Forces:  Max     0.000353343 RMS     0.000090898

 GradGradGradGradGradGradGradGradGradGradGradGradGradGradGradGradGradGrad
 Berny optimization.
 Using GEDIIS/GDIIS optimizer.
 FormGI is forming the generalized inverse of G from B-inverse, IUseBI=4.
 Internal  Forces:  Max     0.000468384 RMS     0.000127656
 Search for a local minimum.
 Step number   3 out of a maximum of   86
 All quantities printed in internal units (Hartrees-Bohrs-Radians)
 Mixed Optimization -- En-DIIS/RFO-DIIS
 Swapping is turned off.
 Update second derivatives using D2CorX and points    1    2    3
 DE= -3.81D-06 DEPred=-6.20D-06 R= 6.15D-01
 TightC=F SS=  1.41D+00  RLast= 7.00D-03 DXNew= 5.0454D-01 2.1006D-02
 Trust test= 6.15D-01 RLast= 7.00D-03 DXMaxT set to 3.00D-01
 ITU=  1  0  0
     Eigenvalues ---    0.01253   0.01687   0.01815   0.01838   0.01975
     Eigenvalues ---    0.02072   0.02089   0.02133   0.02170   0.02191
     Eigenvalues ---    0.02238   0.02256   0.02258   0.02304   0.15251
     Eigenvalues ---    0.16000   0.16000   0.16000   0.16000   0.16010
     Eigenvalues ---    0.16110   0.21999   0.22386   0.24378   0.24656
     Eigenvalues ---    0.25000   0.25645   0.35067   0.35156   0.35297
     Eigenvalues ---    0.35389   0.36573   0.37612   0.40955   0.43269
     Eigenvalues ---    0.45419   0.46208   0.46757   0.47133   0.49363
     Eigenvalues ---    0.53446   0.53714   0.55825   0.65930   0.92247
 En-DIIS/RFO-DIIS IScMMF=        0 using points:     3    2    1
 RFO step:  Lambda=-1.77959820D-06.
 DidBck=T Rises=F RFO-DIIS coefs:    0.50903    0.30985    0.18112
 Iteration  1 RMS(Cart)=  0.00126332 RMS(Int)=  0.00000142
 Iteration  2 RMS(Cart)=  0.00000189 RMS(Int)=  0.00000064
 Iteration  3 RMS(Cart)=  0.00000000 RMS(Int)=  0.00000064
 Variable       Old X    -DE/DX   Delta X   Delta X   Delta X     New X
                                 (Linear)    (Quad)   (Total)
    R1        2.65173   0.00011   0.00022  -0.00009   0.00012   2.65185
    R2        2.61244   0.00017   0.00032  -0.00011   0.00021   2.61264
    R3        2.04957   0.00005   0.00017  -0.00008   0.00009   2.04966
    R4        2.61080   0.00016   0.00029  -0.00012   0.00018   2.61098
    R5        2.05329   0.00005   0.00017  -0.00008   0.00010   2.05339
    R6        2.67053   0.00021   0.00039  -0.00006   0.00033   2.67086
    R7        2.05388   0.00005   0.00019  -0.00011   0.00009   2.05397
    R8        2.69107  -0.00007   0.00013   0.00004   0.00017   2.69125
    R9        2.56265   0.00027   0.00050  -0.00020   0.00030   2.56295
   R10        2.65930   0.00029   0.00044   0.00001   0.00045   2.65975
   R11        2.76073   0.00013   0.00067  -0.00029   0.00039   2.76112
   R12        2.04858   0.00001   0.00021  -0.00018   0.00003   2.04861
   R13        2.55728   0.00018   0.00019   0.00000   0.00019   2.55746
   R14        2.32036   0.00013  -0.00001   0.00011   0.00010   2.32046
   R15        1.83143   0.00001   0.00005  -0.00003   0.00002   1.83145
   R16        1.91224   0.00006   0.00001   0.00008   0.00009   1.91233
   R17        1.89860   0.00002   0.00013  -0.00009   0.00004   1.89864
    A1        2.07296  -0.00000  -0.00003   0.00004   0.00001   2.07296
    A2        2.10593  -0.00002   0.00007  -0.00015  -0.00008   2.10585
    A3        2.10429   0.00002  -0.00003   0.00011   0.00008   2.10437
    A4        2.11201  -0.00000  -0.00007   0.00007  -0.00000   2.11201
    A5        2.09256  -0.00001   0.00008  -0.00013  -0.00006   2.09250
    A6        2.07862   0.00002  -0.00000   0.00007   0.00006   2.07868
    A7        2.11431  -0.00000   0.00012  -0.00006   0.00006   2.11437
    A8        2.09770  -0.00001  -0.00015   0.00009  -0.00006   2.09764
    A9        2.07118   0.00001   0.00003  -0.00003   0.00000   2.07118
   A10        2.05765   0.00002  -0.00003   0.00001  -0.00002   2.05764
   A11        2.09559   0.00028   0.00039  -0.00005   0.00035   2.09593
   A12        2.12994  -0.00030  -0.00037   0.00004  -0.00033   2.12961
   A13        2.08750   0.00002  -0.00008   0.00000  -0.00008   2.08742
   A14        2.09664  -0.00047  -0.00073   0.00014  -0.00059   2.09605
   A15        2.09905   0.00045   0.00081  -0.00014   0.00067   2.09972
   A16        2.12194  -0.00003   0.00010  -0.00006   0.00003   2.12198
   A17        2.10024  -0.00001  -0.00026   0.00014  -0.00011   2.10012
   A18        2.06101   0.00004   0.00016  -0.00008   0.00008   2.06109
   A19        1.99054   0.00034   0.00034   0.00040   0.00074   1.99129
   A20        2.19710  -0.00037  -0.00079   0.00029  -0.00050   2.19660
   A21        2.09554   0.00003   0.00045  -0.00068  -0.00024   2.09530
   A22        1.84722   0.00001  -0.00015   0.00030   0.00016   1.84738
   A23        2.07225   0.00002   0.00046  -0.00036   0.00010   2.07235
   A24        2.09834   0.00001   0.00023  -0.00023   0.00000   2.09835
   A25        2.11259  -0.00004  -0.00069   0.00059  -0.00010   2.11249
    D1        0.00002  -0.00000  -0.00001  -0.00002  -0.00003  -0.00002
    D2       -3.14158  -0.00000  -0.00001  -0.00002  -0.00003   3.14158
    D3       -3.14159  -0.00000  -0.00000  -0.00000  -0.00001   3.14159
    D4        0.00000  -0.00000  -0.00000  -0.00000  -0.00000  -0.00000
    D5       -0.00005   0.00000   0.00003   0.00006   0.00009   0.00005
    D6        3.14158   0.00000   0.00001   0.00002   0.00003  -3.14158
    D7        3.14156   0.00000   0.00002   0.00004   0.00006  -3.14156
    D8       -0.00000   0.00000   0.00000   0.00000   0.00000   0.00000
    D9        0.00000  -0.00000  -0.00000  -0.00000  -0.00001  -0.00000
   D10        3.14158   0.00000   0.00001   0.00002   0.00003  -3.14158
   D11       -3.14159  -0.00000  -0.00000  -0.00001  -0.00001   3.14159
   D12       -0.00001   0.00000   0.00001   0.00002   0.00002   0.00001
   D13        0.00001  -0.00000  -0.00000  -0.00001  -0.00001  -0.00000
   D14        3.14154   0.00000   0.00003   0.00008   0.00011  -3.14153
   D15       -3.14157  -0.00000  -0.00001  -0.00003  -0.00004   3.14157
   D16       -0.00003   0.00000   0.00003   0.00006   0.00008   0.00005
   D17       -0.00003   0.00000   0.00002   0.00005   0.00007   0.00003
   D18       -3.14159  -0.00000  -0.00000  -0.00001  -0.00001   3.14158
   D19       -3.14157  -0.00000  -0.00002  -0.00004  -0.00006   3.14155
   D20        0.00006  -0.00001  -0.00004  -0.00010  -0.00014  -0.00008
   D21       -3.14144  -0.00001  -0.00008  -0.00018  -0.00027   3.14148
   D22       -0.00000  -0.00000  -0.00003  -0.00006  -0.00008  -0.00008
   D23        0.00010  -0.00001  -0.00004  -0.00009  -0.00014  -0.00004
   D24        3.14154   0.00000   0.00001   0.00003   0.00005   3.14158
   D25        0.00006  -0.00000  -0.00003  -0.00008  -0.00011  -0.00006
   D26       -3.14157  -0.00000  -0.00002  -0.00004  -0.00005   3.14157
   D27       -3.14157  -0.00000  -0.00001  -0.00002  -0.00003   3.14158
   D28       -0.00001   0.00000   0.00001   0.00002   0.00003   0.00002
   D29        3.14037   0.00009   0.00079   0.00175   0.00254  -3.14028
   D30        0.00132  -0.00009  -0.00085  -0.00191  -0.00276  -0.00145
   D31       -0.00118   0.00008   0.00076   0.00169   0.00245   0.00127
   D32       -3.14024  -0.00010  -0.00088  -0.00197  -0.00285   3.14010
   D33       -3.14040  -0.00008  -0.00077  -0.00173  -0.00250   3.14029
   D34       -0.00118   0.00008   0.00076   0.00170   0.00246   0.00128
         Item               Value     Threshold  Converged?
 Maximum Force            0.000468     0.000450     NO 
 RMS     Force            0.000128     0.000300     YES
 Maximum Displacement     0.004434     0.001800     NO 
 RMS     Displacement     0.001263     0.001200     NO 
 Predicted change in Energy=-1.547466D-06
 GradGradGradGradGradGradGradGradGradGradGradGradGradGradGradGradGradGrad

                          Input orientation:                          
 ---------------------------------------------------------------------
 Center     Atomic      Atomic             Coordinates (Angstroms)
 Number     Number       Type             X           Y           Z
 ---------------------------------------------------------------------
      1          6           0       -1.858080   -1.516279    0.000103
      2          6           0       -2.583193   -0.314838   -0.000234
      3          6           0       -1.937131    0.906480   -0.000210
      4          6           0       -0.526070    0.987000    0.000157
      5          6           0        0.210825   -0.231678    0.000508
      6          6           0       -0.476681   -1.459821    0.000439
      7          6           0        1.671692   -0.204514    0.000883
      8          8           0        2.247013   -1.429490   -0.000433
      9          7           0        0.085904    2.197337    0.000249
     10          8           0        2.372325    0.803917   -0.000511
     11          1           0       -2.371145   -2.471893    0.000085
     12          1           0       -3.669553   -0.337997   -0.000517
     13          1           0       -2.512078    1.828875   -0.000459
     14          1           0        0.108481   -2.372403    0.000687
     15          1           0        3.203409   -1.272693   -0.001239
     16          1           0        1.097300    2.231147    0.000615
     17          1           0       -0.460589    3.040427   -0.000014
 ---------------------------------------------------------------------
                    Distance matrix (angstroms):
                    1          2          3          4          5
     1  C    0.000000
     2  C    1.403300   0.000000
     3  C    2.424048   1.381670   0.000000
     4  C    2.835605   2.434448   1.413357   0.000000
     5  C    2.435275   2.795255   2.430868   1.424146   0.000000
     6  C    1.382552   2.397577   2.780700   2.447319   1.407479
     7  C    3.765636   4.256315   3.775966   2.499973   1.461120
     8  O    4.106010   4.957150   4.792058   3.678236   2.362375
     9  N    4.191660   3.665392   2.399789   1.356255   2.432226
    10  O    4.824897   5.080233   4.310676   2.904171   2.396777
    11  H    1.084635   2.167452   3.406137   3.920235   3.418352
    12  H    2.160968   1.086607   2.133074   3.411320   3.881834
    13  H    3.408485   2.144893   1.086912   2.157077   3.414686
    14  H    2.144833   3.388020   3.864661   3.418808   2.143170
    15  H    5.067347   5.865343   5.583364   4.360645   3.168481
    16  H    4.772575   4.475273   3.310969   2.045295   2.617508
    17  H    4.766188   3.970296   2.594977   2.054470   3.340280
                    6          7          8          9         10
     6  C    0.000000
     7  C    2.488233   0.000000
     8  O    2.723864   1.353352   0.000000
     9  N    3.700176   2.878127   4.221880   0.000000
    10  O    3.638866   1.227934   2.236920   2.677562   0.000000
    11  H    2.147856   4.635250   4.734342   5.276248   5.764671
    12  H    3.384216   5.342913   6.016404   4.531156   6.148842
    13  H    3.867604   4.651731   5.767659   2.623980   4.990784
    14  H    1.084077   2.672709   2.337180   4.569796   3.900513
    15  H    3.684845   1.867396   0.969164   4.664756   2.236741
    16  H    4.012563   2.502473   3.836939   1.011961   1.913811
    17  H    4.500276   3.882817   5.226018   1.004716   3.609346
                   11         12         13         14         15
    11  H    0.000000
    12  H    2.497874   0.000000
    13  H    4.303077   2.456641   0.000000
    14  H    2.481621   4.290961   4.951573   0.000000
    15  H    5.702082   6.936228   6.502808   3.284501   0.000000
    16  H    5.843688   5.415108   3.631726   4.708550   4.088104
    17  H    5.834028   4.659527   2.382532   5.442662   5.659318
                   16         17
    16  H    0.000000
    17  H    1.755549   0.000000
 Stoichiometry    C7H7NO2
 Framework group  C1[X(C7H7NO2)]
 Deg. of freedom    45
 Full point group                 C1      NOp   1
 Largest Abelian subgroup         C1      NOp   1
 Largest concise Abelian subgroup C1      NOp   1
                         Standard orientation:                         
 ---------------------------------------------------------------------
 Center     Atomic      Atomic             Coordinates (Angstroms)
 Number     Number       Type             X           Y           Z
 ---------------------------------------------------------------------
      1          6           0       -1.858518   -1.515343    0.000058
      2          6           0       -2.582844   -0.313427   -0.000279
      3          6           0       -1.935982    0.907467   -0.000255
      4          6           0       -0.524868    0.987062    0.000112
      5          6           0        0.211228   -0.232099    0.000464
      6          6           0       -0.477083   -1.459791    0.000394
      7          6           0        1.672113   -0.205893    0.000838
      8          8           0        2.246631   -1.431246   -0.000477
      9          7           0        0.087900    2.196998    0.000205
     10          8           0        2.373406    0.802079   -0.000556
     11          1           0       -2.372211   -2.470620    0.000040
     12          1           0       -3.669219   -0.335874   -0.000562
     13          1           0       -2.510323    1.830239   -0.000504
     14          1           0        0.107480   -2.372757    0.000642
     15          1           0        3.203129   -1.275076   -0.001284
[...]
 ! D27   D(7,5,6,1)           -179.9997         -DE/DX =    0.0                 !
 ! D28   D(7,5,6,14)             0.0            -DE/DX =    0.0                 !
 ! D29   D(4,5,7,8)            179.9917         -DE/DX =    0.0                 !
 ! D30   D(4,5,7,10)             0.0083         -DE/DX =    0.0                 !
 ! D31   D(6,5,7,8)             -0.0081         -DE/DX =    0.0                 !
 ! D32   D(6,5,7,10)           180.0084         -DE/DX =    0.0                 !
 ! D33   D(5,7,8,15)           180.0077         -DE/DX =    0.0                 !
 ! D34   D(10,7,8,15)           -0.0078         -DE/DX =    0.0                 !
 --------------------------------------------------------------------------------
 GradGradGradGradGradGradGradGradGradGradGradGradGradGradGradGradGradGrad

 1\1\ WCSS.PL-BEM-JP\Freq\RB3PW91\6-31+G(d,p)\C7H7N1O2\C612\19-Dec-2024
 \0\\#N Geom=AllCheck Guess=TCheck SCRF=Check GenChk RB3PW91/6-31+G(d,p
 ) Freq\\[No Title]\\0,1\C,-1.858289384,-1.5163634031,0.0000008547\C,-2
 .5833350308,-0.3148468834,0.0000452367\C,-1.9371782025,0.9064570267,0.
 0000452607\C,-0.5260570127,0.9869041749,0.0000000239\C,0.2107616056,-0
 .2318369009,-0.0000474776\C,-0.476853307,-1.4599984363,-0.0000416326\C
 ,1.6716574219,-0.2044211378,-0.0000991382\O,2.2473969474,-1.4292323919
 ,0.0000370538\N,0.0861986439,2.1971604857,0.0000000219\O,2.3719032057,
 0.8043098989,0.0000376456\H,-2.3714519314,-2.4719458428,0.0000010486\H
 ,-3.6697158159,-0.3379541042,0.0000801744\H,-2.5120861655,1.8288983797
 ,0.0000798225\H,0.1082387593,-2.3726436224,-0.0000755691\H,3.203731166
 ,-1.2720669462,0.0001116629\H,1.0976189784,2.2307768612,-0.0000687318\
 H,-0.4601128783,3.0403788418,0.0000017436\\Version=ES64L-G09RevE.01\St
 ate=1-A\HF=-476.0704868\RMSD=2.861e-09\RMSF=1.716e-05\ZeroPoint=0.1325
 298\Thermal=0.140389\Dipole=-0.4473673,0.2185567,-0.0000638\DipoleDeri
 v=-0.5602649,0.2681268,-0.0000138,0.1966774,-0.1789548,-0.000048,0.000
 0033,-0.0000113,-0.1986893,0.169229,0.0077286,0.0000333,-0.2712419,0.4
 95567,0.0000283,-0.0000041,0.0000076,-0.0983316,-0.1330041,-0.6407642,
 0.0000075,-0.031146,-0.2253147,0.0000036,-0.0000148,0.0000265,-0.20183
 19,0.3736375,0.7937503,-0.0000174,0.2954029,1.2788864,-0.000057,0.0000
 241,-0.0000009,0.1109373,-1.0063814,0.3018197,-0.0000227,-0.3223225,-0
 .3647902,0.0000608,0.0000199,-0.0000027,-0.0540946,0.5442094,-0.109558
 1,-0.0000185,0.4326217,0.028466,0.0000549,0.0000336,-0.0000007,-0.0940
 098,2.3379245,-0.2976494,-0.0000191,-0.1157649,1.5472832,-0.0000614,0.
 000109,-0.0000602,0.2957142,-0.8702664,0.5398305,-0.0000076,0.6379467,
 -1.0730414,0.0000391,-0.0000941,0.0001113,-0.3701732,-0.4412174,-0.539
 4981,-0.0000164,-0.3215674,-1.2824263,-0.0000104,-0.0000246,-0.0000314
 ,-0.5509721,-1.2244539,-0.2703638,0.000016,-0.3912935,-0.9110101,0.000
 0208,-0.0000878,-0.000045,-0.3758663,0.0198977,-0.062134,0.0000239,-0.
 073023,-0.0633064,0.0000386,-0.0000047,0.0000021,0.1577722,-0.105665,-
 0.0041527,0.0000088,-0.0024449,0.0845693,0.0000019,0.0000093,-0.000000
 6,0.132897,0.0242029,0.046597,0.0000263,0.0824274,-0.0900312,-0.000040
 8,0.0000066,-0.0000101,0.1479642,0.0823441,0.0547887,0.0000051,0.04517
 01,0.0087354,-0.0000015,0.0000031,-0.0000051,0.1318326,0.3172542,-0.08
 01893,-0.0000076,-0.1348783,0.2827721,0.0000011,0.0000034,-0.0000027,0
 .3405788,0.3490781,-0.0349628,0.00001,-0.0290567,0.230755,-0.0000275,0
 .0000128,0.,0.2995826,0.1234757,0.0266308,-0.0000076,0.002493,0.231840
 7,-0.0000026,0.0000051,0.0000232,0.3266898\Polar=126.9761525,4.0904643
 ,114.04905,0.0003804,0.0007063,52.5841621\PG=C01 [X(C7H7N1O2)]\NImag=1
 \\0.70930672,0.04384618,0.72473037,-0.00001797,0.00000794,0.11975543,-
 0.17745065,0.12143498,0.00000603,0.74376258,0.05817285,-0.27568517,-0.
 00000499,0.01897296,0.69436309,0.00000516,-0.00000733,-0.06135245,-0.0
 0001942,0.00000894,0.13815032,0.05847270,-0.01690481,-0.00000199,-0.18
 339374,-0.07772361,0.00000247,0.67043580,0.02374525,-0.05632825,-0.000
 00184,-0.13716650,-0.32888460,-0.00000037,0.00464020,0.76873122,-0.000
 00146,-0.00000096,0.00899880,0.00000184,-0.00000237,-0.05561724,-0.000
 01728,0.00001159,0.11849505,-0.05347096,0.03003755,0.00000214,-0.01892
 027,-0.07849150,-0.00000033,-0.29728496,0.03689638,0.00000718,0.695830
 55,0.02333980,-0.00412221,-0.00000154,-0.03741492,0.02080085,0.0000021
 1,-0.01781817,-0.12179612,-0.00000087,0.03820760,0.74126724,0.00000228
 ,-0.00000106,-0.00517843,0.00000013,0.00000320,0.00104368,0.00000748,-
 0.00000206,-0.06946986,-0.00001887,0.00000739,0.16763304,-0.03874916,-
 0.02276701,0.00000167,-0.00181339,-0.01338102,-0.00000039,-0.01406142,
 0.02540791,0.00000171,-0.18165963,0.08000483,0.00000654,0.64667606,-0.
 06337874,0.01998529,0.00000316,0.00571688,-0.04990410,-0.00000114,0.04
 809956,0.02839391,-0.00000120,0.04940358,-0.23267081,-0.00000472,0.014
 87981,0.70000917,0.00000018,0.00000192,0.00913801,-0.00000026,-0.00000
 050,-0.00551080,0.00000136,-0.00000149,0.00777119,0.00000711,-0.000005
 41,-0.06659910,-0.00001156,0.00000762,0.12929098,-0.37395389,-0.041973
 81,0.00000865,-0.03307134,0.07393564,0.00000249,-0.04375563,-0.0273748
 4,0.00000071,0.06720443,-0.00892701,-0.00000270,-0.15146514,-0.0601201
 2,0.00000476,0.74026803,0.01933296,-0.12473356,-0.00000169,0.02813246,
 0.03172214,-0.00000109,-0.02197322,-0.01700716,0.00000129,0.02332718,-
 0.05141492,-0.00000220,-0.09878079,-0.27961532,-0.00000002,-0.04045040
 ,0.70251509,0.00001092,0.00000058,-0.06210628,0.00000155,-0.00000208,0
 .00715220,0.00000073,0.00000064,-0.00391430,-0.00000157,0.00000081,0.0
 0118905,0.00000277,-0.00000159,-0.05656433,-0.00002118,0.00000946,0.14
 017742,0.02028677,-0.00804068,-0.00000141,0.00101255,0.01426218,0.0000
 0044,-0.00875390,-0.00102352,-0.00000053,-0.00925860,0.04143372,0.0000
 0056,-0.21495838,0.00434837,0.00000981,-0.03637668,-0.02814664,0.00000
 107,0.74963445,-0.00198782,-0.00840320,-0.00000026,0.00027865,-0.00025
 566,0.00000006,0.00085835,-0.00664248,-0.00000063,0.03416748,0.0208358
 3,-0.00000145,0.01702235,-0.10379173,0.,-0.03212629,0.00754025,0.00000
 208,0.15324441,0.80604329,0.00000086,-0.00000012,0.00771189,-0.0000005
 3,0.00000047,-0.00100334,0.00000006,-0.00000014,0.00609980,-0.00000002
 ,0.00000165,-0.00080064,0.00000137,0.00000030,-0.07594775,-0.00000096,
 -0.00000152,-0.00402170,0.00004790,0.00002856,0.20944102,-0.00214606,0
 .00172399,0.00000017,-0.00066558,-0.00100457,0.00000002,-0.00002546,0.
 00204202,0.00000032,-0.00645255,-0.01008078,-0.00000023,-0.03394504,0.
 04268629,-0.00000427,-0.00238372,0.00369592,-0.00000022,-0.16050749,0.
 08375195,-0.00001248,0.65924771,0.00370502,0.00029995,-0.00000012,-0.0
 0003706,0.00154586,-0.00000005,-0.00032466,0.00094556,0.00000005,-0.00
 233136,0.00172088,0.00000035,0.02097478,-0.00339745,0.00000254,-0.0047
 6263,-0.00661954,-0.00000073,0.04297138,-0.23335002,0.00001056,-0.0012
 2652,0.40244530,-0.00000059,-0.00000038,-0.00061486,0.00000032,-0.0000
 0003,-0.00010006,0.00000037,0.00000010,-0.00077833,-0.00000019,-0.0000
 0148,0.00251629,-0.00000079,0.00000243,0.01114957,0.00000006,0.0000013
 2,0.00066778,-0.00001079,0.00001929,-0.06331485,0.00005052,-0.00001340
 ,0.03579028,0.00932981,-0.00863200,-0.00000057,-0.00431767,0.01674917,
 0.00000050,-0.04026664,-0.05745787,0.00000087,-0.18350221,-0.09544888,
 0.00000314,0.03115870,0.01668997,-0.00000044,-0.01421556,-0.00181665,0
 .00000031,-0.02087074,-0.01041385,-0.00000101,0.00231051,0.00361126,-0
 .00000023,0.86446473,0.00086669,-0.00801184,-0.00000019,0.00587575,0.0
 0818797,0.,-0.02785293,-0.00956344,0.00000068,-0.10183176,-0.33096806,
 -0.00000229,0.00347763,-0.05067122,-0.00000111,0.00061532,0.00052382,-
 0.00000028,-0.02172204,-0.00534660,-0.00000086,0.00350722,-0.00277156,
 0.00000056,-0.05173128,0.81698108,-0.00000046,-0.00000063,-0.00098216,
 0.00000098,0.00000002,0.00437903,0.00000098,0.00000183,0.01072492,0.00
 000522,0.00000085,-0.03902204,-0.00000085,-0.00000088,0.00673693,0.000
 00050,0.00000083,0.00407035,-0.00000033,-0.00000019,-0.00117752,0.0000
 0003,0.00000032,-0.00010486,-0.00004047,-0.00000265,0.01418718,-0.0060
 9980,-0.00012610,0.00000065,-0.00000555,-0.00455306,-0.00000019,0.0028
 8407,0.00058364,-0.00000008,0.00063960,-0.01083249,-0.00000004,-0.0382
 2516,-0.04536873,-0.00000601,-0.00196681,0.00980637,-0.00000039,-0.304
 04932,-0.25860809,-0.00003456,0.03631308,0.00193860,0.00000007,-0.0001
 0785,0.01604427,0.00000007,0.32396744,-0.00769412,0.00433032,0.0000004
 8,0.00017319,-0.00751674,-0.00000010,0.00639251,0.00358769,-0.00000010
 ,-0.00702683,-0.02365792,0.00000051,-0.04178204,-0.00452474,-0.0000030
 7,0.00684626,0.00706233,-0.00000025,-0.24614844,-0.46493256,-0.0000438
 4,-0.01748178,-0.10709308,-0.00000319,0.02268484,0.00386305,-0.0000001
 1,0.29815388,0.57648354,-0.00000060,0.00000032,-0.00176475,0.,-0.00000
 067,0.00038732,0.00000006,0.00000009,-0.00071401,0.00000013,-0.0000015
 4,-0.00071395,-0.00000108,-0.00000342,0.01947901,0.00000009,0.00000084
 ,0.00471271,-0.00003968,-0.00004869,-0.07680426,0.00000124,0.00000220,
 0.02712338,0.00000137,0.00000154,0.00257959,0.00003940,0.00005051,0.03
 578011,-0.12186040,-0.12001834,0.00000085,0.01147089,0.01650884,-0.000
 00020,-0.00145741,0.00296292,0.00000041,-0.00101026,0.00082198,0.00000
 008,-0.00503001,0.00183273,0.00000053,-0.01050571,-0.02948856,-0.00000
 024,0.00082880,-0.00169294,0.00000006,-0.00023145,0.00029901,0.0000001
 8,0.00039318,-0.00013352,0.00000022,-0.00102453,-0.00024939,-0.0000002
 5,0.12633268,-0.12021293,-0.28193362,-0.00000004,-0.01515558,-0.018136
 81,0.00000003,0.00416344,-0.00234864,0.,0.00088459,0.00007183,0.000000
 04,0.00045099,0.00162533,-0.00000025,0.00218099,0.00300391,-0.00000041
 ,0.00047130,-0.00001099,-0.00000003,-0.00018535,0.00012729,0.00000036,
 -0.00023861,0.00013672,0.00000046,-0.00016421,0.00000536,-0.00000024,0
 .12848656,0.29685362,0.00000065,-0.00000037,-0.03075842,-0.00000049,-0
 .00000099,0.00088689,0.00000046,-0.00000021,0.00551779,-0.00000008,-0.
 00000022,-0.00044010,0.00000038,0.00000011,0.00703211,0.00000038,0.000
 00110,0.00139397,-0.00000007,-0.00000004,0.00139656,-0.00000003,0.0000
 0009,-0.00002412,0.00000008,0.00000008,-0.00055256,0.00000009,-0.00000
 002,-0.00060170,-0.00000103,0.00000047,0.02354063,-0.01140301,-0.00373
 339,0.00000047,-0.34153275,-0.00622761,0.00000957,-0.01064887,0.002495
 96,0.00000065,0.00125082,-0.00224010,0.00000018,0.00069598,-0.00002653
 ,-0.00000004,0.00010676,0.00359968,0.00000025,0.00023031,0.00005233,0.
 ,-0.00019781,0.00006736,0.00000004,-0.00098167,-0.00001115,0.00000010,
 -0.00018454,-0.00006747,-0.00000006,0.00078191,0.00017078,-0.00000013,
 0.36151836,0.02687028,0.00636378,-0.00000080,-0.00537915,-0.05949278,-
 0.00000014,-0.02832298,0.00348351,0.00000082,-0.00211883,-0.00504243,-
 0.00000015,-0.00052983,-0.00106757,0.,0.00302678,-0.00480399,-0.000000
 32,0.00038212,-0.00021689,0.00000006,-0.00001244,0.00022637,0.,-0.0014
 0161,0.00067227,0.00000012,-0.00006124,0.00004353,-0.00000002,-0.00050
 920,0.00089041,0.00000009,0.00657507,0.05818517,0.00000074,0.00000033,
 0.00439016,0.00000968,-0.00000019,-0.03943705,-0.00000020,-0.00000023,
 0.00431756,0.00000040,-0.00000018,0.00854241,-0.00000012,-0.00000009,-
 0.00070955,0.00000046,-0.00000019,0.00622605,0.00000009,0.00000006,-0.
 00113892,0.,0.,0.00020114,-0.00000006,0.,-0.00016889,0.00000003,0.,0.0
 0013586,-0.00000013,0.00000004,-0.00330706,-0.00001072,0.00000034,0.02
 602002,-0.00049386,-0.00311701,0.00000032,0.01154762,-0.01415275,-0.00
 000070,-0.13849654,0.12679782,0.00000581,-0.01216247,0.02864150,0.0000
 0106,-0.00489494,-0.00215469,0.00000041,-0.00112643,-0.00115635,-0.000
 00018,0.00040402,0.00169443,0.00000003,-0.00083597,0.00004882,0.000000
 19,0.00217476,0.00101878,0.00000004,-0.00009400,-0.00037268,-0.0000001
 7,0.00043199,-0.00074329,0.00000003,0.00090417,0.00023178,-0.00000017,
 0.14363044,-0.00437602,-0.00269545,-0.00000025,0.01739344,-0.01942486,
 -0.00000076,0.12704320,-0.25777163,-0.00000831,-0.00394333,0.00143135,
 0.00000004,-0.00017103,0.00130391,0.00000008,-0.00078758,0.00012409,0.
 00000034,-0.00103711,-0.00017605,-0.00000003,0.00018105,-0.00005516,-0
 .00000033,-0.00090725,0.00234028,-0.00000030,0.00032701,0.00039591,0.0
 0000027,0.00088118,-0.00104006,-0.00000013,-0.00018908,0.00091583,0.00
 000012,-0.13549218,0.27440561,0.00000017,0.00000023,0.00725228,-0.0000
 0015,-0.00000005,0.00212972,0.00000541,-0.00000815,-0.03171736,0.00000
 067,-0.00000017,0.00382120,0.00000045,-0.00000055,0.00473664,0.0000001
 1,-0.00000024,-0.00068911,0.00000020,0.00000011,0.00007787,0.00000002,
 -0.00000011,-0.00005040,-0.00000015,-0.00000016,-0.00276415,-0.0000000
 3,0.00000011,-0.00000071,-0.00000011,-0.00000021,0.00062985,-0.0000002
 4,0.00000009,-0.00461158,-0.00000648,0.00000895,0.02213255,-0.01027159
 ,0.02684210,0.00000105,-0.00576214,-0.00118717,0.00000045,-0.00042937,
 -0.00097586,-0.00000008,-0.00153470,-0.00311698,0.00000018,0.01092150,
 -0.01306182,-0.00000072,-0.14070478,0.13289899,0.00000589,0.00162575,-
 0.00168299,0.00000015,-0.00437226,-0.00058471,-0.00000040,0.00052627,-
 0.00072381,-0.00000004,0.00019529,0.00103632,0.00000003,0.00102196,-0.
 00025048,-0.00000017,-0.00064515,0.00133567,0.,0.00006307,0.00009440,0
 .,0.14929471,-0.00334414,0.00598561,0.00000020,-0.00098177,0.00109947,
 -0.00000012,-0.00042492,0.00020061,0.00000017,-0.00422098,-0.00237893,
 0.00000014,0.01498351,-0.01864726,-0.00000098,0.13034104,-0.26573592,-
 0.00000813,0.00271633,-0.00286462,0.00000034,0.00038743,0.00172993,-0.
 00000004,0.00114390,-0.00087004,0.00000002,-0.00029592,0.00093706,-0.0
 0000009,0.00025526,0.00074422,0.00000005,-0.00026638,0.00018783,0.,0.0
 0010211,-0.00000471,-0.00000006,-0.14038748,0.27928016,0.00000012,-0.0
 0000095,0.00535005,0.00000050,-0.00000032,0.00765670,0.00000006,0.0000
 0008,-0.00088189,0.00000017,0.00000032,0.00563185,-0.00000059,-0.00000
 062,0.00322422,0.00000617,-0.00000738,-0.03879290,0.00000055,0.0000000
 9,-0.00365456,-0.00000026,0.00000010,0.00046890,0.00000006,-0.00000003
 ,0.00033802,-0.00000015,-0.00000004,0.00052715,-0.00000022,0.00000007,
 -0.00459584,-0.00000001,-0.00000005,-0.00020931,-0.00000006,0.00000006
 ,-0.00080362,-0.00000639,0.00000864,0.02602900,0.00052352,-0.00027246,
 -0.00000009,0.00008115,0.00032312,0.00000002,-0.00015793,0.00036748,0.
 00000007,-0.00089196,-0.00010988,-0.00000015,0.00244678,0.00307797,-0.
 00000109,0.00034387,-0.00024377,0.00000013,-0.03358113,0.00621516,-0.0
 0000201,-0.48481460,-0.05993355,-0.00003861,0.00049331,-0.00059920,-0.
 00000008,0.00252331,-0.00884734,0.00000047,0.00001479,0.00002051,0.,0.
 00003283,0.00000162,0.,-0.00006366,-0.00003007,0.00000003,-0.00011161,
 -0.00003091,0.00000006,0.51370656,-0.00026661,0.00041763,0.00000010,-0
 .00016865,-0.00016826,-0.00000005,0.00011197,-0.00047439,0.,0.00158933
 ,0.00087869,-0.00000006,0.00110273,-0.00680487,0.00000051,-0.00087593,
 -0.00059689,-0.00000014,0.05544066,0.00734183,0.00000517,-0.10845309,-
 0.06083398,-0.00000474,-0.00059404,0.00026994,0.00000005,-0.00815153,0
 .00152788,-0.00000147,-0.00003478,-0.00002112,0.,-0.00004223,0.0000345
 9,0.,0.00013758,0.00001625,-0.00000003,0.00016509,0.00069480,0.0000000
 1,0.05943294,0.05845452,0.00000004,0.00000004,0.00018813,0.,-0.0000000
 5,0.00005856,-0.00000014,0.00000011,-0.00032867,-0.00000012,0.00000033
 ,0.00099561,0.00000121,0.00000040,0.00398727,0.00000021,-0.00000016,-0
 .00043736,-0.00000916,0.00000083,0.00361208,-0.00003453,-0.00000147,-0
 .01369679,0.,-0.00000017,-0.00004799,0.00000139,-0.00000048,-0.0058432
 6,-0.00000007,-0.00000011,-0.00001033,-0.00000003,0.,-0.00002885,-0.00
 000010,0.00000010,-0.00001760,0.00000003,-0.00000009,-0.00029552,0.000
 04128,0.00000058,0.01179988,-0.00237264,0.00227867,0.00000014,-0.00068
 526,-0.00340730,0.,0.00607152,0.00147504,0.00000011,-0.01372728,-0.012
 74423,0.00000077,-0.00670713,0.00157916,0.00000005,0.00132221,0.001672
 11,0.00000009,0.01780878,0.01213125,0.00000128,-0.00170549,-0.00534694
 ,0.00000003,-0.44588005,-0.01519735,0.00002965,-0.01281176,-0.01039697
 ,-0.00000112,-0.00010110,0.00002934,-0.00000004,0.00008367,-0.00009481
 ,-0.00000003,-0.00015494,0.00008825,-0.00000003,0.00028278,0.00025866,
 -0.00000001,-0.00062605,0.00078662,-0.00000007,0.45889147,0.00211123,-
 0.00121796,-0.00000022,-0.00152074,0.00306212,0.00000013,-0.00302506,-
 0.00745040,-0.00000003,-0.03289630,0.00962963,0.00000237,0.00470998,0.
 00063361,-0.00000004,-0.00164306,-0.00145594,0.00000008,-0.00957147,-0
 .01527780,-0.00000074,0.00062147,0.00445768,-0.00000037,-0.01778098,-0
 .07419766,0.00000051,0.00204549,0.00862495,0.00000048,0.00013654,-0.00
 002541,-0.00000001,-0.00022380,-0.00042991,-0.00000002,-0.00008439,0.0
 0015849,0.00000011,-0.00010192,-0.00004983,0.00000002,0.00051697,-0.00
 066186,0.00000010,0.03108986,0.06743664,0.,0.00000023,0.00012634,-0.00
 000009,-0.00000016,0.00199165,-0.00000011,-0.00000031,0.00393168,-0.00
 000098,-0.00000021,-0.00417201,-0.00000020,-0.00000017,-0.00112122,0.0
 0000002,-0.00000027,-0.00066790,0.00000082,-0.00000007,-0.00034727,-0.
 00000026,-0.00000037,0.00135588,0.00003341,0.00000145,-0.00194394,-0.0
 0000015,0.00000004,-0.00505446,-0.00000008,-0.00000012,-0.00014535,-0.
 00000007,0.,-0.00040112,-0.00000010,0.00000012,-0.00076170,0.00000003,
 -0.00000004,-0.00002992,-0.00000006,0.00000005,0.00008590,-0.00003093,
 -0.00000031,0.01277937,0.00035252,-0.00057787,-0.00000010,-0.00025646,
 0.00120385,0.00000010,0.00086779,-0.00341602,-0.00000026,0.01495044,-0
 .01371600,-0.00000042,-0.00038960,-0.00420369,0.00000018,0.00028040,-0
 .00040929,0.00000007,-0.00347518,-0.00290438,-0.00000017,0.00041218,0.
 00093121,-0.00000020,-0.20070886,0.18839741,0.00000445,-0.00195345,0.0
 0478006,0.00000019,-0.00005532,0.00009196,-0.00000002,-0.00001101,0.00
 000676,0.00000002,-0.00083325,0.00092511,0.00000010,-0.00009973,-0.000
 23574,0.00000001,0.00008083,-0.00018006,0.00000005,0.00031129,0.025616
 19,-0.00000125,0.19052744,-0.00072986,0.00101832,0.00000005,-0.0001539
 5,-0.00131255,-0.00000011,0.00306112,0.00292461,-0.00000012,0.01834721
 ,-0.02458488,-0.00000005,-0.00560279,-0.00085615,0.00000022,0.00209565
 ,-0.00050840,-0.00000008,0.00041941,-0.00049262,0.00000015,-0.00015281
 ,0.00062198,-0.00000011,0.18554387,-0.35057470,-0.00000026,-0.00073790
 ,0.00086342,-0.00000009,-0.00005827,0.00005797,0.,0.00006657,0.0000502
 6,0.,-0.00139947,0.00007619,0.00000013,-0.00029936,-0.00030839,-0.0000
 0002,0.00011142,-0.00007474,0.00000002,-0.00420136,0.00676365,0.000000
 13,-0.19630950,0.36633603,-0.00000005,0.00000019,-0.00015374,-0.000000
 08,-0.00000024,-0.00081512,0.00000027,0.00000037,-0.00243510,-0.000000
 87,-0.00000185,-0.00497700,-0.00000055,0.00000034,0.00390680,0.0000002
 4,-0.00000009,0.00160435,0.00000054,0.00000025,-0.00012839,-0.00000003
 ,0.00000002,-0.00058895,0.00000321,0.00000341,0.00374809,-0.00000010,-
 0.00000044,0.00077199,-0.00000002,-0.00000005,0.00003769,0.00000001,-0
 .00000002,0.00017913,0.00000006,0.00000003,0.00063614,0.,-0.00000002,0
 .00003766,0.00000004,0.,-0.00002106,0.00000010,-0.00000206,-0.00562593
 ,-0.00000275,0.00000014,0.00382343\\-0.00002209,0.00000651,-0.00000087
 ,-0.00000431,-0.00001777,0.00000010,0.00000498,0.00001118,-0.00000083,
 -0.00000897,-0.00001631,0.00000210,-0.00003515,0.00001156,0.00001061,0
 .00000580,-0.00000622,0.00000174,0.00001404,0.00005135,-0.00004038,0.0
 0004191,0.00002284,0.00001206,0.00001479,-0.00001429,0.00000052,-0.000
 01792,-0.00005538,0.00001605,0.00000129,0.00000146,-0.00000023,0.00000
 156,0.00000258,0.00000013,0.00000095,-0.00000252,-0.00000005,-0.000013
 60,0.00000753,0.00000017,0.00001274,-0.00001731,0.00000012,-0.00000844
 ,0.00001363,-0.00000137,0.00001242,0.00000115,0.00000014\\\@


 LIFE CAN ONLY BE UNDERSTOOD BACKWARD, BUT MUST
 BE LIVED FORWARD. -- KIRKEGAARD
 Job cpu time:       0 days  0 hours 12 minutes 22.4 seconds.
 File lengths (MBytes):  RWF=     93 Int=      0 D2E=      0 Chk=      5 Scr=      1
 Normal termination of Gaussian 09 at Thu Dec 19 12:03:42 2024.
