 Entering Gaussian System, Link 0=g09
 Input=B3PWD3BJAnthranilicyang.gjf
 Output=B3PWD3BJAnthranilicyang.log
 Initial command:
 /home/c612/g09E/g09/l1.exe "/mnt/ja_sm883/scratch/Gau-1972719.inp" -scrdir="/mnt/ja_sm883/scratch/"
 Default is to use a total of  18 processors:
                               18 via shared-memory
                                1 via Linda
 Entering Link 1 = /home/c612/g09E/g09/l1.exe PID=   1972721.
  
 Copyright (c) 1988,1990,1992,1993,1995,1998,2003,2009,2015,
            Gaussian, Inc.  All Rights Reserved.
  
 This is part of the Gaussian(R) 09 program.  It is based on
 the Gaussian(R) 03 system (copyright 2003, Gaussian, Inc.),
 the Gaussian(R) 98 system (copyright 1998, Gaussian, Inc.),
 the Gaussian(R) 94 system (copyright 1995, Gaussian, Inc.),
 the Gaussian 92(TM) system (copyright 1992, Gaussian, Inc.),
 the Gaussian 90(TM) system (copyright 1990, Gaussian, Inc.),
 the Gaussian 88(TM) system (copyright 1988, Gaussian, Inc.),
 the Gaussian 86(TM) system (copyright 1986, Carnegie Mellon
 University), and the Gaussian 82(TM) system (copyright 1983,
 Carnegie Mellon University). Gaussian is a federally registered
 trademark of Gaussian, Inc.
  
 This software contains proprietary and confidential information,
 including trade secrets, belonging to Gaussian, Inc.
  
 This software is provided under written license and may be
 used, copied, transmitted, or stored only in accord with that
 written license.
  
 The following legend is applicable only to US Government
 contracts under FAR:
  
                    RESTRICTED RIGHTS LEGEND
  
 Use, reproduction and disclosure by the US Government is
 subject to restrictions as set forth in subparagraphs (a)
 and (c) of the Commercial Computer Software - Restricted
 Rights clause in FAR 52.227-19.
  
 Gaussian, Inc.
 340 Quinnipiac St., Bldg. 40, Wallingford CT 06492
  
  
 ---------------------------------------------------------------
 Warning -- This program may not be used in any manner that
 competes with the business of Gaussian, Inc. or will provide
 assistance to any competitor of Gaussian, Inc.  The licensee
 of this program is prohibited from giving any competitor of
 Gaussian, Inc. access to this program.  By using this program,
 the user acknowledges that Gaussian, Inc. is engaged in the
 business of creating and licensing software in the field of
 computational chemistry and represents and warrants to the
 licensee that it is not a competitor of Gaussian, Inc. and that
 it will not use this program in any manner prohibited above.
 ---------------------------------------------------------------
  

 Cite this work as:
 Gaussian 09, Revision E.01,
 M. J. Frisch, G. W. Trucks, H. B. Schlegel, G. E. Scuseria, 
 M. A. Robb, J. R. Cheeseman, G. Scalmani, V. Barone, B. Mennucci, 
 G. A. Petersson, H. Nakatsuji, M. Caricato, X. Li, H. P. Hratchian, 
 A. F. Izmaylov, J. Bloino, G. Zheng, J. L. Sonnenberg, M. Hada, 
 M. Ehara, K. Toyota, R. Fukuda, J. Hasegawa, M. Ishida, T. Nakajima, 
 Y. Honda, O. Kitao, H. Nakai, T. Vreven, J. A. Montgomery, Jr., 
 J. E. Peralta, F. Ogliaro, M. Bearpark, J. J. Heyd, E. Brothers, 
 K. N. Kudin, V. N. Staroverov, T. Keith, R. Kobayashi, J. Normand, 
 K. Raghavachari, A. Rendell, J. C. Burant, S. S. Iyengar, J. Tomasi, 
 M. Cossi, N. Rega, J. M. Millam, M. Klene, J. E. Knox, J. B. Cross, 
 V. Bakken, C. Adamo, J. Jaramillo, R. Gomperts, R. E. Stratmann, 
 O. Yazyev, A. J. Austin, R. Cammi, C. Pomelli, J. W. Ochterski, 
 R. L. Martin, K. Morokuma, V. G. Zakrzewski, G. A. Voth, 
 P. Salvador, J. J. Dannenberg, S. Dapprich, A. D. Daniels, 
 O. Farkas, J. B. Foresman, J. V. Ortiz, J. Cioslowski, 
 and D. J. Fox, Gaussian, Inc., Wallingford CT, 2013.
 
 ******************************************
 Gaussian 09:  ES64L-G09RevE.01 30-Nov-2015
                19-Dec-2024 
 ******************************************
 %chk=B3PWD3BJAnthranilicyang.chk
 -------------------------------------------------------
 # opt freq b3pw91/6-31+g(d,p) EmpiricalDispersion=GD3BJ
 -------------------------------------------------------
 1/14=-1,18=20,19=15,26=3,38=1/1,3;
 2/9=110,12=2,17=6,18=5,40=1/2;
 3/5=1,6=6,7=111,11=2,16=1,25=1,30=1,71=1,74=-6,124=41/1,2,3;
 4//1;
 5/5=2,38=5/2;
 6/7=2,8=2,9=2,10=2,28=1/1;
 7//1,2,3,16;
 1/14=-1,18=20,19=15,26=3/3(2);
 2/9=110/2;
 99//99;
 2/9=110/2;
 3/5=1,6=6,7=111,11=2,16=1,25=1,30=1,71=1,74=-6,124=41/1,2,3;
 4/5=5,16=3,69=1/1;
 5/5=2,38=5/2;
 7//1,2,3,16;
 1/14=-1,18=20,19=15,26=3/3(-5);
 2/9=110/2;
 6/7=2,8=2,9=2,10=2,19=2,28=1/1;
 99/9=1/99;
 ----------
 [No Title]
 ----------
 Symbolic Z-matrix:
 Charge =  1 Multiplicity = 1
 C                     1.94172  -1.46615   0. 
 C                     2.61871  -0.24746  -0.00001 
 C                     1.90672   0.95473   0. 
 C                     0.52312   0.91213   0.00001 
 C                    -0.18408  -0.30273   0.00004 
 C                     0.54974  -1.49548   0.00002 
 C                    -1.6661   -0.30605   0.00012 
 O                    -2.21307  -1.50482  -0.00015 
 N                    -0.25197   2.16658  -0.00003 
 O                    -2.34129   0.72879   0.00007 
 H                     2.49908  -2.39715  -0.00001 
 H                     3.70381  -0.22433  -0.00002 
 H                     2.43446   1.90495  -0.00002 
 H                     0.01888  -2.4411    0.00004 
 H                    -3.18236  -1.41785  -0.00023 
 H                    -0.06343   2.73668  -0.82887 
 H                    -1.2872    1.85039  -0.00012 
 H                    -0.06354   2.73666   0.82886 
 

 GradGradGradGradGradGradGradGradGradGradGradGradGradGradGradGradGradGrad
 Berny optimization.
 Initialization pass.
                           ----------------------------
                           !    Initial Parameters    !
                           ! (Angstroms and Degrees)  !
 --------------------------                            --------------------------
 ! Name  Definition              Value          Derivative Info.                !
 --------------------------------------------------------------------------------
 ! R1    R(1,2)                  1.3941         estimate D2E/DX2                !
 ! R2    R(1,6)                  1.3923         estimate D2E/DX2                !
 ! R3    R(1,11)                 1.0851         estimate D2E/DX2                !
 ! R4    R(2,3)                  1.3972         estimate D2E/DX2                !
 ! R5    R(2,12)                 1.0854         estimate D2E/DX2                !
 ! R6    R(3,4)                  1.3843         estimate D2E/DX2                !
 ! R7    R(3,13)                 1.0869         estimate D2E/DX2                !
 ! R8    R(4,5)                  1.4057         estimate D2E/DX2                !
 ! R9    R(4,9)                  1.4746         estimate D2E/DX2                !
 ! R10   R(5,6)                  1.4004         estimate D2E/DX2                !
 ! R11   R(5,7)                  1.482          estimate D2E/DX2                !
 ! R12   R(6,14)                 1.0844         estimate D2E/DX2                !
 ! R13   R(7,8)                  1.3177         estimate D2E/DX2                !
 ! R14   R(7,10)                 1.2356         estimate D2E/DX2                !
 ! R15   R(8,15)                 0.9732         estimate D2E/DX2                !
 ! R16   R(9,16)                 1.0235         estimate D2E/DX2                !
 ! R17   R(9,17)                 1.0824         estimate D2E/DX2                !
 ! R18   R(9,18)                 1.0235         estimate D2E/DX2                !
 ! A1    A(2,1,6)              120.2596         estimate D2E/DX2                !
 ! A2    A(2,1,11)             120.0399         estimate D2E/DX2                !
 ! A3    A(6,1,11)             119.7005         estimate D2E/DX2                !
 ! A4    A(1,2,3)              120.3121         estimate D2E/DX2                !
 ! A5    A(1,2,12)             120.2739         estimate D2E/DX2                !
 ! A6    A(3,2,12)             119.414          estimate D2E/DX2                !
 ! A7    A(2,3,4)              118.8723         estimate D2E/DX2                !
 ! A8    A(2,3,13)             120.3173         estimate D2E/DX2                !
 ! A9    A(4,3,13)             120.8104         estimate D2E/DX2                !
 ! A10   A(3,4,5)              121.9677         estimate D2E/DX2                !
 ! A11   A(3,4,9)              119.9476         estimate D2E/DX2                !
 ! A12   A(5,4,9)              118.0847         estimate D2E/DX2                !
 ! A13   A(4,5,6)              118.1946         estimate D2E/DX2                !
 ! A14   A(4,5,7)              120.3324         estimate D2E/DX2                !
 ! A15   A(6,5,7)              121.473          estimate D2E/DX2                !
 ! A16   A(1,6,5)              120.3938         estimate D2E/DX2                !
 ! A17   A(1,6,14)             120.5164         estimate D2E/DX2                !
 ! A18   A(5,6,14)             119.0898         estimate D2E/DX2                !
 ! A19   A(5,7,8)              114.654          estimate D2E/DX2                !
 ! A20   A(5,7,10)             122.9946         estimate D2E/DX2                !
 ! A21   A(8,7,10)             122.3514         estimate D2E/DX2                !
 ! A22   A(7,8,15)             109.399          estimate D2E/DX2                !
 ! A23   A(4,9,16)             112.1508         estimate D2E/DX2                !
 ! A24   A(4,9,17)             104.727          estimate D2E/DX2                !
 ! A25   A(4,9,18)             112.1511         estimate D2E/DX2                !
 ! A26   A(16,9,17)            109.8046         estimate D2E/DX2                !
 ! A27   A(16,9,18)            108.1598         estimate D2E/DX2                !
 ! A28   A(17,9,18)            109.8065         estimate D2E/DX2                !
 ! D1    D(6,1,2,3)             -0.0004         estimate D2E/DX2                !
 ! D2    D(6,1,2,12)          -180.0            estimate D2E/DX2                !
 ! D3    D(11,1,2,3)          -180.0            estimate D2E/DX2                !
 ! D4    D(11,1,2,12)            0.0004         estimate D2E/DX2                !
 ! D5    D(2,1,6,5)             -0.0002         estimate D2E/DX2                !
 ! D6    D(2,1,6,14)          -179.9991         estimate D2E/DX2                !
 ! D7    D(11,1,6,5)           179.9994         estimate D2E/DX2                !
 ! D8    D(11,1,6,14)            0.0005         estimate D2E/DX2                !
 ! D9    D(1,2,3,4)             -0.0002         estimate D2E/DX2                !
 ! D10   D(1,2,3,13)          -179.9991         estimate D2E/DX2                !
 ! D11   D(12,2,3,4)           179.9994         estimate D2E/DX2                !
 ! D12   D(12,2,3,13)            0.0004         estimate D2E/DX2                !
 ! D13   D(2,3,4,5)              0.0014         estimate D2E/DX2                !
 ! D14   D(2,3,4,9)           -179.9979         estimate D2E/DX2                !
 ! D15   D(13,3,4,5)          -179.9997         estimate D2E/DX2                !
 ! D16   D(13,3,4,9)             0.001          estimate D2E/DX2                !
 ! D17   D(3,4,5,6)             -0.002          estimate D2E/DX2                !
 ! D18   D(3,4,5,7)            179.9969         estimate D2E/DX2                !
 ! D19   D(9,4,5,6)            179.9973         estimate D2E/DX2                !
 ! D20   D(9,4,5,7)             -0.0038         estimate D2E/DX2                !
 ! D21   D(3,4,9,16)            60.9655         estimate D2E/DX2                !
 ! D22   D(3,4,9,17)           179.9939         estimate D2E/DX2                !
 ! D23   D(3,4,9,18)           -60.9754         estimate D2E/DX2                !
 ! D24   D(5,4,9,16)          -119.0338         estimate D2E/DX2                !
 ! D25   D(5,4,9,17)            -0.0055         estimate D2E/DX2                !
 ! D26   D(5,4,9,18)           119.0253         estimate D2E/DX2                !
 ! D27   D(4,5,6,1)              0.0014         estimate D2E/DX2                !
 ! D28   D(4,5,6,14)          -179.9998         estimate D2E/DX2                !
 ! D29   D(7,5,6,1)           -179.9975         estimate D2E/DX2                !
 ! D30   D(7,5,6,14)             0.0013         estimate D2E/DX2                !
 ! D31   D(4,5,7,8)            179.9861         estimate D2E/DX2                !
 ! D32   D(4,5,7,10)             0.0047         estimate D2E/DX2                !
 ! D33   D(6,5,7,8)             -0.015          estimate D2E/DX2                !
 ! D34   D(6,5,7,10)          -179.9964         estimate D2E/DX2                !
 ! D35   D(5,7,8,15)          -179.9903         estimate D2E/DX2                !
 ! D36   D(10,7,8,15)           -0.0088         estimate D2E/DX2                !
 --------------------------------------------------------------------------------
 Trust Radius=3.00D-01 FncErr=1.00D-07 GrdErr=1.00D-06
 Number of steps in this run=     92 maximum allowed number of steps=    108.
 GradGradGradGradGradGradGradGradGradGradGradGradGradGradGradGradGradGrad

                          Input orientation:                          
 ---------------------------------------------------------------------
 Center     Atomic      Atomic             Coordinates (Angstroms)
 Number     Number       Type             X           Y           Z
 ---------------------------------------------------------------------
      1          6           0        1.941720   -1.466149    0.000000
      2          6           0        2.618705   -0.247464   -0.000005
      3          6           0        1.906724    0.954728    0.000003
      4          6           0        0.523117    0.912134    0.000012
      5          6           0       -0.184078   -0.302734    0.000042
      6          6           0        0.549736   -1.495483    0.000021
      7          6           0       -1.666101   -0.306046    0.000119
      8          8           0       -2.213068   -1.504818   -0.000149
      9          7           0       -0.251972    2.166576   -0.000026
     10          8           0       -2.341287    0.728793    0.000074
     11          1           0        2.499082   -2.397147   -0.000006
     12          1           0        3.703814   -0.224327   -0.000022
     13          1           0        2.434464    1.904952   -0.000015
     14          1           0        0.018883   -2.441097    0.000040
     15          1           0       -3.182365   -1.417851   -0.000232
     16          1           0       -0.063428    2.736676   -0.828874
     17          1           0       -1.287195    1.850394   -0.000122
     18          1           0       -0.063544    2.736660    0.828859
 ---------------------------------------------------------------------
                    Distance matrix (angstroms):
                    1          2          3          4          5
     1  C    0.000000
     2  C    1.394095   0.000000
     3  C    2.421130   1.397205   0.000000
     4  C    2.769235   2.395027   1.384262   0.000000
     5  C    2.423335   2.803328   2.439808   1.405713   0.000000
     6  C    1.392293   2.416233   2.800884   2.407764   1.400405
     7  C    3.789751   4.285206   3.788750   2.505322   1.482027
     8  O    4.154968   4.992692   4.798130   3.650803   2.358348
     9  N    4.243698   3.750783   2.475590   1.474581   2.470243
    10  O    4.812683   5.055156   4.254015   2.870266   2.391150
    11  H    1.085085   2.153009   3.403815   3.854319   3.403809
    12  H    2.155713   1.085356   2.149349   3.377629   3.888683
    13  H    3.406922   2.160287   1.086938   2.153819   3.425002
    14  H    2.155882   3.401632   3.885302   3.390931   2.147973
    15  H    5.124313   5.917957   5.614976   4.377148   3.198939
    16  H    4.729840   4.097066   2.782782   2.088071   3.152724
    17  H    4.628752   4.433629   3.317128   2.039010   2.419262
    18  H    4.729873   4.097130   2.782847   2.088074   3.152679
                    6          7          8          9         10
     6  C    0.000000
     7  C    2.514894   0.000000
     8  O    2.762820   1.317660   0.000000
     9  N    3.748788   2.848442   4.162335   0.000000
    10  O    3.647659   1.235624   2.237288   2.536229   0.000000
    11  H    2.147777   4.660628   4.795895   5.328777   5.762003
    12  H    3.400595   5.370537   6.053854   4.622192   6.119778
    13  H    3.887822   4.658663   5.764207   2.699145   4.918450
    14  H    1.084431   2.719855   2.420377   4.615627   3.952038
    15  H    3.732908   1.880204   0.973191   4.629829   2.305535
    16  H    4.355939   3.537506   4.826801   1.023500   3.147601
    17  H    3.816963   2.189476   3.480616   1.082431   1.539188
    18  H    4.355929   3.537380   4.826784   1.023499   3.147464
                   11         12         13         14         15
    11  H    0.000000
    12  H    2.484457   0.000000
    13  H    4.302584   2.478927   0.000000
    14  H    2.480588   4.300324   4.972240   0.000000
    15  H    5.765229   6.988845   6.526085   3.360807   0.000000
    16  H    5.797380   4.862782   2.760115   5.244350   5.260657
    17  H    5.690123   5.405057   3.722059   4.485837   3.777975
    18  H    5.797417   4.862867   2.760220   5.244321   5.260646
                   16         17         18
    16  H    0.000000
    17  H    1.723349   0.000000
    18  H    1.657733   1.723368   0.000000
 Stoichiometry    C7H8NO2(1+)
 Framework group  C1[X(C7H8NO2)]
 Deg. of freedom    48
 Full point group                 C1      NOp   1
 Largest Abelian subgroup         C1      NOp   1
 Largest concise Abelian subgroup C1      NOp   1
                         Standard orientation:                         
 ---------------------------------------------------------------------
 Center     Atomic      Atomic             Coordinates (Angstroms)
 Number     Number       Type             X           Y           Z
 ---------------------------------------------------------------------
      1          6           0       -1.941720   -1.466149   -0.000000
      2          6           0       -2.618705   -0.247464    0.000005
      3          6           0       -1.906724    0.954728   -0.000003
      4          6           0       -0.523117    0.912134   -0.000012
      5          6           0        0.184078   -0.302734   -0.000042
      6          6           0       -0.549736   -1.495483   -0.000021
      7          6           0        1.666101   -0.306046   -0.000119
      8          8           0        2.213068   -1.504818    0.000149
      9          7           0        0.251972    2.166576    0.000026
     10          8           0        2.341287    0.728793   -0.000074
     11          1           0       -2.499082   -2.397147    0.000006
     12          1           0       -3.703814   -0.224327    0.000022
     13          1           0       -2.434464    1.904952    0.000015
     14          1           0       -0.018883   -2.441097   -0.000040
     15          1           0        3.182365   -1.417851    0.000232
     16          1           0        0.063428    2.736676    0.828874
     17          1           0        1.287195    1.850394    0.000122
     18          1           0        0.063544    2.736660   -0.828859
 ---------------------------------------------------------------------
 Rotational constants (GHZ):      2.2524529      1.2092096      0.7902223
 Standard basis: 6-31+G(d,p) (6D, 7F)
 There are   230 symmetry adapted cartesian basis functions of A   symmetry.
 There are   230 symmetry adapted basis functions of A   symmetry.
   230 basis functions,   376 primitive gaussians,   230 cartesian basis functions
    36 alpha electrons       36 beta electrons
       nuclear repulsion energy       515.6376277979 Hartrees.
 NAtoms=   18 NActive=   18 NUniq=   18 SFac= 1.00D+00 NAtFMM=   60 NAOKFM=F Big=F
 Integral buffers will be    131072 words long.
 Raffenetti 2 integral format.
 Two-electron integral symmetry is turned on.
 Nuclear repulsion after empirical dispersion term =      515.6041787954 Hartrees.
 One-electron integrals computed using PRISM.
 NBasis=   230 RedAO= T EigKep=  2.28D-06  NBF=   230
 NBsUse=   230 1.00D-06 EigRej= -1.00D+00 NBFU=   230
 ExpMin= 4.38D-02 ExpMax= 5.48D+03 ExpMxC= 8.25D+02 IAcc=2 IRadAn=         4 AccDes= 0.00D+00
 Harris functional with IExCor=  408 and IRadAn=       4 diagonalized for initial guess.
 HarFok:  IExCor=  408 AccDes= 0.00D+00 IRadAn=         4 IDoV= 1 UseB2=F ITyADJ=14
 ICtDFT=  3500011 ScaDFX=  1.000000  1.000000  1.000000  1.000000
 FoFCou: FMM=F IPFlag=           0 FMFlag=      100000 FMFlg1=           0
         NFxFlg=           0 DoJE=T BraDBF=F KetDBF=T FulRan=T
         wScrn=  0.000000 ICntrl=     500 IOpCl=  0 I1Cent=   200000004 NGrid=           0
         NMat0=    1 NMatS0=      1 NMatT0=    0 NMatD0=    1 NMtDS0=    0 NMtDT0=    0
 Petite list used in FoFCou.
 Keep R1 ints in memory in canonical form, NReq=359209085.
 Requested convergence on RMS density matrix=1.00D-08 within 128 cycles.
 Requested convergence on MAX density matrix=1.00D-06.
 Requested convergence on             energy=1.00D-06.
 No special actions if energy rises.
 SCF Done:  E(RB3PW91) =  -476.427435976     A.U. after   14 cycles
            NFock= 14  Conv=0.80D-08     -V/T= 2.0093

 **********************************************************************

            Population analysis using the SCF density.

 **********************************************************************

 Orbital symmetries:
       Occupied  (A) (A) (A) (A) (A) (A) (A) (A) (A) (A) (A) (A)
                 (A) (A) (A) (A) (A) (A) (A) (A) (A) (A) (A) (A)
                 (A) (A) (A) (A) (A) (A) (A) (A) (A) (A) (A) (A)
       Virtual   (A) (A) (A) (A) (A) (A) (A) (A) (A) (A) (A) (A)
                 (A) (A) (A) (A) (A) (A) (A) (A) (A) (A) (A) (A)
                 (A) (A) (A) (A) (A) (A) (A) (A) (A) (A) (A) (A)
                 (A) (A) (A) (A) (A) (A) (A) (A) (A) (A) (A) (A)
                 (A) (A) (A) (A) (A) (A) (A) (A) (A) (A) (A) (A)
                 (A) (A) (A) (A) (A) (A) (A) (A) (A) (A) (A) (A)
                 (A) (A) (A) (A) (A) (A) (A) (A) (A) (A) (A) (A)
                 (A) (A) (A) (A) (A) (A) (A) (A) (A) (A) (A) (A)
                 (A) (A) (A) (A) (A) (A) (A) (A) (A) (A) (A) (A)
                 (A) (A) (A) (A) (A) (A) (A) (A) (A) (A) (A) (A)
                 (A) (A) (A) (A) (A) (A) (A) (A) (A) (A) (A) (A)
                 (A) (A) (A) (A) (A) (A) (A) (A) (A) (A) (A) (A)
                 (A) (A) (A) (A) (A) (A) (A) (A) (A) (A) (A) (A)
                 (A) (A) (A) (A) (A) (A) (A) (A) (A) (A) (A) (A)
                 (A) (A) (A) (A) (A) (A) (A) (A) (A) (A) (A) (A)
                 (A) (A) (A) (A) (A) (A) (A) (A) (A) (A) (A) (A)
                 (A) (A)
 The electronic state is 1-A.
 Alpha  occ. eigenvalues --  -19.36751 -19.32304 -14.61488 -10.49854 -10.42211
 Alpha  occ. eigenvalues --  -10.38197 -10.36626 -10.35990 -10.35853 -10.34989
 Alpha  occ. eigenvalues --   -1.30082  -1.21406  -1.17833  -1.04332  -0.95453
 Alpha  occ. eigenvalues --   -0.93031  -0.84658  -0.81346  -0.78416  -0.75842
 Alpha  occ. eigenvalues --   -0.74222  -0.71590  -0.68755  -0.67182  -0.63623
 Alpha  occ. eigenvalues --   -0.63073  -0.61748  -0.61022  -0.57264  -0.54895
 Alpha  occ. eigenvalues --   -0.54230  -0.52844  -0.50455  -0.47217  -0.43964
 Alpha  occ. eigenvalues --   -0.43757
 Alpha virt. eigenvalues --   -0.23208  -0.19186  -0.15667  -0.12608  -0.11187
 Alpha virt. eigenvalues --   -0.10334  -0.08914  -0.08301  -0.07155  -0.06255
 Alpha virt. eigenvalues --   -0.05269  -0.05087  -0.04186  -0.03153  -0.02908
 Alpha virt. eigenvalues --   -0.01796  -0.00712  -0.00287   0.00036   0.00472
 Alpha virt. eigenvalues --    0.01741   0.01814   0.02162   0.03113   0.04582
 Alpha virt. eigenvalues --    0.04715   0.05503   0.05515   0.06515   0.06521
 Alpha virt. eigenvalues --    0.06783   0.07458   0.08312   0.09039   0.09511
 Alpha virt. eigenvalues --    0.09765   0.10191   0.10949   0.11371   0.12662
 Alpha virt. eigenvalues --    0.13848   0.13997   0.14395   0.14976   0.16040
 Alpha virt. eigenvalues --    0.16618   0.17163   0.17389   0.18076   0.19542
 Alpha virt. eigenvalues --    0.20588   0.21165   0.22378   0.23598   0.25117
 Alpha virt. eigenvalues --    0.27410   0.28508   0.31576   0.34131   0.34723
 Alpha virt. eigenvalues --    0.42520   0.45877   0.48841   0.50425   0.52331
 Alpha virt. eigenvalues --    0.53931   0.56519   0.56789   0.58030   0.58261
 Alpha virt. eigenvalues --    0.58847   0.61499   0.61978   0.65591   0.65652
 Alpha virt. eigenvalues --    0.66451   0.68894   0.70739   0.72233   0.75899
 Alpha virt. eigenvalues --    0.78227   0.79041   0.79714   0.80692   0.83547
 Alpha virt. eigenvalues --    0.86077   0.88898   0.89222   0.93764   0.95366
 Alpha virt. eigenvalues --    0.96205   0.98170   0.99412   1.00272   1.02465
 Alpha virt. eigenvalues --    1.03083   1.04802   1.05793   1.08287   1.10294
 Alpha virt. eigenvalues --    1.11177   1.14555   1.14730   1.16994   1.17442
 Alpha virt. eigenvalues --    1.20207   1.21203   1.21802   1.23051   1.24012
 Alpha virt. eigenvalues --    1.25492   1.28063   1.33572   1.41035   1.41920
 Alpha virt. eigenvalues --    1.50412   1.51485   1.53880   1.54235   1.59442
 Alpha virt. eigenvalues --    1.62202   1.63820   1.66668   1.66702   1.69550
 Alpha virt. eigenvalues --    1.73130   1.76239   1.78295   1.80688   1.80973
 Alpha virt. eigenvalues --    1.83340   1.84480   1.85208   1.85745   1.89208
 Alpha virt. eigenvalues --    1.92626   1.93184   2.01854   2.01945   2.09141
 Alpha virt. eigenvalues --    2.11832   2.12311   2.17136   2.19022   2.20837
 Alpha virt. eigenvalues --    2.21272   2.23462   2.25008   2.25553   2.26872
 Alpha virt. eigenvalues --    2.32831   2.34677   2.34921   2.37572   2.40492
 Alpha virt. eigenvalues --    2.41776   2.44165   2.45542   2.46582   2.49953
 Alpha virt. eigenvalues --    2.52139   2.54430   2.56995   2.59348   2.62994
 Alpha virt. eigenvalues --    2.65660   2.70227   2.70675   2.75554   2.80760
 Alpha virt. eigenvalues --    2.88907   2.92711   2.99846   3.01610   3.08408
 Alpha virt. eigenvalues --    3.11887   3.13551   3.17734   3.17993   3.21504
 Alpha virt. eigenvalues --    3.33333   3.34002   3.41946   3.70018   4.05498
 Alpha virt. eigenvalues --    4.11864   4.13947   4.15503   4.21572   4.31486
 Alpha virt. eigenvalues --    4.33167   4.40055   4.65736   4.69635
          Condensed to atoms (all electrons):
               1          2          3          4          5          6
     1  C    7.976286  -0.274581   1.366185  -1.326964   0.611686  -2.667746
     2  C   -0.274581   6.497360  -1.535935   1.839071  -1.740561   1.595297
     3  C    1.366185  -1.535935  15.437230  -5.184478  -0.955558  -4.427164
     4  C   -1.326964   1.839071  -5.184478  19.571602  -5.388466  -1.310219
     5  C    0.611686  -1.740561  -0.955558  -5.388466  13.765976  -1.855106
     6  C   -2.667746   1.595297  -4.427164  -1.310219  -1.855106  16.196934
     7  C   -0.162248  -0.208998   0.677299  -0.776638   0.022547  -0.731661
     8  O    0.118608  -0.005317   0.032924   0.038665  -0.041279  -0.159104
     9  N   -0.041270  -0.004912  -0.703763   0.158499   0.317728   0.186407
    10  O    0.048468  -0.009394   0.067846  -0.242389   0.012230  -0.041685
    11  H    0.192948   0.061404  -0.005417  -0.002128   0.005474   0.071298
    12  H    0.088950   0.191707   0.090169  -0.062451   0.035289  -0.018867
    13  H   -0.003560   0.111924   0.219785   0.051898  -0.047400  -0.011456
    14  H    0.107738  -0.029837   0.040391   0.016939   0.133342   0.038813
    15  H   -0.009146  -0.000277   0.003251  -0.007754   0.019202   0.001018
    16  H    0.000845  -0.006139  -0.018765  -0.043453   0.046040   0.002468
    17  H    0.003134  -0.002976   0.218348   0.126834  -0.284567  -0.085045
    18  H    0.000849  -0.006131  -0.018676  -0.043342   0.045875   0.002418
               7          8          9         10         11         12
     1  C   -0.162248   0.118608  -0.041270   0.048468   0.192948   0.088950
     2  C   -0.208998  -0.005317  -0.004912  -0.009394   0.061404   0.191707
     3  C    0.677299   0.032924  -0.703763   0.067846  -0.005417   0.090169
     4  C   -0.776638   0.038665   0.158499  -0.242389  -0.002128  -0.062451
     5  C    0.022547  -0.041279   0.317728   0.012230   0.005474   0.035289
     6  C   -0.731661  -0.159104   0.186407  -0.041685   0.071298  -0.018867
     7  C    6.004470   0.131640  -0.117290   0.363279   0.004235   0.002473
     8  O    0.131640   8.236941  -0.012432  -0.138545   0.000061   0.000007
     9  N   -0.117290  -0.012432   7.103013  -0.030718   0.000188  -0.000372
    10  O    0.363279  -0.138545  -0.030718   8.332662   0.000026  -0.000001
    11  H    0.004235   0.000061   0.000188   0.000026   0.475452  -0.003998
    12  H    0.002473   0.000007  -0.000372  -0.000001  -0.003998   0.475967
    13  H    0.004244   0.000016  -0.003833   0.000102  -0.000124  -0.004137
    14  H    0.009670   0.003245  -0.001211   0.000110  -0.003906  -0.000123
    15  H    0.026319   0.204305   0.000578   0.001622  -0.000000   0.000000
    16  H    0.004012   0.000176   0.306143   0.001131  -0.000000  -0.000002
    17  H    0.033001   0.003412   0.171655   0.098188  -0.000000   0.000002
    18  H    0.004016   0.000175   0.306143   0.001131  -0.000000  -0.000002
              13         14         15         16         17         18
     1  C   -0.003560   0.107738  -0.009146   0.000845   0.003134   0.000849
     2  C    0.111924  -0.029837  -0.000277  -0.006139  -0.002976  -0.006131
     3  C    0.219785   0.040391   0.003251  -0.018765   0.218348  -0.018676
     4  C    0.051898   0.016939  -0.007754  -0.043453   0.126834  -0.043342
     5  C   -0.047400   0.133342   0.019202   0.046040  -0.284567   0.045875
     6  C   -0.011456   0.038813   0.001018   0.002468  -0.085045   0.002418
     7  C    0.004244   0.009670   0.026319   0.004012   0.033001   0.004016
     8  O    0.000016   0.003245   0.204305   0.000176   0.003412   0.000175
     9  N   -0.003833  -0.001211   0.000578   0.306143   0.171655   0.306143
    10  O    0.000102   0.000110   0.001622   0.001131   0.098188   0.001131
    11  H   -0.000124  -0.003906  -0.000000  -0.000000  -0.000000  -0.000000
    12  H   -0.004137  -0.000123   0.000000  -0.000002   0.000002  -0.000002
    13  H    0.491443   0.000010  -0.000000   0.000621   0.000069   0.000621
    14  H    0.000010   0.468730  -0.000027   0.000002   0.000008   0.000002
    15  H   -0.000000  -0.000027   0.339791  -0.000001  -0.000025  -0.000001
    16  H    0.000621   0.000002  -0.000001   0.326815  -0.008881  -0.023088
    17  H    0.000069   0.000008  -0.000025  -0.008881   0.284451  -0.008879
    18  H    0.000621   0.000002  -0.000001  -0.023088  -0.008879   0.326808
 Mulliken charges:
               1
     1  C   -0.030183
     2  C   -0.471706
     3  C    0.696325
     4  C   -1.415228
     5  C    1.297547
     6  C   -0.786602
     7  C    0.709629
     8  O   -0.413497
     9  N   -0.634553
    10  O   -0.464063
    11  H    0.204487
    12  H    0.205391
    13  H    0.189776
    14  H    0.216103
    15  H    0.421146
    16  H    0.412076
    17  H    0.451272
    18  H    0.412079
 Sum of Mulliken charges =   1.00000
 Mulliken charges with hydrogens summed into heavy atoms:
               1
     1  C    0.174304
     2  C   -0.266315
     3  C    0.886101
     4  C   -1.415228
     5  C    1.297547
     6  C   -0.570499
     7  C    0.709629
     8  O    0.007650
     9  N    0.640874
    10  O   -0.464063
 Electronic spatial extent (au):  <R**2>=           1366.8084
 Charge=              1.0000 electrons
 Dipole moment (field-independent basis, Debye):
    X=             -1.0481    Y=              4.1198    Z=              0.0002  Tot=              4.2510
 Quadrupole moment (field-independent basis, Debye-Ang):
   XX=            -35.4326   YY=            -28.5843   ZZ=            -56.2430
   XY=             -3.5658   XZ=              0.0008   YZ=              0.0004
 Traceless Quadrupole moment (field-independent basis, Debye-Ang):
   XX=              4.6540   YY=             11.5023   ZZ=            -16.1564
   XY=             -3.5658   XZ=              0.0008   YZ=              0.0004
 Octapole moment (field-independent basis, Debye-Ang**2):
  XXX=             11.0672  YYY=             48.8921  ZZZ=              0.0007  XYY=              0.7506
  XXY=            -25.8974  XXZ=              0.0048  XZZ=             11.2277  YZZ=              9.5820
  YYZ=              0.0013  XYZ=             -0.0008
 Hexadecapole moment (field-independent basis, Debye-Ang**3):
 XXXX=           -779.8123 YYYY=           -400.0318 ZZZZ=            -59.8072 XXXY=            -84.0654
 XXXZ=              0.0136 YYYX=              8.0336 YYYZ=              0.0034 ZZZX=             -0.0010
 ZZZY=              0.0027 XXYY=           -221.9452 XXZZ=           -196.3856 YYZZ=            -96.3021
 XXYZ=             -0.0031 YYXZ=              0.0018 ZZXY=             -3.0596
 N-N= 5.156041787954D+02 E-N=-2.128330508562D+03  KE= 4.720380603557D+02
 Calling FoFJK, ICntrl=      2127 FMM=F ISym2X=0 I1Cent= 0 IOpClX= 0 NMat=1 NMatS=1 NMatT=0.
 ***** Axes restored to original set *****
 -------------------------------------------------------------------
 Center     Atomic                   Forces (Hartrees/Bohr)
 Number     Number              X              Y              Z
 -------------------------------------------------------------------
      1        6          -0.000277028    0.000238383   -0.000000800
      2        6          -0.000334237    0.000082784    0.000000295
      3        6          -0.000385863   -0.000067849   -0.000002623
      4        6          -0.000212096   -0.000085545    0.000001830
      5        6           0.000137583    0.000155477    0.000012744
      6        6          -0.000248704    0.000275195    0.000002384
      7        6           0.000436365    0.000131685   -0.000047124
      8        8           0.000415397    0.000261095    0.000015125
      9        7           0.000151563   -0.000460865   -0.000006757
     10        8           0.000500400   -0.000016262    0.000012351
     11        1          -0.000150450    0.000232022   -0.000000346
     12        1          -0.000270536    0.000003728    0.000000498
     13        1          -0.000251341   -0.000201467   -0.000000259
     14        1           0.000021471    0.000318291    0.000000098
     15        1           0.000252363    0.000071994    0.000001034
     16        1           0.000031904   -0.000369180    0.000145399
     17        1           0.000156463   -0.000200001    0.000010414
     18        1           0.000026747   -0.000369485   -0.000144263
 -------------------------------------------------------------------
 Cartesian Forces:  Max     0.000500400 RMS     0.000209988

 GradGradGradGradGradGradGradGradGradGradGradGradGradGradGradGradGradGrad
 Berny optimization.
 FormGI is forming the generalized inverse of G from B-inverse, IUseBI=4.
 Internal  Forces:  Max     0.001723356 RMS     0.000431406
 Search for a local minimum.
 Step number   1 out of a maximum of   92
 All quantities printed in internal units (Hartrees-Bohrs-Radians)
 Mixed Optimization -- En-DIIS/RFO-DIIS
 Second derivative matrix not updated -- first step.
 ITU=  0
     Eigenvalues ---    0.00705   0.01004   0.01590   0.01591   0.01730
     Eigenvalues ---    0.02063   0.02134   0.02146   0.02160   0.02179
     Eigenvalues ---    0.02192   0.02227   0.02781   0.07033   0.07830
     Eigenvalues ---    0.16000   0.16000   0.16000   0.16000   0.16000
     Eigenvalues ---    0.16000   0.16000   0.16000   0.22000   0.22493
     Eigenvalues ---    0.24484   0.25000   0.25000   0.25000   0.25000
     Eigenvalues ---    0.34339   0.35169   0.35198   0.35355   0.35387
     Eigenvalues ---    0.35464   0.35702   0.41676   0.42397   0.43784
     Eigenvalues ---    0.43784   0.45547   0.45832   0.46607   0.47866
     Eigenvalues ---    0.52730   0.62518   0.88783
 RFO step:  Lambda=-4.41669557D-05 EMin= 7.05223089D-03
 Linear search not attempted -- first point.
 Iteration  1 RMS(Cart)=  0.00521920 RMS(Int)=  0.00000514
 Iteration  2 RMS(Cart)=  0.00000786 RMS(Int)=  0.00000047
 Iteration  3 RMS(Cart)=  0.00000000 RMS(Int)=  0.00000047
 Variable       Old X    -DE/DX   Delta X   Delta X   Delta X     New X
                                 (Linear)    (Quad)   (Total)
    R1        2.63446  -0.00026   0.00000  -0.00045  -0.00045   2.63401
    R2        2.63105  -0.00057   0.00000  -0.00115  -0.00115   2.62991
    R3        2.05051  -0.00028   0.00000  -0.00078  -0.00078   2.04973
    R4        2.64034  -0.00050   0.00000  -0.00103  -0.00103   2.63931
    R5        2.05102  -0.00027   0.00000  -0.00076  -0.00076   2.05026
    R6        2.61588  -0.00109   0.00000  -0.00233  -0.00233   2.61355
    R7        2.05402  -0.00030   0.00000  -0.00085  -0.00085   2.05317
    R8        2.65641  -0.00172   0.00000  -0.00398  -0.00398   2.65243
    R9        2.78655  -0.00138   0.00000  -0.00393  -0.00393   2.78262
   R10        2.64638  -0.00114   0.00000  -0.00255  -0.00255   2.64383
   R11        2.80062  -0.00161   0.00000  -0.00468  -0.00468   2.79595
   R12        2.04928  -0.00029   0.00000  -0.00081  -0.00081   2.04847
   R13        2.49002  -0.00058   0.00000  -0.00093  -0.00093   2.48909
   R14        2.33499  -0.00029   0.00000  -0.00032  -0.00032   2.33467
   R15        1.83906  -0.00024   0.00000  -0.00046  -0.00046   1.83860
   R16        1.93413  -0.00032   0.00000  -0.00073  -0.00073   1.93341
   R17        2.04550  -0.00009   0.00000  -0.00026  -0.00026   2.04524
   R18        1.93413  -0.00032   0.00000  -0.00073  -0.00073   1.93341
    A1        2.09893  -0.00005   0.00000   0.00022   0.00022   2.09915
    A2        2.09509   0.00004   0.00000  -0.00005  -0.00005   2.09504
    A3        2.08917   0.00002   0.00000  -0.00017  -0.00017   2.08900
    A4        2.09984  -0.00002   0.00000   0.00036   0.00036   2.10021
    A5        2.09917   0.00002   0.00000  -0.00012  -0.00012   2.09906
    A6        2.08417  -0.00000   0.00000  -0.00024  -0.00024   2.08393
    A7        2.07471  -0.00035   0.00000  -0.00152  -0.00152   2.07319
    A8        2.09993   0.00030   0.00000   0.00154   0.00154   2.10148
    A9        2.10854   0.00005   0.00000  -0.00002  -0.00002   2.10852
   A10        2.12874   0.00031   0.00000   0.00096   0.00096   2.12970
   A11        2.09348   0.00051   0.00000   0.00220   0.00220   2.09568
   A12        2.06097  -0.00083   0.00000  -0.00316  -0.00316   2.05781
   A13        2.06288   0.00051   0.00000   0.00176   0.00176   2.06464
   A14        2.10020  -0.00086   0.00000  -0.00329  -0.00329   2.09690
   A15        2.12010   0.00035   0.00000   0.00153   0.00153   2.12164
   A16        2.10127  -0.00041   0.00000  -0.00178  -0.00178   2.09949
   A17        2.10341   0.00034   0.00000   0.00177   0.00177   2.10518
   A18        2.07851   0.00006   0.00000   0.00001   0.00001   2.07852
   A19        2.00109  -0.00034   0.00000  -0.00138  -0.00138   1.99971
   A20        2.14666  -0.00031   0.00000  -0.00123  -0.00123   2.14543
   A21        2.13544   0.00065   0.00000   0.00260   0.00260   2.13804
   A22        1.90937  -0.00017   0.00000  -0.00108  -0.00108   1.90829
   A23        1.95740  -0.00019   0.00000  -0.00108  -0.00108   1.95632
   A24        1.82783  -0.00029   0.00000  -0.00201  -0.00201   1.82582
   A25        1.95741  -0.00019   0.00000  -0.00110  -0.00110   1.95631
   A26        1.91645   0.00020   0.00000   0.00106   0.00106   1.91751
   A27        1.88774   0.00028   0.00000   0.00215   0.00215   1.88990
   A28        1.91648   0.00019   0.00000   0.00094   0.00094   1.91742
    D1       -0.00001   0.00000   0.00000   0.00003   0.00003   0.00002
    D2       -3.14159   0.00000   0.00000  -0.00000  -0.00000   3.14159
    D3       -3.14159   0.00000   0.00000   0.00000   0.00000  -3.14159
    D4        0.00001  -0.00000   0.00000  -0.00003  -0.00003  -0.00002
    D5       -0.00000   0.00000   0.00000   0.00001   0.00001   0.00001
    D6       -3.14158  -0.00000   0.00000  -0.00006  -0.00006   3.14155
    D7        3.14158   0.00000   0.00000   0.00004   0.00004  -3.14157
    D8        0.00001  -0.00000   0.00000  -0.00003  -0.00003  -0.00003
    D9       -0.00000   0.00000   0.00000   0.00001   0.00001   0.00001
   D10       -3.14158  -0.00000   0.00000  -0.00005  -0.00005   3.14155
   D11        3.14158   0.00000   0.00000   0.00004   0.00004  -3.14157
   D12        0.00001  -0.00000   0.00000  -0.00002  -0.00003  -0.00002
   D13        0.00002  -0.00000   0.00000  -0.00009  -0.00009  -0.00006
   D14       -3.14156  -0.00000   0.00000  -0.00013  -0.00013   3.14150
   D15       -3.14159  -0.00000   0.00000  -0.00002  -0.00002   3.14157
   D16        0.00002  -0.00000   0.00000  -0.00007  -0.00007  -0.00005
   D17       -0.00003   0.00000   0.00000   0.00013   0.00013   0.00009
   D18        3.14154   0.00000   0.00000   0.00020   0.00020  -3.14144
   D19        3.14155   0.00000   0.00000   0.00017   0.00017  -3.14147
   D20       -0.00007   0.00000   0.00000   0.00025   0.00025   0.00018
   D21        1.06405   0.00004   0.00000   0.00089   0.00089   1.06494
   D22        3.14149   0.00001   0.00000   0.00036   0.00036  -3.14134
   D23       -1.06422  -0.00004   0.00000  -0.00032  -0.00032  -1.06454
   D24       -2.07753   0.00004   0.00000   0.00085   0.00085  -2.07668
   D25       -0.00010   0.00001   0.00000   0.00032   0.00032   0.00023
   D26        2.07738  -0.00004   0.00000  -0.00036  -0.00036   2.07702
   D27        0.00002  -0.00000   0.00000  -0.00009  -0.00009  -0.00006
   D28       -3.14159  -0.00000   0.00000  -0.00002  -0.00002   3.14158
   D29       -3.14155  -0.00000   0.00000  -0.00017  -0.00017   3.14147
   D30        0.00002  -0.00000   0.00000  -0.00009  -0.00009  -0.00007
   D31        3.14135   0.00001   0.00000   0.00091   0.00091  -3.14093
   D32        0.00008  -0.00001   0.00000  -0.00039  -0.00039  -0.00031
   D33       -0.00026   0.00001   0.00000   0.00099   0.00099   0.00072
   D34       -3.14153  -0.00001   0.00000  -0.00031  -0.00031   3.14134
   D35       -3.14142  -0.00001   0.00000  -0.00067  -0.00068   3.14109
   D36       -0.00015   0.00001   0.00000   0.00061   0.00061   0.00046
         Item               Value     Threshold  Converged?
 Maximum Force            0.001723     0.000450     NO 
 RMS     Force            0.000431     0.000300     NO 
 Maximum Displacement     0.022002     0.001800     NO 
 RMS     Displacement     0.005219     0.001200     NO 
 Predicted change in Energy=-2.208365D-05
 GradGradGradGradGradGradGradGradGradGradGradGradGradGradGradGradGradGrad

                          Input orientation:                          
 ---------------------------------------------------------------------
 Center     Atomic      Atomic             Coordinates (Angstroms)
 Number     Number       Type             X           Y           Z
 ---------------------------------------------------------------------
      1          6           0        1.940807   -1.465332    0.000007
      2          6           0        2.617457   -0.246732    0.000073
      3          6           0        1.905972    0.955123    0.000031
      4          6           0        0.523654    0.910713   -0.000070
      5          6           0       -0.182020   -0.302602   -0.000208
      6          6           0        0.549442   -1.495211   -0.000127
      7          6           0       -1.661572   -0.301598   -0.000505
      8          8           0       -2.210174   -1.499083    0.000185
      9          7           0       -0.254772    2.160638    0.000004
     10          8           0       -2.332376    0.735883   -0.000326
     11          1           0        2.498169   -2.395849    0.000043
     12          1           0        3.702160   -0.223538    0.000179
     13          1           0        2.432200    1.905672    0.000119
     14          1           0        0.017508   -2.439725   -0.000220
     15          1           0       -3.178995   -1.409603    0.000396
     16          1           0       -0.068168    2.730147   -0.829216
     17          1           0       -1.288094    1.838751    0.000167
     18          1           0       -0.067992    2.730143    0.829186
 ---------------------------------------------------------------------
                    Distance matrix (angstroms):
                    1          2          3          4          5
     1  C    0.000000
     2  C    1.393858   0.000000
     3  C    2.420705   1.396663   0.000000
     4  C    2.766571   2.392424   1.383031   0.000000
     5  C    2.420400   2.800035   2.437536   1.403606   0.000000
     6  C    1.391686   2.415655   2.800770   2.406063   1.399054
     7  C    3.785686   4.279381   3.782423   2.498983   1.479553
     8  O    4.151118   4.987425   4.792263   3.644302   2.354777
     9  N    4.238895   3.747684   2.474284   1.472501   2.464314
    10  O    4.806812   5.046423   4.244015   2.861377   2.387987
    11  H    1.084672   2.152424   3.402897   3.851241   3.400749
    12  H    2.155091   1.084951   2.148379   3.374822   3.884985
    13  H    3.406631   2.160362   1.086490   2.152322   3.422079
    14  H    2.156043   3.401316   3.884750   3.388453   2.146417
    15  H    5.120106   5.911948   5.607925   4.369609   3.194888
    16  H    4.725002   4.094156   2.781293   2.085204   3.146074
    17  H    4.619823   4.427479   3.314039   2.035605   2.410144
    18  H    4.724915   4.094002   2.781138   2.085195   3.146178
                    6          7          8          9         10
     6  C    0.000000
     7  C    2.512627   0.000000
     8  O    2.759618   1.317169   0.000000
     9  N    3.743260   2.835788   4.149356   0.000000
    10  O    3.644538   1.235453   2.238304   2.519200   0.000000
    11  H    2.146785   4.657181   4.792983   5.323556   5.756901
    12  H    3.399528   5.364301   6.048364   4.619698   6.110329
    13  H    3.887260   4.650916   5.757082   2.699042   4.906078
    14  H    1.084001   2.718620   2.418134   4.608413   3.950498
    15  H    3.729419   1.878895   0.972945   4.614943   2.306485
    16  H    4.349998   3.523801   4.812741   1.023116   3.129023
    17  H    3.806815   2.172690   3.462855   1.082296   1.518830
    18  H    4.350012   3.524108   4.812747   1.023116   3.129313
                   11         12         13         14         15
    11  H    0.000000
    12  H    2.483652   0.000000
    13  H    4.302027   2.479180   0.000000
    14  H    2.481049   4.299785   4.971239   0.000000
    15  H    5.762194   6.982625   6.517405   3.358390   0.000000
    16  H    5.792201   4.860816   2.760326   5.236616   5.244333
    17  H    5.680460   5.399599   3.720896   4.473248   3.758632
    18  H    5.792102   4.860611   2.760084   5.236674   5.244304
                   16         17         18
    16  H    0.000000
    17  H    1.723566   0.000000
    18  H    1.658402   1.723514   0.000000
 Stoichiometry    C7H8NO2(1+)
 Framework group  C1[X(C7H8NO2)]
 Deg. of freedom    48
 Full point group                 C1      NOp   1
 Largest Abelian subgroup         C1      NOp   1
 Largest concise Abelian subgroup C1      NOp   1
                         Standard orientation:                         
 ---------------------------------------------------------------------
 Center     Atomic      Atomic             Coordinates (Angstroms)
 Number     Number       Type             X           Y           Z
 ---------------------------------------------------------------------
      1          6           0       -1.944202   -1.460384   -0.000079
      2          6           0       -2.617048   -0.239680   -0.000145
      3          6           0       -1.901817    0.959950   -0.000103
      4          6           0       -0.519644    0.911229   -0.000001
      5          6           0        0.182242   -0.304282    0.000136
      6          6           0       -0.552936   -1.494604    0.000055
      7          6           0        1.661790   -0.307893    0.000434
      8          8           0        2.206654   -1.507084   -0.000257
      9          7           0        0.262677    2.158719   -0.000076
     10          8           0        2.335827    0.727490    0.000254
     11          1           0       -2.504464   -2.389158   -0.000115
     12          1           0       -3.701673   -0.213102   -0.000250
     13          1           0       -2.425077    1.912136   -0.000191
     14          1           0       -0.023952   -2.440772    0.000148
     15          1           0        3.175749   -1.420626   -0.000468
     16          1           0        0.077851    2.728808    0.829144
     17          1           0        1.294990    1.833611   -0.000238
     18          1           0        0.077675    2.728804   -0.829258
 ---------------------------------------------------------------------
 Rotational constants (GHZ):      2.2595895      1.2127740      0.7926257
 Standard basis: 6-31+G(d,p) (6D, 7F)
 There are   230 symmetry adapted cartesian basis functions of A   symmetry.
 There are   230 symmetry adapted basis functions of A   symmetry.
   230 basis functions,   376 primitive gaussians,   230 cartesian basis functions
    36 alpha electrons       36 beta electrons
       nuclear repulsion energy       516.3056232203 Hartrees.
 NAtoms=   18 NActive=   18 NUniq=   18 SFac= 1.00D+00 NAtFMM=   60 NAOKFM=F Big=F
 Integral buffers will be    131072 words long.
 Raffenetti 2 integral format.
 Two-electron integral symmetry is turned on.
 Nuclear repulsion after empirical dispersion term =      516.2721297375 Hartrees.
 One-electron integrals computed using PRISM.
 NBasis=   230 RedAO= T EigKep=  2.26D-06  NBF=   230
 NBsUse=   230 1.00D-06 EigRej= -1.00D+00 NBFU=   230
 Initial guess from the checkpoint file:  "B3PWD3BJAnthranilicyang.chk"
 B after Tr=    -0.000000    0.000000   -0.000000
         Rot=    0.999999   -0.000012    0.000016    0.001289 Ang=  -0.15 deg.
 ExpMin= 4.38D-02 ExpMax= 5.48D+03 ExpMxC= 8.25D+02 IAcc=2 IRadAn=         4 AccDes= 0.00D+00
 Harris functional with IExCor=  408 and IRadAn=       4 diagonalized for initial guess.
 HarFok:  IExCor=  408 AccDes= 0.00D+00 IRadAn=         4 IDoV= 1 UseB2=F ITyADJ=14
 ICtDFT=  3500011 ScaDFX=  1.000000  1.000000  1.000000  1.000000
 FoFCou: FMM=F IPFlag=           0 FMFlag=      100000 FMFlg1=           0
         NFxFlg=           0 DoJE=T BraDBF=F KetDBF=T FulRan=T
         wScrn=  0.000000 ICntrl=     500 IOpCl=  0 I1Cent=   200000004 NGrid=           0
         NMat0=    1 NMatS0=      1 NMatT0=    0 NMatD0=    1 NMtDS0=    0 NMtDT0=    0
 Petite list used in FoFCou.
 Keep R1 ints in memory in canonical form, NReq=359209085.
 Requested convergence on RMS density matrix=1.00D-08 within 128 cycles.
 Requested convergence on MAX density matrix=1.00D-06.
 Requested convergence on             energy=1.00D-06.
 No special actions if energy rises.
 SCF Done:  E(RB3PW91) =  -476.427429419     A.U. after   11 cycles
            NFock= 11  Conv=0.98D-08     -V/T= 2.0092
 Calling FoFJK, ICntrl=      2127 FMM=F ISym2X=0 I1Cent= 0 IOpClX= 0 NMat=1 NMatS=1 NMatT=0.
 ***** Axes restored to original set *****
 -------------------------------------------------------------------
 Center     Atomic                   Forces (Hartrees/Bohr)
 Number     Number              X              Y              Z
 -------------------------------------------------------------------
      1        6          -0.000027442   -0.000049428    0.000002567
      2        6           0.000002570    0.000002084   -0.000000558
      3        6           0.000193801   -0.000036670    0.000006957
      4        6          -0.000129440    0.000776072   -0.000005206
      5        6          -0.000121486   -0.000084288   -0.000038927
      6        6           0.000033677   -0.000301243   -0.000006814
      7        6           0.000798666   -0.000997691    0.000140916
      8        8          -0.000284626    0.000563474   -0.000044602
      9        7           0.002129734    0.000987464    0.000014570
     10        8          -0.001609605   -0.000552980   -0.000040009
     11        1           0.000039818   -0.000000098    0.000000907
     12        1           0.000027707   -0.000042913   -0.000001399
     13        1          -0.000016980   -0.000001981    0.000000889
     14        1           0.000031600   -0.000013516   -0.000000456
     15        1          -0.000110287   -0.000155782   -0.000002742
     16        1           0.000091574    0.000016518    0.000112584
     17        1          -0.001153692   -0.000126853   -0.000024303
     18        1           0.000104410    0.000017832   -0.000114374
 -------------------------------------------------------------------
 Cartesian Forces:  Max     0.002129734 RMS     0.000484479

 GradGradGradGradGradGradGradGradGradGradGradGradGradGradGradGradGradGrad
 Berny optimization.
 Using GEDIIS/GDIIS optimizer.
 FormGI is forming the generalized inverse of G from B-inverse, IUseBI=4.
 Internal  Forces:  Max     0.003366955 RMS     0.000775341
 Search for a local minimum.
 Step number   2 out of a maximum of   92
 All quantities printed in internal units (Hartrees-Bohrs-Radians)
 Mixed Optimization -- En-DIIS/RFO-DIIS
 Swapping is turned off.
 Update second derivatives using D2CorX and points    1    2
 DE=  6.56D-06 DEPred=-2.21D-05 R=-2.97D-01
 Trust test=-2.97D-01 RLast= 1.21D-02 DXMaxT set to 1.50D-01
 ITU= -1  0
     Eigenvalues ---    0.00705   0.01004   0.01592   0.01595   0.01731
     Eigenvalues ---    0.02064   0.02134   0.02146   0.02160   0.02179
     Eigenvalues ---    0.02192   0.02227   0.02781   0.07073   0.07849
     Eigenvalues ---    0.14724   0.16000   0.16000   0.16000   0.16000
     Eigenvalues ---    0.16000   0.16000   0.16042   0.20984   0.22000
     Eigenvalues ---    0.23572   0.24524   0.25000   0.25000   0.27550
     Eigenvalues ---    0.34536   0.35169   0.35311   0.35351   0.35383
     Eigenvalues ---    0.35458   0.38723   0.42294   0.43300   0.43784
     Eigenvalues ---    0.44352   0.45480   0.46603   0.47293   0.52695
     Eigenvalues ---    0.62113   0.87743   1.06004
 En-DIIS/RFO-DIIS IScMMF=        0 using points:     2    1
 RFO step:  Lambda=-5.01141786D-05.
 DidBck=T Rises=F RFO-DIIS coefs:    0.43151    0.56849
 Iteration  1 RMS(Cart)=  0.00533832 RMS(Int)=  0.00000895
 Iteration  2 RMS(Cart)=  0.00001235 RMS(Int)=  0.00000031
 Iteration  3 RMS(Cart)=  0.00000000 RMS(Int)=  0.00000031
 Variable       Old X    -DE/DX   Delta X   Delta X   Delta X     New X
                                 (Linear)    (Quad)   (Total)
    R1        2.63401  -0.00034   0.00025  -0.00086  -0.00060   2.63341
    R2        2.62991  -0.00017   0.00065  -0.00137  -0.00072   2.62919
    R3        2.04973   0.00002   0.00044  -0.00077  -0.00033   2.04940
    R4        2.63931  -0.00012   0.00058  -0.00120  -0.00062   2.63869
    R5        2.05026   0.00003   0.00043  -0.00075  -0.00032   2.04994
    R6        2.61355   0.00038   0.00132  -0.00200  -0.00067   2.61288
    R7        2.05317  -0.00001   0.00048  -0.00088  -0.00040   2.05277
    R8        2.65243   0.00235   0.00226  -0.00172   0.00054   2.65297
    R9        2.78262   0.00014   0.00223  -0.00385  -0.00162   2.78101
   R10        2.64383   0.00051   0.00145  -0.00208  -0.00063   2.64320
   R11        2.79595   0.00120   0.00266  -0.00327  -0.00061   2.79533
   R12        2.04847  -0.00000   0.00046  -0.00084  -0.00037   2.04809
   R13        2.48909  -0.00021   0.00053  -0.00109  -0.00056   2.48852
   R14        2.33467   0.00041   0.00018  -0.00013   0.00005   2.33472
   R15        1.83860   0.00010   0.00026  -0.00040  -0.00013   1.83847
   R16        1.93341  -0.00007   0.00041  -0.00081  -0.00039   1.93301
   R17        2.04524   0.00114   0.00015   0.00112   0.00126   2.04650
   R18        1.93341  -0.00006   0.00041  -0.00081  -0.00039   1.93301
    A1        2.09915   0.00006  -0.00013   0.00003  -0.00010   2.09905
    A2        2.09504  -0.00007   0.00003  -0.00005  -0.00002   2.09503
    A3        2.08900   0.00001   0.00010   0.00002   0.00012   2.08911
    A4        2.10021   0.00007  -0.00021   0.00019  -0.00002   2.10019
    A5        2.09906  -0.00008   0.00007  -0.00015  -0.00008   2.09897
    A6        2.08393   0.00001   0.00014  -0.00004   0.00010   2.08402
    A7        2.07319   0.00058   0.00087  -0.00046   0.00041   2.07359
    A8        2.10148  -0.00028  -0.00088   0.00107   0.00019   2.10167
    A9        2.10852  -0.00030   0.00001  -0.00061  -0.00060   2.10792
   A10        2.12970  -0.00063  -0.00055   0.00009  -0.00045   2.12925
   A11        2.09568  -0.00205  -0.00125  -0.00139  -0.00264   2.09304
   A12        2.05781   0.00268   0.00180   0.00129   0.00309   2.06090
   A13        2.06464  -0.00068  -0.00100   0.00082  -0.00018   2.06447
   A14        2.09690   0.00337   0.00187   0.00234   0.00421   2.10112
   A15        2.12164  -0.00268  -0.00087  -0.00316  -0.00403   2.11760
   A16        2.09949   0.00061   0.00101  -0.00067   0.00034   2.09983
   A17        2.10518  -0.00034  -0.00100   0.00114   0.00013   2.10531
   A18        2.07852  -0.00027  -0.00001  -0.00047  -0.00047   2.07805
   A19        1.99971  -0.00061   0.00078  -0.00247  -0.00168   1.99803
   A20        2.14543   0.00223   0.00070   0.00260   0.00330   2.14873
   A21        2.13804  -0.00162  -0.00148  -0.00013  -0.00161   2.13643
   A22        1.90829   0.00030   0.00061  -0.00029   0.00033   1.90862
   A23        1.95632  -0.00009   0.00062  -0.00152  -0.00090   1.95542
   A24        1.82582   0.00039   0.00114  -0.00074   0.00041   1.82623
   A25        1.95631  -0.00010   0.00063  -0.00152  -0.00089   1.95541
   A26        1.91751  -0.00007  -0.00060   0.00112   0.00052   1.91803
   A27        1.88990  -0.00007  -0.00122   0.00154   0.00032   1.89021
   A28        1.91742  -0.00005  -0.00053   0.00112   0.00059   1.91801
    D1        0.00002  -0.00000  -0.00002  -0.00000  -0.00002   0.00001
    D2        3.14159   0.00000   0.00000   0.00000   0.00000  -3.14159
    D3       -3.14159  -0.00000  -0.00000  -0.00000  -0.00000  -3.14159
    D4       -0.00002   0.00000   0.00002   0.00000   0.00002  -0.00000
    D5        0.00001  -0.00000  -0.00001  -0.00001  -0.00001  -0.00000
    D6        3.14155   0.00000   0.00003   0.00000   0.00004   3.14158
    D7       -3.14157  -0.00000  -0.00002  -0.00000  -0.00003  -3.14159
    D8       -0.00003   0.00000   0.00002   0.00000   0.00002  -0.00000
    D9        0.00001  -0.00000  -0.00000   0.00000  -0.00000   0.00000
   D10        3.14155   0.00000   0.00003   0.00000   0.00003   3.14158
   D11       -3.14157  -0.00000  -0.00002  -0.00000  -0.00002  -3.14159
   D12       -0.00002   0.00000   0.00001  -0.00000   0.00001  -0.00001
   D13       -0.00006   0.00001   0.00005   0.00001   0.00006  -0.00001
   D14        3.14150   0.00001   0.00007   0.00000   0.00008   3.14157
   D15        3.14157   0.00000   0.00001   0.00001   0.00002  -3.14159
   D16       -0.00005   0.00000   0.00004   0.00000   0.00004  -0.00001
   D17        0.00009  -0.00001  -0.00007  -0.00001  -0.00008   0.00001
   D18       -3.14144  -0.00001  -0.00012  -0.00001  -0.00013  -3.14157
   D19       -3.14147  -0.00001  -0.00010  -0.00001  -0.00010  -3.14157
   D20        0.00018  -0.00001  -0.00014  -0.00001  -0.00015   0.00003
   D21        1.06494  -0.00012  -0.00051  -0.00010  -0.00060   1.06434
   D22       -3.14134  -0.00001  -0.00021   0.00001  -0.00020  -3.14153
   D23       -1.06454   0.00012   0.00018   0.00012   0.00029  -1.06424
   D24       -2.07668  -0.00012  -0.00048  -0.00010  -0.00058  -2.07727
   D25        0.00023  -0.00001  -0.00018   0.00001  -0.00018   0.00005
   D26        2.07702   0.00012   0.00020   0.00011   0.00031   2.07734
   D27       -0.00006   0.00001   0.00005   0.00001   0.00006  -0.00000
   D28        3.14158   0.00000   0.00001   0.00000   0.00001  -3.14159
   D29        3.14147   0.00001   0.00009   0.00001   0.00011   3.14158
   D30       -0.00007   0.00000   0.00005   0.00001   0.00006  -0.00001
   D31       -3.14093  -0.00004  -0.00052  -0.00020  -0.00072   3.14154
   D32       -0.00031   0.00003   0.00022   0.00020   0.00042   0.00012
   D33        0.00072  -0.00004  -0.00056  -0.00020  -0.00076  -0.00004
   D34        3.14134   0.00002   0.00018   0.00020   0.00038  -3.14146
   D35        3.14109   0.00004   0.00038   0.00021   0.00059  -3.14151
   D36        0.00046  -0.00003  -0.00035  -0.00019  -0.00054  -0.00008
         Item               Value     Threshold  Converged?
 Maximum Force            0.003367     0.000450     NO 
 RMS     Force            0.000775     0.000300     NO 
 Maximum Displacement     0.020724     0.001800     NO 
 RMS     Displacement     0.005336     0.001200     NO 
 Predicted change in Energy=-2.658849D-05
 GradGradGradGradGradGradGradGradGradGradGradGradGradGradGradGradGradGrad

                          Input orientation:                          
 ---------------------------------------------------------------------
 Center     Atomic      Atomic             Coordinates (Angstroms)
 Number     Number       Type             X           Y           Z
 ---------------------------------------------------------------------
      1          6           0        1.937881   -1.464521    0.000014
      2          6           0        2.615316   -0.246723   -0.000003
      3          6           0        1.904903    0.955386   -0.000013
      4          6           0        0.522891    0.912589   -0.000004
      5          6           0       -0.183785   -0.300473    0.000005
      6          6           0        0.546870   -1.493184    0.000016
      7          6           0       -1.663006   -0.304653   -0.000014
      8          8           0       -2.205264   -1.504696   -0.000066
      9          7           0       -0.250335    2.164733    0.000011
     10          8           0       -2.340868    0.728263   -0.000157
     11          1           0        2.494453   -2.395307    0.000021
     12          1           0        3.699871   -0.224457   -0.000007
     13          1           0        2.431561    1.905457   -0.000019
     14          1           0        0.014086   -2.436990    0.000021
     15          1           0       -3.174494   -1.420570   -0.000153
     16          1           0       -0.060657    2.732959   -0.829133
     17          1           0       -1.285640    1.847001    0.000079
     18          1           0       -0.060576    2.732983    0.829121
 ---------------------------------------------------------------------
                    Distance matrix (angstroms):
                    1          2          3          4          5
     1  C    0.000000
     2  C    1.393539   0.000000
     3  C    2.420132   1.396335   0.000000
     4  C    2.766379   2.392122   1.382675   0.000000
     5  C    2.420015   2.799617   2.437170   1.403892   0.000000
     6  C    1.391307   2.414981   2.799955   2.405893   1.398719
     7  C    3.783079   4.278714   3.783870   2.501964   1.479227
     8  O    4.143340   4.982017   4.790144   3.645010   2.352983
     9  N    4.237897   3.745273   2.471350   1.471646   2.466104
    10  O    4.807910   5.051174   4.251841   2.869685   2.389834
    11  H    1.084497   2.151981   3.402163   3.850875   3.400189
    12  H    2.154615   1.084784   2.148009   3.374327   3.884400
    13  H    3.405946   2.160010   1.086279   2.151467   3.421427
    14  H    2.155617   3.400539   3.883736   3.388003   2.145660
    15  H    5.112564   5.907607   5.607623   4.371989   3.193581
    16  H    4.722339   4.089840   2.776802   2.083682   3.147117
    17  H    4.621392   4.427317   3.312784   2.035659   2.413655
    18  H    4.722319   4.089803   2.776764   2.083678   3.147138
                    6          7          8          9         10
     6  C    0.000000
     7  C    2.509215   0.000000
     8  O    2.752158   1.316870   0.000000
     9  N    3.743780   2.844909   4.157699   0.000000
    10  O    3.643331   1.235481   2.237073   2.536489   0.000000
    11  H    2.146370   4.653525   4.783359   5.322389   5.756476
    12  H    3.398689   5.363477   6.042321   4.616531   6.115408
    13  H    3.886235   4.652963   5.755805   2.694400   4.915472
    14  H    1.083803   2.712840   2.407216   4.609314   3.945205
    15  H    3.722072   1.878793   0.972874   4.626565   2.304867
    16  H    4.349352   3.532994   4.821246   1.022907   3.147280
    17  H    3.809846   2.184495   3.475569   1.082964   1.537882
    18  H    4.349356   3.533056   4.821324   1.022907   3.147434
                   11         12         13         14         15
    11  H    0.000000
    12  H    2.483067   0.000000
    13  H    4.301223   2.478940   0.000000
    14  H    2.480717   4.298874   4.970013   0.000000
    15  H    5.752136   6.977649   6.518459   3.346663   0.000000
    16  H    5.789231   4.855444   2.753787   5.236550   5.256899
    17  H    5.682101   5.398728   3.717660   4.476815   3.774227
    18  H    5.789209   4.855396   2.753728   5.236565   5.257013
                   16         17         18
    16  H    0.000000
    17  H    1.724267   0.000000
    18  H    1.658254   1.724256   0.000000
 Stoichiometry    C7H8NO2(1+)
 Framework group  C1[X(C7H8NO2)]
 Deg. of freedom    48
 Full point group                 C1      NOp   1
 Largest Abelian subgroup         C1      NOp   1
 Largest concise Abelian subgroup C1      NOp   1
                         Standard orientation:                         
 ---------------------------------------------------------------------
 Center     Atomic      Atomic             Coordinates (Angstroms)
 Number     Number       Type             X           Y           Z
 ---------------------------------------------------------------------
      1          6           0       -1.936563   -1.466292   -0.000038
      2          6           0       -2.614824   -0.248954   -0.000021
      3          6           0       -1.905227    0.953637   -0.000011
      4          6           0       -0.523186    0.911779   -0.000020
      5          6           0        0.184313   -0.300804   -0.000029
      6          6           0       -0.545532   -1.494010   -0.000040
      7          6           0        1.663537   -0.303979   -0.000010
      8          8           0        2.206609   -1.503654    0.000042
      9          7           0        0.249189    2.164447   -0.000036
     10          8           0        2.340697    0.729397    0.000133
     11          1           0       -2.492502   -2.397455   -0.000046
     12          1           0       -3.699394   -0.227425   -0.000017
     13          1           0       -2.432530    1.903350   -0.000005
     14          1           0       -0.012108   -2.437455   -0.000045
     15          1           0        3.175782   -1.418869    0.000128
     16          1           0        0.059125    2.732544    0.829109
     17          1           0        1.284709    1.847418   -0.000103
     18          1           0        0.059044    2.732568   -0.829145
 ---------------------------------------------------------------------
 Rotational constants (GHZ):      2.2559214      1.2131369      0.7923280
 Standard basis: 6-31+G(d,p) (6D, 7F)
 There are   230 symmetry adapted cartesian basis functions of A   symmetry.
 There are   230 symmetry adapted basis functions of A   symmetry.
   230 basis functions,   376 primitive gaussians,   230 cartesian basis functions
    36 alpha electrons       36 beta electrons
       nuclear repulsion energy       516.2103815881 Hartrees.
 NAtoms=   18 NActive=   18 NUniq=   18 SFac= 1.00D+00 NAtFMM=   60 NAOKFM=F Big=F
 Integral buffers will be    131072 words long.
 Raffenetti 2 integral format.
 Two-electron integral symmetry is turned on.
 Nuclear repulsion after empirical dispersion term =      516.1768922694 Hartrees.
 One-electron integrals computed using PRISM.
 NBasis=   230 RedAO= T EigKep=  2.26D-06  NBF=   230
 NBsUse=   230 1.00D-06 EigRej= -1.00D+00 NBFU=   230
 Initial guess from the checkpoint file:  "B3PWD3BJAnthranilicyang.chk"
 B after Tr=     0.000000   -0.000000    0.000000
         Rot=    0.999999    0.000006   -0.000009   -0.001551 Ang=   0.18 deg.
 ExpMin= 4.38D-02 ExpMax= 5.48D+03 ExpMxC= 8.25D+02 IAcc=2 IRadAn=         4 AccDes= 0.00D+00
 Harris functional with IExCor=  408 and IRadAn=       4 diagonalized for initial guess.
 HarFok:  IExCor=  408 AccDes= 0.00D+00 IRadAn=         4 IDoV= 1 UseB2=F ITyADJ=14
 ICtDFT=  3500011 ScaDFX=  1.000000  1.000000  1.000000  1.000000
 FoFCou: FMM=F IPFlag=           0 FMFlag=      100000 FMFlg1=           0
         NFxFlg=           0 DoJE=T BraDBF=F KetDBF=T FulRan=T
         wScrn=  0.000000 ICntrl=     500 IOpCl=  0 I1Cent=   200000004 NGrid=           0
         NMat0=    1 NMatS0=      1 NMatT0=    0 NMatD0=    1 NMtDS0=    0 NMtDT0=    0
 Petite list used in FoFCou.
 Keep R1 ints in memory in canonical form, NReq=359209085.
 Requested convergence on RMS density matrix=1.00D-08 within 128 cycles.
 Requested convergence on MAX density matrix=1.00D-06.
 Requested convergence on             energy=1.00D-06.
 No special actions if energy rises.
 SCF Done:  E(RB3PW91) =  -476.427442756     A.U. after   11 cycles
            NFock= 11  Conv=0.45D-08     -V/T= 2.0092
 Calling FoFJK, ICntrl=      2127 FMM=F ISym2X=0 I1Cent= 0 IOpClX= 0 NMat=1 NMatS=1 NMatT=0.
 ***** Axes restored to original set *****
 -------------------------------------------------------------------
 Center     Atomic                   Forces (Hartrees/Bohr)
 Number     Number              X              Y              Z
 -------------------------------------------------------------------
      1        6           0.000182388   -0.000142708   -0.000000724
      2        6           0.000245509   -0.000034642    0.000000028
      3        6           0.000329423   -0.000030418    0.000000462
      4        6          -0.000042128   -0.000029074    0.000000837
      5        6          -0.000003819    0.000162333    0.000006172
      6        6           0.000170488   -0.000346506    0.000000382
      7        6          -0.000150223    0.000085562   -0.000022898
      8        8          -0.000477604   -0.000262193    0.000006210
      9        7          -0.000721708   -0.000221025    0.000006802
     10        8           0.000411002    0.000424146    0.000012432
     11        1           0.000110021   -0.000107089    0.000000051
     12        1           0.000146749   -0.000026999   -0.000000030
     13        1           0.000121016    0.000122915   -0.000000179
     14        1           0.000010001   -0.000110203    0.000000230
     15        1          -0.000107082   -0.000069515    0.000000251
     16        1          -0.000095861    0.000174438   -0.000082657
     17        1          -0.000036036    0.000235950   -0.000009020
     18        1          -0.000092135    0.000175028    0.000081650
 -------------------------------------------------------------------
 Cartesian Forces:  Max     0.000721708 RMS     0.000187684

 GradGradGradGradGradGradGradGradGradGradGradGradGradGradGradGradGradGrad
 Berny optimization.
 Using GEDIIS/GDIIS optimizer.
 FormGI is forming the generalized inverse of G from B-inverse, IUseBI=4.
 Internal  Forces:  Max     0.001410979 RMS     0.000352116
 Search for a local minimum.
 Step number   3 out of a maximum of   92
 All quantities printed in internal units (Hartrees-Bohrs-Radians)
 Mixed Optimization -- En-DIIS/RFO-DIIS
 Swapping is turned off.
 Update second derivatives using D2CorX and points    1    2    3
 DE= -1.33D-05 DEPred=-2.66D-05 R= 5.02D-01
 TightC=F SS=  1.41D+00  RLast= 9.05D-03 DXNew= 2.5227D-01 2.7148D-02
 Trust test= 5.02D-01 RLast= 9.05D-03 DXMaxT set to 1.50D-01
 ITU=  1 -1  0
     Eigenvalues ---    0.00705   0.01004   0.01592   0.01592   0.01731
     Eigenvalues ---    0.02064   0.02134   0.02146   0.02160   0.02179
     Eigenvalues ---    0.02192   0.02227   0.02781   0.07079   0.07850
     Eigenvalues ---    0.15460   0.16000   0.16000   0.16000   0.16000
     Eigenvalues ---    0.16000   0.16003   0.16594   0.21997   0.22444
     Eigenvalues ---    0.24140   0.24993   0.25000   0.26031   0.32664
     Eigenvalues ---    0.34492   0.35172   0.35349   0.35382   0.35458
     Eigenvalues ---    0.37321   0.40647   0.42338   0.43565   0.43784
     Eigenvalues ---    0.45138   0.46592   0.46711   0.51454   0.52789
     Eigenvalues ---    0.62915   0.88770   1.20381
 En-DIIS/RFO-DIIS IScMMF=        0 using points:     3    2    1
 RFO step:  Lambda=-1.20065182D-05.
 DidBck=T Rises=F RFO-DIIS coefs:    0.44172    0.24365    0.31463
 Iteration  1 RMS(Cart)=  0.00222991 RMS(Int)=  0.00000171
 Iteration  2 RMS(Cart)=  0.00000293 RMS(Int)=  0.00000012
 Iteration  3 RMS(Cart)=  0.00000000 RMS(Int)=  0.00000012
 Variable       Old X    -DE/DX   Delta X   Delta X   Delta X     New X
                                 (Linear)    (Quad)   (Total)
    R1        2.63341   0.00034   0.00048  -0.00007   0.00040   2.63381
    R2        2.62919   0.00046   0.00076  -0.00009   0.00067   2.62986
    R3        2.04940   0.00015   0.00043  -0.00008   0.00035   2.04975
    R4        2.63869   0.00042   0.00067  -0.00006   0.00061   2.63930
    R5        2.04994   0.00015   0.00042  -0.00007   0.00035   2.05029
    R6        2.61288   0.00067   0.00111   0.00000   0.00111   2.61399
    R7        2.05277   0.00017   0.00049  -0.00010   0.00039   2.05316
    R8        2.65297  -0.00010   0.00095  -0.00011   0.00084   2.65381
    R9        2.78101   0.00081   0.00214  -0.00029   0.00185   2.78285
   R10        2.64320   0.00068   0.00116   0.00007   0.00122   2.64442
   R11        2.79533   0.00032   0.00181  -0.00035   0.00147   2.79680
   R12        2.04809   0.00009   0.00046  -0.00018   0.00029   2.04838
   R13        2.48852   0.00054   0.00061  -0.00003   0.00057   2.48910
   R14        2.33472   0.00013   0.00007   0.00007   0.00014   2.33486
   R15        1.83847   0.00010   0.00022  -0.00004   0.00019   1.83865
   R16        1.93301   0.00015   0.00045  -0.00015   0.00030   1.93331
   R17        2.04650  -0.00003  -0.00062   0.00069   0.00006   2.04657
   R18        1.93301   0.00015   0.00045  -0.00015   0.00030   1.93331
    A1        2.09905   0.00001  -0.00002   0.00001  -0.00001   2.09904
    A2        2.09503  -0.00005   0.00003  -0.00015  -0.00013   2.09490
    A3        2.08911   0.00003  -0.00001   0.00014   0.00013   2.08924
    A4        2.10019   0.00001  -0.00010   0.00006  -0.00004   2.10014
    A5        2.09897  -0.00004   0.00008  -0.00016  -0.00008   2.09889
    A6        2.08402   0.00002   0.00002   0.00010   0.00012   2.08415
    A7        2.07359  -0.00002   0.00025   0.00007   0.00033   2.07392
    A8        2.10167  -0.00004  -0.00059   0.00014  -0.00046   2.10121
    A9        2.10792   0.00006   0.00034  -0.00021   0.00013   2.10805
   A10        2.12925  -0.00003  -0.00005  -0.00025  -0.00030   2.12895
   A11        2.09304   0.00079   0.00078  -0.00000   0.00078   2.09382
   A12        2.06090  -0.00076  -0.00073   0.00025  -0.00048   2.06042
   A13        2.06447   0.00014  -0.00045   0.00028  -0.00017   2.06429
   A14        2.10112  -0.00141  -0.00131  -0.00023  -0.00155   2.09957
   A15        2.11760   0.00127   0.00177  -0.00005   0.00172   2.11932
   A16        2.09983  -0.00012   0.00037  -0.00018   0.00019   2.10002
   A17        2.10531  -0.00000  -0.00063   0.00017  -0.00046   2.10485
   A18        2.07805   0.00013   0.00026   0.00001   0.00027   2.07832
   A19        1.99803   0.00101   0.00137   0.00064   0.00202   2.00004
   A20        2.14873  -0.00118  -0.00146  -0.00019  -0.00165   2.14709
   A21        2.13643   0.00017   0.00008  -0.00045  -0.00037   2.13606
   A22        1.90862   0.00015   0.00016   0.00050   0.00066   1.90928
   A23        1.95542   0.00013   0.00084  -0.00028   0.00057   1.95599
   A24        1.82623   0.00028   0.00040   0.00084   0.00125   1.82748
   A25        1.95541   0.00013   0.00084  -0.00026   0.00058   1.95600
   A26        1.91803  -0.00020  -0.00062  -0.00017  -0.00079   1.91724
   A27        1.89021  -0.00015  -0.00085  -0.00003  -0.00088   1.88933
   A28        1.91801  -0.00019  -0.00062  -0.00009  -0.00072   1.91730
    D1        0.00001  -0.00000   0.00000  -0.00002  -0.00002  -0.00001
    D2       -3.14159  -0.00000  -0.00000  -0.00000  -0.00000   3.14159
    D3       -3.14159  -0.00000   0.00000  -0.00000  -0.00000   3.14159
    D4       -0.00000   0.00000  -0.00000   0.00002   0.00001   0.00001
    D5       -0.00000   0.00000   0.00000   0.00000   0.00000  -0.00000
    D6        3.14158   0.00000  -0.00000   0.00004   0.00004  -3.14157
    D7       -3.14159  -0.00000   0.00000  -0.00002  -0.00001   3.14158
    D8       -0.00000   0.00000  -0.00000   0.00002   0.00002   0.00001
    D9        0.00000  -0.00000  -0.00000  -0.00000  -0.00000  -0.00000
   D10        3.14158   0.00000  -0.00000   0.00003   0.00003  -3.14157
   D11       -3.14159  -0.00000   0.00000  -0.00002  -0.00002   3.14158
   D12       -0.00001   0.00000   0.00000   0.00002   0.00002   0.00001
   D13       -0.00001   0.00000  -0.00000   0.00004   0.00004   0.00003
   D14        3.14157   0.00000  -0.00000   0.00008   0.00008  -3.14153
   D15       -3.14159   0.00000  -0.00000   0.00001   0.00000  -3.14159
   D16       -0.00001   0.00000  -0.00000   0.00004   0.00004   0.00003
   D17        0.00001  -0.00000   0.00001  -0.00006  -0.00006  -0.00005
   D18       -3.14157  -0.00000   0.00001  -0.00011  -0.00011   3.14151
   D19       -3.14157  -0.00000   0.00000  -0.00010  -0.00009   3.14152
   D20        0.00003  -0.00000   0.00000  -0.00015  -0.00014  -0.00011
   D21        1.06434  -0.00000   0.00006  -0.00041  -0.00035   1.06399
   D22       -3.14153  -0.00001  -0.00000  -0.00024  -0.00024   3.14141
   D23       -1.06424  -0.00000  -0.00006   0.00003  -0.00004  -1.06428
   D24       -2.07727   0.00000   0.00006  -0.00037  -0.00032  -2.07758
   D25        0.00005  -0.00000  -0.00000  -0.00020  -0.00021  -0.00016
   D26        2.07734   0.00000  -0.00006   0.00006  -0.00000   2.07734
   D27       -0.00000   0.00000  -0.00001   0.00004   0.00003   0.00003
   D28       -3.14159  -0.00000  -0.00000   0.00000   0.00000  -3.14159
   D29        3.14158   0.00000  -0.00001   0.00009   0.00008  -3.14153
   D30       -0.00001   0.00000  -0.00000   0.00005   0.00005   0.00004
   D31        3.14154   0.00000   0.00012  -0.00026  -0.00015   3.14139
   D32        0.00012  -0.00001  -0.00011  -0.00005  -0.00017  -0.00005
   D33       -0.00004   0.00000   0.00012  -0.00031  -0.00020  -0.00024
   D34       -3.14146  -0.00001  -0.00011  -0.00010  -0.00022   3.14150
   D35       -3.14151  -0.00001  -0.00012   0.00011  -0.00001  -3.14151
   D36       -0.00008   0.00001   0.00011  -0.00010   0.00001  -0.00007
         Item               Value     Threshold  Converged?
 Maximum Force            0.001411     0.000450     NO 
 RMS     Force            0.000352     0.000300     NO 
 Maximum Displacement     0.007625     0.001800     NO 
 RMS     Displacement     0.002231     0.001200     NO 
 Predicted change in Energy=-7.599899D-06
 GradGradGradGradGradGradGradGradGradGradGradGradGradGradGradGradGradGrad

                          Input orientation:                          
 ---------------------------------------------------------------------
 Center     Atomic      Atomic             Coordinates (Angstroms)
 Number     Number       Type             X           Y           Z
 ---------------------------------------------------------------------
[...]
 -0.0000044,-0.1680784,0.0629129,0.0000023,-0.0000105,0.0000001,-0.0732
 224,0.1773601,0.0029543,0.0000015,-0.072265,0.0349226,0.000002,0.00000
 38,0.0000012,-0.0605245,-0.2912291,0.1312934,-0.000001,0.1920257,-0.01
 8646,0.0000039,-0.0000012,-0.0000068,-0.0910987,0.4587473,-0.1946752,0
 .0000167,0.0091965,0.4123034,-0.0000271,0.0000825,-0.000013,-0.0530269
 ,-0.8043165,0.021103,0.0000004,-0.0593287,-0.0986449,0.0000025,0.00000
 12,-0.000003,0.025736,0.1220439,0.1309572,0.0000059,-0.0783601,0.02609
 23,0.000002,-0.000009,0.0000071,-0.0605865,2.1022843,0.0275597,-0.0000
 135,0.2238578,1.7562099,0.0002202,0.0000394,0.0002528,0.3515892,-0.883
 9617,-0.5053994,-0.0000782,-0.5798984,-1.0256337,-0.0000951,-0.0001417
 ,-0.0001556,-0.3215385,-0.5121659,-0.1933691,-0.0000104,0.0228983,-0.5
 442075,0.0000246,-0.0000919,-0.0000431,-0.0590577,-1.118419,0.1809654,
 0.0000791,0.1028403,-1.2149542,-0.000075,0.0001097,0.0000136,-0.334911
 4,0.0710023,0.0225732,0.0000007,0.0285803,0.044745,-0.0000018,-0.00000
 27,-0.0000006,0.1461823,0.0377906,-0.0027407,-0.0000017,-0.0060387,0.0
 896092,0.,0.0000038,-0.0000023,0.1426052,0.0972674,-0.0107638,-0.00000
 14,-0.0219636,-0.0043647,0.0000007,-0.0000062,0.0000128,0.1519501,0.09
 57909,-0.0207505,0.0000008,-0.0163264,0.0866037,0.0000001,0.0000154,-0
 .0000008,0.1405362,0.4452015,0.1261186,0.0000202,0.1322366,0.3224872,-
 0.000012,0.000034,-0.0000038,0.3673591,0.2031558,0.00785,0.0144106,0.0
 150142,0.2486593,-0.0475183,0.0200042,-0.0800302,0.2650988,0.6880388,0
 .4574065,-0.0000297,0.2605906,0.5732483,-0.0000619,-0.0000332,-0.00008
 01,0.1977973,0.2031708,0.0078649,-0.0143957,0.015019,0.2486573,0.04753
 3,-0.0199976,0.0800516,0.2651121\Polar=116.4010189,-0.4951633,100.7528
 555,-0.0004019,0.0013935,47.6441018\PG=C01 [X(C7H8N1O2)]\NImag=0\\0.70
 618754,-0.03562672,0.74288183,0.00000231,0.00001048,0.13734909,-0.1829
 9015,-0.12522857,-0.00000365,0.75919396,-0.06215216,-0.30159906,-0.000
 00615,0.00473257,0.67976060,-0.00000304,-0.00000645,-0.06394949,0.0000
 0433,0.00000931,0.14102287,0.06462605,0.02210350,0.00000010,-0.1844346
 8,0.06216588,0.00000159,0.71215699,-0.01557351,-0.05302562,-0.00000093
 ,0.12821087,-0.28880401,-0.00000207,0.03466856,0.74146539,-0.00000014,
 -0.00000071,0.00666070,0.00000053,-0.00000061,-0.06253047,0.00000631,-
 0.00000017,0.12999027,-0.05169778,-0.02902181,-0.00000052,-0.02821593,
 0.08318183,-0.00000027,-0.35832576,-0.06476706,-0.00000486,0.72552942,
 -0.02991232,-0.01828314,0.00000006,0.02840759,0.03228518,-0.00000004,0
 .01476902,-0.12165879,0.00000036,0.04697613,0.62468769,-0.00000075,-0.
 00000040,-0.00522140,-0.00000008,0.00000111,0.00339985,-0.00000381,-0.
 00000078,-0.06174365,0.00000458,-0.00000897,0.16110689,-0.02889495,0.0
 2659115,0.00000078,0.00017817,-0.00644655,-0.00000010,-0.03444433,-0.0
 1961556,-0.00000033,-0.16860670,-0.11873413,0.00000389,0.66055936,0.06
 721872,0.03283866,-0.00000122,0.00239840,-0.06048560,-0.00000036,-0.06
 950214,0.02529685,-0.00000073,-0.05821382,-0.25960417,0.00000302,-0.00
 848024,0.71537010,0.00000137,0.00000018,0.00715155,-0.00000021,-0.0000
 0137,-0.00576563,-0.00000212,0.00000143,0.00981938,0.00000594,0.,-0.05
 702414,-0.00001252,0.00001056,0.13318117,-0.35553493,0.02845411,-0.000
 00061,-0.02338228,-0.07212059,-0.00000074,-0.04800583,0.01984565,0.000
 00001,0.06012235,0.02870916,0.00000077,-0.17102760,0.06095446,0.000002
 12,0.71150470,-0.03478973,-0.13016842,0.00000053,-0.03414109,0.0316839
 8,-0.00000021,0.02910309,-0.01289089,0.00000006,-0.02004386,-0.0566292
 3,-0.00000109,0.11494618,-0.28347843,-0.00000540,0.04100739,0.73116135
 ,0.00000002,-0.00000027,-0.06492317,-0.00000039,0.00000042,0.00657817,
 0.00000042,-0.00000031,-0.00518506,-0.00000032,-0.00000018,0.00392818,
 0.00000210,-0.00000529,-0.06101410,-0.00000492,0.00000577,0.14127024,0
 .00372524,0.00316743,0.00000021,-0.00016119,0.00495215,0.00000020,0.01
 164593,-0.00518956,0.00000079,-0.02406811,-0.03031395,-0.00000073,-0.2
 0555851,-0.00276787,0.00000788,-0.02283625,0.01798035,0.00000209,0.728
 07606,0.00457731,-0.00628402,-0.00000024,0.00045238,-0.00361847,-0.000
 00016,-0.00474833,-0.00693152,-0.00000019,-0.03367275,0.01427566,0.000
 00109,-0.01130394,-0.10226885,0.00000261,0.02759125,0.01073290,-0.0000
 0106,-0.09304257,0.89444676,-0.00000056,-0.00000025,0.00870745,-0.0000
 0025,0.00000038,-0.00142776,-0.00000020,-0.00000052,0.00626394,-0.0000
 0133,0.00000119,-0.00174888,0.00000537,0.00000296,-0.07575855,0.000000
 11,-0.00000012,-0.00104439,-0.00001047,0.00008605,0.20785093,0.0009922
 4,-0.00061095,0.00000025,-0.00011146,-0.00225327,-0.00000012,-0.003361
 85,-0.00121711,0.00000027,-0.00478790,0.00879311,0.00000027,-0.0326010
 5,-0.04510308,-0.00000701,-0.00360231,-0.00275763,-0.00000058,-0.18418
 047,-0.12121522,-0.00002292,0.67951321,-0.00061925,0.00044299,0.000000
 20,0.00020705,-0.00117361,-0.00000002,-0.00206541,0.00206288,-0.000000
 02,0.00411901,0.00110355,0.00000036,-0.01966178,-0.00521638,-0.0000036
 1,0.00257730,-0.00450981,-0.00000012,-0.08092795,-0.31179645,-0.000043
 04,0.07040629,0.46784845,0.00000010,-0.00000005,-0.00064422,-0.0000000
 2,-0.00000029,-0.00005826,-0.00000026,0.00000049,-0.00067182,0.0000004
 0,0.00000030,0.00212223,-0.00000226,-0.00000244,0.00949422,0.00000057,
 -0.00000058,0.00040431,-0.00001704,-0.00004699,-0.06519778,0.00002156,
 0.00007469,0.04245091,0.00112485,0.00065535,0.00000019,-0.00739681,-0.
 00574580,0.00000014,-0.02036813,0.04749882,-0.00000101,-0.12670522,0.0
 3265135,-0.00000222,0.01441977,-0.00632148,-0.00000068,-0.00058689,-0.
 00077052,-0.00000032,-0.02530671,0.01780084,0.00000565,0.00294600,-0.0
 0982618,-0.00000363,0.52874786,-0.00196141,-0.00150695,-0.00000007,-0.
 00070755,0.00583969,0.00000085,0.00920783,-0.00809808,0.00000071,0.045
 60950,-0.17168674,0.00000399,0.02287972,-0.03155355,0.00000114,-0.0052
 1546,-0.00383381,0.00000064,-0.00259720,0.00775331,0.00000151,0.000124
 22,-0.00410028,-0.00000183,0.07902338,0.61386663,0.00000070,0.00000005
 ,-0.00136003,-0.00000024,-0.00000095,0.00734573,-0.00000169,0.00000236
 ,0.00199701,-0.00000118,0.00000553,-0.07372829,-0.00000300,-0.00000064
 ,-0.00076052,0.00000050,0.00000092,0.00778080,-0.00000078,0.00000082,-
 0.00282235,-0.00000079,-0.00000040,-0.00138808,-0.00003374,0.00000641,
 0.71621748,-0.00222632,0.00167163,-0.00000026,0.00025355,-0.00008299,0
 .00000010,-0.00194613,0.00164108,0.00000028,0.00621939,0.00356365,0.00
 000041,-0.03247140,0.04306872,0.00000535,-0.00477398,-0.00748566,0.000
 00051,-0.29133095,0.24544658,0.00003302,0.03646100,-0.00756212,-0.0000
 0243,-0.02187532,-0.02553736,0.00000866,0.33446082,0.00184531,0.001796
 48,0.00000034,-0.00049625,0.00074859,0.00000019,0.00268230,0.00187791,
 0.00000077,0.00179893,-0.02007368,-0.00000011,0.03101256,-0.00537687,-
 0.00000433,-0.00159726,0.00502017,0.00000043,0.22769157,-0.45832673,-0
 .00004266,0.01760565,-0.10830242,-0.00002211,-0.05285272,-0.02031469,0
 .00000317,-0.26784225,0.57482168,-0.00000003,-0.00000035,-0.00193511,0
 .00000003,0.00000011,0.00036053,0.00000041,-0.00000092,-0.00052651,-0.
 00000100,0.00000241,-0.00021285,0.00000399,-0.00000387,0.01906670,0.00
 000018,0.00000032,0.00347664,0.00003548,-0.00004708,-0.07450356,0.0000
 0093,-0.00001702,0.02690782,0.00001406,0.00000833,0.01109888,-0.000042
 35,0.00006976,0.03834535,-0.13624410,0.12923481,0.00000129,0.01217114,
 -0.01545017,-0.00000029,-0.00095263,-0.00351995,-0.00000016,-0.0010622
 5,-0.00107759,-0.00000008,-0.00504636,-0.00112934,0.00000010,-0.011540
 15,0.02730107,0.00000027,0.00050197,0.00156687,-0.00000009,-0.00013470
 ,-0.00019928,0.,0.00031394,0.00012523,0.00000005,-0.00079090,0.0002979
 2,0.00000003,0.14083143,0.12932456,-0.27498321,-0.00000275,0.01504057,
 -0.01726807,-0.00000027,-0.00314847,-0.00302237,-0.00000018,-0.0012020
 0,0.00010440,-0.00000004,-0.00122979,0.00127636,-0.00000004,-0.0032555
 5,0.00584330,-0.00000001,-0.00015490,0.00031912,-0.00000003,0.00002323
 ,0.00000202,0.00000001,0.00027209,0.00006483,0.00000008,-0.00012748,0.
 00005898,0.00000001,-0.13628616,0.28691763,0.00000121,-0.00000240,-0.0
 4033754,0.00000038,-0.00000087,0.00425494,-0.00000044,-0.00000017,0.00
 726040,0.,0.00000007,-0.00008405,0.00000005,0.00000012,0.00722031,0.00
 000014,0.00000014,0.00402205,0.00000003,0.00000009,0.00034994,-0.00000
 004,-0.00000003,0.00001515,-0.00000002,-0.00000009,-0.00112060,-0.0000
 0010,-0.00000005,-0.00028262,-0.00000127,0.00000310,0.02694450,-0.0085
 0855,0.00217793,-0.00000001,-0.35185538,-0.00588076,-0.00000115,-0.009
 64847,-0.00231089,-0.00000013,0.00083348,0.00210860,-0.00000003,0.0009
 4419,-0.00016393,0.,0.00019540,-0.00238667,-0.00000003,-0.00038426,-0.
 00002626,0.00000002,0.00002310,0.00004924,0.,-0.00066891,-0.00014470,-
 0.00000004,0.00004075,-0.00015791,0.00000004,0.00070486,0.00009199,0.,
 0.36788540,-0.02802170,0.00466626,-0.00000025,-0.00637033,-0.05937147,
 -0.00000046,0.02823115,0.00376529,0.00000015,0.00166153,-0.00389541,-0
 .00000010,0.00005435,-0.00127052,-0.00000004,-0.00275230,-0.00489737,-
 0.00000025,0.00019013,-0.00035950,-0.00000002,-0.00007064,0.00015885,0
 .00000002,0.00230134,-0.00020902,0.00000014,-0.00002028,0.00042247,-0.
 00000007,0.00021930,0.00088202,0.00000011,0.00627706,0.05930276,-0.000
 00090,-0.00000004,0.00565686,-0.00000082,-0.00000047,-0.04135430,0.,0.
 00000034,0.00458600,0.00000021,-0.00000002,0.00711715,0.00000019,0.000
 00013,-0.00089563,0.00000002,-0.00000057,0.00734693,-0.00000021,0.0000
 0007,-0.00118163,0.,0.00000002,0.00021593,0.,-0.00000003,0.00011264,0.
 ,-0.00000020,0.00014027,0.00000006,0.00000008,-0.00395177,0.00000132,0
 .00000066,0.02667731,-0.00162426,0.00342620,0.00000002,0.01286687,0.01
 566043,-0.00000010,-0.12782350,-0.12243189,-0.00000058,-0.01078334,-0.
 02846439,0.00000002,-0.00491675,0.00212715,0.00000021,-0.00053194,0.00
 071268,0.,0.00073762,-0.00180583,-0.00000016,-0.00074425,0.00008671,0.
 00000006,0.00338051,-0.00006026,0.00000051,0.00015213,0.00094926,-0.00
 000023,0.00052076,0.00077549,0.00000006,0.00071436,-0.00016753,0.00000
 005,0.13081674,0.00380168,-0.00287750,-0.00000002,-0.01489361,-0.01772
 714,-0.00000003,-0.12235741,-0.27625921,0.00000053,0.00339761,0.002578
 56,0.00000001,0.00060727,0.00136478,0.00000003,0.00099666,-0.00000059,
 0.00000002,0.00059730,-0.00003371,-0.00000010,0.00000792,0.00004771,0.
 ,-0.00003261,0.00136623,-0.00000005,-0.00008184,0.00028038,0.00000004,
 -0.00083500,-0.00081013,-0.00000006,-0.00012971,0.00101451,0.,0.129713
 79,0.29049604,0.00000039,0.00000008,0.00676222,0.00000031,-0.00000081,
 0.00403275,-0.00000104,0.00000110,-0.03608194,0.00000018,0.00000031,0.
 00360814,-0.00000025,0.00000002,0.00606620,-0.00000025,0.00000026,-0.0
 0111490,-0.00000002,-0.00000010,0.00141356,0.00000003,0.,-0.00024374,-
 0.00000006,-0.00000068,-0.00377043,-0.00000004,-0.00000008,-0.00013790
 ,0.00000002,0.,-0.00011679,0.00000002,0.00000004,-0.00388898,0.0000004
 1,-0.00000032,0.02476043,-0.00891354,-0.02707115,0.00000003,-0.0056643
 4,0.00054623,0.00000006,-0.00085447,0.00094319,0.00000002,-0.00165968,
 0.00220643,0.00000017,0.01153654,0.01596671,-0.00000008,-0.12813500,-0
 .12663924,0.00000105,0.00186297,0.00192033,0.00000044,-0.00336850,0.00
 012638,-0.00000041,-0.00014900,0.00153863,-0.00000025,-0.00001246,-0.0
 0142265,-0.00000005,0.00100517,0.00006530,-0.00000006,-0.00040212,-0.0
 0129219,-0.00000009,0.00007001,-0.00008885,-0.00000002,0.13398663,0.00
 260326,0.00590057,-0.00000001,0.00109057,0.00096724,0.,0.00028380,0.00
 029807,0.00000004,0.00366137,-0.00118057,-0.00000011,-0.01277275,-0.01
 843167,-0.00000005,-0.12500419,-0.28401281,0.00000002,-0.00151387,-0.0
 0230880,-0.00000028,-0.00058129,0.00111756,0.00000013,-0.00017519,-0.0
 0098086,0.00000013,0.00000605,0.00112672,-0.00000002,-0.00003130,0.000
 64399,0.00000002,0.00024805,0.00021367,0.00000002,-0.00008307,0.000007
 04,0.,0.13270337,0.29666027,-0.00000074,-0.00000005,0.00580025,-0.0000
 0004,0.00000028,0.00721218,0.00000039,0.00000004,-0.00106285,0.0000001
 8,-0.00000036,0.00578804,0.00000003,0.00000054,0.00350451,0.00000167,-
 0.00000007,-0.04016485,-0.00000036,0.00000011,-0.00424452,-0.00000037,
 0.,0.00040754,-0.00000030,-0.00000018,0.00102660,0.00000012,-0.0000004
 0,0.00059983,0.,0.00000006,-0.00409440,0.,0.00000004,-0.00056065,0.,0.
 ,-0.00070123,-0.00000081,0.00000005,0.02659325,-0.00006398,0.00016223,
 -0.00000004,0.00005982,0.00034416,0.00000003,0.00057609,-0.00057149,0.
 00000001,-0.00123581,0.00015533,-0.00000023,0.00223768,-0.00210831,-0.
 00000064,0.00063256,0.00011974,0.00000013,-0.02715712,-0.00910770,-0.0
 0000087,-0.48412126,0.02790593,-0.00000295,0.00148685,0.00060017,0.000
 00021,0.00172148,0.01009633,0.00000067,0.00001614,-0.00000088,0.,-0.00
 000326,0.00001385,0.,-0.00003979,0.00000901,0.00000003,-0.00007763,0.0
 0012630,0.00000004,0.50792558,0.00007487,0.00033031,0.,0.00016888,-0.0
 0000757,0.,0.00000437,-0.00056286,0.00000005,-0.00164476,0.00089244,-0
 .00000002,-0.00094054,-0.00605303,-0.00000196,0.00086955,-0.00035148,0
 .00000018,-0.05619717,0.00205587,-0.00000107,0.07727620,-0.05004722,-0
 .00000628,0.00172456,0.00083661,-0.00000018,0.00724960,0.00292712,0.00
 000093,0.00002136,0.00000921,0.,0.00001327,0.00002598,0.,-0.00013197,0
 .00000854,0.00000003,-0.00029626,0.00064922,-0.00000007,-0.02606514,0.
 05122343,-0.00000014,0.,0.00008086,0.00000007,0.00000017,0.00007889,0.
 00000020,-0.00000031,-0.00031136,-0.00000073,0.00000030,0.00075363,0.0
 0000059,-0.00000194,0.00550505,0.00000030,-0.00000007,-0.00043519,-0.0
 0001240,-0.00000079,0.00327981,0.00000728,-0.00000622,-0.01697890,0.00
 000072,0.00000034,0.00024670,0.00000151,0.00000145,-0.00588664,0.,0.,0
 .00002623,0.,0.,-0.00002412,-0.00000004,0.,-0.00015239,0.00000004,0.00
 000004,-0.00013652,0.00000331,0.00000758,0.01405996,0.00056310,0.00048
 144,-0.00019339,-0.00004580,-0.00059278,0.00073161,0.00056430,0.001650
 78,0.00035488,0.00450449,0.01176345,-0.01694629,-0.00132382,0.00014358
 ,-0.00110350,-0.00073434,0.00058085,0.00083087,-0.00075079,0.00079592,
 -0.00052100,0.00004528,-0.00034605,0.00062213,-0.06646415,-0.04075954,
 0.06054700,-0.00317021,-0.00285200,-0.00258725,-0.00002769,-0.00006990
 ,-0.00009299,-0.00001582,-0.00000256,-0.00001423,-0.00090413,-0.000324
 00,-0.00050949,-0.00006812,0.00007507,0.00017143,0.00004178,0.00004473
 ,-0.00000844,0.06224243,0.00029080,0.00036790,0.00023636,-0.00012712,-
 0.00118934,-0.00116829,-0.00166945,0.00238171,-0.00036018,-0.00460011,
 -0.02051123,0.01952744,0.00284470,-0.00137902,0.00107812,-0.00066002,-
 0.00063245,-0.00112905,0.00044500,-0.00103574,0.00057491,0.00013950,0.
 00054878,0.00011020,-0.03935659,-0.16166955,0.16266972,-0.00040772,0.0
 0093059,-0.00059777,0.00002151,0.00002311,0.00019296,-0.00002226,0.000
 08955,0.00001182,0.00035256,0.00027607,0.00079256,0.00018662,-0.000171
 35,-0.00020567,-0.00011997,-0.00006983,0.00000032,0.03800072,0.1717322
 1,-0.00031496,-0.00043807,0.00001281,0.00001762,0.00054411,0.00027336,
 0.00084349,-0.00121877,0.00043010,-0.00380268,0.00062218,0.00652836,0.
 00034119,-0.00147680,-0.00035928,0.00018700,-0.00047316,-0.00021585,0.
 00049956,0.00090560,0.00039063,-0.00035233,-0.00067431,-0.00002073,0.0
 5507319,0.15348871,-0.29672908,-0.00159190,-0.00171660,-0.00064523,-0.
 00001042,-0.00001972,-0.00005378,0.00004989,-0.00008211,0.00002189,-0.
 00036121,0.00016069,-0.00011790,0.00005564,-0.00010069,0.00001644,0.00
 011637,0.00007160,0.00006384,-0.06208475,-0.16822300,0.30980686,-0.001
 08321,-0.00104775,-0.00000005,-0.00041947,-0.00026571,-0.00000018,0.00
 003228,-0.00091263,-0.00000073,-0.02455714,0.01663676,-0.00000208,-0.0
 0366031,0.00176985,0.00000009,-0.00102930,-0.00331741,-0.00000002,0.03
 593234,-0.02602239,-0.00000816,-0.00301187,0.01607508,0.00000695,-0.21
 646729,-0.04141417,-0.00003453,-0.01754505,0.03608811,-0.00001524,-0.0
 0023894,-0.00004823,0.00000001,0.00016107,-0.00024865,0.00000013,-0.00
 098695,-0.00006439,0.00000006,0.00091162,-0.00071119,0.00000007,-0.002
 04088,-0.00221606,-0.00000076,0.00416612,-0.00051341,0.00296444,0.2256
 6155,-0.00137050,-0.00086484,0.00000003,0.00138264,0.00114847,-0.00000
 039,0.00194117,-0.00827537,0.00000029,0.02735167,0.01810326,0.00000487
 ,-0.00259343,0.00035076,0.00000019,0.00025924,-0.00240413,-0.00000024,
 0.01723474,-0.03558240,-0.00000317,-0.00070626,0.01126421,0.00000482,-
 0.02754166,-0.06412447,-0.00001044,0.00690742,0.02145120,-0.00001325,-
 0.00028077,-0.00008430,0.00000005,0.00027920,-0.00062754,-0.00000002,-
 0.00101168,-0.00000756,0.00000012,0.00042064,-0.00032697,0.00000004,-0
 .00143957,-0.00179683,-0.00000059,-0.01377890,-0.00454274,-0.00026256,
 0.00672282,0.07086152,0.00000019,0.00000008,0.00017637,0.,-0.00000017,
 0.00025343,0.00000025,0.00000049,0.00067603,-0.00000152,-0.00000137,-0
 .00112305,0.00000097,-0.00000114,0.00092810,0.00000031,0.00000011,-0.0
 0049369,-0.00000397,0.00000510,-0.00071725,0.00000109,-0.00000478,0.00
 320574,-0.00004528,-0.00001652,-0.06736222,-0.00000340,-0.00000495,-0.
 01521903,0.00000006,0.,0.00000180,0.,0.00000005,-0.00003981,0.00000006
 ,-0.00000003,-0.00019920,-0.00000007,0.00000004,-0.00000010,0.00000033
 ,0.00000079,-0.00023363,0.02916517,0.00537827,0.00273930,0.00005329,0.
 00002113,0.07467592,0.00056276,0.00048116,0.00019336,-0.00004604,-0.00
 059247,-0.00073208,0.00056414,0.00165069,-0.00035517,0.00449649,0.0117
 6179,0.01694622,-0.00132392,0.00014263,0.00110369,-0.00073419,0.000580
 46,-0.00083087,-0.00074775,0.00079350,0.00052139,0.00004478,-0.0003449
 6,-0.00062278,-0.06643136,-0.04071103,-0.06048141,-0.00316639,-0.00284
 689,0.00259031,-0.00002770,-0.00006989,0.00009304,-0.00001583,-0.00000
 252,0.00001428,-0.00090409,-0.00032381,0.00050972,-0.00006806,0.000075
 01,-0.00017130,0.00004177,0.00004450,0.00000849,0.00137736,0.00519524,
 0.00836986,0.00417543,-0.01377677,-0.02916747,0.06220260,0.00029079,0.
 00036777,-0.00023634,-0.00012699,-0.00118941,0.00116837,-0.00166947,0.
 00238061,0.00035984,-0.00459141,-0.02050780,-0.01953029,0.00284277,-0.
 00137940,-0.00107743,-0.00065939,-0.00063225,0.00112932,0.00044637,-0.
 00103743,-0.00057574,0.00013933,0.00054916,-0.00011008,-0.03930500,-0.
 16164930,-0.16267669,-0.00040703,0.00093210,0.00059846,0.00002150,0.00
 002312,-0.00019298,-0.00002224,0.00008948,-0.00001178,0.00035235,0.000
 27598,-0.00079253,0.00018651,-0.00017131,0.00020564,-0.00011998,-0.000
 06992,-0.00000032,0.00518916,0.01485134,0.01889291,-0.00051063,-0.0045
 4226,-0.00537710,0.03794335,0.17170950,0.00031496,0.00043816,0.0000128
 2,-0.00001759,-0.00054418,0.00027322,-0.00084359,0.00121870,0.00042982
 ,0.00380294,-0.00062178,0.00653383,-0.00034071,0.00147708,-0.00035934,
 -0.00018718,0.00047315,-0.00021612,-0.00050025,-0.00090492,0.00039042,
 0.00035248,0.00067429,-0.00002034,-0.05500668,-0.15349323,-0.29678424,
 0.00159052,0.00171538,-0.00064654,0.00001042,0.00001970,-0.00005376,-0
 .00004989,0.00008209,0.00002192,0.00036093,-0.00016070,-0.00011789,-0.
 00005563,0.00010067,0.00001647,-0.00011641,-0.00007158,0.00006379,-0.0
 0836175,-0.01888872,-0.02214174,-0.00296329,0.00025912,0.00273129,0.06
 201073,0.16822674,0.30986641\\0.00000638,0.00001837,0.,-0.00001020,-0.
 00002566,-0.00000004,-0.00004759,0.00002269,0.00000315,0.00008583,-0.0
 0006064,-0.00000095,0.00001712,-0.00000280,-0.00000638,-0.00001420,0.0
 0003074,-0.00000208,-0.00004758,0.00008921,0.00002314,0.00000473,-0.00
 000473,-0.00000878,-0.00008983,-0.00003396,0.00001460,0.00009452,-0.00
 010215,0.00000156,-0.00001441,0.00000788,0.00000041,-0.00001280,0.0000
 0420,-0.00000061,-0.00001002,-0.00001457,0.00000011,0.00001245,0.00001
 093,0.00000015,-0.00001146,-0.00001007,-0.00000074,-0.00000503,-0.0000
 1825,0.00001062,0.00003708,0.00010565,-0.00002176,0.00000502,-0.000016
 84,-0.00001239\\\@


 Mondays are the potholes in the road of life.
                                -- Tom Wilson
 Job cpu time:       0 days  0 hours 11 minutes 27.3 seconds.
 File lengths (MBytes):  RWF=    100 Int=      0 D2E=      0 Chk=      5 Scr=      1
 Normal termination of Gaussian 09 at Thu Dec 19 12:21:52 2024.
