 Entering Gaussian System, Link 0=g09
 Input=gd3camb3lypAnthranilicyang.gjf
 Output=gd3camb3lypAnthranilicyang.log
 Initial command:
 /home/phzd/g09E/g09/l1.exe "/home/phzd/g09E/scratch/Gau-134183.inp" -scrdir="/home/phzd/g09E/scratch/"
 Default is to use a total of  18 processors:
                               18 via shared-memory
                                1 via Linda
 Entering Link 1 = /home/phzd/g09E/g09/l1.exe PID=    134185.
  
 Copyright (c) 1988,1990,1992,1993,1995,1998,2003,2009,2015,
            Gaussian, Inc.  All Rights Reserved.
  
 This is part of the Gaussian(R) 09 program.  It is based on
 the Gaussian(R) 03 system (copyright 2003, Gaussian, Inc.),
 the Gaussian(R) 98 system (copyright 1998, Gaussian, Inc.),
 the Gaussian(R) 94 system (copyright 1995, Gaussian, Inc.),
 the Gaussian 92(TM) system (copyright 1992, Gaussian, Inc.),
 the Gaussian 90(TM) system (copyright 1990, Gaussian, Inc.),
 the Gaussian 88(TM) system (copyright 1988, Gaussian, Inc.),
 the Gaussian 86(TM) system (copyright 1986, Carnegie Mellon
 University), and the Gaussian 82(TM) system (copyright 1983,
 Carnegie Mellon University). Gaussian is a federally registered
 trademark of Gaussian, Inc.
  
 This software contains proprietary and confidential information,
 including trade secrets, belonging to Gaussian, Inc.
  
 This software is provided under written license and may be
 used, copied, transmitted, or stored only in accord with that
 written license.
  
 The following legend is applicable only to US Government
 contracts under FAR:
  
                    RESTRICTED RIGHTS LEGEND
  
 Use, reproduction and disclosure by the US Government is
 subject to restrictions as set forth in subparagraphs (a)
 and (c) of the Commercial Computer Software - Restricted
 Rights clause in FAR 52.227-19.
  
 Gaussian, Inc.
 340 Quinnipiac St., Bldg. 40, Wallingford CT 06492
  
  
 ---------------------------------------------------------------
 Warning -- This program may not be used in any manner that
 competes with the business of Gaussian, Inc. or will provide
 assistance to any competitor of Gaussian, Inc.  The licensee
 of this program is prohibited from giving any competitor of
 Gaussian, Inc. access to this program.  By using this program,
 the user acknowledges that Gaussian, Inc. is engaged in the
 business of creating and licensing software in the field of
 computational chemistry and represents and warrants to the
 licensee that it is not a competitor of Gaussian, Inc. and that
 it will not use this program in any manner prohibited above.
 ---------------------------------------------------------------
  

 Cite this work as:
 Gaussian 09, Revision E.01,
 M. J. Frisch, G. W. Trucks, H. B. Schlegel, G. E. Scuseria, 
 M. A. Robb, J. R. Cheeseman, G. Scalmani, V. Barone, B. Mennucci, 
 G. A. Petersson, H. Nakatsuji, M. Caricato, X. Li, H. P. Hratchian, 
 A. F. Izmaylov, J. Bloino, G. Zheng, J. L. Sonnenberg, M. Hada, 
 M. Ehara, K. Toyota, R. Fukuda, J. Hasegawa, M. Ishida, T. Nakajima, 
 Y. Honda, O. Kitao, H. Nakai, T. Vreven, J. A. Montgomery, Jr., 
 J. E. Peralta, F. Ogliaro, M. Bearpark, J. J. Heyd, E. Brothers, 
 K. N. Kudin, V. N. Staroverov, T. Keith, R. Kobayashi, J. Normand, 
 K. Raghavachari, A. Rendell, J. C. Burant, S. S. Iyengar, J. Tomasi, 
 M. Cossi, N. Rega, J. M. Millam, M. Klene, J. E. Knox, J. B. Cross, 
 V. Bakken, C. Adamo, J. Jaramillo, R. Gomperts, R. E. Stratmann, 
 O. Yazyev, A. J. Austin, R. Cammi, C. Pomelli, J. W. Ochterski, 
 R. L. Martin, K. Morokuma, V. G. Zakrzewski, G. A. Voth, 
 P. Salvador, J. J. Dannenberg, S. Dapprich, A. D. Daniels, 
 O. Farkas, J. B. Foresman, J. V. Ortiz, J. Cioslowski, 
 and D. J. Fox, Gaussian, Inc., Wallingford CT, 2013.
 
 ******************************************
 Gaussian 09:  ES64L-G09RevE.01 30-Nov-2015
                22-Jun-2024 
 ******************************************
 %chk=gd3camb3lypAnthranilicyang.chk
 -----------------------------------------
 # opt freq cam-b3lyp/6-31+g(d,p) em=gd3bj
 -----------------------------------------
 1/14=-1,18=20,19=15,26=3,38=1/1,3;
 2/9=110,12=2,17=6,18=5,40=1/2;
 3/5=1,6=6,7=111,11=2,16=1,25=1,30=1,71=1,74=-40,124=41/1,2,3;
 4//1;
 5/5=2,38=5/2;
 6/7=2,8=2,9=2,10=2,28=1/1;
 7//1,2,3,16;
 1/14=-1,18=20,19=15,26=3/3(2);
 2/9=110/2;
 99//99;
 2/9=110/2;
 3/5=1,6=6,7=111,11=2,16=1,25=1,30=1,71=1,74=-40,124=41/1,2,3;
 4/5=5,16=3,69=1/1;
 5/5=2,38=5/2;
 7//1,2,3,16;
 1/14=-1,18=20,19=15,26=3/3(-5);
 2/9=110/2;
 6/7=2,8=2,9=2,10=2,19=2,28=1/1;
 99/9=1/99;
 ----------
 [No Title]
 ----------
 Symbolic Z-matrix:
 Charge =  1 Multiplicity = 1
 C                    -1.93939  -1.47584  -0.0003 
 C                    -2.62312  -0.25842   0.00012 
 C                    -1.91407   0.94845   0.00037 
 C                    -0.5284    0.91123   0.00015 
 C                     0.18707  -0.3019   -0.00007 
 C                    -0.54476  -1.49913  -0.0003 
 C                     1.67336  -0.3022   0. 
 O                     2.22273  -1.5063    0.00051 
 N                     0.23835   2.18198  -0.00008 
 O                     2.34896   0.73349  -0.00035 
 H                    -2.4921   -2.40916  -0.00063 
 H                    -3.70788  -0.2395    0.00021 
 H                    -2.44514   1.8964    0.00077 
 H                    -0.01099  -2.44225  -0.00035 
 H                     3.19406  -1.4217    0.00047 
 H                     0.04136   2.75161   0.82897 
 H                     1.2724    1.88936   0.00009 
 H                     0.04211   2.75063  -0.83 
 

 GradGradGradGradGradGradGradGradGradGradGradGradGradGradGradGradGradGrad
 Berny optimization.
 Initialization pass.
                           ----------------------------
                           !    Initial Parameters    !
                           ! (Angstroms and Degrees)  !
 --------------------------                            --------------------------
 ! Name  Definition              Value          Derivative Info.                !
 --------------------------------------------------------------------------------
 ! R1    R(1,2)                  1.3963         estimate D2E/DX2                !
 ! R2    R(1,6)                  1.3948         estimate D2E/DX2                !
 ! R3    R(1,11)                 1.0847         estimate D2E/DX2                !
 ! R4    R(2,3)                  1.3997         estimate D2E/DX2                !
 ! R5    R(2,12)                 1.0849         estimate D2E/DX2                !
 ! R6    R(3,4)                  1.3862         estimate D2E/DX2                !
 ! R7    R(3,13)                 1.0866         estimate D2E/DX2                !
 ! R8    R(4,5)                  1.4084         estimate D2E/DX2                !
 ! R9    R(4,9)                  1.4842         estimate D2E/DX2                !
 ! R10   R(5,6)                  1.4032         estimate D2E/DX2                !
 ! R11   R(5,7)                  1.4863         estimate D2E/DX2                !
 ! R12   R(6,14)                 1.0837         estimate D2E/DX2                !
 ! R13   R(7,8)                  1.3235         estimate D2E/DX2                !
 ! R14   R(7,10)                 1.2366         estimate D2E/DX2                !
 ! R15   R(8,15)                 0.975          estimate D2E/DX2                !
 ! R16   R(9,16)                 1.025          estimate D2E/DX2                !
 ! R17   R(9,17)                 1.0747         estimate D2E/DX2                !
 ! R18   R(9,18)                 1.025          estimate D2E/DX2                !
 ! A1    A(2,1,6)              120.2761         estimate D2E/DX2                !
 ! A2    A(2,1,11)             120.0466         estimate D2E/DX2                !
 ! A3    A(6,1,11)             119.6774         estimate D2E/DX2                !
 ! A4    A(1,2,3)              120.2459         estimate D2E/DX2                !
 ! A5    A(1,2,12)             120.3186         estimate D2E/DX2                !
 ! A6    A(3,2,12)             119.4355         estimate D2E/DX2                !
 ! A7    A(2,3,4)              118.896          estimate D2E/DX2                !
 ! A8    A(2,3,13)             120.306          estimate D2E/DX2                !
 ! A9    A(4,3,13)             120.798          estimate D2E/DX2                !
 ! A10   A(3,4,5)              122.0696         estimate D2E/DX2                !
 ! A11   A(3,4,9)              119.5674         estimate D2E/DX2                !
 ! A12   A(5,4,9)              118.363          estimate D2E/DX2                !
 ! A13   A(4,5,6)              118.033          estimate D2E/DX2                !
 ! A14   A(4,5,7)              120.5423         estimate D2E/DX2                !
 ! A15   A(6,5,7)              121.4247         estimate D2E/DX2                !
 ! A16   A(1,6,5)              120.4795         estimate D2E/DX2                !
 ! A17   A(1,6,14)             120.4648         estimate D2E/DX2                !
 ! A18   A(5,6,14)             119.0557         estimate D2E/DX2                !
 ! A19   A(5,7,8)              114.5363         estimate D2E/DX2                !
 ! A20   A(5,7,10)             123.1059         estimate D2E/DX2                !
 ! A21   A(8,7,10)             122.3579         estimate D2E/DX2                !
 ! A22   A(7,8,15)             109.547          estimate D2E/DX2                !
 ! A23   A(4,9,16)             112.1121         estimate D2E/DX2                !
 ! A24   A(4,9,17)             105.3054         estimate D2E/DX2                !
 ! A25   A(4,9,18)             112.0996         estimate D2E/DX2                !
 ! A26   A(16,9,17)            109.6413         estimate D2E/DX2                !
 ! A27   A(16,9,18)            108.0461         estimate D2E/DX2                !
 ! A28   A(17,9,18)            109.5972         estimate D2E/DX2                !
 ! D1    D(6,1,2,3)              0.0083         estimate D2E/DX2                !
 ! D2    D(6,1,2,12)          -179.9943         estimate D2E/DX2                !
 ! D3    D(11,1,2,3)          -179.9921         estimate D2E/DX2                !
 ! D4    D(11,1,2,12)            0.0052         estimate D2E/DX2                !
 ! D5    D(2,1,6,5)             -0.0092         estimate D2E/DX2                !
 ! D6    D(2,1,6,14)           179.9827         estimate D2E/DX2                !
 ! D7    D(11,1,6,5)           179.9912         estimate D2E/DX2                !
 ! D8    D(11,1,6,14)           -0.0169         estimate D2E/DX2                !
 ! D9    D(1,2,3,4)              0.0022         estimate D2E/DX2                !
 ! D10   D(1,2,3,13)          -179.9955         estimate D2E/DX2                !
 ! D11   D(12,2,3,4)          -179.9951         estimate D2E/DX2                !
 ! D12   D(12,2,3,13)            0.0072         estimate D2E/DX2                !
 ! D13   D(2,3,4,5)             -0.0122         estimate D2E/DX2                !
 ! D14   D(2,3,4,9)            179.9784         estimate D2E/DX2                !
 ! D15   D(13,3,4,5)           179.9855         estimate D2E/DX2                !
 ! D16   D(13,3,4,9)            -0.0239         estimate D2E/DX2                !
 ! D17   D(3,4,5,6)              0.0112         estimate D2E/DX2                !
 ! D18   D(3,4,5,7)           -179.9863         estimate D2E/DX2                !
 ! D19   D(9,4,5,6)           -179.9795         estimate D2E/DX2                !
 ! D20   D(9,4,5,7)              0.023          estimate D2E/DX2                !
 ! D21   D(3,4,9,16)            60.8162         estimate D2E/DX2                !
 ! D22   D(3,4,9,17)           179.9828         estimate D2E/DX2                !
 ! D23   D(3,4,9,18)           -60.9105         estimate D2E/DX2                !
 ! D24   D(5,4,9,16)          -119.1928         estimate D2E/DX2                !
 ! D25   D(5,4,9,17)            -0.0262         estimate D2E/DX2                !
 ! D26   D(5,4,9,18)           119.0804         estimate D2E/DX2                !
 ! D27   D(4,5,6,1)             -0.0004         estimate D2E/DX2                !
 ! D28   D(4,5,6,14)          -179.9924         estimate D2E/DX2                !
 ! D29   D(7,5,6,1)            179.9971         estimate D2E/DX2                !
 ! D30   D(7,5,6,14)             0.0051         estimate D2E/DX2                !
 ! D31   D(4,5,7,8)            179.9649         estimate D2E/DX2                !
 ! D32   D(4,5,7,10)            -0.033          estimate D2E/DX2                !
 ! D33   D(6,5,7,8)             -0.0325         estimate D2E/DX2                !
 ! D34   D(6,5,7,10)           179.9696         estimate D2E/DX2                !
 ! D35   D(5,7,8,15)           179.9967         estimate D2E/DX2                !
 ! D36   D(10,7,8,15)           -0.0054         estimate D2E/DX2                !
 --------------------------------------------------------------------------------
 Trust Radius=3.00D-01 FncErr=1.00D-07 GrdErr=1.00D-06
 Number of steps in this run=     92 maximum allowed number of steps=    108.
 GradGradGradGradGradGradGradGradGradGradGradGradGradGradGradGradGradGrad

                          Input orientation:                          
 ---------------------------------------------------------------------
 Center     Atomic      Atomic             Coordinates (Angstroms)
 Number     Number       Type             X           Y           Z
 ---------------------------------------------------------------------
      1          6           0       -1.939390   -1.475838   -0.000302
      2          6           0       -2.623116   -0.258417    0.000119
      3          6           0       -1.914065    0.948453    0.000370
      4          6           0       -0.528397    0.911229    0.000146
      5          6           0        0.187071   -0.301902   -0.000072
      6          6           0       -0.544756   -1.499127   -0.000301
      7          6           0        1.673355   -0.302199   -0.000002
      8          8           0        2.222725   -1.506299    0.000512
      9          7           0        0.238354    2.181978   -0.000079
     10          8           0        2.348961    0.733494   -0.000352
     11          1           0       -2.492101   -2.409155   -0.000625
     12          1           0       -3.707882   -0.239496    0.000211
     13          1           0       -2.445144    1.896404    0.000772
     14          1           0       -0.010986   -2.442250   -0.000345
     15          1           0        3.194062   -1.421697    0.000471
     16          1           0        0.041360    2.751607    0.828966
     17          1           0        1.272402    1.889357    0.000085
     18          1           0        0.042110    2.750631   -0.830004
 ---------------------------------------------------------------------
                    Distance matrix (angstroms):
                    1          2          3          4          5
     1  C    0.000000
     2  C    1.396279   0.000000
     3  C    2.424423   1.399746   0.000000
     4  C    2.772903   2.399150   1.386168   0.000000
     5  C    2.428984   2.810523   2.445028   1.408397   0.000000
     6  C    1.394828   2.420525   2.804578   2.410412   1.403182
     7  C    3.798599   4.296694   3.799173   2.513985   1.486284
     8  O    4.162227   5.003937   4.810285   3.662392   2.365261
     9  N    4.257016   3.760790   2.480825   1.484153   2.484409
    10  O    4.824013   5.070053   4.268442   2.882842   2.397043
    11  H    1.084698   2.154725   3.407001   3.857601   3.408589
    12  H    2.157801   1.084931   2.151512   3.381315   3.895453
    13  H    3.409957   2.162158   1.086580   2.155108   3.429447
    14  H    2.157010   3.404754   3.888261   3.393160   2.149492
    15  H    5.133738   5.932350   5.631214   4.393091   3.208728
    16  H    4.741555   4.104469   2.785969   2.097274   3.167405
    17  H    4.651897   4.448370   3.322480   2.049295   2.445314
    18  H    4.741075   4.104498   2.786393   2.097147   3.166664
                    6          7          8          9         10
     6  C    0.000000
     7  C    2.520447   0.000000
     8  O    2.767490   1.323505   0.000000
     9  N    3.763482   2.868861   4.188212   0.000000
    10  O    3.654886   1.236569   2.243348   2.559837   0.000000
    11  H    2.149489   4.668007   4.800493   5.341712   5.771666
    12  H    3.404708   5.381602   6.064395   4.629937   6.134497
    13  H    3.891157   4.668607   5.776451   2.698651   4.933133
    14  H    1.083693   2.723384   2.421873   4.630945   3.956602
    15  H    3.739620   1.888339   0.975014   4.660760   2.314961
    16  H    4.370350   3.560383   4.855353   1.024988   3.175779
    17  H    3.844982   2.227932   3.526130   1.074655   1.579557
    18  H    4.369584   3.559443   4.854513   1.025014   3.174701
                   11         12         13         14         15
    11  H    0.000000
    12  H    2.487075   0.000000
    13  H    4.305815   2.481245   0.000000
    14  H    2.481336   4.303390   4.974841   0.000000
    15  H    5.771267   7.002459   6.542969   3.363608   0.000000
    16  H    5.808624   4.867273   2.756806   5.259909   5.295508
    17  H    5.713903   5.416202   3.717553   4.517732   3.828297
    18  H    5.808054   4.867500   2.757957   5.259008   5.294602
                   16         17         18
    16  H    0.000000
    17  H    1.716387   0.000000
    18  H    1.658970   1.715943   0.000000
 Stoichiometry    C7H8NO2(1+)
 Framework group  C1[X(C7H8NO2)]
 Deg. of freedom    48
 Full point group                 C1      NOp   1
 Largest Abelian subgroup         C1      NOp   1
 Largest concise Abelian subgroup C1      NOp   1
                         Standard orientation:                         
 ---------------------------------------------------------------------
 Center     Atomic      Atomic             Coordinates (Angstroms)
 Number     Number       Type             X           Y           Z
 ---------------------------------------------------------------------
      1          6           0        1.939390   -1.475838    0.000302
      2          6           0        2.623116   -0.258417   -0.000119
      3          6           0        1.914065    0.948453   -0.000370
      4          6           0        0.528397    0.911229   -0.000146
      5          6           0       -0.187071   -0.301902    0.000072
      6          6           0        0.544756   -1.499127    0.000301
      7          6           0       -1.673355   -0.302199    0.000002
      8          8           0       -2.222725   -1.506299   -0.000512
      9          7           0       -0.238354    2.181978    0.000079
     10          8           0       -2.348961    0.733494    0.000352
     11          1           0        2.492101   -2.409155    0.000625
     12          1           0        3.707882   -0.239497   -0.000211
     13          1           0        2.445144    1.896404   -0.000772
     14          1           0        0.010986   -2.442250    0.000345
     15          1           0       -3.194062   -1.421697   -0.000471
     16          1           0       -0.041360    2.751607   -0.828966
     17          1           0       -1.272402    1.889357   -0.000085
     18          1           0       -0.042110    2.750631    0.830004
 ---------------------------------------------------------------------
 Rotational constants (GHZ):      2.2343428      1.2032867      0.7854672
 Standard basis: 6-31+G(d,p) (6D, 7F)
 There are   230 symmetry adapted cartesian basis functions of A   symmetry.
 There are   230 symmetry adapted basis functions of A   symmetry.
   230 basis functions,   376 primitive gaussians,   230 cartesian basis functions
    36 alpha electrons       36 beta electrons
       nuclear repulsion energy       514.1645139868 Hartrees.
 NAtoms=   18 NActive=   18 NUniq=   18 SFac= 1.00D+00 NAtFMM=   60 NAOKFM=F Big=F
 Integral buffers will be    131072 words long.
 Raffenetti 2 integral format.
 Two-electron integral symmetry is turned on.
 Nuclear repulsion after empirical dispersion term =      514.1494042386 Hartrees.
 One-electron integrals computed using PRISM.
 NBasis=   230 RedAO= T EigKep=  2.28D-06  NBF=   230
 NBsUse=   230 1.00D-06 EigRej= -1.00D+00 NBFU=   230
 ExpMin= 4.38D-02 ExpMax= 5.48D+03 ExpMxC= 8.25D+02 IAcc=2 IRadAn=         4 AccDes= 0.00D+00
 Harris functional with IExCor=20419 and IRadAn=       4 diagonalized for initial guess.
 HarFok:  IExCor=20419 AccDes= 0.00D+00 IRadAn=         4 IDoV= 1 UseB2=F ITyADJ=14
 ICtDFT=  3500011 ScaDFX=  1.000000  1.000000  1.000000  1.000000
 FoFCou: FMM=F IPFlag=           0 FMFlag=      100000 FMFlg1=           0
         NFxFlg=           0 DoJE=T BraDBF=F KetDBF=T FulRan=T
         wScrn=  0.000000 ICntrl=     500 IOpCl=  0 I1Cent=   200000004 NGrid=           0
         NMat0=    1 NMatS0=      1 NMatT0=    0 NMatD0=    1 NMtDS0=    0 NMtDT0=    0
 Petite list used in FoFCou.
 Keep R1 ints in memory in canonical form, NReq=712071980.
 Requested convergence on RMS density matrix=1.00D-08 within 128 cycles.
 Requested convergence on MAX density matrix=1.00D-06.
 Requested convergence on             energy=1.00D-06.
 No special actions if energy rises.
 SCF Done:  E(RCAM-B3LYP) =  -476.362615858     A.U. after   16 cycles
            NFock= 16  Conv=0.33D-08     -V/T= 2.0094

 **********************************************************************

            Population analysis using the SCF density.

 **********************************************************************

 Orbital symmetries:
       Occupied  (A) (A) (A) (A) (A) (A) (A) (A) (A) (A) (A) (A)
                 (A) (A) (A) (A) (A) (A) (A) (A) (A) (A) (A) (A)
                 (A) (A) (A) (A) (A) (A) (A) (A) (A) (A) (A) (A)
       Virtual   (A) (A) (A) (A) (A) (A) (A) (A) (A) (A) (A) (A)
                 (A) (A) (A) (A) (A) (A) (A) (A) (A) (A) (A) (A)
                 (A) (A) (A) (A) (A) (A) (A) (A) (A) (A) (A) (A)
                 (A) (A) (A) (A) (A) (A) (A) (A) (A) (A) (A) (A)
                 (A) (A) (A) (A) (A) (A) (A) (A) (A) (A) (A) (A)
                 (A) (A) (A) (A) (A) (A) (A) (A) (A) (A) (A) (A)
                 (A) (A) (A) (A) (A) (A) (A) (A) (A) (A) (A) (A)
                 (A) (A) (A) (A) (A) (A) (A) (A) (A) (A) (A) (A)
                 (A) (A) (A) (A) (A) (A) (A) (A) (A) (A) (A) (A)
                 (A) (A) (A) (A) (A) (A) (A) (A) (A) (A) (A) (A)
                 (A) (A) (A) (A) (A) (A) (A) (A) (A) (A) (A) (A)
                 (A) (A) (A) (A) (A) (A) (A) (A) (A) (A) (A) (A)
                 (A) (A) (A) (A) (A) (A) (A) (A) (A) (A) (A) (A)
                 (A) (A) (A) (A) (A) (A) (A) (A) (A) (A) (A) (A)
                 (A) (A) (A) (A) (A) (A) (A) (A) (A) (A) (A) (A)
                 (A) (A) (A) (A) (A) (A) (A) (A) (A) (A) (A) (A)
                 (A) (A)
 The electronic state is 1-A.
 Alpha  occ. eigenvalues --  -19.44894 -19.40476 -14.70164 -10.59042 -10.50957
 Alpha  occ. eigenvalues --  -10.46781 -10.45206 -10.44550 -10.44401 -10.43502
 Alpha  occ. eigenvalues --   -1.37416  -1.28726  -1.25563  -1.12078  -1.03007
 Alpha  occ. eigenvalues --   -1.00571  -0.91712  -0.88438  -0.85328  -0.82698
 Alpha  occ. eigenvalues --   -0.81106  -0.78331  -0.75454  -0.73866  -0.70349
 Alpha  occ. eigenvalues --   -0.69700  -0.68323  -0.67603  -0.63691  -0.61321
 Alpha  occ. eigenvalues --   -0.60522  -0.59052  -0.56523  -0.53399  -0.48900
 Alpha  occ. eigenvalues --   -0.48768
 Alpha virt. eigenvalues --   -0.18407  -0.14415  -0.13469  -0.08785  -0.08172
 Alpha virt. eigenvalues --   -0.07301  -0.06623  -0.06325  -0.05310  -0.04556
 Alpha virt. eigenvalues --   -0.03192  -0.02981  -0.01992  -0.01425  -0.00580
 Alpha virt. eigenvalues --   -0.00018   0.01688   0.01922   0.02984   0.03625
 Alpha virt. eigenvalues --    0.03866   0.04157   0.04905   0.05971   0.06923
 Alpha virt. eigenvalues --    0.07609   0.07767   0.08452   0.08676   0.09378
 Alpha virt. eigenvalues --    0.09710   0.10113   0.10775   0.11758   0.11822
 Alpha virt. eigenvalues --    0.12452   0.13398   0.14259   0.14354   0.15747
 Alpha virt. eigenvalues --    0.16056   0.16373   0.16773   0.18080   0.18504
 Alpha virt. eigenvalues --    0.19701   0.19835   0.20658   0.21889   0.22828
 Alpha virt. eigenvalues --    0.24473   0.25022   0.26238   0.27206   0.28654
 Alpha virt. eigenvalues --    0.30774   0.33292   0.35249   0.38060   0.39564
 Alpha virt. eigenvalues --    0.48167   0.51512   0.54451   0.55445   0.57617
 Alpha virt. eigenvalues --    0.58960   0.61261   0.62079   0.63329   0.63370
 Alpha virt. eigenvalues --    0.64116   0.66861   0.67216   0.70752   0.70895
 Alpha virt. eigenvalues --    0.71663   0.74178   0.75884   0.77410   0.81077
 Alpha virt. eigenvalues --    0.83565   0.84282   0.85072   0.85821   0.88940
 Alpha virt. eigenvalues --    0.91402   0.94235   0.94882   0.99562   1.01355
 Alpha virt. eigenvalues --    1.01964   1.03713   1.05562   1.05848   1.08057
 Alpha virt. eigenvalues --    1.10325   1.10450   1.13497   1.14249   1.17063
 Alpha virt. eigenvalues --    1.17076   1.20206   1.22146   1.22734   1.25285
 Alpha virt. eigenvalues --    1.27350   1.27817   1.28071   1.30962   1.31002
 Alpha virt. eigenvalues --    1.31931   1.34273   1.39888   1.48125   1.49061
 Alpha virt. eigenvalues --    1.56995   1.58799   1.61077   1.62611   1.66464
 Alpha virt. eigenvalues --    1.69260   1.70776   1.73053   1.74730   1.76978
 Alpha virt. eigenvalues --    1.79915   1.82780   1.85243   1.87956   1.88515
 Alpha virt. eigenvalues --    1.90974   1.91702   1.92407   1.93050   1.96212
 Alpha virt. eigenvalues --    1.99756   2.00992   2.09022   2.09348   2.16971
 Alpha virt. eigenvalues --    2.19218   2.19622   2.23897   2.26085   2.28748
 Alpha virt. eigenvalues --    2.28981   2.31531   2.32477   2.33472   2.33985
 Alpha virt. eigenvalues --    2.40120   2.41751   2.42879   2.45121   2.47630
 Alpha virt. eigenvalues --    2.49746   2.51185   2.52990   2.54314   2.56843
 Alpha virt. eigenvalues --    2.59330   2.62363   2.64912   2.66638   2.70040
 Alpha virt. eigenvalues --    2.72573   2.78026   2.78061   2.82556   2.87493
 Alpha virt. eigenvalues --    2.96332   2.99968   3.06684   3.08941   3.15321
 Alpha virt. eigenvalues --    3.19235   3.20363   3.24460   3.25123   3.28783
 Alpha virt. eigenvalues --    3.39856   3.41065   3.47467   3.77001   4.11718
 Alpha virt. eigenvalues --    4.16928   4.19999   4.21646   4.26802   4.37417
 Alpha virt. eigenvalues --    4.39171   4.45989   4.70942   4.75652
          Condensed to atoms (all electrons):
               1          2          3          4          5          6
     1  C    6.847009   0.257112   0.701006  -0.703969   0.038700  -1.472000
     2  C    0.257112   5.708946  -0.707019   1.210063  -1.209348   0.961605
     3  C    0.701006  -0.707019  12.653103  -3.518924  -1.024853  -3.051884
     4  C   -0.703969   1.210063  -3.518924  18.026073  -4.156504  -3.231741
     5  C    0.038700  -1.209348  -1.024853  -4.156504  12.442344  -1.266496
     6  C   -1.472000   0.961605  -3.051884  -3.231741  -1.266496  15.105039
     7  C   -0.153540  -0.131064   0.418765  -0.571390  -0.059085  -0.311490
     8  O    0.099165  -0.005898   0.034620   0.027687  -0.039195  -0.143849
     9  N   -0.031866  -0.003533  -0.662593   0.064533   0.358842   0.178810
    10  O    0.042546  -0.010039   0.082377  -0.129789  -0.024626  -0.107377
    11  H    0.252335   0.006878   0.005458  -0.002254   0.014518   0.051485
    12  H    0.042769   0.249281   0.049680  -0.038651   0.023488  -0.000694
    13  H    0.017535   0.044995   0.369507  -0.055686  -0.031884  -0.030849
    14  H    0.047036  -0.015952   0.026974   0.041585   0.066518   0.163902
    15  H   -0.005730  -0.000153   0.002047  -0.012696   0.023993   0.006634
    16  H    0.000627  -0.005012  -0.002799  -0.042146   0.026013   0.003048
    17  H    0.003580  -0.003970   0.157482   0.070925  -0.192001  -0.060897
    18  H    0.000606  -0.004994  -0.002974  -0.042066   0.025980   0.003147
               7          8          9         10         11         12
     1  C   -0.153540   0.099165  -0.031866   0.042546   0.252335   0.042769
     2  C   -0.131064  -0.005898  -0.003533  -0.010039   0.006878   0.249281
     3  C    0.418765   0.034620  -0.662593   0.082377   0.005458   0.049680
     4  C   -0.571390   0.027687   0.064533  -0.129789  -0.002254  -0.038651
     5  C   -0.059085  -0.039195   0.358842  -0.024626   0.014518   0.023488
     6  C   -0.311490  -0.143849   0.178810  -0.107377   0.051485  -0.000694
     7  C    5.602832   0.138522  -0.092278   0.344004  -0.000039   0.001676
     8  O    0.138522   8.276027  -0.012967  -0.148317   0.000112   0.000005
     9  N   -0.092278  -0.012967   7.112761  -0.052924   0.000089  -0.000256
    10  O    0.344004  -0.148317  -0.052924   8.394910   0.000022  -0.000003
    11  H   -0.000039   0.000112   0.000089   0.000022   0.494980  -0.004149
    12  H    0.001676   0.000005  -0.000256  -0.000003  -0.004149   0.495413
    13  H    0.003732   0.000006   0.004646   0.000099  -0.000125  -0.004252
    14  H   -0.013517   0.003440  -0.001232   0.000009  -0.004161  -0.000123
    15  H    0.014564   0.212606   0.000706   0.000415  -0.000000   0.000000
    16  H    0.001526   0.000163   0.312924   0.001506   0.000000  -0.000002
    17  H    0.028304   0.003285   0.192212   0.090076  -0.000000   0.000001
    18  H    0.001520   0.000163   0.312926   0.001492   0.000000  -0.000002
              13         14         15         16         17         18
     1  C    0.017535   0.047036  -0.005730   0.000627   0.003580   0.000606
     2  C    0.044995  -0.015952  -0.000153  -0.005012  -0.003970  -0.004994
     3  C    0.369507   0.026974   0.002047  -0.002799   0.157482  -0.002974
     4  C   -0.055686   0.041585  -0.012696  -0.042146   0.070925  -0.042066
     5  C   -0.031884   0.066518   0.023993   0.026013  -0.192001   0.025980
     6  C   -0.030849   0.163902   0.006634   0.003048  -0.060897   0.003147
     7  C    0.003732  -0.013517   0.014564   0.001526   0.028304   0.001520
     8  O    0.000006   0.003440   0.212606   0.000163   0.003285   0.000163
     9  N    0.004646  -0.001232   0.000706   0.312924   0.192212   0.312926
    10  O    0.000099   0.000009   0.000415   0.001506   0.090076   0.001492
    11  H   -0.000125  -0.004161  -0.000000   0.000000  -0.000000   0.000000
    12  H   -0.004252  -0.000123   0.000000  -0.000002   0.000001  -0.000002
    13  H    0.508496   0.000010  -0.000000   0.000266   0.000065   0.000263
    14  H    0.000010   0.484452   0.000049   0.000002   0.000007   0.000002
    15  H   -0.000000   0.000049   0.334293  -0.000001  -0.000035  -0.000001
    16  H    0.000266   0.000002  -0.000001   0.326744  -0.009218  -0.023028
    17  H    0.000065   0.000007  -0.000035  -0.009218   0.279977  -0.009236
    18  H    0.000263   0.000002  -0.000001  -0.023028  -0.009236   0.326749
 Mulliken charges:
               1
     1  C    0.017076
     2  C   -0.341898
     3  C    0.470027
     4  C   -0.935051
     5  C    0.983596
     6  C   -0.796393
     7  C    0.776958
     8  O   -0.445575
     9  N   -0.680798
    10  O   -0.484379
    11  H    0.184853
    12  H    0.185819
    13  H    0.173176
    14  H    0.201000
    15  H    0.423309
    16  H    0.409386
    17  H    0.449443
    18  H    0.409451
 Sum of Mulliken charges =   1.00000
 Mulliken charges with hydrogens summed into heavy atoms:
               1
     1  C    0.201929
     2  C   -0.156079
     3  C    0.643203
     4  C   -0.935051
     5  C    0.983596
     6  C   -0.595393
     7  C    0.776958
     8  O   -0.022266
     9  N    0.587483
    10  O   -0.484379
 Electronic spatial extent (au):  <R**2>=           1376.0564
 Charge=              1.0000 electrons
 Dipole moment (field-independent basis, Debye):
    X=              1.1775    Y=              4.2938    Z=              0.0005  Tot=              4.4524
 Quadrupole moment (field-independent basis, Debye-Ang):
   XX=            -36.5928   YY=            -28.9565   ZZ=            -56.8012
   XY=              3.6337   XZ=              0.0007   YZ=             -0.0013
 Traceless Quadrupole moment (field-independent basis, Debye-Ang):
   XX=              4.1907   YY=             11.8270   ZZ=            -16.0177
   XY=              3.6337   XZ=              0.0007   YZ=             -0.0013
 Octapole moment (field-independent basis, Debye-Ang**2):
  XXX=            -11.0329  YYY=             51.1411  ZZZ=              0.0043  XYY=             -0.4472
  XXY=            -26.0622  XXZ=             -0.0125  XZZ=            -11.2926  YZZ=              9.7988
  YYZ=              0.0047  XYZ=             -0.0078
 Hexadecapole moment (field-independent basis, Debye-Ang**3):
 XXXX=           -802.7657 YYYY=           -409.3581 ZZZZ=            -62.5373 XXXY=             85.9542
 XXXZ=              0.0243 YYYX=             -7.9627 YYYZ=             -0.0146 ZZZX=              0.0014
 ZZZY=              0.0175 XXYY=           -228.5167 XXZZ=           -200.3311 YYZZ=            -98.8219
 XXYZ=             -0.0097 YYXZ=             -0.0045 ZZXY=              3.2730
 N-N= 5.141494042386D+02 E-N=-2.125113856357D+03  KE= 4.719366505875D+02
 Calling FoFJK, ICntrl=      2127 FMM=F ISym2X=0 I1Cent= 0 IOpClX= 0 NMat=1 NMatS=1 NMatT=0.
 ***** Axes restored to original set *****
 -------------------------------------------------------------------
 Center     Atomic                   Forces (Hartrees/Bohr)
 Number     Number              X              Y              Z
 -------------------------------------------------------------------
      1        6           0.002047766    0.004861722   -0.000001402
      2        6           0.005570090   -0.000281914   -0.000002418
      3        6           0.002922452   -0.004142653    0.000000791
      4        6          -0.000029391   -0.001693188   -0.000003714
      5        6          -0.005016589    0.000264255   -0.000001725
      6        6          -0.000650434    0.005279713    0.000016395
      7        6           0.005613129    0.001174784   -0.000001587
      8        8          -0.002267944    0.007716404   -0.000009500
      9        7          -0.000838845   -0.003285292   -0.000044506
     10        8          -0.006442872   -0.008545029    0.000008912
     11        1           0.000356306    0.000545630    0.000005349
     12        1           0.000614429   -0.000067303    0.000001319
     13        1           0.000389691   -0.000484076   -0.000007990
     14        1           0.000030245    0.000411544   -0.000007803
     15        1          -0.001254394   -0.000083875    0.000000955
     16        1           0.000074456   -0.000938411   -0.000446129
     17        1          -0.001167515    0.000200356    0.000024003
     18        1           0.000049422   -0.000932667    0.000469048
 -------------------------------------------------------------------
 Cartesian Forces:  Max     0.008545029 RMS     0.002621725

 GradGradGradGradGradGradGradGradGradGradGradGradGradGradGradGradGradGrad
 Berny optimization.
 FormGI is forming the generalized inverse of G from B-inverse, IUseBI=4.
 Internal  Forces:  Max     0.010677562 RMS     0.002498929
 Search for a local minimum.
 Step number   1 out of a maximum of   92
 All quantities printed in internal units (Hartrees-Bohrs-Radians)
 Mixed Optimization -- RFO/linear search
 Second derivative matrix not updated -- first step.
 ITU=  0
     Eigenvalues ---    0.00579   0.00947   0.01524   0.01526   0.01687
     Eigenvalues ---    0.02028   0.02099   0.02114   0.02128   0.02148
     Eigenvalues ---    0.02162   0.02199   0.02704   0.06966   0.07701
     Eigenvalues ---    0.16000   0.16000   0.16000   0.16000   0.16000
     Eigenvalues ---    0.16000   0.16000   0.16000   0.22000   0.22493
     Eigenvalues ---    0.24483   0.25000   0.25000   0.25000   0.25000
     Eigenvalues ---    0.33860   0.34098   0.35211   0.35405   0.35433
     Eigenvalues ---    0.35552   0.36648   0.41342   0.42050   0.43548
     Eigenvalues ---    0.43552   0.45139   0.45398   0.46203   0.47508
     Eigenvalues ---    0.52365   0.61066   0.88403
 RFO step:  Lambda=-1.02317047D-03 EMin= 5.78597264D-03
 Linear search not attempted -- first point.
 Iteration  1 RMS(Cart)=  0.01514797 RMS(Int)=  0.00002165
 Iteration  2 RMS(Cart)=  0.00004218 RMS(Int)=  0.00000229
 Iteration  3 RMS(Cart)=  0.00000000 RMS(Int)=  0.00000229
 Variable       Old X    -DE/DX   Delta X   Delta X   Delta X     New X
                                 (Linear)    (Quad)   (Total)
    R1        2.63859  -0.00573   0.00000  -0.01213  -0.01214   2.62645
    R2        2.63584  -0.00532   0.00000  -0.01132  -0.01132   2.62452
    R3        2.04978  -0.00065   0.00000  -0.00183  -0.00183   2.04795
    R4        2.64514  -0.00559   0.00000  -0.01211  -0.01211   2.63303
    R5        2.05022  -0.00062   0.00000  -0.00173  -0.00173   2.04849
    R6        2.61948  -0.00657   0.00000  -0.01376  -0.01376   2.60572
    R7        2.05334  -0.00061   0.00000  -0.00173  -0.00173   2.05160
    R8        2.66148  -0.00814   0.00000  -0.01858  -0.01857   2.64291
    R9        2.80464  -0.00522   0.00000  -0.01525  -0.01525   2.78939
   R10        2.65163  -0.00773   0.00000  -0.01721  -0.01721   2.63442
   R11        2.80867  -0.00435   0.00000  -0.01282  -0.01282   2.79585
   R12        2.04788  -0.00034   0.00000  -0.00096  -0.00096   2.04692
   R13        2.50106  -0.00840   0.00000  -0.01374  -0.01374   2.48732
   R14        2.33678  -0.01068   0.00000  -0.01206  -0.01206   2.32471
   R15        1.84251  -0.00126   0.00000  -0.00240  -0.00240   1.84011
   R16        1.93695  -0.00090   0.00000  -0.00205  -0.00205   1.93489
   R17        2.03080  -0.00118   0.00000  -0.00320  -0.00320   2.02760
   R18        1.93700  -0.00091   0.00000  -0.00208  -0.00208   1.93492
    A1        2.09921  -0.00011   0.00000   0.00031   0.00031   2.09952
    A2        2.09521   0.00008   0.00000   0.00002   0.00002   2.09523
    A3        2.08876   0.00003   0.00000  -0.00033  -0.00033   2.08844
    A4        2.09869   0.00008   0.00000   0.00121   0.00120   2.09989
    A5        2.09996  -0.00010   0.00000  -0.00096  -0.00096   2.09900
    A6        2.08454   0.00002   0.00000  -0.00025  -0.00025   2.08429
    A7        2.07513  -0.00075   0.00000  -0.00324  -0.00324   2.07188
    A8        2.09974   0.00048   0.00000   0.00228   0.00229   2.10202
    A9        2.10832   0.00027   0.00000   0.00096   0.00096   2.10928
   A10        2.13052   0.00033   0.00000   0.00082   0.00083   2.13134
   A11        2.08684   0.00102   0.00000   0.00430   0.00429   2.09114
   A12        2.06582  -0.00134   0.00000  -0.00512  -0.00512   2.06071
   A13        2.06006   0.00141   0.00000   0.00508   0.00509   2.06515
   A14        2.10386  -0.00189   0.00000  -0.00727  -0.00727   2.09659
   A15        2.11926   0.00048   0.00000   0.00219   0.00219   2.12145
   A16        2.10276  -0.00095   0.00000  -0.00418  -0.00418   2.09858
   A17        2.10251   0.00071   0.00000   0.00354   0.00354   2.10605
   A18        2.07791   0.00024   0.00000   0.00064   0.00064   2.07855
   A19        1.99903   0.00053   0.00000   0.00212   0.00212   2.00116
   A20        2.14860  -0.00112   0.00000  -0.00445  -0.00445   2.14416
   A21        2.13555   0.00058   0.00000   0.00232   0.00232   2.13787
   A22        1.91196  -0.00004   0.00000  -0.00028  -0.00028   1.91168
   A23        1.95672  -0.00047   0.00000  -0.00278  -0.00278   1.95394
   A24        1.83793  -0.00006   0.00000  -0.00071  -0.00071   1.83722
   A25        1.95651  -0.00047   0.00000  -0.00268  -0.00268   1.95383
   A26        1.91360   0.00017   0.00000   0.00068   0.00067   1.91427
   A27        1.88576   0.00062   0.00000   0.00440   0.00440   1.89016
   A28        1.91283   0.00020   0.00000   0.00104   0.00103   1.91387
    D1        0.00015  -0.00000   0.00000  -0.00007  -0.00007   0.00008
    D2       -3.14149  -0.00000   0.00000  -0.00003  -0.00003  -3.14153
    D3       -3.14145  -0.00000   0.00000  -0.00007  -0.00007  -3.14153
    D4        0.00009  -0.00000   0.00000  -0.00004  -0.00004   0.00005
    D5       -0.00016   0.00000   0.00000   0.00009   0.00009  -0.00007
    D6        3.14129   0.00000   0.00000   0.00019   0.00019   3.14148
    D7        3.14144   0.00000   0.00000   0.00010   0.00010   3.14154
    D8       -0.00029   0.00000   0.00000   0.00020   0.00020  -0.00010
    D9        0.00004  -0.00000   0.00000  -0.00005  -0.00005  -0.00001
   D10       -3.14151  -0.00000   0.00000  -0.00008  -0.00008  -3.14159
   D11       -3.14151  -0.00000   0.00000  -0.00008  -0.00008  -3.14159
   D12        0.00013  -0.00000   0.00000  -0.00011  -0.00011   0.00002
   D13       -0.00021   0.00000   0.00000   0.00014   0.00014  -0.00007
   D14        3.14122   0.00000   0.00000   0.00021   0.00021   3.14142
   D15        3.14134   0.00000   0.00000   0.00017   0.00017   3.14151
   D16       -0.00042   0.00001   0.00000   0.00024   0.00024  -0.00018
   D17        0.00020  -0.00000   0.00000  -0.00012  -0.00012   0.00008
   D18       -3.14135  -0.00000   0.00000  -0.00008  -0.00008  -3.14143
   D19       -3.14123  -0.00000   0.00000  -0.00019  -0.00019  -3.14142
   D20        0.00040  -0.00000   0.00000  -0.00014  -0.00014   0.00026
   D21        1.06144   0.00007   0.00000   0.00115   0.00115   1.06259
   D22        3.14129  -0.00001   0.00000   0.00002   0.00002   3.14132
   D23       -1.06309  -0.00005   0.00000  -0.00061  -0.00061  -1.06370
   D24       -2.08031   0.00007   0.00000   0.00121   0.00121  -2.07910
   D25       -0.00046  -0.00001   0.00000   0.00009   0.00009  -0.00037
   D26        2.07835  -0.00005   0.00000  -0.00054  -0.00054   2.07780
   D27       -0.00001   0.00000   0.00000   0.00000   0.00000  -0.00000
   D28       -3.14146  -0.00000   0.00000  -0.00010  -0.00010  -3.14156
   D29        3.14154  -0.00000   0.00000  -0.00004  -0.00004   3.14150
   D30        0.00009  -0.00000   0.00000  -0.00014  -0.00014  -0.00005
   D31        3.14098   0.00001   0.00000   0.00054   0.00054   3.14152
   D32       -0.00058   0.00001   0.00000   0.00056   0.00057  -0.00001
   D33       -0.00057   0.00001   0.00000   0.00058   0.00058   0.00001
   D34        3.14106   0.00001   0.00000   0.00061   0.00061  -3.14152
   D35        3.14154   0.00000   0.00000   0.00004   0.00004   3.14158
   D36       -0.00009   0.00000   0.00000   0.00002   0.00002  -0.00008
         Item               Value     Threshold  Converged?
 Maximum Force            0.010678     0.000450     NO 
 RMS     Force            0.002499     0.000300     NO 
 Maximum Displacement     0.053296     0.001800     NO 
 RMS     Displacement     0.015145     0.001200     NO 
 Predicted change in Energy=-5.127564D-04
 GradGradGradGradGradGradGradGradGradGradGradGradGradGradGradGradGradGrad

                          Input orientation:                          
 ---------------------------------------------------------------------
 Center     Atomic      Atomic             Coordinates (Angstroms)
 Number     Number       Type             X           Y           Z
 ---------------------------------------------------------------------
      1          6           0       -1.933452   -1.467896   -0.000141
      2          6           0       -2.612730   -0.255345    0.000052
      3          6           0       -1.907082    0.946092    0.000142
      4          6           0       -0.528814    0.904773    0.000047
      5          6           0        0.178903   -0.301514   -0.000054
      6          6           0       -0.544840   -1.493002   -0.000150
      7          6           0        1.658388   -0.294433    0.000053
      8          8           0        2.213239   -1.488004    0.000031
      9          7           0        0.243107    2.162930   -0.000076
     10          8           0        2.320758    0.742206    0.000218
     11          1           0       -2.486649   -2.399797   -0.000271
     12          1           0       -3.696577   -0.236312    0.000121
     13          1           0       -2.435669    1.894384    0.000296
     14          1           0       -0.009284   -2.434525   -0.000196
     15          1           0        3.182662   -1.396348    0.000091
     16          1           0        0.049450    2.730902    0.829549
     17          1           0        1.273119    1.862403    0.000153
     18          1           0        0.050036    2.730259   -0.830295
 ---------------------------------------------------------------------
                    Distance matrix (angstroms):
                    1          2          3          4          5
     1  C    0.000000
     2  C    1.389856   0.000000
     3  C    2.414132   1.393338   0.000000
     4  C    2.757275   2.385074   1.378887   0.000000
     5  C    2.412984   2.792015   2.430608   1.398568   0.000000
     6  C    1.388839   2.409972   2.793722   2.397828   1.394076
     7  C    3.778667   4.271297   3.775112   2.494383   1.479501
     8  O    4.146740   4.980906   4.785589   3.639263   2.355054
     9  N    4.233239   3.742173   2.470629   1.476084   2.465281
    10  O    4.794044   5.033330   4.232753   2.854205   2.382624
    11  H    1.083728   2.148156   3.395714   3.841003   3.392339
    12  H    2.150677   1.084014   2.144848   3.367016   3.876029
    13  H    3.399581   2.157009   1.085662   2.148355   3.414375
    14  H    2.153322   3.395108   3.876881   3.379471   2.141296
    15  H    5.116614   5.906645   5.602902   4.366945   3.197065
    16  H    4.717011   4.085700   2.775154   2.087394   3.146514
    17  H    4.623093   4.425458   3.309577   2.040593   2.424840
    18  H    4.716766   4.085784   2.775461   2.087327   3.146038
                    6          7          8          9         10
     6  C    0.000000
     7  C    2.508143   0.000000
     8  O    2.758084   1.316234   0.000000
     9  N    3.739880   2.835781   4.148583   0.000000
    10  O    3.634255   1.230185   2.232800   2.516961   0.000000
    11  H    2.143105   4.649074   4.787517   5.316959   5.743113
    12  H    3.393039   5.355280   6.040915   4.612751   6.096378
    13  H    3.879384   4.642437   5.749164   2.692203   4.893987
    14  H    1.083183   2.713139   2.415680   4.604378   3.939635
    15  H    3.728755   1.880858   0.973746   4.616215   2.305709
    16  H    4.345451   3.525535   4.813445   1.023900   3.130741
    17  H    3.816244   2.190976   3.479806   1.072959   1.533750
    18  H    4.344991   3.524916   4.812756   1.023914   3.130221
                   11         12         13         14         15
    11  H    0.000000
    12  H    2.478829   0.000000
    13  H    4.294484   2.475834   0.000000
    14  H    2.477608   4.292816   4.962540   0.000000
    15  H    5.757430   6.976361   6.511110   3.356536   0.000000
    16  H    5.783120   4.850261   2.750134   5.231976   5.247782
    17  H    5.683503   5.394672   3.708926   4.484211   3.777011
    18  H    5.782835   4.850488   2.750872   5.231403   5.247072
                   16         17         18
    16  H    0.000000
    17  H    1.714513   0.000000
    18  H    1.659843   1.714278   0.000000
 Stoichiometry    C7H8NO2(1+)
 Framework group  C1[X(C7H8NO2)]
 Deg. of freedom    48
 Full point group                 C1      NOp   1
 Largest Abelian subgroup         C1      NOp   1
 Largest concise Abelian subgroup C1      NOp   1
                         Standard orientation:                         
 ---------------------------------------------------------------------
 Center     Atomic      Atomic             Coordinates (Angstroms)
 Number     Number       Type             X           Y           Z
 ---------------------------------------------------------------------
      1          6           0        1.938136   -1.459577    0.000149
      2          6           0        2.610840   -0.243367   -0.000043
      3          6           0        1.898697    0.954233   -0.000134
      4          6           0        0.520674    0.905452   -0.000039
      5          6           0       -0.180502   -0.304649    0.000062
      6          6           0        0.549681   -1.492201    0.000159
      7          6           0       -1.660004   -0.305577   -0.000044
      8          8           0       -2.208385   -1.502134   -0.000023
      9          7           0       -0.258047    2.159412    0.000084
     10          8           0       -2.327976    0.727461   -0.000210
     11          1           0        2.496371   -2.388470    0.000279
     12          1           0        3.694568   -0.218466   -0.000112
     13          1           0        2.422143    1.905372   -0.000288
     14          1           0        0.019230   -2.436610    0.000204
     15          1           0       -3.178290   -1.415728   -0.000083
     16          1           0       -0.067468    2.728424   -0.829540
     17          1           0       -1.286417    1.853313   -0.000144
     18          1           0       -0.068051    2.727777    0.830303
 ---------------------------------------------------------------------
 Rotational constants (GHZ):      2.2652183      1.2172596      0.7952401
 Standard basis: 6-31+G(d,p) (6D, 7F)
 There are   230 symmetry adapted cartesian basis functions of A   symmetry.
 There are   230 symmetry adapted basis functions of A   symmetry.
   230 basis functions,   376 primitive gaussians,   230 cartesian basis functions
    36 alpha electrons       36 beta electrons
       nuclear repulsion energy       517.1422621605 Hartrees.
 NAtoms=   18 NActive=   18 NUniq=   18 SFac= 1.00D+00 NAtFMM=   60 NAOKFM=F Big=F
 Integral buffers will be    131072 words long.
 Raffenetti 2 integral format.
 Two-electron integral symmetry is turned on.
 Nuclear repulsion after empirical dispersion term =      517.1270879432 Hartrees.
 One-electron integrals computed using PRISM.
 NBasis=   230 RedAO= T EigKep=  2.19D-06  NBF=   230
 NBsUse=   230 1.00D-06 EigRej= -1.00D+00 NBFU=   230
 Initial guess from the checkpoint file:  "gd3camb3lypAnthranilicyang.chk"
 B after Tr=    -0.000000    0.000000   -0.000000
         Rot=    0.999998    0.000016    0.000008   -0.002223 Ang=   0.25 deg.
 ExpMin= 4.38D-02 ExpMax= 5.48D+03 ExpMxC= 8.25D+02 IAcc=2 IRadAn=         4 AccDes= 0.00D+00
 Harris functional with IExCor=20419 and IRadAn=       4 diagonalized for initial guess.
 HarFok:  IExCor=20419 AccDes= 0.00D+00 IRadAn=         4 IDoV= 1 UseB2=F ITyADJ=14
 ICtDFT=  3500011 ScaDFX=  1.000000  1.000000  1.000000  1.000000
 FoFCou: FMM=F IPFlag=           0 FMFlag=      100000 FMFlg1=           0
         NFxFlg=           0 DoJE=T BraDBF=F KetDBF=T FulRan=T
         wScrn=  0.000000 ICntrl=     500 IOpCl=  0 I1Cent=   200000004 NGrid=           0
         NMat0=    1 NMatS0=      1 NMatT0=    0 NMatD0=    1 NMtDS0=    0 NMtDT0=    0
 Petite list used in FoFCou.
 Keep R1 ints in memory in canonical form, NReq=712071980.
 Requested convergence on RMS density matrix=1.00D-08 within 128 cycles.
 Requested convergence on MAX density matrix=1.00D-06.
 Requested convergence on             energy=1.00D-06.
 No special actions if energy rises.
 SCF Done:  E(RCAM-B3LYP) =  -476.362927970     A.U. after   12 cycles
            NFock= 12  Conv=0.66D-08     -V/T= 2.0089
 Calling FoFJK, ICntrl=      2127 FMM=F ISym2X=0 I1Cent= 0 IOpClX= 0 NMat=1 NMatS=1 NMatT=0.
 ***** Axes restored to original set *****
 -------------------------------------------------------------------
 Center     Atomic                   Forces (Hartrees/Bohr)
 Number     Number              X              Y              Z
 -------------------------------------------------------------------
      1        6          -0.000492123   -0.000629033   -0.000000038
      2        6          -0.000539084    0.000019092   -0.000000331
      3        6          -0.000749652    0.000167891    0.000000933
      4        6           0.001060886    0.002515696   -0.000001695
      5        6          -0.000407205   -0.000334188    0.000000462
      6        6           0.000451826   -0.000920360    0.000002386
      7        6           0.000280844   -0.002963674    0.000004862
      8        8           0.000162362    0.001904746   -0.000003401
      9        7          -0.004538507    0.001884505   -0.000027184
     10        8           0.003498232   -0.001071748   -0.000004749
     11        1          -0.000116190   -0.000068513    0.000002097
     12        1          -0.000136187   -0.000101727   -0.000000402
     13        1          -0.000033347    0.000062848   -0.000002560
     14        1          -0.000082215   -0.000104542   -0.000002020
     15        1           0.000151440   -0.000522316    0.000001406
     16        1          -0.000145759    0.000143221   -0.000230017
     17        1           0.001794648   -0.000129119    0.000018752
     18        1          -0.000159970    0.000147223    0.000241499
 -------------------------------------------------------------------
 Cartesian Forces:  Max     0.004538507 RMS     0.001090011

 GradGradGradGradGradGradGradGradGradGradGradGradGradGradGradGradGradGrad
 Berny optimization.
 Using GEDIIS/GDIIS optimizer.
 FormGI is forming the generalized inverse of G from B-inverse, IUseBI=4.
 Internal  Forces:  Max     0.008074548 RMS     0.001879910
 Search for a local minimum.
 Step number   2 out of a maximum of   92
 All quantities printed in internal units (Hartrees-Bohrs-Radians)
 Mixed Optimization -- RFO/linear search
 Update second derivatives using D2CorX and points    1    2
 DE= -3.12D-04 DEPred=-5.13D-04 R= 6.09D-01
 TightC=F SS=  1.41D+00  RLast= 4.76D-02 DXNew= 5.0454D-01 1.4288D-01
 Trust test= 6.09D-01 RLast= 4.76D-02 DXMaxT set to 3.00D-01
 ITU=  1  0
 Use linear search instead of GDIIS.
     Eigenvalues ---    0.00579   0.00947   0.01525   0.01530   0.01688
     Eigenvalues ---    0.02028   0.02099   0.02114   0.02128   0.02148
     Eigenvalues ---    0.02162   0.02199   0.02704   0.07000   0.07722
     Eigenvalues ---    0.15801   0.16000   0.16000   0.16000   0.16000
     Eigenvalues ---    0.16000   0.16000   0.16037   0.21336   0.22008
     Eigenvalues ---    0.22818   0.24652   0.25000   0.25000   0.25038
     Eigenvalues ---    0.33577   0.35184   0.35353   0.35420   0.35543
     Eigenvalues ---    0.35810   0.36815   0.40842   0.41937   0.43549
     Eigenvalues ---    0.43560   0.45074   0.46199   0.46906   0.52329
     Eigenvalues ---    0.58655   0.72459   0.92674
 RFO step:  Lambda=-4.56459576D-04 EMin= 5.78597488D-03
 Quartic linear search produced a step of -0.28192.
 Iteration  1 RMS(Cart)=  0.02430699 RMS(Int)=  0.00017468
 Iteration  2 RMS(Cart)=  0.00024080 RMS(Int)=  0.00000118
 Iteration  3 RMS(Cart)=  0.00000001 RMS(Int)=  0.00000118
 Variable       Old X    -DE/DX   Delta X   Delta X   Delta X     New X
                                 (Linear)    (Quad)   (Total)
    R1        2.62645  -0.00031   0.00342  -0.00973  -0.00630   2.62014
    R2        2.62452   0.00040   0.00319  -0.00788  -0.00469   2.61984
    R3        2.04795   0.00012   0.00052  -0.00111  -0.00060   2.04735
    R4        2.63303   0.00030   0.00341  -0.00859  -0.00518   2.62785
    R5        2.04849   0.00013   0.00049  -0.00101  -0.00052   2.04797
    R6        2.60572   0.00166   0.00388  -0.00746  -0.00358   2.60214
    R7        2.05160   0.00007   0.00049  -0.00114  -0.00065   2.05096
    R8        2.64291   0.00611   0.00524  -0.00342   0.00181   2.64472
    R9        2.78939   0.00015   0.00430  -0.01095  -0.00665   2.78274
   R10        2.63442   0.00170   0.00485  -0.00979  -0.00494   2.62948
   R11        2.79585   0.00408   0.00361  -0.00084   0.00278   2.79863
   R12        2.04692   0.00005   0.00027  -0.00061  -0.00034   2.04658
   R13        2.48732  -0.00112   0.00387  -0.01138  -0.00751   2.47981
   R14        2.32471   0.00098   0.00340  -0.00802  -0.00462   2.32010
   R15        1.84011   0.00010   0.00068  -0.00162  -0.00095   1.83917
   R16        1.93489  -0.00008   0.00058  -0.00164  -0.00106   1.93383
   R17        2.02760   0.00176   0.00090   0.00108   0.00198   2.02958
   R18        1.93492  -0.00008   0.00059  -0.00167  -0.00108   1.93384
    A1        2.09952   0.00005  -0.00009  -0.00083  -0.00091   2.09861
    A2        2.09523  -0.00009  -0.00001   0.00024   0.00023   2.09546
    A3        2.08844   0.00004   0.00009   0.00059   0.00068   2.08911
    A4        2.09989   0.00012  -0.00034   0.00008  -0.00025   2.09964
    A5        2.09900  -0.00016   0.00027  -0.00078  -0.00051   2.09849
    A6        2.08429   0.00005   0.00007   0.00069   0.00076   2.08506
    A7        2.07188   0.00151   0.00091   0.00235   0.00327   2.07515
    A8        2.10202  -0.00075  -0.00064  -0.00066  -0.00131   2.10071
    A9        2.10928  -0.00076  -0.00027  -0.00169  -0.00196   2.10732
   A10        2.13134  -0.00162  -0.00023  -0.00328  -0.00352   2.12782
   A11        2.09114  -0.00479  -0.00121  -0.01092  -0.01213   2.07901
   A12        2.06071   0.00642   0.00144   0.01420   0.01565   2.07635
   A13        2.06515  -0.00163  -0.00143  -0.00013  -0.00157   2.06359
   A14        2.09659   0.00807   0.00205   0.01735   0.01940   2.11599
   A15        2.12145  -0.00644  -0.00062  -0.01722  -0.01783   2.10361
   A16        2.09858   0.00157   0.00118   0.00180   0.00298   2.10156
   A17        2.10605  -0.00091  -0.00100  -0.00038  -0.00137   2.10468
   A18        2.07855  -0.00066  -0.00018  -0.00143  -0.00161   2.07694
   A19        2.00116  -0.00196  -0.00060  -0.00402  -0.00462   1.99653
   A20        2.14416   0.00508   0.00125   0.01124   0.01249   2.15665
   A21        2.13787  -0.00312  -0.00065  -0.00722  -0.00787   2.13000
   A22        1.91168   0.00099   0.00008   0.00420   0.00428   1.91596
   A23        1.95394  -0.00005   0.00078  -0.00277  -0.00199   1.95195
   A24        1.83722   0.00064   0.00020   0.00310   0.00330   1.84052
   A25        1.95383  -0.00005   0.00076  -0.00263  -0.00188   1.95195
   A26        1.91427  -0.00014  -0.00019   0.00061   0.00043   1.91470
   A27        1.89016  -0.00027  -0.00124   0.00075  -0.00049   1.88967
   A28        1.91387  -0.00012  -0.00029   0.00108   0.00079   1.91465
    D1        0.00008  -0.00000   0.00002  -0.00011  -0.00009  -0.00001
    D2       -3.14153  -0.00000   0.00001  -0.00006  -0.00005  -3.14158
    D3       -3.14153  -0.00000   0.00002  -0.00010  -0.00008   3.14158
    D4        0.00005  -0.00000   0.00001  -0.00005  -0.00004   0.00001
    D5       -0.00007   0.00000  -0.00003   0.00012   0.00010   0.00002
    D6        3.14148   0.00000  -0.00005   0.00025   0.00019  -3.14151
    D7        3.14154   0.00000  -0.00003   0.00011   0.00009  -3.14156
    D8       -0.00010   0.00000  -0.00006   0.00024   0.00018   0.00009
    D9       -0.00001  -0.00000   0.00001  -0.00004  -0.00003  -0.00004
   D10       -3.14159   0.00000   0.00002  -0.00005  -0.00003   3.14156
   D11       -3.14159  -0.00000   0.00002  -0.00009  -0.00007   3.14153
   D12        0.00002  -0.00000   0.00003  -0.00010  -0.00007  -0.00006
   D13       -0.00007   0.00000  -0.00004   0.00019   0.00015   0.00007
   D14        3.14142   0.00000  -0.00006   0.00032   0.00027  -3.14150
   D15        3.14151   0.00000  -0.00005   0.00020   0.00015  -3.14153
   D16       -0.00018   0.00000  -0.00007   0.00034   0.00027   0.00009
   D17        0.00008  -0.00000   0.00003  -0.00017  -0.00014  -0.00006
   D18       -3.14143  -0.00000   0.00002  -0.00017  -0.00014  -3.14158
   D19       -3.14142  -0.00000   0.00005  -0.00031  -0.00026   3.14151
   D20        0.00026  -0.00000   0.00004  -0.00030  -0.00026  -0.00000
   D21        1.06259  -0.00021  -0.00032  -0.00118  -0.00150   1.06109
   D22        3.14132  -0.00001  -0.00001  -0.00002  -0.00003   3.14129
   D23       -1.06370   0.00022   0.00017   0.00176   0.00193  -1.06176
   D24       -2.07910  -0.00021  -0.00034  -0.00104  -0.00138  -2.08048
   D25       -0.00037  -0.00001  -0.00002   0.00011   0.00009  -0.00028
   D26        2.07780   0.00022   0.00015   0.00190   0.00205   2.07985
   D27       -0.00000   0.00000  -0.00000   0.00002   0.00002   0.00001
   D28       -3.14156  -0.00000   0.00003  -0.00011  -0.00008   3.14155
   D29        3.14150   0.00000   0.00001   0.00001   0.00002   3.14153
   D30       -0.00005   0.00000   0.00004  -0.00011  -0.00007  -0.00013
   D31        3.14152   0.00000  -0.00015   0.00069   0.00054  -3.14113
   D32       -0.00001  -0.00000  -0.00016   0.00053   0.00037   0.00036
   D33        0.00001   0.00000  -0.00016   0.00070   0.00053   0.00055
   D34       -3.14152  -0.00000  -0.00017   0.00053   0.00036  -3.14115
   D35        3.14158  -0.00000  -0.00001  -0.00002  -0.00003   3.14154
   D36       -0.00008   0.00000  -0.00000   0.00014   0.00013   0.00005
         Item               Value     Threshold  Converged?
 Maximum Force            0.008075     0.000450     NO 
 RMS     Force            0.001880     0.000300     NO 
 Maximum Displacement     0.092994     0.001800     NO 
 RMS     Displacement     0.024260     0.001200     NO 
 Predicted change in Energy=-2.855045D-04
 GradGradGradGradGradGradGradGradGradGradGradGradGradGradGradGradGradGrad

                          Input orientation:                          
 ---------------------------------------------------------------------
 Center     Atomic      Atomic             Coordinates (Angstroms)
 Number     Number       Type             X           Y           Z
 ---------------------------------------------------------------------
      1          6           0       -1.921078   -1.462981    0.000042
      2          6           0       -2.602378   -0.255393   -0.000059
      3          6           0       -1.901441    0.945628   -0.000131
      4          6           0       -0.524843    0.912675   -0.000058
      5          6           0        0.186398   -0.292653   -0.000002
      6          6           0       -0.534857   -1.482590    0.000056
      7          6           0        1.667260   -0.310567    0.000099
      8          8           0        2.194718   -1.512155   -0.000410
      9          7           0        0.222309    2.181613   -0.000009
     10          8           0        2.358418    0.704151    0.000504
     11          1           0       -2.471077   -2.396406    0.000115
     12          1           0       -3.686011   -0.240192   -0.000055
     13          1           0       -2.433722    1.891459   -0.000237
     14          1           0        0.003018   -2.422584    0.000058
     15          1           0        3.165682   -1.445558   -0.000354
     16          1           0        0.016028    2.744800    0.829140
     17          1           0        1.259548    1.902996    0.000360
     18          1           0        0.016593    2.744528   -0.829489
 ---------------------------------------------------------------------
                    Distance matrix (angstroms):
                    1          2          3          4          5
     1  C    0.000000
     2  C    1.386521   0.000000
     3  C    2.408689   1.390599   0.000000
     4  C    2.755578   2.383387   1.376992   0.000000
     5  C    2.410626   2.789025   2.427428   1.399528   0.000000
     6  C    1.386359   2.404300   2.786359   2.395286   1.391460
     7  C    3.768849   4.269994   3.783338   2.510306   1.480970
     8  O    4.116089   4.958990   4.776946   3.643599   2.349582
     9  N    4.228140   3.730664   2.457228   1.472562   2.474527
    10  O    4.796930   5.052744   4.266697   2.890792   2.389830
    11  H    1.083412   2.145035   3.390233   3.838990   3.389388
    12  H    2.147138   1.083739   2.142630   3.364831   3.872764
    13  H    3.393387   2.153466   1.085320   2.145189   3.411066
    14  H    2.150112   3.388924   3.869343   3.376772   2.137811
    15  H    5.086789   5.889568   5.602991   4.379639   3.194578
    16  H    4.705869   4.067527   2.757063   2.082496   3.153192
    17  H    4.631001   4.424151   3.302787   2.040780   2.443874
    18  H    4.705935   4.067737   2.757304   2.082497   3.152991
                    6          7          8          9         10
     6  C    0.000000
     7  C    2.494585   0.000000
     8  O    2.729735   1.312259   0.000000
     9  N    3.741616   2.880772   4.187400   0.000000
    10  O    3.626689   1.227743   2.222343   2.597279   0.000000
    11  H    2.141029   4.634280   4.748846   5.311552   5.739118
    12  H    3.387229   5.353733   6.016715   4.597837   6.117753
    13  H    3.871679   4.654780   5.745176   2.671832   4.937034
    14  H    1.083004   2.688924   2.373274   4.609416   3.914636
    15  H    3.700725   1.879754   0.973246   4.671169   2.296285
    16  H    4.343004   3.570594   4.853505   1.023337   3.215226
    17  H    3.831720   2.250798   3.540875   1.074008   1.626267
    18  H    4.342899   3.570228   4.852932   1.023342   3.214992
                   11         12         13         14         15
    11  H    0.000000
    12  H    2.474938   0.000000
    13  H    4.288028   2.472279   0.000000
    14  H    2.474233   4.286229   4.954661   0.000000
    15  H    5.716394   6.956910   6.518360   3.310140   0.000000
    16  H    5.771046   4.827301   2.723478   5.233488   5.307304
    17  H    5.692312   5.389972   3.693288   4.504387   3.853071
    18  H    5.771130   4.827607   2.723863   5.233295   5.306699
                   16         17         18
    16  H    0.000000
    17  H    1.715183   0.000000
    18  H    1.658629   1.715157   0.000000
 Stoichiometry    C7H8NO2(1+)
 Framework group  C1[X(C7H8NO2)]
 Deg. of freedom    48
 Full point group                 C1      NOp   1
 Largest Abelian subgroup         C1      NOp   1
 Largest concise Abelian subgroup C1      NOp   1
                         Standard orientation:                         
 ---------------------------------------------------------------------
 Center     Atomic      Atomic             Coordinates (Angstroms)
 Number     Number       Type             X           Y           Z
 ---------------------------------------------------------------------
      1          6           0        1.902745   -1.486710   -0.000043
      2          6           0        2.599740   -0.288112    0.000058
      3          6           0        1.914530    0.921950    0.000130
      4          6           0        0.537620    0.906958    0.000057
      5          6           0       -0.189284   -0.288989    0.000000
      6          6           0        0.516387   -1.488234   -0.000057
      7          6           0       -1.670254   -0.287585   -0.000101
      8          8           0       -2.213342   -1.482189    0.000409
      9          7           0       -0.192915    2.185535    0.000008
     10          8           0       -2.348116    0.736063   -0.000505
     11          1           0        2.440521   -2.427230   -0.000116
     12          1           0        3.683479   -0.287049    0.000053
     13          1           0        2.459105    1.860757    0.000236
     14          1           0       -0.033705   -2.421131   -0.000059
     15          1           0       -3.183355   -1.402931    0.000353
     16          1           0        0.020695    2.745983   -0.829141
     17          1           0       -1.233700    1.920472   -0.000361
     18          1           0        0.020127    2.745718    0.829487
 ---------------------------------------------------------------------
 Rotational constants (GHZ):      2.2510913      1.2178926      0.7937558
 Standard basis: 6-31+G(d,p) (6D, 7F)
 There are   230 symmetry adapted cartesian basis functions of A   symmetry.
 There are   230 symmetry adapted basis functions of A   symmetry.
   230 basis functions,   376 primitive gaussians,   230 cartesian basis functions
    36 alpha electrons       36 beta electrons
       nuclear repulsion energy       516.8296085372 Hartrees.
 NAtoms=   18 NActive=   18 NUniq=   18 SFac= 1.00D+00 NAtFMM=   60 NAOKFM=F Big=F
 Integral buffers will be    131072 words long.
 Raffenetti 2 integral format.
 Two-electron integral symmetry is turned on.
 Nuclear repulsion after empirical dispersion term =      516.8144445931 Hartrees.
 One-electron integrals computed using PRISM.
 NBasis=   230 RedAO= T EigKep=  2.16D-06  NBF=   230
 NBsUse=   230 1.00D-06 EigRej= -1.00D+00 NBFU=   230
 Initial guess from the checkpoint file:  "gd3camb3lypAnthranilicyang.chk"
 B after Tr=     0.000000   -0.000000    0.000000
         Rot=    0.999971    0.000009    0.000001    0.007617 Ang=   0.87 deg.
 ExpMin= 4.38D-02 ExpMax= 5.48D+03 ExpMxC= 8.25D+02 IAcc=2 IRadAn=         4 AccDes= 0.00D+00
 Harris functional with IExCor=20419 and IRadAn=       4 diagonalized for initial guess.
 HarFok:  IExCor=20419 AccDes= 0.00D+00 IRadAn=         4 IDoV= 1 UseB2=F ITyADJ=14
 ICtDFT=  3500011 ScaDFX=  1.000000  1.000000  1.000000  1.000000
 FoFCou: FMM=F IPFlag=           0 FMFlag=      100000 FMFlg1=           0
         NFxFlg=           0 DoJE=T BraDBF=F KetDBF=T FulRan=T
         wScrn=  0.000000 ICntrl=     500 IOpCl=  0 I1Cent=   200000004 NGrid=           0
         NMat0=    1 NMatS0=      1 NMatT0=    0 NMatD0=    1 NMtDS0=    0 NMtDT0=    0
 Petite list used in FoFCou.
 Keep R1 ints in memory in canonical form, NReq=712071980.
 Requested convergence on RMS density matrix=1.00D-08 within 128 cycles.
 Requested convergence on MAX density matrix=1.00D-06.
 Requested convergence on             energy=1.00D-06.
 No special actions if energy rises.
 SCF Done:  E(RCAM-B3LYP) =  -476.362695503     A.U. after   14 cycles
            NFock= 14  Conv=0.62D-08     -V/T= 2.0089
 Calling FoFJK, ICntrl=      2127 FMM=F ISym2X=0 I1Cent= 0 IOpClX= 0 NMat=1 NMatS=1 NMatT=0.
 ***** Axes restored to original set *****
 -------------------------------------------------------------------
 Center     Atomic                   Forces (Hartrees/Bohr)
 Number     Number              X              Y              Z
 -------------------------------------------------------------------
      1        6          -0.001660189   -0.002610602    0.000001358
      2        6          -0.003328055    0.000131688    0.000000837
      3        6          -0.001629320    0.001847696    0.000000000
      4        6           0.000836133   -0.000608097    0.000003203
      5        6           0.001014499    0.000824435    0.000008662
      6        6           0.000618572   -0.002723760   -0.000008812
      7        6           0.000931502    0.001740398   -0.000014347
      8        8           0.001104839   -0.004795906    0.000004440
      9        7           0.007291218   -0.002338366   -0.000003243
     10        8          -0.002825229    0.006187664    0.000002236
     11        1          -0.000226086   -0.000306347   -0.000000588
     12        1          -0.000357520    0.000035186   -0.000001818
     13        1          -0.000294657    0.000389421    0.000001830
     14        1          -0.000088186   -0.000052943    0.000003205
     15        1           0.000221603    0.000084419    0.000001373
     16        1           0.000500856    0.000499113    0.000508852
     17        1          -0.002611112    0.001196272   -0.000000731
     18        1           0.000501130    0.000499727   -0.000506458
 -------------------------------------------------------------------
 Cartesian Forces:  Max     0.007291218 RMS     0.001829160

 GradGradGradGradGradGradGradGradGradGradGradGradGradGradGradGradGradGrad
 Berny optimization.
 Using GEDIIS/GDIIS optimizer.
 FormGI is forming the generalized inverse of G from B-inverse, IUseBI=4.
 Internal  Forces:  Max     0.011389953 RMS     0.002666449
 Search for a local minimum.
 Step number   3 out of a maximum of   92
 All quantities printed in internal units (Hartrees-Bohrs-Radians)
 Mixed Optimization -- RFO/linear search
 Update second derivatives using D2CorX and points    1    3    2
 DE=  2.32D-04 DEPred=-2.86D-04 R=-8.14D-01
 Trust test=-8.14D-01 RLast= 4.11D-02 DXMaxT set to 1.50D-01
 ITU= -1  1  0
 Use linear search instead of GDIIS.
 Energy rises -- skip Quadratic/GDIIS search.
 Quartic linear search produced a step of -0.66101.
 Iteration  1 RMS(Cart)=  0.01593779 RMS(Int)=  0.00007468
 Iteration  2 RMS(Cart)=  0.00013538 RMS(Int)=  0.00000020
 Iteration  3 RMS(Cart)=  0.00000001 RMS(Int)=  0.00000020
 Variable       Old X    -DE/DX   Delta X   Delta X   Delta X     New X
                                 (Linear)    (Quad)   (Total)
    R1        2.62014   0.00429   0.00417   0.00000   0.00417   2.62431
    R2        2.61984   0.00405   0.00310   0.00000   0.00310   2.62294
    R3        2.04735   0.00038   0.00040   0.00000   0.00040   2.04775
    R4        2.62785   0.00383   0.00342   0.00000   0.00342   2.63127
    R5        2.04797   0.00036   0.00034   0.00000   0.00034   2.04831
    R6        2.60214   0.00342   0.00237   0.00000   0.00237   2.60450
    R7        2.05096   0.00048   0.00043   0.00000   0.00043   2.05139
    R8        2.64472  -0.00332  -0.00120   0.00000  -0.00120   2.64353
    R9        2.78274   0.00276   0.00440   0.00000   0.00440   2.78714
   R10        2.62948   0.00352   0.00327   0.00000   0.00327   2.63275
   R11        2.79863  -0.00061  -0.00183   0.00000  -0.00183   2.79679
   R12        2.04658   0.00000   0.00022   0.00000   0.00022   2.04681
   R13        2.47981   0.00485   0.00496   0.00000   0.00496   2.48478
   R14        2.32010   0.00352   0.00305   0.00000   0.00305   2.32315
   R15        1.83917   0.00023   0.00063   0.00000   0.00063   1.83979
   R16        1.93383   0.00059   0.00070   0.00000   0.00070   1.93453
   R17        2.02958  -0.00283  -0.00131   0.00000  -0.00131   2.02827
   R18        1.93384   0.00058   0.00072   0.00000   0.00072   1.93455
    A1        2.09861  -0.00020   0.00060   0.00000   0.00060   2.09921
    A2        2.09546   0.00006  -0.00015   0.00000  -0.00015   2.09531
    A3        2.08911   0.00014  -0.00045   0.00000  -0.00045   2.08866
    A4        2.09964  -0.00025   0.00017   0.00000   0.00017   2.09981
    A5        2.09849   0.00016   0.00034   0.00000   0.00034   2.09883
    A6        2.08506   0.00009  -0.00050   0.00000  -0.00050   2.08455
    A7        2.07515  -0.00108  -0.00216   0.00000  -0.00216   2.07299
    A8        2.10071   0.00047   0.00086   0.00000   0.00086   2.10158
    A9        2.10732   0.00061   0.00130   0.00000   0.00130   2.10862
   A10        2.12782   0.00125   0.00233   0.00000   0.00233   2.13015
   A11        2.07901   0.00653   0.00802   0.00000   0.00802   2.08702
   A12        2.07635  -0.00778  -0.01034   0.00000  -0.01034   2.06601
   A13        2.06359   0.00186   0.00104   0.00000   0.00104   2.06462
   A14        2.11599  -0.01139  -0.01282   0.00000  -0.01282   2.10316
   A15        2.10361   0.00953   0.01179   0.00000   0.01179   2.11540
   A16        2.10156  -0.00158  -0.00197   0.00000  -0.00197   2.09959
   A17        2.10468   0.00068   0.00091   0.00000   0.00091   2.10558
   A18        2.07694   0.00090   0.00106   0.00000   0.00106   2.07801
   A19        1.99653   0.00346   0.00306   0.00000   0.00306   1.99959
   A20        2.15665  -0.00848  -0.00826   0.00000  -0.00826   2.14839
   A21        2.13000   0.00502   0.00520   0.00000   0.00520   2.13520
   A22        1.91596  -0.00013  -0.00283   0.00000  -0.00283   1.91313
   A23        1.95195   0.00055   0.00132   0.00000   0.00132   1.95327
   A24        1.84052   0.00035  -0.00218   0.00000  -0.00218   1.83834
   A25        1.95195   0.00055   0.00124   0.00000   0.00124   1.95319
   A26        1.91470  -0.00061  -0.00028   0.00000  -0.00028   1.91442
   A27        1.88967  -0.00027   0.00032   0.00000   0.00033   1.88999
   A28        1.91465  -0.00061  -0.00052   0.00000  -0.00052   1.91413
    D1       -0.00001  -0.00000   0.00006   0.00000   0.00006   0.00005
    D2       -3.14158  -0.00000   0.00003   0.00000   0.00003  -3.14154
    D3        3.14158  -0.00000   0.00005   0.00000   0.00005  -3.14156
    D4        0.00001  -0.00000   0.00003   0.00000   0.00003   0.00004
    D5        0.00002  -0.00000  -0.00006   0.00000  -0.00006  -0.00004
    D6       -3.14151  -0.00000  -0.00013   0.00000  -0.00013   3.14155
    D7       -3.14156  -0.00000  -0.00006   0.00000  -0.00006   3.14156
    D8        0.00009  -0.00000  -0.00012   0.00000  -0.00012  -0.00003
    D9       -0.00004   0.00000   0.00002   0.00000   0.00002  -0.00002
   D10        3.14156   0.00000   0.00002   0.00000   0.00002   3.14159
   D11        3.14153   0.00000   0.00005   0.00000   0.00005   3.14157
   D12       -0.00006   0.00000   0.00005   0.00000   0.00005  -0.00001
   D13        0.00007  -0.00000  -0.00010   0.00000  -0.00010  -0.00002
   D14       -3.14150  -0.00000  -0.00018   0.00000  -0.00018   3.14151
   D15       -3.14153  -0.00000  -0.00010   0.00000  -0.00010   3.14156
   D16        0.00009  -0.00000  -0.00018   0.00000  -0.00018  -0.00009
   D17       -0.00006   0.00000   0.00009   0.00000   0.00009   0.00003
   D18       -3.14158  -0.00000   0.00009   0.00000   0.00009  -3.14148
   D19        3.14151   0.00000   0.00017   0.00000   0.00017  -3.14151
   D20       -0.00000  -0.00000   0.00017   0.00000   0.00017   0.00017
   D21        1.06109   0.00022   0.00099   0.00000   0.00099   1.06208
   D22        3.14129  -0.00000   0.00002   0.00000   0.00002   3.14131
   D23       -1.06176  -0.00022  -0.00128   0.00000  -0.00128  -1.06304
   D24       -2.08048   0.00022   0.00091   0.00000   0.00091  -2.07956
   D25       -0.00028  -0.00000  -0.00006   0.00000  -0.00006  -0.00034
   D26        2.07985  -0.00022  -0.00135   0.00000  -0.00135   2.07850
   D27        0.00001   0.00000  -0.00001   0.00000  -0.00001   0.00000
   D28        3.14155   0.00000   0.00005   0.00000   0.00005  -3.14158
   D29        3.14153  -0.00000  -0.00002   0.00000  -0.00002   3.14151
   D30       -0.00013   0.00000   0.00005   0.00000   0.00005  -0.00008
   D31       -3.14113  -0.00001  -0.00035   0.00000  -0.00035  -3.14148
   D32        0.00036  -0.00000  -0.00024   0.00000  -0.00024   0.00011
   D33        0.00055  -0.00001  -0.00035   0.00000  -0.00035   0.00019
   D34       -3.14115  -0.00000  -0.00024   0.00000  -0.00024  -3.14139
   D35        3.14154   0.00000   0.00002   0.00000   0.00002   3.14156
   D36        0.00005  -0.00000  -0.00009   0.00000  -0.00009  -0.00003
         Item               Value     Threshold  Converged?
 Maximum Force            0.011390     0.000450     NO 
 RMS     Force            0.002666     0.000300     NO 
 Maximum Displacement     0.061323     0.001800     NO 
 RMS     Displacement     0.016026     0.001200     NO 
 Predicted change in Energy=-6.698838D-05
 GradGradGradGradGradGradGradGradGradGradGradGradGradGradGradGradGradGrad

                          Input orientation:                          
 ---------------------------------------------------------------------
 Center     Atomic      Atomic             Coordinates (Angstroms)
 Number     Number       Type             X           Y           Z
 ---------------------------------------------------------------------
      1          6           0       -1.929285   -1.466244   -0.000078
      2          6           0       -2.609250   -0.255374    0.000014
      3          6           0       -1.905198    0.945923    0.000049
      4          6           0       -0.527491    0.907440    0.000011
      5          6           0        0.181420   -0.298523   -0.000036
      6          6           0       -0.541481   -1.489485   -0.000080
      7          6           0        1.661418   -0.299911    0.000068
      8          8           0        2.206993   -1.496270   -0.000119
      9          7           0        0.236051    2.169306   -0.000053
     10          8           0        2.333627    0.729387    0.000315
     11          1           0       -2.481399   -2.398662   -0.000140
[...]
 000046,0.0000028,0.0000042,-0.0602972,-0.2961414,-0.1359802,-0.0000009
 ,-0.1890356,-0.0291546,0.0000097,-0.0000125,0.0000112,-0.0907933,0.466
 15,0.2090263,-0.0000252,-0.0008095,0.4222812,-0.0000172,0.0000066,-0.0
 000179,-0.0480538,-0.7804346,-0.030044,-0.0000096,0.070143,-0.0948935,
 0.0000003,0.0000583,0.0000048,0.0171904,0.0967228,-0.1340607,-0.000018
 ,0.0588892,0.0188001,0.0000037,0.0000681,0.0000073,-0.0547902,2.097763
 3,-0.0248816,0.0000713,-0.1991724,1.8262892,0.0000939,0.0001009,0.0001
 374,0.3807929,-0.9018544,0.5259373,0.0000092,0.5557448,-1.0644961,-0.0
 000149,-0.000078,0.0001692,-0.3416667,-0.5143295,0.1600464,-0.0000017,
 -0.0431003,-0.5664889,0.0000223,0.0000634,-0.0000014,-0.071193,-1.1324
 755,-0.2068598,-0.0000593,-0.105026,-1.2452898,-0.0000077,-0.000233,-0
 .0001862,-0.3550202,0.0730684,-0.019978,0.0000007,-0.0259579,0.0488126
 ,-0.0000021,-0.0000029,0.0000055,0.1436977,0.0432679,0.0021134,0.00000
 53,0.0062736,0.0899793,-0.0000013,0.0000066,-0.0000029,0.1398391,0.098
 6955,0.0097686,0.0000018,0.0188254,-0.0013412,-0.000005,-0.0000051,-0.
 0000043,0.1508611,0.1004224,0.0159382,0.0000056,0.0157346,0.0920484,-0
 .0000015,0.0000003,-0.0000017,0.1385039,0.4574472,-0.1306998,-0.000000
 6,-0.1322686,0.328758,-0.0000274,-0.0000008,-0.0000252,0.3735744,0.208
 8332,-0.0101469,0.0127289,-0.0134412,0.2643549,0.0523658,0.0214246,0.0
 874311,0.2727878,0.6839218,-0.4109718,0.0000364,-0.2430146,0.551453,-0
 .0000671,0.0000419,-0.0000974,0.2052566,0.2088236,-0.0101373,-0.012737
 7,-0.0134383,0.264343,-0.0523542,-0.0214295,-0.0874203,0.2727755\Polar
 =113.520871,0.6679806,99.9451566,0.0010041,0.001775,48.2791011\PG=C01 
 [X(C7H8N1O2)]\NImag=0\\0.71393123,0.03750845,0.75681912,-0.00002693,0.
 00001836,0.14388363,-0.19155781,0.12867341,0.00001167,0.77372328,0.055
 65844,-0.30597347,-0.00001157,-0.00515825,0.68841904,0.00000958,-0.000
 01595,-0.06721996,-0.00003327,0.00001948,0.14745844,0.07544303,-0.0266
 9126,-0.00000482,-0.19070882,-0.05399575,0.00000447,0.72140792,0.02055
 121,-0.05498960,-0.00000274,-0.12995099,-0.29326345,-0.00000102,-0.036
 68614,0.75355294,-0.00000341,-0.00000115,0.00729878,0.00000240,-0.0000
 0432,-0.06602405,-0.00003045,0.00001801,0.13692980,-0.06248825,0.03442
 900,0.00000434,-0.02706606,-0.09446287,-0.00000132,-0.35964060,0.06894
 746,0.00001695,0.73242416,0.03566996,-0.02178587,-0.00000316,-0.028768
 35,0.03969569,0.00000281,-0.02188911,-0.12937345,-0.00000052,-0.045089
 84,0.63596175,0.00000480,-0.00000232,-0.00571397,0.00000053,0.00000610
 ,0.00413132,0.00001608,-0.00000573,-0.06584826,-0.00003400,0.00001270,
 0.16819557,-0.02647835,-0.02756114,0.00000227,-0.00086821,0.00800811,-
 0.00000041,-0.03516684,0.01874470,0.00000398,-0.17546642,0.12243005,0.
 00001078,0.67404106,-0.07807903,0.03987435,0.00000515,-0.00282833,-0.0
 7294353,-0.00000184,0.08019056,0.03142741,-0.00000489,0.05056246,-0.26
 248934,-0.00000692,0.00901419,0.72550990,-0.00000224,0.00000449,0.0077
 5079,-0.00000016,-0.00000289,-0.00588303,0.00000466,-0.00000115,0.0107
 1388,0.00000939,-0.00001230,-0.06129405,-0.00000458,0.00001871,0.14072
 091,-0.35591480,-0.03471422,0.00001115,-0.02234937,0.08199637,0.000004
 03,-0.05751630,-0.02402635,0.00000209,0.07087424,-0.03370265,-0.000005
 16,-0.17894819,-0.05321995,0.00000866,0.72067688,0.03844235,-0.1388557
 3,-0.00000465,0.03480432,0.03927691,-0.00000111,-0.03474929,-0.0161191
 8,0.00000207,0.02590456,-0.05939691,-0.00000425,-0.11880029,-0.2894373
 9,-0.00000263,-0.04229840,0.74494547,0.00001530,-0.00000077,-0.0683688
 1,0.00000271,-0.00000331,0.00698322,0.00000190,0.00000083,-0.00546241,
 -0.00000278,0.00000109,0.00499413,0.00000508,-0.00000449,-0.06493724,-
 0.00002832,0.00002079,0.14830484,0.00233863,-0.00273051,-0.00000158,0.
 00060860,-0.00587830,-0.00000004,0.01188241,0.00583406,-0.00000207,-0.
 02413434,0.02880070,0.00000062,-0.20782291,0.00223227,0.00001463,-0.02
 118246,-0.01658642,-0.00000223,0.74489170,-0.00472504,-0.00625304,-0.0
 0000010,-0.00036834,-0.00369435,-0.00000009,0.00473673,-0.00685958,-0.
 00000114,0.03444223,0.01502969,-0.00000307,0.01070953,-0.10652942,0.00
 000296,-0.02785612,0.01162487,0.00000250,0.10131245,0.91481357,0.00000
 126,-0.00000032,0.00876121,-0.00000072,0.00000018,-0.00132307,0.000000
 62,-0.00000099,0.00629898,0.00000154,0.00000550,-0.00110262,-0.0000089
 8,0.00000407,-0.07899749,-0.00000101,-0.00000333,-0.00021683,0.0001622
 1,0.00011732,0.21299784,0.00121203,0.00058038,-0.00000028,-0.00027418,
 0.00240767,0.00000012,-0.00345045,0.00102464,0.00000074,-0.00472977,-0
 .00868136,-0.00000049,-0.03171301,0.04576277,-0.00000702,-0.00405608,0
 .00204620,-0.00000004,-0.18961441,0.12096474,-0.00003363,0.68456909,0.
 00026243,0.00071391,-0.00000020,-0.00006977,-0.00131717,0.00000002,0.0
 0206711,0.00206099,-0.00000033,-0.00407524,0.00100108,0.00000092,0.018
 48273,-0.00520894,0.00000494,-0.00212600,-0.00450307,-0.00000133,0.085
 63287,-0.31599585,0.00002078,-0.07505841,0.47787409,-0.00000028,0.0000
 0011,-0.00063962,0.00000003,0.00000006,-0.00003747,-0.00000020,0.00000
 037,-0.00064551,-0.00000075,-0.00000147,0.00202455,-0.00000124,0.00000
 550,0.00998967,-0.00000067,0.00000073,0.00042196,-0.00003316,0.0000414
 7,-0.06677458,0.00016741,-0.00000799,0.04333629,0.00116441,-0.00066626
 ,-0.00000023,-0.00728708,0.00545396,0.00000113,-0.02000772,-0.04833131
 ,0.00000111,-0.12930907,-0.03244164,0.00000382,0.01462230,0.00713902,-
 0.00000186,-0.00090129,0.00083343,0.00000042,-0.02287159,-0.01715883,-
 0.00000874,0.00253863,0.00931426,0.00000183,0.55919411,0.00221997,-0.0
 0165884,0.00000007,0.00056258,0.00557550,0.00000015,-0.00845183,-0.008
 24136,0.00000127,-0.04421172,-0.17613934,-0.00000015,-0.02318036,-0.02
 989601,0.00000208,0.00448004,-0.00428033,-0.00000076,0.00136367,0.0070
 3625,0.00000147,0.00014532,-0.00377198,-0.00000004,-0.08157912,0.61948
 887,-0.00000030,0.00000017,-0.00118149,0.00000082,-0.00000070,0.007345
 77,0.00000162,0.00000364,0.00254818,0.00000308,0.00000009,-0.07560546,
 -0.00000147,-0.00000025,-0.00033798,0.00000075,-0.00000029,0.00775648,
 0.00000032,0.00000190,-0.00308013,0.00000086,0.00000008,-0.00128992,0.
 00001390,0.00000907,0.71890418,-0.00194488,-0.00167065,0.00000147,0.00
 005297,0.00028867,-0.00000031,-0.00199087,-0.00162142,0.00000006,0.006
 19054,-0.00370994,-0.00000052,-0.03211402,-0.04408248,-0.00002076,-0.0
 0532681,0.00719817,-0.00000107,-0.30144929,-0.25415735,-0.00011924,0.0
 3831587,0.00556979,0.00000230,-0.01986584,0.02380799,-0.00000877,0.339
 72390,-0.00137775,0.00166624,0.00000080,0.00015393,0.00094048,0.000000
 02,-0.00253193,0.00179077,0.00000089,-0.00219064,-0.01897898,0.0000016
 4,-0.02919254,-0.00482201,-0.00001239,0.00087612,0.00430213,0.00000033
 ,-0.24095725,-0.47406957,-0.00015463,-0.01591973,-0.11341530,-0.000023
 26,0.04885932,-0.01837381,0.00000406,0.28069539,0.59402167,-0.00000014
 ,-0.00000085,-0.00187015,0.00000033,0.00000065,0.00034224,-0.00000149,
 -0.00000078,-0.00056795,0.00000204,-0.00000162,-0.00018983,-0.00000533
 ,-0.00001309,0.01975275,-0.00000218,0.00000259,0.00320958,-0.00013399,
 -0.00016670,-0.07660089,0.00000376,-0.00000823,0.02783451,-0.00000832,
 0.00000768,0.01049886,0.00014288,0.00018940,0.03847977,-0.13722706,-0.
 12875261,0.00000037,0.01281430,0.01574364,0.00000016,-0.00095883,0.003
 51010,0.00000047,-0.00110317,0.00109127,0.00000019,-0.00508173,0.00094
 900,0.00000096,-0.01128548,-0.02769978,-0.00000007,0.00047654,-0.00151
 421,0.00000013,-0.00012618,0.00020373,-0.00000006,0.00029418,-0.000097
 94,-0.00000008,-0.00075024,-0.00027164,-0.00000024,0.14087783,-0.12882
 521,-0.27857748,-0.00000100,-0.01495324,-0.01721587,0.00000006,0.00300
 784,-0.00311363,-0.00000048,0.00123005,0.00008374,-0.00000010,0.001152
 34,0.00125589,-0.00000034,0.00306213,0.00630775,-0.00000011,0.00014143
 ,0.00031143,0.,-0.00001135,-0.00000846,-0.00000002,-0.00024365,0.00007
 976,0.00000006,0.00012085,0.00003967,0.00000003,0.13606649,0.29005180,
 0.00000061,-0.00000066,-0.04216016,-0.00000099,-0.00000178,0.00479906,
 0.00000069,-0.00000069,0.00741631,0.00000013,-0.00000003,-0.00003023,0
 .00000044,0.00000013,0.00726837,0.00000074,0.00000133,0.00450261,0.000
 00012,-0.00000005,0.00022302,-0.00000002,0.00000003,0.00002795,-0.0000
 0003,0.,-0.00107611,0.00000011,-0.00000006,-0.00023856,-0.00000123,0.0
 0000153,0.02791265,-0.00836864,-0.00202987,0.00000066,-0.35438665,0.00
 466898,0.00001594,-0.00931301,0.00206346,0.00000081,0.00077665,-0.0020
 6166,0.00000028,0.00096889,0.00021036,-0.00000005,0.00002636,0.0023160
 2,0.00000044,-0.00039912,0.00003192,-0.00000005,0.00003437,-0.00005692
 ,0.00000001,-0.00064985,0.00009963,0.00000004,0.00005961,0.00014912,-0
 .00000002,0.00073600,-0.00005281,-0.00000024,0.37007784,0.02836882,0.0
 0521096,-0.00000142,0.00508561,-0.06146271,-0.00000097,-0.02860184,0.0
 0416782,0.00000132,-0.00184614,-0.00384407,-0.00000021,-0.00001987,-0.
 00136645,-0.00000005,0.00286735,-0.00479615,-0.00000064,-0.00019751,-0
 .00035509,0.00000002,0.00008146,0.00014625,0.,-0.00216077,-0.00020864,
 0.00000014,0.00002812,0.00038659,0.,-0.00030341,0.00093451,0.00000020,
 -0.00497763,0.06028211,0.00000153,0.00000041,0.00610566,0.00001594,-0.
 00000088,-0.04322773,-0.00000060,-0.00000035,0.00497997,0.00000061,-0.
 00000035,0.00725688,-0.00000035,0.00000001,-0.00081314,0.00000082,-0.0
 0000045,0.00748570,0.00000029,0.00000008,-0.00108930,0.,0.00000004,0.0
 0017298,-0.00000025,-0.00000006,0.00004431,0.,-0.00000012,0.00012329,-
 0.00000022,0.00000014,-0.00415812,-0.00001758,0.00000147,0.02775852,-0
 .00160731,-0.00337368,0.00000023,0.01348651,-0.01570337,-0.00000084,-0
 .13072157,0.12296299,0.00000703,-0.01074716,0.02877023,0.00000143,-0.0
 0489746,-0.00211886,0.00000078,-0.00050011,-0.00071185,-0.00000002,0.0
 0069239,0.00174695,0.00000029,-0.00069166,-0.00007372,-0.00000016,0.00
 336180,0.00003723,-0.00000056,0.00011448,-0.00091300,0.00000007,0.0005
 0911,-0.00073194,-0.00000009,0.00073680,0.00025228,-0.00000018,0.13297
 672,-0.00361096,-0.00301973,-0.00000004,0.01511288,-0.01766756,-0.0000
 0132,0.12275171,-0.27736731,-0.00001100,-0.00313641,0.00305523,0.00000
 020,-0.00061081,0.00135874,0.,-0.00105334,-0.00004912,0.00000007,-0.00
 054914,-0.00003097,-0.00000013,-0.00001037,0.00005304,0.,-0.00008136,0
 .00142244,0.00000013,0.00006793,0.00027833,0.00000009,0.00078882,-0.00
 078361,-0.00000010,0.00008946,0.00106069,0.00000011,-0.13060790,0.2911
 3158,0.00000018,-0.00000002,0.00683317,-0.00000012,-0.00000024,0.00454
 566,0.00000714,-0.00001048,-0.03785825,0.00000040,-0.00000116,0.004157
 40,0.00000075,-0.00000034,0.00604991,0.00000013,0.00000028,-0.00101448
 ,-0.00000005,-0.00000005,0.00131282,0.00000010,-0.00000003,-0.00022870
 ,-0.00000038,-0.00000018,-0.00383402,-0.00000002,-0.00000002,-0.000131
 83,-0.00000002,0.00000003,-0.00019181,-0.00000024,0.00000015,-0.004039
 54,-0.00000795,0.00001200,0.02566163,-0.00880179,0.02725136,0.00000180
 ,-0.00562989,-0.00035112,0.00000052,-0.00096687,-0.00101464,0.00000002
 ,-0.00151188,-0.00234272,0.00000018,0.01226487,-0.01584353,-0.00000111
 ,-0.13150970,0.12762953,0.00000800,0.00177624,-0.00194919,-0.00000019,
 -0.00363524,-0.00006778,-0.00000046,-0.00009060,-0.00147557,0.00000012
 ,0.00001420,0.00137838,0.00000022,0.00106640,-0.00013484,-0.00000018,-
 0.00039250,0.00122572,-0.00000001,0.00006668,0.00007798,-0.00000003,0.
 13674582,-0.00257806,0.00663609,0.00000029,-0.00114014,0.00083296,-0.0
 0000010,-0.00025129,0.00033352,0.00000006,-0.00362677,-0.00127131,0.00
 000010,0.01308825,-0.01849186,-0.00000140,0.12560386,-0.28540785,-0.00
 001346,0.00131205,-0.00230478,0.00000027,0.00095422,0.00112277,0.00000
 005,0.00019815,-0.00098958,-0.00000006,0.00005628,0.00116513,0.0000000
 9,0.00009651,0.00065371,0.00000010,-0.00022267,0.00021846,0.00000003,0
 .00008199,0.00001088,0.,-0.13391388,0.29743727,0.00000036,-0.00000156,
 0.00624237,0.00000069,-0.00000040,0.00724217,0.00000019,0.00000015,-0.
 00099990,0.00000013,-0.00000010,0.00598282,-0.00000168,-0.00000093,0.0
 0415364,0.00000859,-0.00001153,-0.04233240,0.00000136,0.00000017,-0.00
 435140,-0.00000020,0.00000035,0.00027987,0.00000016,-0.00000003,0.0009
 1935,-0.00000041,-0.00000033,0.00061762,-0.00000030,0.00000020,-0.0042
 2468,-0.00000002,-0.00000005,-0.00058303,-0.00000002,0.00000001,-0.000
 66238,-0.00000892,0.00001412,0.02782183,-0.00011253,-0.00013131,0.0000
 0007,0.00007936,-0.00036653,-0.00000006,0.00057146,0.00051360,0.000000
 12,-0.00115293,-0.00003195,-0.00000016,0.00211153,0.00183835,-0.000002
 97,0.00066913,-0.00007281,0.00000005,-0.02640583,0.01007484,-0.0000038
 7,-0.48606400,-0.02549190,-0.00013110,0.00138386,-0.00060384,-0.000000
 13,0.00147848,-0.01052568,0.00000006,0.00001726,-0.00000092,0.,-0.0000
 0526,-0.00001532,0.,-0.00002999,-0.00000422,0.00000006,-0.00011189,-0.
 00016442,0.00000001,0.50940537,-0.00006405,0.00031623,0.00000013,-0.00
 016061,0.00001030,-0.00000006,-0.00002298,-0.00051117,0.,0.00160490,0.
 00080926,-0.00000027,0.00083955,-0.00589663,0.00000039,-0.00089135,-0.
 00034960,-0.00000015,0.05640443,0.00269917,0.00001563,-0.07430230,-0.0
 5064272,-0.00001648,-0.00156097,0.00073255,-0.00000005,-0.00740095,0.0
 0292863,-0.00000285,-0.00001872,0.00001163,0.,-0.00001081,0.00002447,0
 .00000001,0.00011530,0.00000487,-0.00000001,0.00022628,0.00067255,0.,0
 .02329810,0.05097171,-0.00000007,-0.00000013,0.00007872,0.00000008,-0.
 00000017,0.00006342,0.00000026,0.00000024,-0.00029889,-0.00000041,-0.0
 0000018,0.00069104,0.00000213,-0.00000008,0.00548743,0.00000045,0.0000
 0019,-0.00038599,-0.00001430,0.00000338,0.00351930,-0.00012894,-0.0000
 0513,-0.01730166,0.00000011,-0.00000008,0.00022886,0.00000262,-0.00000
 109,-0.00601133,-0.00000001,0.00000001,0.00002943,0.,-0.00000001,-0.00
 002178,-0.00000002,0.,-0.00012867,-0.00000004,-0.00000017,-0.00012952,
 0.00013831,0.00000305,0.01422001,0.00062144,-0.00054785,-0.00018842,-0
 .00005133,0.00065459,0.00066014,0.00060303,-0.00161399,0.00036366,0.00
 506860,-0.01141231,-0.01670409,-0.00132654,-0.00000621,-0.00098895,-0.
 00085765,-0.00061500,0.00079359,-0.00061921,-0.00058812,-0.00042704,0.
 00003853,0.00025395,0.00056827,-0.06985124,0.04175068,0.06151814,-0.00
 290400,0.00250710,-0.00249100,-0.00002376,0.00006985,-0.00007175,-0.00
 002030,-0.00000142,-0.00001461,-0.00090437,0.00034140,-0.00046560,-0.0
 0006141,-0.00007591,0.00015122,0.00003436,-0.00002954,-0.00000256,0.06
 486326,-0.00032952,0.00036360,-0.00022012,0.00013221,-0.00114780,0.001
 15533,0.00152689,0.00237047,0.00040595,0.00518372,-0.01986159,-0.01987
 842,-0.00275950,-0.00149733,-0.00101531,0.00067982,-0.00056114,0.00112
 148,-0.00031722,-0.00107384,-0.00062315,-0.00018340,0.00056865,-0.0000
 8303,0.04078607,-0.16225774,-0.16091561,0.00028945,0.00091134,0.000528
 84,-0.00002071,0.00001998,-0.00018121,0.00001954,0.00008543,-0.0000198
 3,-0.00033702,0.00027798,-0.00079357,-0.00016106,-0.00016105,0.0001844
 0,0.00012921,-0.00007099,-0.00000108,-0.03984036,0.17091311,-0.0003479
 3,0.00047690,0.00001094,-0.00000047,-0.00052614,0.00027871,0.00077432,
 0.00120797,0.00040906,-0.00389064,-0.00050485,0.00668378,0.00037939,0.
 00128067,-0.00030474,0.00027126,0.00052652,-0.00022861,0.00062674,-0.0
 0089818,0.00040989,-0.00038950,0.00066591,-0.00001935,0.05707877,-0.15
 259450,-0.29643220,-0.00154000,0.00157817,-0.00070701,-0.00001462,0.00
 001480,-0.00004998,0.00004653,0.00007841,0.00002363,-0.00036149,-0.000
 14607,-0.00013138,0.00006140,0.00009418,0.00001329,0.00012460,-0.00006
 804,0.00006501,-0.06446444,0.16692388,0.30912290,-0.00083085,0.0009747
 2,-0.00000013,-0.00053436,0.00038119,0.00000024,-0.00006919,0.00070652
 ,-0.00000008,-0.02305689,-0.01521704,0.00000195,-0.00279893,-0.0017137
 3,0.00000134,-0.00104055,0.00297434,0.00000075,0.03245456,0.02488669,0
 .00001082,-0.00239287,-0.01502171,-0.00000371,-0.24185475,0.04335490,0
 .00002677,-0.01669682,-0.03325020,0.00000499,-0.00021143,0.00003314,-0
 .00000007,0.00013911,0.00021598,0.,-0.00094057,0.00009295,0.,0.0008390
 3,0.00065775,0.00000007,-0.00190283,0.00200341,-0.00000018,0.00357628,
 0.00085082,0.00322132,0.25175103,0.00123753,-0.00085034,-0.00000001,-0
 .00125904,0.00108280,0.,-0.00193644,-0.00823604,0.00000046,-0.02885328
 ,0.01736746,0.00000316,0.00241483,0.00065002,-0.00000058,-0.00035708,-
 0.00213950,-0.00000056,-0.01550138,-0.03327575,-0.00000551,0.00038319,
 0.01075436,0.00000116,0.03082341,-0.06625112,-0.00000961,-0.00576990,0
 .02031842,-0.00000732,0.00025015,-0.00007079,0.00000007,-0.00025567,-0
 .00056964,-0.00000012,0.00094137,-0.00001345,0.,-0.00037379,-0.0002958
 9,-0.00000005,0.00142561,-0.00163933,0.00000015,0.01480583,-0.00424337
 ,0.00034034,-0.01278265,0.07165594,-0.00000006,0.00000007,0.00017800,0
 .00000002,0.,0.00024647,-0.00000015,0.00000049,0.00070085,0.00000059,-
 0.00000184,-0.00101357,-0.00000127,-0.00000071,0.00098538,-0.00000026,
 0.00000015,-0.00048318,0.00000733,0.00000120,-0.00039727,-0.00000221,-
 0.00000387,0.00286832,0.00003631,-0.00001386,-0.06900915,0.00000074,-0
 .00000467,-0.01383532,-0.00000005,0.,0.00000022,0.00000002,0.00000006,
 -0.00004190,-0.00000014,0.00000001,-0.00020804,0.00000009,0.00000008,-
 0.00000296,-0.00000040,0.00000067,-0.00017033,0.03019330,-0.00504104,0
 .00302477,-0.00004216,0.00002063,0.07412859,0.00062149,-0.00054797,0.0
 0018835,-0.00005126,0.00065456,-0.00066010,0.00060321,-0.00161388,-0.0
 0036341,0.00507234,-0.01141365,0.01670377,-0.00132605,-0.00000687,0.00
 098926,-0.00085782,-0.00061505,-0.00079371,-0.00062192,-0.00058889,0.0
 0042661,0.00003933,0.00025459,-0.00056807,-0.06987026,0.04177839,-0.06
 155510,-0.00290729,0.00251100,0.00248837,-0.00002375,0.00006985,0.0000
 7177,-0.00002030,-0.00000142,0.00001462,-0.00090429,0.00034138,0.00046
 564,-0.00006146,-0.00007594,-0.00015125,0.00003443,-0.00002970,0.00000
 256,0.00181431,-0.00564893,0.00842476,0.00357004,0.01480731,-0.0301917
 1,0.06488925,-0.00032951,0.00036362,0.00022020,0.00013213,-0.00114776,
 -0.00115540,0.00152701,0.00237084,-0.00040619,0.00518853,-0.01986304,0
 .01987665,-0.00275978,-0.00149742,0.00101546,0.00067977,-0.00056116,-0
 .00112150,-0.00031618,-0.00107272,0.00062283,-0.00018366,0.00056837,0.
 00008281,0.04081627,-0.16226664,0.16090723,0.00029005,0.00091027,-0.00
 052791,-0.00002070,0.00001997,0.00018120,0.00001955,0.00008545,0.00001
 985,-0.00033700,0.00027798,0.00079364,-0.00016112,-0.00016103,-0.00018
 442,0.00012918,-0.00007093,0.00000112,-0.00565270,0.01536431,-0.018449
 97,0.00085292,-0.00424379,0.00504261,-0.03987476,0.17092370,0.00034776
 ,-0.00047677,0.00001088,0.00000051,0.00052591,0.00027883,-0.00077426,-
 0.00120778,0.00040941,0.00389070,0.00050540,0.00668050,-0.00037951,-0.
 00128069,-0.00030505,-0.00027110,-0.00052641,-0.00022857,-0.00062620,0
 .00089840,0.00041052,0.00038934,-0.00066596,-0.00001928,-0.05711775,0.
 15258787,-0.29639952,0.00154091,-0.00157875,-0.00070575,0.00001461,-0.
 00001481,-0.00004998,-0.00004653,-0.00007841,0.00002360,0.00036166,0.0
 0014602,-0.00013151,-0.00006140,-0.00009417,0.00001331,-0.00012461,0.0
 0006806,0.00006494,-0.00842987,0.01845249,-0.02216873,-0.00322192,-0.0
 0034220,0.00302913,0.06450763,-0.16691821,0.30908727\\-0.00000355,-0.0
 0001072,-0.00000241,-0.00000502,0.00002456,0.00000041,-0.00001654,-0.0
 0003325,0.00000032,0.00005110,0.00006341,0.00000310,-0.00009652,-0.000
 03827,0.00002274,0.00004016,0.00001648,0.00000237,0.00014338,-0.000120
 28,-0.00008491,-0.00006328,0.00007957,0.00002379,-0.00004029,-0.000050
 02,0.00001531,-0.00003285,0.00003209,0.00003964,0.00000143,-0.00000094
 ,0.00000015,-0.00000072,0.00000249,0.00000006,-0.00000057,0.00000501,-
 0.00000073,0.00000253,-0.00000433,0.00000040,-0.00001205,-0.00001062,0
 .00000132,0.00000193,0.00000926,-0.00000027,0.00002014,0.00002765,-0.0
 0001914,0.00001074,0.00000793,-0.00000214\\\@


 THE ATTENTION SPAN OF A COMPUTER IS AS LONG
 AS ITS EXTENSION CORD.
 Job cpu time:       0 days  0 hours 27 minutes 32.4 seconds.
 File lengths (MBytes):  RWF=    100 Int=      0 D2E=      0 Chk=      5 Scr=      1
 Normal termination of Gaussian 09 at Sat Jun 22 17:17:45 2024.
