 Entering Gaussian System, Link 0=g09
 Input=gd3camb3lypAnthranilic.gjf
 Output=gd3camb3lypAnthranilic.log
 Initial command:
 /home/phzd/g09E/g09/l1.exe "/home/phzd/g09E/scratch/Gau-166615.inp" -scrdir="/home/phzd/g09E/scratch/"
 Default is to use a total of  18 processors:
                               18 via shared-memory
                                1 via Linda
 Entering Link 1 = /home/phzd/g09E/g09/l1.exe PID=    166617.
  
 Copyright (c) 1988,1990,1992,1993,1995,1998,2003,2009,2015,
            Gaussian, Inc.  All Rights Reserved.
  
 This is part of the Gaussian(R) 09 program.  It is based on
 the Gaussian(R) 03 system (copyright 2003, Gaussian, Inc.),
 the Gaussian(R) 98 system (copyright 1998, Gaussian, Inc.),
 the Gaussian(R) 94 system (copyright 1995, Gaussian, Inc.),
 the Gaussian 92(TM) system (copyright 1992, Gaussian, Inc.),
 the Gaussian 90(TM) system (copyright 1990, Gaussian, Inc.),
 the Gaussian 88(TM) system (copyright 1988, Gaussian, Inc.),
 the Gaussian 86(TM) system (copyright 1986, Carnegie Mellon
 University), and the Gaussian 82(TM) system (copyright 1983,
 Carnegie Mellon University). Gaussian is a federally registered
 trademark of Gaussian, Inc.
  
 This software contains proprietary and confidential information,
 including trade secrets, belonging to Gaussian, Inc.
  
 This software is provided under written license and may be
 used, copied, transmitted, or stored only in accord with that
 written license.
  
 The following legend is applicable only to US Government
 contracts under FAR:
  
                    RESTRICTED RIGHTS LEGEND
  
 Use, reproduction and disclosure by the US Government is
 subject to restrictions as set forth in subparagraphs (a)
 and (c) of the Commercial Computer Software - Restricted
 Rights clause in FAR 52.227-19.
  
 Gaussian, Inc.
 340 Quinnipiac St., Bldg. 40, Wallingford CT 06492
  
  
 ---------------------------------------------------------------
 Warning -- This program may not be used in any manner that
 competes with the business of Gaussian, Inc. or will provide
 assistance to any competitor of Gaussian, Inc.  The licensee
 of this program is prohibited from giving any competitor of
 Gaussian, Inc. access to this program.  By using this program,
 the user acknowledges that Gaussian, Inc. is engaged in the
 business of creating and licensing software in the field of
 computational chemistry and represents and warrants to the
 licensee that it is not a competitor of Gaussian, Inc. and that
 it will not use this program in any manner prohibited above.
 ---------------------------------------------------------------
  

 Cite this work as:
 Gaussian 09, Revision E.01,
 M. J. Frisch, G. W. Trucks, H. B. Schlegel, G. E. Scuseria, 
 M. A. Robb, J. R. Cheeseman, G. Scalmani, V. Barone, B. Mennucci, 
 G. A. Petersson, H. Nakatsuji, M. Caricato, X. Li, H. P. Hratchian, 
 A. F. Izmaylov, J. Bloino, G. Zheng, J. L. Sonnenberg, M. Hada, 
 M. Ehara, K. Toyota, R. Fukuda, J. Hasegawa, M. Ishida, T. Nakajima, 
 Y. Honda, O. Kitao, H. Nakai, T. Vreven, J. A. Montgomery, Jr., 
 J. E. Peralta, F. Ogliaro, M. Bearpark, J. J. Heyd, E. Brothers, 
 K. N. Kudin, V. N. Staroverov, T. Keith, R. Kobayashi, J. Normand, 
 K. Raghavachari, A. Rendell, J. C. Burant, S. S. Iyengar, J. Tomasi, 
 M. Cossi, N. Rega, J. M. Millam, M. Klene, J. E. Knox, J. B. Cross, 
 V. Bakken, C. Adamo, J. Jaramillo, R. Gomperts, R. E. Stratmann, 
 O. Yazyev, A. J. Austin, R. Cammi, C. Pomelli, J. W. Ochterski, 
 R. L. Martin, K. Morokuma, V. G. Zakrzewski, G. A. Voth, 
 P. Salvador, J. J. Dannenberg, S. Dapprich, A. D. Daniels, 
 O. Farkas, J. B. Foresman, J. V. Ortiz, J. Cioslowski, 
 and D. J. Fox, Gaussian, Inc., Wallingford CT, 2013.
 
 ******************************************
 Gaussian 09:  ES64L-G09RevE.01 30-Nov-2015
                22-Jun-2024 
 ******************************************
 %chk=gd3camb3lypAnthranilic.chk
 -----------------------------------------
 # opt freq cam-b3lyp/6-31+g(d,p) em=gd3bj
 -----------------------------------------
 1/14=-1,18=20,19=15,26=3,38=1/1,3;
 2/9=110,12=2,17=6,18=5,40=1/2;
 3/5=1,6=6,7=111,11=2,16=1,25=1,30=1,71=1,74=-40,124=41/1,2,3;
 4//1;
 5/5=2,38=5/2;
 6/7=2,8=2,9=2,10=2,28=1/1;
 7//1,2,3,16;
 1/14=-1,18=20,19=15,26=3/3(2);
 2/9=110/2;
 99//99;
 2/9=110/2;
 3/5=1,6=6,7=111,11=2,16=1,25=1,30=1,71=1,74=-40,124=41/1,2,3;
 4/5=5,16=3,69=1/1;
 5/5=2,38=5/2;
 7//1,2,3,16;
 1/14=-1,18=20,19=15,26=3/3(-5);
 2/9=110/2;
 6/7=2,8=2,9=2,10=2,19=2,28=1/1;
 99/9=1/99;
 ----------
 [No Title]
 ----------
 Symbolic Z-matrix:
 Charge =  0 Multiplicity = 1
 C                    -1.85922  -1.52339  -0.00002 
 C                    -2.58942  -0.32163   0.00022 
 C                    -1.94402   0.90306   0.0002 
 C                    -0.52993   0.98772  -0.00006 
 C                     0.2135   -0.23165  -0.00031 
 C                    -0.47524  -1.46411  -0.00026 
 C                     1.67932  -0.20226  -0.00059 
 O                     2.26063  -1.43192   0.00033 
 N                     0.07582   2.20817  -0.00011 
 O                     2.38053   0.80802   0.00027 
 H                    -2.36991  -2.48036  -0.00001 
 H                    -3.67574  -0.34762   0.00042 
 H                    -2.52086   1.82439   0.00038 
 H                     0.10944  -2.37662  -0.00044 
 H                     3.21937  -1.27704   0.00085 
 H                     1.08639   2.25698  -0.0004 
 H                    -0.47851   3.04778   0.00005 
 

 GradGradGradGradGradGradGradGradGradGradGradGradGradGradGradGradGradGrad
 Berny optimization.
 Initialization pass.
                           ----------------------------
                           !    Initial Parameters    !
                           ! (Angstroms and Degrees)  !
 --------------------------                            --------------------------
 ! Name  Definition              Value          Derivative Info.                !
 --------------------------------------------------------------------------------
 ! R1    R(1,2)                  1.4062         estimate D2E/DX2                !
 ! R2    R(1,6)                  1.3852         estimate D2E/DX2                !
 ! R3    R(1,11)                 1.0847         estimate D2E/DX2                !
 ! R4    R(2,3)                  1.3843         estimate D2E/DX2                !
 ! R5    R(2,12)                 1.0866         estimate D2E/DX2                !
 ! R6    R(3,4)                  1.4166         estimate D2E/DX2                !
 ! R7    R(3,13)                 1.087          estimate D2E/DX2                !
 ! R8    R(4,5)                  1.4281         estimate D2E/DX2                !
 ! R9    R(4,9)                  1.3625         estimate D2E/DX2                !
 ! R10   R(5,6)                  1.4119         estimate D2E/DX2                !
 ! R11   R(5,7)                  1.4661         estimate D2E/DX2                !
 ! R12   R(6,14)                 1.0838         estimate D2E/DX2                !
 ! R13   R(7,8)                  1.3601         estimate D2E/DX2                !
 ! R14   R(7,10)                 1.2298         estimate D2E/DX2                !
 ! R15   R(8,15)                 0.9712         estimate D2E/DX2                !
 ! R16   R(9,16)                 1.0118         estimate D2E/DX2                !
 ! R17   R(9,17)                 1.0061         estimate D2E/DX2                !
 ! A1    A(2,1,6)              118.8307         estimate D2E/DX2                !
 ! A2    A(2,1,11)             120.6302         estimate D2E/DX2                !
 ! A3    A(6,1,11)             120.5391         estimate D2E/DX2                !
 ! A4    A(1,2,3)              120.9276         estimate D2E/DX2                !
 ! A5    A(1,2,12)             119.9125         estimate D2E/DX2                !
 ! A6    A(3,2,12)             119.1599         estimate D2E/DX2                !
 ! A7    A(2,3,4)              121.2151         estimate D2E/DX2                !
 ! A8    A(2,3,13)             120.1599         estimate D2E/DX2                !
 ! A9    A(4,3,13)             118.625          estimate D2E/DX2                !
 ! A10   A(3,4,5)              117.9442         estimate D2E/DX2                !
 ! A11   A(3,4,9)              119.8226         estimate D2E/DX2                !
 ! A12   A(5,4,9)              122.2332         estimate D2E/DX2                !
 ! A13   A(4,5,6)              119.4319         estimate D2E/DX2                !
 ! A14   A(4,5,7)              120.2215         estimate D2E/DX2                !
 ! A15   A(6,5,7)              120.3466         estimate D2E/DX2                !
 ! A16   A(1,6,5)              121.6505         estimate D2E/DX2                !
 ! A17   A(1,6,14)             120.1971         estimate D2E/DX2                !
 ! A18   A(5,6,14)             118.1524         estimate D2E/DX2                !
 ! A19   A(5,7,8)              114.1529         estimate D2E/DX2                !
 ! A20   A(5,7,10)             125.9119         estimate D2E/DX2                !
 ! A21   A(8,7,10)             119.9351         estimate D2E/DX2                !
 ! A22   A(7,8,15)             106.1252         estimate D2E/DX2                !
 ! A23   A(4,9,16)             119.1615         estimate D2E/DX2                !
 ! A24   A(4,9,17)             120.1696         estimate D2E/DX2                !
 ! A25   A(16,9,17)            120.6689         estimate D2E/DX2                !
 ! D1    D(6,1,2,3)              0.0008         estimate D2E/DX2                !
 ! D2    D(6,1,2,12)          -179.9993         estimate D2E/DX2                !
 ! D3    D(11,1,2,3)          -179.9997         estimate D2E/DX2                !
 ! D4    D(11,1,2,12)            0.0002         estimate D2E/DX2                !
 ! D5    D(2,1,6,5)             -0.0023         estimate D2E/DX2                !
 ! D6    D(2,1,6,14)           179.9993         estimate D2E/DX2                !
 ! D7    D(11,1,6,5)           179.9983         estimate D2E/DX2                !
 ! D8    D(11,1,6,14)           -0.0002         estimate D2E/DX2                !
 ! D9    D(1,2,3,4)              0.0001         estimate D2E/DX2                !
 ! D10   D(1,2,3,13)           179.9994         estimate D2E/DX2                !
 ! D11   D(12,2,3,4)          -179.9998         estimate D2E/DX2                !
 ! D12   D(12,2,3,13)           -0.0005         estimate D2E/DX2                !
 ! D13   D(2,3,4,5)              0.0003         estimate D2E/DX2                !
 ! D14   D(2,3,4,9)            179.9982         estimate D2E/DX2                !
 ! D15   D(13,3,4,5)          -179.999          estimate D2E/DX2                !
 ! D16   D(13,3,4,9)            -0.0011         estimate D2E/DX2                !
 ! D17   D(3,4,5,6)             -0.0016         estimate D2E/DX2                !
 ! D18   D(3,4,5,7)            179.9999         estimate D2E/DX2                !
 ! D19   D(9,4,5,6)           -179.9995         estimate D2E/DX2                !
 ! D20   D(9,4,5,7)              0.002          estimate D2E/DX2                !
 ! D21   D(3,4,9,16)          -179.9928         estimate D2E/DX2                !
 ! D22   D(3,4,9,17)             0.0001         estimate D2E/DX2                !
 ! D23   D(5,4,9,16)             0.005          estimate D2E/DX2                !
 ! D24   D(5,4,9,17)           179.9978         estimate D2E/DX2                !
 ! D25   D(4,5,6,1)              0.0027         estimate D2E/DX2                !
 ! D26   D(4,5,6,14)          -179.9988         estimate D2E/DX2                !
 ! D27   D(7,5,6,1)           -179.9988         estimate D2E/DX2                !
 ! D28   D(7,5,6,14)            -0.0003         estimate D2E/DX2                !
 ! D29   D(4,5,7,8)            179.947          estimate D2E/DX2                !
 ! D30   D(4,5,7,10)             0.0521         estimate D2E/DX2                !
 ! D31   D(6,5,7,8)             -0.0515         estimate D2E/DX2                !
 ! D32   D(6,5,7,10)          -179.9464         estimate D2E/DX2                !
 ! D33   D(5,7,8,15)          -179.9503         estimate D2E/DX2                !
 ! D34   D(10,7,8,15)           -0.0485         estimate D2E/DX2                !
 --------------------------------------------------------------------------------
 Trust Radius=3.00D-01 FncErr=1.00D-07 GrdErr=1.00D-06
 Number of steps in this run=     86 maximum allowed number of steps=    102.
 GradGradGradGradGradGradGradGradGradGradGradGradGradGradGradGradGradGrad

                          Input orientation:                          
 ---------------------------------------------------------------------
 Center     Atomic      Atomic             Coordinates (Angstroms)
 Number     Number       Type             X           Y           Z
 ---------------------------------------------------------------------
      1          6           0       -1.859221   -1.523389   -0.000022
      2          6           0       -2.589424   -0.321626    0.000218
      3          6           0       -1.944016    0.903063    0.000202
      4          6           0       -0.529934    0.987718   -0.000059
      5          6           0        0.213499   -0.231649   -0.000312
      6          6           0       -0.475244   -1.464112   -0.000259
      7          6           0        1.679323   -0.202258   -0.000591
      8          8           0        2.260625   -1.431921    0.000334
      9          7           0        0.075816    2.208172   -0.000106
     10          8           0        2.380526    0.808024    0.000272
     11          1           0       -2.369909   -2.480363   -0.000013
     12          1           0       -3.675740   -0.347621    0.000418
     13          1           0       -2.520863    1.824385    0.000379
     14          1           0        0.109444   -2.376621   -0.000435
     15          1           0        3.219372   -1.277043    0.000848
     16          1           0        1.086391    2.256975   -0.000404
     17          1           0       -0.478512    3.047779    0.000045
 ---------------------------------------------------------------------
                    Distance matrix (angstroms):
                    1          2          3          4          5
     1  C    0.000000
     2  C    1.406212   0.000000
     3  C    2.427933   1.384346   0.000000
     4  C    2.841243   2.440467   1.416614   0.000000
     5  C    2.442286   2.804367   2.437713   1.428128   0.000000
     6  C    1.385246   2.403130   2.785823   2.452440   1.411854
     7  C    3.777126   4.270416   3.788182   2.509354   1.466119
     8  O    4.120861   4.975513   4.809486   3.693491   2.373052
     9  N    4.203441   3.674695   2.404793   1.362513   2.443703
    10  O    4.838485   5.096716   4.325586   2.916002   2.403524
    11  H    1.084713   2.169869   3.410126   3.925951   3.425013
    12  H    2.163833   1.086627   2.136136   3.417488   3.890968
    13  H    3.412530   2.147106   1.087008   2.159586   3.421113
    14  H    2.145611   3.392181   3.869499   3.424556   2.147494
    15  H    5.084564   5.886844   5.604769   4.380233   3.182471
    16  H    4.792471   4.490078   3.319103   2.055120   2.637269
    17  H    4.775137   3.976033   2.597597   2.060703   3.351645
                    6          7          8          9         10
     6  C    0.000000
     7  C    2.496885   0.000000
     8  O    2.736058   1.360141   0.000000
     9  N    3.713400   2.895066   4.245429   0.000000
    10  O    3.649387   1.229779   2.243152   2.696684   0.000000
    11  H    2.150005   4.646078   4.747744   5.288093   5.777553
    12  H    3.389650   5.357036   6.034578   4.539411   6.165539
    13  H    3.872825   4.663566   5.784994   2.624888   5.005657
    14  H    1.083759   2.681860   2.349476   4.584916   3.911493
    15  H    3.699349   1.878008   0.971176   4.693471   2.247480
    16  H    4.035492   2.529703   3.871276   1.011753   1.942742
    17  H    4.511892   3.901153   5.250770   1.006091   3.631887
                   11         12         13         14         15
    11  H    0.000000
    12  H    2.500757   0.000000
    13  H    4.307394   2.459949   0.000000
    14  H    2.481522   4.294701   4.956508   0.000000
    15  H    5.717346   6.957470   6.524504   3.298594   0.000000
    16  H    5.864161   5.427874   3.633100   4.735466   4.127819
    17  H    5.842751   4.663798   2.380733   5.456172   5.690205
                   16         17
    16  H    0.000000
    17  H    1.753366   0.000000
 Stoichiometry    C7H7NO2
 Framework group  C1[X(C7H7NO2)]
 Deg. of freedom    45
 Full point group                 C1      NOp   1
 Largest Abelian subgroup         C1      NOp   1
 Largest concise Abelian subgroup C1      NOp   1
                         Standard orientation:                         
 ---------------------------------------------------------------------
 Center     Atomic      Atomic             Coordinates (Angstroms)
 Number     Number       Type             X           Y           Z
 ---------------------------------------------------------------------
      1          6           0       -1.859221   -1.523389   -0.000022
      2          6           0       -2.589424   -0.321626    0.000218
      3          6           0       -1.944016    0.903063    0.000202
      4          6           0       -0.529934    0.987718   -0.000059
      5          6           0        0.213499   -0.231649   -0.000312
      6          6           0       -0.475244   -1.464112   -0.000259
      7          6           0        1.679323   -0.202258   -0.000591
      8          8           0        2.260625   -1.431921    0.000334
      9          7           0        0.075816    2.208172   -0.000106
     10          8           0        2.380526    0.808024    0.000272
     11          1           0       -2.369909   -2.480363   -0.000013
     12          1           0       -3.675740   -0.347621    0.000418
     13          1           0       -2.520863    1.824385    0.000379
     14          1           0        0.109444   -2.376621   -0.000435
     15          1           0        3.219372   -1.277043    0.000848
     16          1           0        1.086391    2.256975   -0.000404
     17          1           0       -0.478512    3.047779    0.000045
 ---------------------------------------------------------------------
 Rotational constants (GHZ):      2.2923684      1.2100986      0.7920109
 Standard basis: 6-31+G(d,p) (6D, 7F)
 There are   225 symmetry adapted cartesian basis functions of A   symmetry.
 There are   225 symmetry adapted basis functions of A   symmetry.
   225 basis functions,   369 primitive gaussians,   225 cartesian basis functions
    36 alpha electrons       36 beta electrons
       nuclear repulsion energy       500.0782038866 Hartrees.
 NAtoms=   17 NActive=   17 NUniq=   17 SFac= 1.00D+00 NAtFMM=   60 NAOKFM=F Big=F
 Integral buffers will be    131072 words long.
 Raffenetti 2 integral format.
 Two-electron integral symmetry is turned on.
 Nuclear repulsion after empirical dispersion term =      500.0639705701 Hartrees.
 One-electron integrals computed using PRISM.
 NBasis=   225 RedAO= T EigKep=  2.75D-06  NBF=   225
 NBsUse=   225 1.00D-06 EigRej= -1.00D+00 NBFU=   225
 ExpMin= 4.38D-02 ExpMax= 5.48D+03 ExpMxC= 8.25D+02 IAcc=2 IRadAn=         4 AccDes= 0.00D+00
 Harris functional with IExCor=20419 and IRadAn=       4 diagonalized for initial guess.
 HarFok:  IExCor=20419 AccDes= 0.00D+00 IRadAn=         4 IDoV= 1 UseB2=F ITyADJ=14
 ICtDFT=  3500011 ScaDFX=  1.000000  1.000000  1.000000  1.000000
 FoFCou: FMM=F IPFlag=           0 FMFlag=      100000 FMFlg1=           0
         NFxFlg=           0 DoJE=T BraDBF=F KetDBF=T FulRan=T
         wScrn=  0.000000 ICntrl=     500 IOpCl=  0 I1Cent=   200000004 NGrid=           0
         NMat0=    1 NMatS0=      1 NMatT0=    0 NMatD0=    1 NMtDS0=    0 NMtDT0=    0
 Petite list used in FoFCou.
 Keep R1 ints in memory in canonical form, NReq=652403680.
 Requested convergence on RMS density matrix=1.00D-08 within 128 cycles.
 Requested convergence on MAX density matrix=1.00D-06.
 Requested convergence on             energy=1.00D-06.
 No special actions if energy rises.
 SCF Done:  E(RCAM-B3LYP) =  -476.011098415     A.U. after   16 cycles
            NFock= 16  Conv=0.52D-08     -V/T= 2.0094

 **********************************************************************

            Population analysis using the SCF density.

 **********************************************************************

 Orbital symmetries:
       Occupied  (A) (A) (A) (A) (A) (A) (A) (A) (A) (A) (A) (A)
                 (A) (A) (A) (A) (A) (A) (A) (A) (A) (A) (A) (A)
                 (A) (A) (A) (A) (A) (A) (A) (A) (A) (A) (A) (A)
       Virtual   (A) (A) (A) (A) (A) (A) (A) (A) (A) (A) (A) (A)
                 (A) (A) (A) (A) (A) (A) (A) (A) (A) (A) (A) (A)
                 (A) (A) (A) (A) (A) (A) (A) (A) (A) (A) (A) (A)
                 (A) (A) (A) (A) (A) (A) (A) (A) (A) (A) (A) (A)
                 (A) (A) (A) (A) (A) (A) (A) (A) (A) (A) (A) (A)
                 (A) (A) (A) (A) (A) (A) (A) (A) (A) (A) (A) (A)
                 (A) (A) (A) (A) (A) (A) (A) (A) (A) (A) (A) (A)
                 (A) (A) (A) (A) (A) (A) (A) (A) (A) (A) (A) (A)
                 (A) (A) (A) (A) (A) (A) (A) (A) (A) (A) (A) (A)
                 (A) (A) (A) (A) (A) (A) (A) (A) (A) (A) (A) (A)
                 (A) (A) (A) (A) (A) (A) (A) (A) (A) (A) (A) (A)
                 (A) (A) (A) (A) (A) (A) (A) (A) (A) (A) (A) (A)
                 (A) (A) (A) (A) (A) (A) (A) (A) (A) (A) (A) (A)
                 (A) (A) (A) (A) (A) (A) (A) (A) (A) (A) (A) (A)
                 (A) (A) (A) (A) (A) (A) (A) (A) (A) (A) (A) (A)
                 (A) (A) (A) (A) (A) (A) (A) (A) (A)
 The electronic state is 1-A.
 Alpha  occ. eigenvalues --  -19.28113 -19.22689 -14.42726 -10.41113 -10.33305
 Alpha  occ. eigenvalues --  -10.28365 -10.28229 -10.28066 -10.27223 -10.26487
 Alpha  occ. eigenvalues --   -1.19766  -1.10262  -1.01856  -0.93456  -0.85810
 Alpha  occ. eigenvalues --   -0.82051  -0.74349  -0.70281  -0.67208  -0.61257
 Alpha  occ. eigenvalues --   -0.59803  -0.58352  -0.56617  -0.53164  -0.53036
 Alpha  occ. eigenvalues --   -0.51117  -0.50098  -0.47540  -0.46346  -0.44215
 Alpha  occ. eigenvalues --   -0.42254  -0.39809  -0.38675  -0.35522  -0.32208
 Alpha  occ. eigenvalues --   -0.26680
 Alpha virt. eigenvalues --   -0.01122   0.02712   0.03645   0.03940   0.04494
 Alpha virt. eigenvalues --    0.05853   0.07036   0.07725   0.08199   0.09170
 Alpha virt. eigenvalues --    0.09480   0.09727   0.10751   0.12161   0.12717
 Alpha virt. eigenvalues --    0.14599   0.15436   0.16232   0.16390   0.16632
 Alpha virt. eigenvalues --    0.17446   0.19123   0.20021   0.20088   0.20940
 Alpha virt. eigenvalues --    0.21452   0.21955   0.22493   0.23563   0.23622
 Alpha virt. eigenvalues --    0.24291   0.25071   0.25686   0.25969   0.26463
 Alpha virt. eigenvalues --    0.27139   0.27748   0.27927   0.28692   0.30267
 Alpha virt. eigenvalues --    0.30727   0.31784   0.32339   0.32438   0.33161
 Alpha virt. eigenvalues --    0.34619   0.35174   0.36317   0.37107   0.38187
 Alpha virt. eigenvalues --    0.39347   0.42549   0.43591   0.45805   0.45919
 Alpha virt. eigenvalues --    0.49321   0.52109   0.52674   0.56262   0.65678
 Alpha virt. eigenvalues --    0.67517   0.71725   0.71767   0.73671   0.76971
 Alpha virt. eigenvalues --    0.77759   0.78350   0.79156   0.80087   0.80223
 Alpha virt. eigenvalues --    0.82735   0.83322   0.86753   0.89572   0.90261
 Alpha virt. eigenvalues --    0.94024   0.96353   0.99202   0.99748   1.01183
 Alpha virt. eigenvalues --    1.01919   1.04708   1.08468   1.09420   1.10391
 Alpha virt. eigenvalues --    1.12810   1.16054   1.17545   1.18867   1.19657
 Alpha virt. eigenvalues --    1.21136   1.21351   1.26565   1.28859   1.29988
 Alpha virt. eigenvalues --    1.30946   1.32757   1.33257   1.36595   1.39688
 Alpha virt. eigenvalues --    1.40188   1.42237   1.42371   1.43434   1.44884
 Alpha virt. eigenvalues --    1.45053   1.47019   1.47274   1.48250   1.53034
 Alpha virt. eigenvalues --    1.54212   1.62302   1.64470   1.69135   1.73189
 Alpha virt. eigenvalues --    1.80310   1.80943   1.85340   1.86447   1.87770
 Alpha virt. eigenvalues --    1.90292   1.92848   1.97583   1.98935   1.99108
 Alpha virt. eigenvalues --    2.02708   2.03517   2.06746   2.07422   2.09399
 Alpha virt. eigenvalues --    2.12643   2.12930   2.15080   2.18505   2.23782
 Alpha virt. eigenvalues --    2.26929   2.28817   2.33172   2.36972   2.39832
 Alpha virt. eigenvalues --    2.45099   2.45182   2.47147   2.47170   2.50079
 Alpha virt. eigenvalues --    2.51803   2.53206   2.57210   2.59692   2.60378
 Alpha virt. eigenvalues --    2.62255   2.64345   2.65938   2.67639   2.69197
 Alpha virt. eigenvalues --    2.69954   2.74863   2.75332   2.80490   2.81055
 Alpha virt. eigenvalues --    2.83373   2.83471   2.88881   2.94782   3.02401
 Alpha virt. eigenvalues --    3.08028   3.12705   3.16341   3.19493   3.27547
 Alpha virt. eigenvalues --    3.31483   3.34472   3.39463   3.43234   3.54519
 Alpha virt. eigenvalues --    3.57625   3.60120   3.74790   3.93904   4.26036
 Alpha virt. eigenvalues --    4.33846   4.35892   4.37624   4.38653   4.52174
 Alpha virt. eigenvalues --    4.56703   4.61901   4.84137   4.94543
          Condensed to atoms (all electrons):
               1          2          3          4          5          6
     1  C    7.306236   0.452176   0.116758  -0.342838  -0.283798  -1.591068
     2  C    0.452176   5.869777  -0.302821   1.303427  -1.522918   0.448740
     3  C    0.116758  -0.302821   9.391702  -0.178771  -1.231023  -2.242720
     4  C   -0.342838   1.303427  -0.178771  17.847652  -6.109971  -4.431304
     5  C   -0.283798  -1.522918  -1.231023  -6.109971  14.561424  -0.623165
     6  C   -1.591068   0.448740  -2.242720  -4.431304  -0.623165  14.815369
     7  C   -0.108104  -0.149980  -0.045834  -1.146097   0.347397   0.050618
     8  O    0.119801   0.000476  -0.026278  -0.145270  -0.096385  -0.009199
     9  N   -0.003989   0.043234  -0.145151   0.053811  -0.052286   0.178635
    10  O    0.042703  -0.004417   0.029399  -0.095323  -0.048141  -0.092928
    11  H    0.248742  -0.009823   0.008888  -0.001699   0.013867   0.061341
    12  H    0.042515   0.245307   0.059302  -0.044237   0.007700   0.005087
    13  H    0.011502   0.034136   0.214322   0.017588   0.064481  -0.026164
    14  H    0.036999   0.003327   0.001404   0.034037   0.055801   0.197440
    15  H   -0.008334  -0.000768   0.006160   0.005405   0.060341  -0.014930
    16  H    0.003381   0.002203   0.087014   0.140087  -0.192301  -0.040432
    17  H   -0.002207   0.003092  -0.090896  -0.085350   0.137555   0.026358
               7          8          9         10         11         12
     1  C   -0.108104   0.119801  -0.003989   0.042703   0.248742   0.042515
     2  C   -0.149980   0.000476   0.043234  -0.004417  -0.009823   0.245307
     3  C   -0.045834  -0.026278  -0.145151   0.029399   0.008888   0.059302
     4  C   -1.146097  -0.145270   0.053811  -0.095323  -0.001699  -0.044237
     5  C    0.347397  -0.096385  -0.052286  -0.048141   0.013867   0.007700
     6  C    0.050618  -0.009199   0.178635  -0.092928   0.061341   0.005087
     7  C    5.787162   0.184914  -0.105988   0.396384  -0.001182   0.000626
     8  O    0.184914   8.435138   0.001210  -0.161978   0.000151   0.000006
     9  N   -0.105988   0.001210   7.093718  -0.021958   0.000186  -0.000369
    10  O    0.396384  -0.161978  -0.021958   8.463873   0.000020  -0.000001
    11  H   -0.001182   0.000151   0.000186   0.000020   0.556293  -0.004562
    12  H    0.000626   0.000006  -0.000369  -0.000001  -0.004562   0.558918
    13  H    0.007320   0.000015  -0.018128  -0.000015  -0.000151  -0.005499
    14  H   -0.018224  -0.000127  -0.000999  -0.000081  -0.004833  -0.000157
    15  H   -0.013547   0.198196  -0.000091   0.004844  -0.000000  -0.000000
    16  H   -0.001938   0.000594   0.313798   0.021862  -0.000000   0.000002
    17  H   -0.003172   0.000173   0.323595   0.002398  -0.000000  -0.000010
              13         14         15         16         17
     1  C    0.011502   0.036999  -0.008334   0.003381  -0.002207
     2  C    0.034136   0.003327  -0.000768   0.002203   0.003092
     3  C    0.214322   0.001404   0.006160   0.087014  -0.090896
     4  C    0.017588   0.034037   0.005405   0.140087  -0.085350
     5  C    0.064481   0.055801   0.060341  -0.192301   0.137555
     6  C   -0.026164   0.197440  -0.014930  -0.040432   0.026358
     7  C    0.007320  -0.018224  -0.013547  -0.001938  -0.003172
     8  O    0.000015  -0.000127   0.198196   0.000594   0.000173
     9  N   -0.018128  -0.000999  -0.000091   0.313798   0.323595
    10  O   -0.000015  -0.000081   0.004844   0.021862   0.002398
    11  H   -0.000151  -0.004833  -0.000000  -0.000000  -0.000000
    12  H   -0.005499  -0.000157  -0.000000   0.000002  -0.000010
    13  H    0.576673   0.000011  -0.000000   0.000048   0.005199
    14  H    0.000011   0.534015   0.000148   0.000000   0.000002
    15  H   -0.000000   0.000148   0.370843   0.000010  -0.000001
    16  H    0.000048   0.000000   0.000010   0.331429  -0.023043
    17  H    0.005199   0.000002  -0.000001  -0.023043   0.397191
 Mulliken charges:
               1
     1  C   -0.040474
     2  C   -0.415166
     3  C    0.348546
     4  C   -0.821148
     5  C    0.911422
     6  C   -0.711679
     7  C    0.819648
     8  O   -0.501438
     9  N   -0.659228
    10  O   -0.536641
    11  H    0.132762
    12  H    0.135372
    13  H    0.118662
    14  H    0.161235
    15  H    0.391724
    16  H    0.357285
    17  H    0.309117
 Sum of Mulliken charges =  -0.00000
 Mulliken charges with hydrogens summed into heavy atoms:
               1
     1  C    0.092288
     2  C   -0.279794
     3  C    0.467208
     4  C   -0.821148
     5  C    0.911422
     6  C   -0.550444
     7  C    0.819648
     8  O   -0.109714
     9  N    0.007174
    10  O   -0.536641
 Electronic spatial extent (au):  <R**2>=           1384.6732
 Charge=             -0.0000 electrons
 Dipole moment (field-independent basis, Debye):
    X=             -1.2342    Y=              0.4637    Z=             -0.0007  Tot=              1.3184
 Quadrupole moment (field-independent basis, Debye-Ang):
   XX=            -52.4510   YY=            -51.0081   ZZ=            -62.7221
   XY=             -5.3693   XZ=             -0.0017   YZ=             -0.0011
 Traceless Quadrupole moment (field-independent basis, Debye-Ang):
   XX=              2.9428   YY=              4.3856   ZZ=             -7.3284
   XY=             -5.3693   XZ=             -0.0017   YZ=             -0.0011
 Octapole moment (field-independent basis, Debye-Ang**2):
  XXX=             19.4682  YYY=             25.2241  ZZZ=              0.0032  XYY=             -3.2358
  XXY=            -16.9133  XXZ=              0.0129  XZZ=             12.2843  YZZ=              0.2748
  YYZ=              0.0017  XYZ=             -0.0081
 Hexadecapole moment (field-independent basis, Debye-Ang**3):
 XXXX=           -967.4034 YYYY=           -535.3953 ZZZZ=            -71.6824 XXXY=            -78.7869
 XXXZ=              0.0313 YYYX=            -10.9743 YYYZ=             -0.0009 ZZZX=              0.0078
 ZZZY=             -0.0029 XXYY=           -271.2795 XXZZ=           -212.4937 YYZZ=           -133.2717
 XXYZ=             -0.0240 YYXZ=              0.0036 ZZXY=             -5.1090
 N-N= 5.000639705701D+02 E-N=-2.109403364551D+03  KE= 4.715710119689D+02
 Calling FoFJK, ICntrl=      2127 FMM=F ISym2X=0 I1Cent= 0 IOpClX= 0 NMat=1 NMatS=1 NMatT=0.
 ***** Axes restored to original set *****
 -------------------------------------------------------------------
 Center     Atomic                   Forces (Hartrees/Bohr)
 Number     Number              X              Y              Z
 -------------------------------------------------------------------
      1        6           0.003069447    0.003774415    0.000005430
      2        6           0.005490067    0.001165361   -0.000001612
      3        6           0.001742176   -0.004189478    0.000004544
      4        6           0.001058712   -0.002929749   -0.000013930
      5        6          -0.004615204    0.001814745   -0.000066680
      6        6          -0.002563565    0.004180396   -0.000010575
      7        6           0.005718380    0.001851975    0.000271052
      8        8          -0.002093077    0.007675461   -0.000081301
      9        7          -0.001055137   -0.003214224   -0.000003040
     10        8          -0.006362183   -0.009269474   -0.000109404
     11        1           0.000449222    0.000670968    0.000001461
     12        1           0.000765445    0.000037149   -0.000000981
     13        1           0.000528108   -0.000630877    0.000000304
     14        1          -0.000037563    0.000466166   -0.000000801
     15        1          -0.001504292   -0.000143292   -0.000001661
     16        1          -0.000921325   -0.000251939    0.000008155
     17        1           0.000330791   -0.001007604   -0.000000960
 -------------------------------------------------------------------
 Cartesian Forces:  Max     0.009269474 RMS     0.002722166

 GradGradGradGradGradGradGradGradGradGradGradGradGradGradGradGradGradGrad
 Berny optimization.
 FormGI is forming the generalized inverse of G from B-inverse, IUseBI=4.
 Internal  Forces:  Max     0.011242461 RMS     0.002558223
 Search for a local minimum.
 Step number   1 out of a maximum of   86
 All quantities printed in internal units (Hartrees-Bohrs-Radians)
 Mixed Optimization -- RFO/linear search
 Second derivative matrix not updated -- first step.
 ITU=  0
     Eigenvalues ---    0.01214   0.01520   0.01648   0.01802   0.01930
     Eigenvalues ---    0.02040   0.02056   0.02100   0.02139   0.02161
     Eigenvalues ---    0.02188   0.02188   0.02209   0.02219   0.16000
     Eigenvalues ---    0.16000   0.16000   0.16000   0.16000   0.16000
     Eigenvalues ---    0.16000   0.22000   0.22477   0.24467   0.25000
     Eigenvalues ---    0.25000   0.25000   0.25000   0.35161   0.35205
     Eigenvalues ---    0.35431   0.35544   0.36209   0.39381   0.40635
     Eigenvalues ---    0.42777   0.44008   0.45680   0.46633   0.46772
     Eigenvalues ---    0.47813   0.52443   0.52919   0.53137   0.91179
 RFO step:  Lambda=-9.62157876D-04 EMin= 1.21413269D-02
 Linear search not attempted -- first point.
 Iteration  1 RMS(Cart)=  0.01203327 RMS(Int)=  0.00001071
 Iteration  2 RMS(Cart)=  0.00001475 RMS(Int)=  0.00000274
 Iteration  3 RMS(Cart)=  0.00000000 RMS(Int)=  0.00000274
 Variable       Old X    -DE/DX   Delta X   Delta X   Delta X     New X
                                 (Linear)    (Quad)   (Total)
    R1        2.65735  -0.00491   0.00000  -0.01090  -0.01090   2.64645
    R2        2.61774  -0.00645   0.00000  -0.01335  -0.01335   2.60438
    R3        2.04981  -0.00080   0.00000  -0.00226  -0.00226   2.04755
    R4        2.61604  -0.00614   0.00000  -0.01261  -0.01261   2.60342
    R5        2.05343  -0.00077   0.00000  -0.00217  -0.00217   2.05126
    R6        2.67701  -0.00563   0.00000  -0.01306  -0.01306   2.66395
    R7        2.05415  -0.00082   0.00000  -0.00231  -0.00231   2.05184
    R8        2.69877  -0.00863   0.00000  -0.02097  -0.02096   2.67781
    R9        2.57478  -0.00474   0.00000  -0.00902  -0.00902   2.56576
   R10        2.66802  -0.00633   0.00000  -0.01454  -0.01453   2.65348
   R11        2.77056  -0.00424   0.00000  -0.01167  -0.01167   2.75889
   R12        2.04801  -0.00041   0.00000  -0.00116  -0.00116   2.04685
   R13        2.57029  -0.00835   0.00000  -0.01575  -0.01575   2.55455
   R14        2.32395  -0.01124   0.00000  -0.01232  -0.01232   2.31163
   R15        1.83526  -0.00151   0.00000  -0.00283  -0.00283   1.83243
   R16        1.91194  -0.00093   0.00000  -0.00204  -0.00204   1.90990
   R17        1.90124  -0.00102   0.00000  -0.00219  -0.00219   1.89905
    A1        2.07399  -0.00042   0.00000  -0.00158  -0.00158   2.07241
    A2        2.10539   0.00029   0.00000   0.00130   0.00131   2.10670
    A3        2.10380   0.00013   0.00000   0.00027   0.00028   2.10408
    A4        2.11058   0.00029   0.00000   0.00177   0.00176   2.11235
    A5        2.09287  -0.00013   0.00000  -0.00077  -0.00076   2.09210
    A6        2.07973  -0.00016   0.00000  -0.00100  -0.00100   2.07874
    A7        2.11560  -0.00057   0.00000  -0.00231  -0.00231   2.11329
    A8        2.09719   0.00040   0.00000   0.00187   0.00187   2.09906
    A9        2.07040   0.00017   0.00000   0.00044   0.00044   2.07084
   A10        2.05851  -0.00005   0.00000  -0.00030  -0.00030   2.05822
   A11        2.09130   0.00062   0.00000   0.00252   0.00251   2.09381
   A12        2.13337  -0.00057   0.00000  -0.00222  -0.00222   2.13115
   A13        2.08448   0.00129   0.00000   0.00492   0.00493   2.08941
   A14        2.09826  -0.00091   0.00000  -0.00350  -0.00350   2.09476
   A15        2.10045  -0.00039   0.00000  -0.00143  -0.00143   2.09902
   A16        2.12320  -0.00054   0.00000  -0.00250  -0.00250   2.12070
   A17        2.09784   0.00050   0.00000   0.00265   0.00265   2.10049
   A18        2.06215   0.00005   0.00000  -0.00015  -0.00015   2.06200
   A19        1.99234   0.00002   0.00000   0.00009   0.00008   1.99242
   A20        2.19758   0.00006   0.00000   0.00023   0.00022   2.19780
   A21        2.09326  -0.00008   0.00000  -0.00031  -0.00032   2.09295
   A22        1.85223  -0.00018   0.00000  -0.00113  -0.00113   1.85111
   A23        2.07976  -0.00009   0.00000  -0.00054  -0.00054   2.07922
   A24        2.09736  -0.00022   0.00000  -0.00138  -0.00138   2.09597
   A25        2.10607   0.00031   0.00000   0.00192   0.00192   2.10799
    D1        0.00001  -0.00000   0.00000  -0.00005  -0.00005  -0.00004
    D2       -3.14158  -0.00000   0.00000  -0.00004  -0.00004   3.14156
    D3       -3.14159  -0.00000   0.00000  -0.00001  -0.00001   3.14159
    D4        0.00000  -0.00000   0.00000  -0.00000  -0.00000  -0.00000
    D5       -0.00004   0.00000   0.00000   0.00014   0.00014   0.00010
    D6        3.14158   0.00000   0.00000   0.00004   0.00004  -3.14157
    D7        3.14156   0.00000   0.00000   0.00010   0.00010  -3.14152
    D8       -0.00000  -0.00000   0.00000  -0.00000  -0.00000  -0.00001
    D9        0.00000  -0.00000   0.00000  -0.00001  -0.00001  -0.00000
   D10        3.14158   0.00000   0.00000   0.00004   0.00004  -3.14156
   D11       -3.14159  -0.00000   0.00000  -0.00001  -0.00001   3.14158
   D12       -0.00001   0.00000   0.00000   0.00003   0.00003   0.00002
   D13        0.00000  -0.00000   0.00000  -0.00002  -0.00002  -0.00002
   D14        3.14156   0.00000   0.00000   0.00016   0.00016  -3.14146
   D15       -3.14157  -0.00000   0.00000  -0.00007  -0.00007   3.14154
   D16       -0.00002   0.00000   0.00000   0.00012   0.00012   0.00010
   D17       -0.00003   0.00000   0.00000   0.00011   0.00011   0.00008
   D18        3.14159   0.00000   0.00000  -0.00000  -0.00000   3.14159
   D19       -3.14158  -0.00000   0.00000  -0.00008  -0.00008   3.14152
   D20        0.00004  -0.00000   0.00000  -0.00019  -0.00019  -0.00016
   D21       -3.14147  -0.00001   0.00000  -0.00038  -0.00038   3.14133
   D22        0.00000  -0.00000   0.00000  -0.00013  -0.00013  -0.00013
   D23        0.00009  -0.00000   0.00000  -0.00019  -0.00019  -0.00010
   D24        3.14156   0.00000   0.00000   0.00006   0.00006  -3.14157
   D25        0.00005  -0.00000   0.00000  -0.00017  -0.00017  -0.00013
   D26       -3.14157  -0.00000   0.00000  -0.00007  -0.00007   3.14154
   D27       -3.14157  -0.00000   0.00000  -0.00006  -0.00006   3.14155
   D28       -0.00001   0.00000   0.00000   0.00004   0.00004   0.00004
   D29        3.14067   0.00006   0.00000   0.00389   0.00389  -3.13863
   D30        0.00091  -0.00007   0.00000  -0.00416  -0.00416  -0.00325
   D31       -0.00090   0.00006   0.00000   0.00377   0.00377   0.00287
   D32       -3.14066  -0.00007   0.00000  -0.00427  -0.00427   3.13826
   D33       -3.14072  -0.00006   0.00000  -0.00379  -0.00379   3.13867
   D34       -0.00085   0.00006   0.00000   0.00373   0.00373   0.00288
         Item               Value     Threshold  Converged?
 Maximum Force            0.011242     0.000450     NO 
 RMS     Force            0.002558     0.000300     NO 
 Maximum Displacement     0.035328     0.001800     NO 
 RMS     Displacement     0.012034     0.001200     NO 
 Predicted change in Energy=-4.820997D-04
 GradGradGradGradGradGradGradGradGradGradGradGradGradGradGradGradGradGrad

                          Input orientation:                          
 ---------------------------------------------------------------------
 Center     Atomic      Atomic             Coordinates (Angstroms)
 Number     Number       Type             X           Y           Z
 ---------------------------------------------------------------------
      1          6           0       -1.852099   -1.517800    0.000245
      2          6           0       -2.578011   -0.320182   -0.000516
      3          6           0       -1.936542    0.899038   -0.000467
      4          6           0       -0.529225    0.980981    0.000355
      5          6           0        0.206098   -0.230335    0.001153
      6          6           0       -0.475210   -1.458136    0.001005
      7          6           0        1.665698   -0.198772    0.002013
      8          8           0        2.245455   -1.419944   -0.000932
      9          7           0        0.079440    2.194646    0.000537
     10          8           0        2.361831    0.807089   -0.001088
     11          1           0       -2.362009   -2.473833    0.000207
     12          1           0       -3.663186   -0.345804   -0.001151
     13          1           0       -2.511639    1.820011   -0.001036
     14          1           0        0.112019   -2.368282    0.001579
     15          1           0        3.202287   -1.262643   -0.002725
     16          1           0        1.089155    2.238667    0.001358
     17          1           0       -0.471928    3.034814   -0.000023
 ---------------------------------------------------------------------
                    Distance matrix (angstroms):
                    1          2          3          4          5
     1  C    0.000000
     2  C    1.400442   0.000000
     3  C    2.418313   1.377671   0.000000
     4  C    2.827349   2.427045   1.409700   0.000000
     5  C    2.427702   2.785558   2.422063   1.417035   0.000000
     6  C    1.378180   2.390964   2.773402   2.439715   1.404163
     7  C    3.756958   4.245446   3.765810   2.491889   1.459942
     8  O    4.098722   4.947251   4.781921   3.669236   2.360964
     9  N    4.184865   3.658744   2.396411   1.357739   2.428287
    10  O    4.812724   5.066831   4.299356   2.896282   2.392371
    11  H    1.083516   2.164456   3.399600   3.910861   3.410052
    12  H    2.157224   1.085479   2.128599   3.403244   3.871007
    13  H    3.402349   2.141221   1.085785   2.152658   3.404411
    14  H    2.140346   3.380973   3.856421   3.410097   2.140016
    15  H    5.060823   5.856627   5.574982   4.354083   3.169041
    16  H    4.770956   4.471668   3.308995   2.049617   2.622167
    17  H    4.757223   3.961260   2.589717   2.054632   3.334805
                    6          7          8          9         10
     6  C    0.000000
     7  C    2.483845   0.000000
     8  O    2.720934   1.351809   0.000000
     9  N    3.694652   2.871353   4.213891   0.000000
    10  O    3.630434   1.223261   2.230071   2.671072   0.000000
    11  H    2.142813   4.625832   4.726458   5.268336   5.751444
    12  H    3.376459   5.330913   6.005482   4.523399   6.134329
    13  H    3.859183   4.639573   5.755628   2.618024   4.977622
    14  H    1.083146   2.668463   2.334716   4.563045   3.891612
    15  H    3.682692   1.868943   0.969678   4.658866   2.233866
    16  H    4.014174   2.504698   3.836987   1.010675   1.915496
    17  H    4.492951   3.876278   5.218145   1.004933   3.604574
                   11         12         13         14         15
    11  H    0.000000
    12  H    2.494308   0.000000
    13  H    4.296450   2.452919   0.000000
    14  H    2.476278   4.282826   4.942205   0.000000
    15  H    5.694592   6.926422   6.492435   3.282105   0.000000
    16  H    5.841078   5.409644   3.625052   4.709435   4.089561
    17  H    5.823882   4.648947   2.374062   5.434561   5.654025
                   16         17
    16  H    0.000000
    17  H    1.752380   0.000000
 Stoichiometry    C7H7NO2
 Framework group  C1[X(C7H7NO2)]
 Deg. of freedom    45
 Full point group                 C1      NOp   1
 Largest Abelian subgroup         C1      NOp   1
 Largest concise Abelian subgroup C1      NOp   1
                         Standard orientation:                         
 ---------------------------------------------------------------------
 Center     Atomic      Atomic             Coordinates (Angstroms)
 Number     Number       Type             X           Y           Z
 ---------------------------------------------------------------------
      1          6           0       -1.854681   -1.511909    0.000126
      2          6           0       -2.576498   -0.311818   -0.000634
      3          6           0       -1.930868    0.905203   -0.000586
      4          6           0       -0.523280    0.982339    0.000236
      5          6           0        0.207901   -0.231483    0.001034
      6          6           0       -0.477597   -1.456949    0.000887
      7          6           0        1.667601   -0.204906    0.001894
      8          8           0        2.243182   -1.428051   -0.001050
      9          7           0        0.089528    2.193917    0.000419
     10          8           0        2.367166    0.798571   -0.001206
     11          1           0       -2.367854   -2.466194    0.000089
     12          1           0       -3.661755   -0.333733   -0.001270
     13          1           0       -2.502816    1.828135   -0.001154
     14          1           0        0.106519   -2.369096    0.001460
     15          1           0        3.200546   -1.274019   -0.002844
     16          1           0        1.099388    2.234489    0.001239
     17          1           0       -0.458967    3.035964   -0.000141
 ---------------------------------------------------------------------
 Rotational constants (GHZ):      2.3175471      1.2239453      0.8009482
 Standard basis: 6-31+G(d,p) (6D, 7F)
 There are   225 symmetry adapted cartesian basis functions of A   symmetry.
 There are   225 symmetry adapted basis functions of A   symmetry.
   225 basis functions,   369 primitive gaussians,   225 cartesian basis functions
    36 alpha electrons       36 beta electrons
       nuclear repulsion energy       502.7008758777 Hartrees.
 NAtoms=   17 NActive=   17 NUniq=   17 SFac= 1.00D+00 NAtFMM=   60 NAOKFM=F Big=F
 Integral buffers will be    131072 words long.
 Raffenetti 2 integral format.
 Two-electron integral symmetry is turned on.
 Nuclear repulsion after empirical dispersion term =      502.6865895112 Hartrees.
 One-electron integrals computed using PRISM.
 NBasis=   225 RedAO= T EigKep=  2.62D-06  NBF=   225
 NBsUse=   225 1.00D-06 EigRej= -1.00D+00 NBFU=   225
 Initial guess from the checkpoint file:  "gd3camb3lypAnthranilic.chk"
 B after Tr=    -0.000000   -0.000000   -0.000000
         Rot=    0.999999    0.000008   -0.000021    0.001581 Ang=   0.18 deg.
 ExpMin= 4.38D-02 ExpMax= 5.48D+03 ExpMxC= 8.25D+02 IAcc=2 IRadAn=         4 AccDes= 0.00D+00
 Harris functional with IExCor=20419 and IRadAn=       4 diagonalized for initial guess.
 HarFok:  IExCor=20419 AccDes= 0.00D+00 IRadAn=         4 IDoV= 1 UseB2=F ITyADJ=14
 ICtDFT=  3500011 ScaDFX=  1.000000  1.000000  1.000000  1.000000
 FoFCou: FMM=F IPFlag=           0 FMFlag=      100000 FMFlg1=           0
         NFxFlg=           0 DoJE=T BraDBF=F KetDBF=T FulRan=T
         wScrn=  0.000000 ICntrl=     500 IOpCl=  0 I1Cent=   200000004 NGrid=           0
         NMat0=    1 NMatS0=      1 NMatT0=    0 NMatD0=    1 NMtDS0=    0 NMtDT0=    0
 Petite list used in FoFCou.
 Keep R1 ints in memory in canonical form, NReq=652403680.
 Requested convergence on RMS density matrix=1.00D-08 within 128 cycles.
 Requested convergence on MAX density matrix=1.00D-06.
 Requested convergence on             energy=1.00D-06.
 No special actions if energy rises.
 SCF Done:  E(RCAM-B3LYP) =  -476.011498973     A.U. after   13 cycles
            NFock= 13  Conv=0.41D-08     -V/T= 2.0090
 Calling FoFJK, ICntrl=      2127 FMM=F ISym2X=0 I1Cent= 0 IOpClX= 0 NMat=1 NMatS=1 NMatT=0.
 ***** Axes restored to original set *****
 -------------------------------------------------------------------
 Center     Atomic                   Forces (Hartrees/Bohr)
 Number     Number              X              Y              Z
 -------------------------------------------------------------------
      1        6          -0.000343129   -0.000733994   -0.000018493
      2        6          -0.000550380    0.000246193    0.000001654
      3        6          -0.000866851    0.000266821   -0.000018989
      4        6           0.000611983    0.000507976    0.000044444
      5        6          -0.000553687    0.000355142    0.000237411
      6        6           0.000223595   -0.000891590    0.000037516
      7        6           0.001456318   -0.001795196   -0.000889064
      8        8           0.000128359    0.001184277    0.000267188
      9        7          -0.000398148    0.001093062    0.000010325
     10        8           0.000814052    0.000028731    0.000352112
     11        1          -0.000138865   -0.000066203   -0.000004383
     12        1          -0.000182972   -0.000049131    0.000002444
     13        1          -0.000097594    0.000085982   -0.000001046
     14        1          -0.000015847   -0.000026208    0.000002698
     15        1           0.000110080   -0.000420642    0.000000942
     16        1          -0.000089912    0.000186766   -0.000027393
     17        1          -0.000107001    0.000028015    0.000002637
 -------------------------------------------------------------------
 Cartesian Forces:  Max     0.001795196 RMS     0.000522082

 GradGradGradGradGradGradGradGradGradGradGradGradGradGradGradGradGradGrad
 Berny optimization.
 Using GEDIIS/GDIIS optimizer.
 FormGI is forming the generalized inverse of G from B-inverse, IUseBI=4.
 Internal  Forces:  Max     0.002486657 RMS     0.000677046
 Search for a local minimum.
 Step number   2 out of a maximum of   86
 All quantities printed in internal units (Hartrees-Bohrs-Radians)
 Mixed Optimization -- En-DIIS/RFO-DIIS
 Update second derivatives using D2CorX and points    1    2
 DE= -4.01D-04 DEPred=-4.82D-04 R= 8.31D-01
 TightC=F SS=  1.41D+00  RLast= 4.59D-02 DXNew= 5.0454D-01 1.3782D-01
 Trust test= 8.31D-01 RLast= 4.59D-02 DXMaxT set to 3.00D-01
 ITU=  1  0
 Use linear search instead of GDIIS.
     Eigenvalues ---    0.01214   0.01533   0.01649   0.01802   0.01930
     Eigenvalues ---    0.02040   0.02056   0.02100   0.02139   0.02161
     Eigenvalues ---    0.02188   0.02188   0.02209   0.02219   0.15956
     Eigenvalues ---    0.16000   0.16000   0.16000   0.16000   0.16000
     Eigenvalues ---    0.16038   0.21979   0.22567   0.24162   0.24784
     Eigenvalues ---    0.25000   0.25000   0.25068   0.35159   0.35209
     Eigenvalues ---    0.35427   0.35540   0.36645   0.40573   0.40626
     Eigenvalues ---    0.42752   0.45644   0.46149   0.46653   0.46763
     Eigenvalues ---    0.50797   0.51467   0.53125   0.55430   0.90716
 RFO step:  Lambda=-7.22131783D-05 EMin= 1.21414651D-02
 Quartic linear search produced a step of -0.14718.
 Iteration  1 RMS(Cart)=  0.00969331 RMS(Int)=  0.00004155
 Iteration  2 RMS(Cart)=  0.00005584 RMS(Int)=  0.00001622
 Iteration  3 RMS(Cart)=  0.00000000 RMS(Int)=  0.00001622
 Variable       Old X    -DE/DX   Delta X   Delta X   Delta X     New X
                                 (Linear)    (Quad)   (Total)
    R1        2.64645   0.00055   0.00160  -0.00154   0.00007   2.64652
    R2        2.60438   0.00078   0.00197  -0.00167   0.00029   2.60468
    R3        2.04755   0.00012   0.00033  -0.00022   0.00012   2.04766
    R4        2.60342   0.00044   0.00186  -0.00214  -0.00028   2.60314
    R5        2.05126   0.00018   0.00032  -0.00005   0.00027   2.05153
    R6        2.66395   0.00140   0.00192  -0.00014   0.00178   2.66573
    R7        2.05184   0.00012   0.00034  -0.00022   0.00012   2.05195
    R8        2.67781   0.00235   0.00309   0.00021   0.00330   2.68111
    R9        2.56576   0.00090   0.00133  -0.00057   0.00075   2.56651
   R10        2.65348   0.00137   0.00214  -0.00056   0.00158   2.65507
   R11        2.75889   0.00249   0.00172   0.00320   0.00492   2.76381
   R12        2.04685   0.00001   0.00017  -0.00023  -0.00006   2.04679
   R13        2.55455  -0.00059   0.00232  -0.00451  -0.00219   2.55236
   R14        2.31163   0.00049   0.00181  -0.00231  -0.00050   2.31113
   R15        1.83243   0.00004   0.00042  -0.00058  -0.00016   1.83227
   R16        1.90990  -0.00008   0.00030  -0.00061  -0.00031   1.90958
   R17        1.89905   0.00008   0.00032  -0.00035  -0.00002   1.89902
    A1        2.07241   0.00003   0.00023  -0.00064  -0.00040   2.07200
    A2        2.10670  -0.00011  -0.00019  -0.00006  -0.00025   2.10645
    A3        2.10408   0.00008  -0.00004   0.00069   0.00065   2.10473
    A4        2.11235   0.00005  -0.00026   0.00016  -0.00010   2.11225
    A5        2.09210  -0.00007   0.00011  -0.00030  -0.00019   2.09192
    A6        2.07874   0.00002   0.00015   0.00014   0.00029   2.07902
    A7        2.11329   0.00046   0.00034   0.00112   0.00146   2.11475
    A8        2.09906  -0.00027  -0.00028  -0.00060  -0.00087   2.09819
    A9        2.07084  -0.00019  -0.00006  -0.00052  -0.00059   2.07025
   A10        2.05822  -0.00040   0.00004  -0.00120  -0.00115   2.05706
   A11        2.09381  -0.00149  -0.00037  -0.00462  -0.00499   2.08883
   A12        2.13115   0.00189   0.00033   0.00581   0.00614   2.13729
   A13        2.08941  -0.00061  -0.00073  -0.00069  -0.00141   2.08800
   A14        2.09476   0.00222   0.00052   0.00663   0.00714   2.10190
   A15        2.09902  -0.00161   0.00021  -0.00594  -0.00573   2.09329
   A16        2.12070   0.00047   0.00037   0.00124   0.00161   2.12231
   A17        2.10049  -0.00026  -0.00039  -0.00044  -0.00083   2.09965
   A18        2.06200  -0.00021   0.00002  -0.00080  -0.00078   2.06122
   A19        1.99242  -0.00010  -0.00001  -0.00030  -0.00039   1.99203
   A20        2.19780   0.00081  -0.00003   0.00285   0.00273   2.20054
   A21        2.09295  -0.00070   0.00005  -0.00242  -0.00246   2.09049
   A22        1.85111   0.00079   0.00017   0.00396   0.00413   1.85523
   A23        2.07922   0.00029   0.00008   0.00142   0.00150   2.08072
   A24        2.09597  -0.00022   0.00020  -0.00147  -0.00127   2.09471
   A25        2.10799  -0.00007  -0.00028   0.00005  -0.00023   2.10776
    D1       -0.00004   0.00000   0.00001   0.00013   0.00013   0.00010
    D2        3.14156   0.00000   0.00001   0.00011   0.00012  -3.14151
    D3        3.14159   0.00000   0.00000   0.00001   0.00002  -3.14158
    D4       -0.00000   0.00000   0.00000   0.00000   0.00000   0.00000
    D5        0.00010  -0.00001  -0.00002  -0.00036  -0.00038  -0.00028
    D6       -3.14157  -0.00000  -0.00001  -0.00010  -0.00011   3.14151
    D7       -3.14152  -0.00001  -0.00001  -0.00025  -0.00026   3.14140
    D8       -0.00001   0.00000   0.00000   0.00001   0.00001   0.00001
    D9       -0.00000   0.00000   0.00000   0.00002   0.00002   0.00002
   D10       -3.14156  -0.00000  -0.00001  -0.00009  -0.00010   3.14152
   D11        3.14158   0.00000   0.00000   0.00003   0.00003  -3.14157
   D12        0.00002  -0.00000  -0.00000  -0.00008  -0.00008  -0.00006
   D13       -0.00002   0.00000   0.00000   0.00006   0.00007   0.00005
   D14       -3.14146  -0.00001  -0.00002  -0.00043  -0.00046   3.14127
   D15        3.14154   0.00000   0.00001   0.00017   0.00018  -3.14146
   D16        0.00010  -0.00001  -0.00002  -0.00032  -0.00034  -0.00024
   D17        0.00008  -0.00001  -0.00002  -0.00029  -0.00031  -0.00023
   D18        3.14159  -0.00000   0.00000   0.00002   0.00002  -3.14158
   D19        3.14152   0.00001   0.00001   0.00022   0.00023  -3.14143
   D20       -0.00016   0.00001   0.00003   0.00053   0.00056   0.00040
   D21        3.14133   0.00003   0.00006   0.00106   0.00111  -3.14074
   D22       -0.00013   0.00001   0.00002   0.00034   0.00036   0.00023
   D23       -0.00010   0.00002   0.00003   0.00054   0.00056   0.00046
   D24       -3.14157  -0.00000  -0.00001  -0.00018  -0.00019   3.14143
   D25       -0.00013   0.00001   0.00003   0.00045   0.00047   0.00035
   D26        3.14154   0.00000   0.00001   0.00019   0.00020  -3.14144
   D27        3.14155   0.00000   0.00001   0.00014   0.00015  -3.14148
   D28        0.00004  -0.00000  -0.00001  -0.00011  -0.00012  -0.00008
   D29       -3.13863  -0.00022  -0.00057  -0.01077  -0.01135   3.13321
   D30       -0.00325   0.00023   0.00061   0.01160   0.01223   0.00898
   D31        0.00287  -0.00021  -0.00056  -0.01046  -0.01102  -0.00815
   D32        3.13826   0.00024   0.00063   0.01191   0.01255  -3.13238
   D33        3.13867   0.00021   0.00056   0.01051   0.01104  -3.13347
   D34        0.00288  -0.00021  -0.00055  -0.01041  -0.01093  -0.00805
         Item               Value     Threshold  Converged?
 Maximum Force            0.002487     0.000450     NO 
 RMS     Force            0.000677     0.000300     NO 
 Maximum Displacement     0.033861     0.001800     NO 
 RMS     Displacement     0.009691     0.001200     NO 
 Predicted change in Energy=-4.917747D-05
 GradGradGradGradGradGradGradGradGradGradGradGradGradGradGradGradGradGrad

                          Input orientation:                          
 ---------------------------------------------------------------------
 Center     Atomic      Atomic             Coordinates (Angstroms)
 Number     Number       Type             X           Y           Z
 ---------------------------------------------------------------------
      1          6           0       -1.849753   -1.517054   -0.000526
      2          6           0       -2.576873   -0.320129    0.001619
      3          6           0       -1.936568    0.899535    0.001468
      4          6           0       -0.528509    0.984855   -0.000869
      5          6           0        0.209176   -0.227066   -0.003126
      6          6           0       -0.472797   -1.455455   -0.002694
      7          6           0        1.671538   -0.204134   -0.005593
      8          8           0        2.243072   -1.427871    0.002761
      9          7           0        0.071403    2.203315   -0.001339
     10          8           0        2.376233    0.795392    0.002910
     11          1           0       -2.358979   -2.473521   -0.000405
     12          1           0       -3.662160   -0.347039    0.003428
     13          1           0       -2.513327    1.819539    0.003082
     14          1           0        0.114930   -2.365241   -0.004306
     15          1           0        3.201398   -1.280561    0.007701
     16          1           0        1.080521    2.256253   -0.003771
     17          1           0       -0.487171    3.038693    0.000176
 ---------------------------------------------------------------------
                    Distance matrix (angstroms):
                    1          2          3          4          5
     1  C    0.000000
     2  C    1.400478   0.000000
     3  C    2.418148   1.377523   0.000000
     4  C    2.829352   2.428741   1.410643   0.000000
     5  C    2.429664   2.787607   2.423524   1.418780   0.000000
     6  C    1.378335   2.390841   2.772836   2.440946   1.405001
     7  C    3.758095   4.250001   3.773137   2.500785   1.462544
     8  O    4.093798   4.945601   4.783954   3.674632   2.361927
     9  N    4.187121   3.658025   2.394117   1.358139   2.434283
    10  O    4.817299   5.077169   4.314058   2.910917   2.396161
    11  H    1.083577   2.164389   3.399403   3.912924   3.412036
    12  H    2.157260   1.085622   2.128760   3.404956   3.873200
    13  H    3.401940   2.140612   1.085846   2.153187   3.405973
    14  H    2.139956   3.380580   3.855831   3.411329   2.140251
    15  H    5.056691   5.857549   5.581358   4.363988   3.172280
    16  H    4.777484   4.473735   3.308101   2.050717   2.631751
    17  H    4.755151   3.955824   2.583941   2.054255   3.339175
                    6          7          8          9         10
     6  C    0.000000
     7  C    2.482737   0.000000
     8  O    2.716015   1.350649   0.000000
     9  N    3.699020   2.890719   4.231037   0.000000
    10  O    3.630883   1.222996   2.227247   2.700833   0.000000
    11  H    2.143396   4.625496   4.719351   5.270631   5.753958
    12  H    3.376486   5.335620   6.003330   4.521484   6.145513
    13  H    3.858676   4.648486   5.759254   2.613070   4.995665
    14  H    1.083114   2.663346   2.325447   4.568764   3.886276
    15  H    3.678370   1.870653   0.969594   4.683411   2.233944
    16  H    4.023627   2.530377   3.863203   1.010508   1.952697
    17  H    4.494172   3.895637   5.234924   1.004921   3.637511
                   11         12         13         14         15
    11  H    0.000000
    12  H    2.494037   0.000000
    13  H    4.295835   2.452321   0.000000
    14  H    2.476280   4.282476   4.941677   0.000000
    15  H    5.686915   6.926753   6.501440   3.271538   0.000000
    16  H    5.848156   5.410194   3.620291   4.721289   4.123992
    17  H    5.821354   4.641524   2.364667   5.437375   5.679926
                   16         17
    16  H    0.000000
    17  H    1.752109   0.000000
 Stoichiometry    C7H7NO2
 Framework group  C1[X(C7H7NO2)]
 Deg. of freedom    45
 Full point group                 C1      NOp   1
 Largest Abelian subgroup         C1      NOp   1
 Largest concise Abelian subgroup C1      NOp   1
                         Standard orientation:                         
 ---------------------------------------------------------------------
 Center     Atomic      Atomic             Coordinates (Angstroms)
 Number     Number       Type             X           Y           Z
 ---------------------------------------------------------------------
      1          6           0       -1.844594   -1.521738   -0.000298
      2          6           0       -2.574975   -0.326800    0.001847
      3          6           0       -1.937997    0.894605    0.001696
      4          6           0       -0.530176    0.983763   -0.000641
      5          6           0        0.210811   -0.226142   -0.002898
      6          6           0       -0.467811   -1.456386   -0.002466
      7          6           0        1.673105   -0.199224   -0.005365
      8          8           0        2.247973   -1.421398    0.002989
      9          7           0        0.066413    2.203854   -0.001111
     10          8           0        2.375072    0.802220    0.003138
     11          1           0       -2.351211   -2.479590   -0.000177
     12          1           0       -3.660184   -0.356669    0.003656
     13          1           0       -2.517262    1.813033    0.003310
     14          1           0        0.122393   -2.364566   -0.004078
     15          1           0        3.205893   -1.271477    0.007929
     16          1           0        1.075382    2.259543   -0.003543
     17          1           0       -0.494437    3.037706    0.000404
 ---------------------------------------------------------------------
 Rotational constants (GHZ):      2.3098514      1.2212976      0.7988973
 Standard basis: 6-31+G(d,p) (6D, 7F)
 There are   225 symmetry adapted cartesian basis functions of A   symmetry.
 There are   225 symmetry adapted basis functions of A   symmetry.
   225 basis functions,   369 primitive gaussians,   225 cartesian basis functions
    36 alpha electrons       36 beta electrons
       nuclear repulsion energy       502.2107270431 Hartrees.
 NAtoms=   17 NActive=   17 NUniq=   17 SFac= 1.00D+00 NAtFMM=   60 NAOKFM=F Big=F
 Integral buffers will be    131072 words long.
 Raffenetti 2 integral format.
 Two-electron integral symmetry is turned on.
 Nuclear repulsion after empirical dispersion term =      502.1964534026 Hartrees.
 One-electron integrals computed using PRISM.
 NBasis=   225 RedAO= T EigKep=  2.63D-06  NBF=   225
 NBsUse=   225 1.00D-06 EigRej= -1.00D+00 NBFU=   225
 Initial guess from the checkpoint file:  "gd3camb3lypAnthranilic.chk"
 B after Tr=    -0.000000    0.000000   -0.000000
         Rot=    0.999997   -0.000022    0.000063   -0.002585 Ang=  -0.30 deg.
 ExpMin= 4.38D-02 ExpMax= 5.48D+03 ExpMxC= 8.25D+02 IAcc=2 IRadAn=         4 AccDes= 0.00D+00
 Harris functional with IExCor=20419 and IRadAn=       4 diagonalized for initial guess.
 HarFok:  IExCor=20419 AccDes= 0.00D+00 IRadAn=         4 IDoV= 1 UseB2=F ITyADJ=14
 ICtDFT=  3500011 ScaDFX=  1.000000  1.000000  1.000000  1.000000
 FoFCou: FMM=F IPFlag=           0 FMFlag=      100000 FMFlg1=           0
         NFxFlg=           0 DoJE=T BraDBF=F KetDBF=T FulRan=T
         wScrn=  0.000000 ICntrl=     500 IOpCl=  0 I1Cent=   200000004 NGrid=           0
         NMat0=    1 NMatS0=      1 NMatT0=    0 NMatD0=    1 NMtDS0=    0 NMtDT0=    0
 Petite list used in FoFCou.
 Keep R1 ints in memory in canonical form, NReq=652403680.
 Requested convergence on RMS density matrix=1.00D-08 within 128 cycles.
 Requested convergence on MAX density matrix=1.00D-06.
 Requested convergence on             energy=1.00D-06.
 No special actions if energy rises.
 SCF Done:  E(RCAM-B3LYP) =  -476.011495360     A.U. after   13 cycles
            NFock= 13  Conv=0.38D-08     -V/T= 2.0090
 Calling FoFJK, ICntrl=      2127 FMM=F ISym2X=0 I1Cent= 0 IOpClX= 0 NMat=1 NMatS=1 NMatT=0.
 ***** Axes restored to original set *****
 -------------------------------------------------------------------
 Center     Atomic                   Forces (Hartrees/Bohr)
 Number     Number              X              Y              Z
 -------------------------------------------------------------------
      1        6          -0.000318569   -0.000427789    0.000050935
      2        6          -0.000589329   -0.000058268   -0.000004378
      3        6          -0.000168392    0.000209403    0.000051731
      4        6           0.000224856   -0.000680741   -0.000122288
      5        6          -0.000473177    0.000596181   -0.000659298
      6        6           0.000186770   -0.000435456   -0.000102825
      7        6           0.000968481   -0.000344807    0.002483658
      8        8          -0.000115529   -0.000412460   -0.000745097
      9        7           0.001101178   -0.000131690   -0.000029677
     10        8          -0.000776296    0.001394996   -0.000983653
     11        1          -0.000052016   -0.000054873    0.000011861
     12        1          -0.000088091   -0.000004583   -0.000006992
     13        1          -0.000031329    0.000096252    0.000002868
     14        1          -0.000026062    0.000010950   -0.000007939
     15        1          -0.000023967    0.000020781   -0.000005243
     16        1           0.000025347    0.000114942    0.000073904
     17        1           0.000156124    0.000107162   -0.000007569
 -------------------------------------------------------------------
 Cartesian Forces:  Max     0.002483658 RMS     0.000547415

 GradGradGradGradGradGradGradGradGradGradGradGradGradGradGradGradGradGrad
 Berny optimization.
 Using GEDIIS/GDIIS optimizer.
 FormGI is forming the generalized inverse of G from B-inverse, IUseBI=4.
 Internal  Forces:  Max     0.002460566 RMS     0.000611673
 Search for a local minimum.
 Step number   3 out of a maximum of   86
 All quantities printed in internal units (Hartrees-Bohrs-Radians)
 Mixed Optimization -- En-DIIS/RFO-DIIS
 Swapping is turned off.
 Update second derivatives using D2CorX and points    1    2    3
 DE=  3.61D-06 DEPred=-4.92D-05 R=-7.35D-02
 Trust test=-7.35D-02 RLast= 3.23D-02 DXMaxT set to 1.50D-01
 ITU= -1  1  0
     Eigenvalues ---    0.01214   0.01648   0.01802   0.01928   0.02040
     Eigenvalues ---    0.02056   0.02099   0.02139   0.02158   0.02173
     Eigenvalues ---    0.02188   0.02209   0.02219   0.02294   0.15459
     Eigenvalues ---    0.16000   0.16000   0.16000   0.16000   0.16004
     Eigenvalues ---    0.16020   0.21983   0.22496   0.23932   0.24611
     Eigenvalues ---    0.25000   0.25003   0.34434   0.35143   0.35200
     Eigenvalues ---    0.35418   0.35569   0.35795   0.40595   0.42057
     Eigenvalues ---    0.45338   0.45696   0.46607   0.46723   0.49351
     Eigenvalues ---    0.50010   0.53092   0.54591   0.58169   0.90264
 En-DIIS/RFO-DIIS IScMMF=        0 using points:     3    2
 RFO step:  Lambda=-4.16374929D-05.
 DidBck=T Rises=F RFO-DIIS coefs:    0.48780    0.51220
 Iteration  1 RMS(Cart)=  0.00542100 RMS(Int)=  0.00003231
 Iteration  2 RMS(Cart)=  0.00004314 RMS(Int)=  0.00001334
 Iteration  3 RMS(Cart)=  0.00000000 RMS(Int)=  0.00001334
 Variable       Old X    -DE/DX   Delta X   Delta X   Delta X     New X
                                 (Linear)    (Quad)   (Total)
    R1        2.64652   0.00070  -0.00003   0.00084   0.00080   2.64732
    R2        2.60468   0.00075  -0.00015   0.00099   0.00084   2.60552
    R3        2.04766   0.00007  -0.00006   0.00019   0.00013   2.04779
    R4        2.60314   0.00071   0.00014   0.00053   0.00067   2.60381
    R5        2.05153   0.00009  -0.00014   0.00032   0.00018   2.05171
    R6        2.66573   0.00051  -0.00091   0.00184   0.00093   2.66666
    R7        2.05195   0.00010  -0.00006   0.00022   0.00016   2.05211
    R8        2.68111  -0.00132  -0.00169   0.00123  -0.00046   2.68065
    R9        2.56651   0.00065  -0.00039   0.00112   0.00073   2.56724
   R10        2.65507   0.00057  -0.00081   0.00178   0.00097   2.65603
   R11        2.76381   0.00006  -0.00252   0.00370   0.00119   2.76499
   R12        2.04679  -0.00002   0.00003  -0.00006  -0.00003   2.04676
   R13        2.55236   0.00029   0.00112  -0.00120  -0.00007   2.55228
   R14        2.31113   0.00069   0.00026   0.00005   0.00031   2.31143
   R15        1.83227  -0.00002   0.00008  -0.00010  -0.00002   1.83225
   R16        1.90958   0.00003   0.00016  -0.00018  -0.00002   1.90957
   R17        1.89902   0.00000   0.00001   0.00001   0.00002   1.89904
    A1        2.07200  -0.00009   0.00021  -0.00023  -0.00002   2.07198
    A2        2.10645   0.00002   0.00013  -0.00027  -0.00014   2.10631
    A3        2.10473   0.00006  -0.00033   0.00050   0.00016   2.10490
    A4        2.11225  -0.00013   0.00005  -0.00014  -0.00009   2.11215
    A5        2.09192   0.00006   0.00010  -0.00011  -0.00001   2.09191
    A6        2.07902   0.00007  -0.00015   0.00025   0.00010   2.07912
    A7        2.11475  -0.00019  -0.00075   0.00073  -0.00001   2.11474
    A8        2.09819   0.00012   0.00045  -0.00042   0.00003   2.09822
    A9        2.07025   0.00007   0.00030  -0.00032  -0.00002   2.07023
   A10        2.05706   0.00027   0.00059  -0.00053   0.00006   2.05713
   A11        2.08883   0.00136   0.00255  -0.00136   0.00120   2.09003
   A12        2.13729  -0.00163  -0.00314   0.00188  -0.00126   2.13603
   A13        2.08800   0.00048   0.00072  -0.00043   0.00030   2.08829
   A14        2.10190  -0.00246  -0.00366   0.00129  -0.00237   2.09953
   A15        2.09329   0.00198   0.00294  -0.00086   0.00208   2.09536
   A16        2.12231  -0.00034  -0.00082   0.00060  -0.00023   2.12208
   A17        2.09965   0.00016   0.00043  -0.00038   0.00005   2.09970
   A18        2.06122   0.00019   0.00040  -0.00022   0.00018   2.06140
   A19        1.99203   0.00065   0.00020   0.00085   0.00098   1.99301
   A20        2.20054  -0.00197  -0.00140  -0.00111  -0.00257   2.19796
   A21        2.09049   0.00135   0.00126   0.00049   0.00168   2.09217
   A22        1.85523  -0.00004  -0.00211   0.00285   0.00074   1.85597
   A23        2.08072   0.00002  -0.00077   0.00114   0.00037   2.08109
   A24        2.09471   0.00017   0.00065  -0.00047   0.00018   2.09488
   A25        2.10776  -0.00019   0.00012  -0.00067  -0.00055   2.10721
    D1        0.00010  -0.00001  -0.00007  -0.00008  -0.00015  -0.00005
    D2       -3.14151  -0.00001  -0.00006  -0.00007  -0.00013   3.14155
    D3       -3.14158  -0.00000  -0.00001  -0.00001  -0.00002   3.14158
    D4        0.00000  -0.00000  -0.00000  -0.00000  -0.00000  -0.00000
    D5       -0.00028   0.00003   0.00020   0.00023   0.00043   0.00015
    D6        3.14151   0.00001   0.00005   0.00007   0.00012  -3.14155
    D7        3.14140   0.00002   0.00014   0.00016   0.00030  -3.14149
    D8        0.00001  -0.00000  -0.00001  -0.00001  -0.00001  -0.00000
    D9        0.00002  -0.00000  -0.00001  -0.00001  -0.00002  -0.00000
   D10        3.14152   0.00001   0.00005   0.00007   0.00012  -3.14155
   D11       -3.14157  -0.00000  -0.00002  -0.00002  -0.00003   3.14158
   D12       -0.00006   0.00001   0.00004   0.00006   0.00010   0.00004
   D13        0.00005  -0.00000  -0.00003  -0.00005  -0.00008  -0.00003
   D14        3.14127   0.00003   0.00023   0.00030   0.00053  -3.14139
   D15       -3.14146  -0.00001  -0.00009  -0.00012  -0.00021   3.14151
   D16       -0.00024   0.00002   0.00017   0.00023   0.00040   0.00016
   D17       -0.00023   0.00002   0.00016   0.00019   0.00035   0.00012
   D18       -3.14158   0.00000  -0.00001   0.00001   0.00000  -3.14158
   D19       -3.14143  -0.00002  -0.00012  -0.00016  -0.00028   3.14147
   D20        0.00040  -0.00003  -0.00028  -0.00034  -0.00063  -0.00023
   D21       -3.14074  -0.00008  -0.00057  -0.00069  -0.00126   3.14119
   D22        0.00023  -0.00002  -0.00018  -0.00023  -0.00041  -0.00018
   D23        0.00046  -0.00004  -0.00029  -0.00033  -0.00061  -0.00015
   D24        3.14143   0.00001   0.00010   0.00013   0.00023  -3.14153
   D25        0.00035  -0.00003  -0.00024  -0.00029  -0.00053  -0.00018
   D26       -3.14144  -0.00001  -0.00010  -0.00013  -0.00023   3.14151
   D27       -3.14148  -0.00001  -0.00008  -0.00011  -0.00019   3.14152
   D28       -0.00008   0.00000   0.00006   0.00005   0.00011   0.00003
   D29        3.13321   0.00061   0.00581   0.00729   0.01310  -3.13688
   D30        0.00898  -0.00065  -0.00626  -0.00805  -0.01431  -0.00533
   D31       -0.00815   0.00059   0.00565   0.00711   0.01275   0.00460
   D32       -3.13238  -0.00067  -0.00643  -0.00823  -0.01466   3.13615
   D33       -3.13347  -0.00057  -0.00565  -0.00717  -0.01284   3.13687
   D34       -0.00805   0.00057   0.00560   0.00710   0.01271   0.00466
         Item               Value     Threshold  Converged?
 Maximum Force            0.002461     0.000450     NO 
 RMS     Force            0.000612     0.000300     NO 
 Maximum Displacement     0.022759     0.001800     NO 
 RMS     Displacement     0.005418     0.001200     NO 
 Predicted change in Energy=-3.782196D-05
 GradGradGradGradGradGradGradGradGradGradGradGradGradGradGradGradGradGrad

                          Input orientation:                          
 ---------------------------------------------------------------------
 Center     Atomic      Atomic             Coordinates (Angstroms)
 Number     Number       Type             X           Y           Z
 ---------------------------------------------------------------------
      1          6           0       -1.851622   -1.517893    0.000363
      2          6           0       -2.578254   -0.320175   -0.000854
      3          6           0       -1.936948    0.899364   -0.000770
      4          6           0       -0.528337    0.983728    0.000547
      5          6           0        0.208454   -0.228454    0.001824
      6          6           0       -0.474185   -1.457058    0.001592
      7          6           0        1.671403   -0.202972    0.003238
      8          8           0        2.246232   -1.425140   -0.001441
      9          7           0        0.074059    2.201394    0.000836
     10          8           0        2.371865    0.799745   -0.001822
     11          1           0       -2.361579   -2.474049    0.000298
     12          1           0       -3.663652   -0.346455   -0.001876
     13          1           0       -2.513094    1.819852   -0.001678
     14          1           0        0.113062   -2.367138    0.002511
     15          1           0        3.204267   -1.275968   -0.004343
     16          1           0        1.083249    2.252793    0.002136
     17          1           0       -0.482787    3.037939   -0.000045
 ---------------------------------------------------------------------
                    Distance matrix (angstroms):
                    1          2          3          4          5
     1  C    0.000000
     2  C    1.400902   0.000000
     3  C    2.418763   1.377878   0.000000
     4  C    2.830052   2.429470   1.411136   0.000000
     5  C    2.430343   2.788218   2.423784   1.418537   0.000000
     6  C    1.378780   2.391572   2.773519   2.441387   1.405512
     7  C    3.760416   4.251275   3.772977   2.499423   1.463172
     8  O    4.098905   4.949406   4.785637   3.674355   2.363178
     9  N    4.188239   3.659656   2.395712   1.358526   2.433563
    10  O    4.817603   5.075225   4.309965   2.906033   2.395320
    11  H    1.083646   2.164745   3.400033   3.913693   3.412882
    12  H    2.157713   1.085716   2.129218   3.405817   3.873905
    13  H    3.402660   2.141019   1.085930   2.153688   3.406229
    14  H    2.140375   3.381310   3.856500   3.411700   2.140810
    15  H    5.061676   5.860982   5.582488   4.363322   3.173676
    16  H    4.778237   4.475129   3.309588   2.051277   2.630942
    17  H    4.757028   3.958272   2.586134   2.054716   3.338734
                    6          7          8          9         10
     6  C    0.000000
     7  C    2.485212   0.000000
     8  O    2.720606   1.350609   0.000000
     9  N    3.699304   2.886605   4.227304   0.000000
    10  O    3.632241   1.223158   2.228430   2.691568   0.000000
    11  H    2.143951   4.628470   4.725689   5.271821   5.755278
    12  H    3.377299   5.336986   6.007520   4.523497   6.143390
    13  H    3.859444   4.647780   5.760310   2.615137   4.990336
    14  H    1.083100   2.666840   2.331907   4.568699   3.889905
    15  H    3.682912   1.871109   0.969583   4.678705   2.236400
    16  H    4.023506   2.525215   3.857426   1.010499   1.942137
    17  H    4.495006   3.891535   5.231312   1.004930   3.627472
                   11         12         13         14         15
    11  H    0.000000
    12  H    2.494405   0.000000
    13  H    4.296574   2.452890   0.000000
    14  H    2.476950   4.283311   4.942429   0.000000
    15  H    5.693334   6.930534   6.501718   3.278147   0.000000
    16  H    5.848921   5.411947   3.622311   4.720702   4.117149
    17  H    5.823389   4.644569   2.367675   5.437821   5.674872
                   16         17
    16  H    0.000000
    17  H    1.751836   0.000000
 Stoichiometry    C7H7NO2
 Framework group  C1[X(C7H7NO2)]
 Deg. of freedom    45
 Full point group                 C1      NOp   1
 Largest Abelian subgroup         C1      NOp   1
 Largest concise Abelian subgroup C1      NOp   1
                         Standard orientation:                         
 ---------------------------------------------------------------------
[...]
 ! D24   D(5,4,9,17)          -180.0019         -DE/DX =    0.0                 !
 ! D25   D(4,5,6,1)             -0.0001         -DE/DX =    0.0                 !
 ! D26   D(4,5,6,14)           179.9999         -DE/DX =    0.0                 !
 ! D27   D(7,5,6,1)           -180.0            -DE/DX =    0.0                 !
 ! D28   D(7,5,6,14)             0.0            -DE/DX =    0.0                 !
 ! D29   D(4,5,7,8)            179.9994         -DE/DX =    0.0                 !
 ! D30   D(4,5,7,10)            -0.0039         -DE/DX =    0.0                 !
 ! D31   D(6,5,7,8)             -0.0008         -DE/DX =    0.0                 !
 ! D32   D(6,5,7,10)           179.996          -DE/DX =    0.0                 !
 ! D33   D(5,7,8,15)           179.9978         -DE/DX =    0.0                 !
 ! D34   D(10,7,8,15)            0.0009         -DE/DX =    0.0                 !
 --------------------------------------------------------------------------------
 GradGradGradGradGradGradGradGradGradGradGradGradGradGradGradGradGradGrad

 1\1\ WCSS.PL-BEM-QINLAB\Freq\RCAM-B3LYP\6-31+G(d,p)\C7H7N1O2\PHZD\22-J
 un-2024\0\\#N Geom=AllCheck Guess=TCheck SCRF=Check GenChk RCAM-B3LYP/
 6-31+G(d,p) Freq\\[No Title]\\0,1\C,-1.8522122916,-1.5183633781,0.0000
 44881\C,-2.5787850799,-0.3202207194,0.0000483378\C,-1.9370585269,0.899
 3165869,0.0000444057\C,-0.5282406971,0.9830056098,0.0000373685\C,0.207
 961494,-0.2291196571,0.0000389456\C,-0.4745752582,-1.4578563765,0.0000
 411818\C,1.6709561043,-0.2019572045,0.0000346401\O,2.2465982348,-1.423
 6091245,0.0000503822\N,0.0756596815,2.2000768803,0.0000356118\O,2.3690
 514673,0.8027175259,-0.0000373488\H,-2.3624031311,-2.4744253166,0.0000
 451469\H,-3.6642046371,-0.3462277087,0.0000517468\H,-2.5127804092,1.82
 01292449,0.0000453766\H,0.1127391795,-2.367970407,0.0000402816\H,3.204
 5248514,-1.273596177,0.000010423\H,1.0849020887,2.2501383745,-0.000021
 953\H,-0.4800000702,3.0374748473,0.0000055725\\Version=ES64L-G09RevE.0
 1\State=1-A\HF=-476.0115322\RMSD=4.147e-09\RMSF=1.840e-05\ZeroPoint=0.
 13378\Thermal=0.142323\Dipole=-0.4578479,0.1720556,-0.0000258\DipoleDe
 riv=-0.6031282,0.3030543,-0.0000095,0.2173232,-0.2129251,-0.00001,-0.0
 000267,0.0000055,-0.2050533,0.1702588,0.0054826,0.0000023,-0.300786,0.
 5510612,0.0000069,-0.0000025,0.0000014,-0.0879092,-0.1241689,-0.688190
 3,0.0000037,-0.0202189,-0.2695666,0.0000067,-0.000023,0.0000103,-0.206
 5652,0.3624599,0.8454904,-0.0000043,0.3163284,1.3594422,0.0000002,-0.0
 000098,0.0000037,0.1323315,-1.0232091,0.3059309,0.0000023,-0.3553812,-
 0.3758072,0.0000097,0.0000288,-0.0000014,-0.0737191,0.5834861,-0.13156
 3,0.0000101,0.4540894,0.0182986,0.0000097,0.000027,-0.0000054,-0.07973
 64,2.3653434,-0.296452,-0.0000276,-0.0943524,1.6160475,-0.000059,-0.00
 00209,-0.0000448,0.3304283,-0.8929094,0.5563796,-0.0000134,0.6100756,-
 1.0998192,0.0000245,-0.0000104,0.0000045,-0.3887946,-0.4536175,-0.5645
 023,-0.0000058,-0.3335711,-1.3603337,-0.0000139,-0.0000145,-0.0000632,
 -0.5814139,-1.237954,-0.2857537,0.0000261,-0.3893723,-0.9429606,0.0000
 248,0.0000221,0.0000423,-0.3894661,0.0226597,-0.0581185,0.0000035,-0.0
 683285,-0.0573283,0.0000043,0.0000017,-0.0000012,0.1575539,-0.0955551,
 -0.0042028,-0.0000014,-0.0031146,0.0851405,0.0000007,0.0000014,-0.0000
 015,0.129734,0.0271301,0.0460978,0.0000089,0.0774897,-0.0833285,-0.000
 0117,0.0000043,0.0000003,0.1471974,0.0878936,0.0479618,0.0000004,0.044
 544,0.0148906,-0.0000004,0.0000006,0.0000003,0.129483,0.3377028,-0.086
 0496,0.0000043,-0.1328614,0.2898425,0.0000047,0.0000021,0.0000012,0.34
 81209,0.3476492,-0.0157973,0.0000026,-0.0228187,0.2270227,-0.0000024,0
 .0000167,0.0000228,0.3066911,0.1259588,0.0202319,-0.000002,0.0009547,0
 .2403234,0.0000052,0.0000032,0.000025,0.3311176\Polar=123.8691578,4.18
 90136,112.8509863,-0.0000275,-0.0004526,53.3427478\PG=C01 [X(C7H7N1O2)
 ]\NImag=0\\0.71907495,0.04803802,0.73640275,-0.00000223,0.00000019,0.1
 2683207,-0.18377208,0.12242795,0.00000052,0.75801893,0.04921651,-0.277
 18190,-0.00000042,0.02126991,0.70181082,0.00000055,-0.00000073,-0.0652
 6776,-0.00000231,-0.00000014,0.14631438,0.06882549,-0.02210338,0.00000
 030,-0.19045471,-0.06981704,0.00000041,0.67712226,0.02927912,-0.058535
 33,0.00000031,-0.13986977,-0.33461280,0.00000075,0.00236431,0.78330806
 ,-0.00000097,-0.00000013,0.00987909,0.00000066,0.00000068,-0.05981469,
 -0.00000204,-0.00000061,0.12581292,-0.06444333,0.03611435,-0.00000025,
 -0.01732067,-0.09083895,0.00000031,-0.29535364,0.04255851,0.00000084,0
 .69969159,0.02700332,-0.00447041,-0.00000044,-0.03901874,0.02422348,0.
 00000017,-0.01856882,-0.12835911,-0.00000029,0.03051931,0.74795619,0.0
 0000014,0.,-0.00570329,0.00000013,0.00000006,0.00183812,0.00000142,-0.
 00000013,-0.07418565,-0.00000347,-0.00000270,0.17783746,-0.03907105,-0
 .02136212,-0.00000054,-0.00298202,-0.01543252,-0.00000002,-0.01104190,
 0.02639487,-0.00000080,-0.19326299,0.08077277,0.00000015,0.65632633,-0
 .07349633,0.02516885,0.00000085,0.00680960,-0.06086361,0.00000007,0.05
 582433,0.03457088,0.00000036,0.04483939,-0.23872707,0.00000043,0.01173
 419,0.71186425,0.00000076,0.00000001,0.01022574,-0.00000015,0.00000010
 ,-0.00594834,-0.00000007,-0.00000028,0.00901240,0.00000025,0.00000053,
 -0.07225624,-0.00000221,-0.00000283,0.13790416,-0.37726811,-0.04786739
 ,0.00000166,-0.03313350,0.08439507,0.00000003,-0.05309990,-0.03246209,
 0.00000106,0.07835076,-0.01129776,-0.00000025,-0.15535434,-0.05180401,
 -0.00000082,0.75146344,0.02428165,-0.13409298,0.00000039,0.02839482,0.
 04027051,-0.00000010,-0.02759619,-0.02094203,0.00000075,0.02960463,-0.
 05405797,-0.00000009,-0.09933825,-0.28139144,0.00000014,-0.04476837,0.
 71258130,0.00000130,0.00000089,-0.06637452,0.00000003,-0.00000072,0.00
 774394,-0.00000026,-0.00000042,-0.00445540,0.00000020,0.00000057,0.002
 44892,0.00000031,-0.00000063,-0.06109500,-0.00000212,-0.00000087,0.148
 81227,0.02166071,-0.00968153,-0.00000024,0.00166961,0.01647128,-0.0000
 0001,-0.01132656,-0.00190260,0.00000004,-0.00650553,0.04323779,-0.0000
 0031,-0.21389786,0.00475435,-0.00000018,-0.03791252,-0.02851807,0.0000
 0124,0.76511458,-0.00205825,-0.00861312,-0.00000039,0.00042541,-0.0001
 4069,-0.00000002,0.00056767,-0.00682989,-0.00000015,0.03570612,0.02275
 152,-0.00000012,0.01669208,-0.10818016,-0.00000013,-0.03256959,0.00849
 677,0.00000057,0.16049485,0.82624798,-0.00000011,0.00000027,0.00774376
 ,0.00000012,-0.00000028,-0.00088512,0.00000008,0.00000004,0.00635778,0
 .,-0.00000113,-0.00011201,0.00000102,-0.00000055,-0.07973337,0.0000000
 7,0.00000038,-0.00337287,-0.00002206,-0.00002882,0.21627113,-0.0023241
 4,0.00196824,0.00000021,-0.00077854,-0.00123403,0.00000002,0.00022008,
 0.00207012,0.00000007,-0.00690402,-0.01035441,0.00000004,-0.03343599,0
 .04325034,-0.00000045,-0.00230564,0.00322746,-0.00000036,-0.16625756,0
 .08487189,0.00000040,0.66702858,0.00364201,0.00024046,0.00000033,0.000
 07359,0.00166488,0.,-0.00051482,0.00085471,0.00000031,-0.00194049,0.00
 174824,0.00000002,0.02065030,-0.00319764,-0.00000031,-0.00484545,-0.00
 695202,-0.00000025,0.04680937,-0.23862798,0.00000400,-0.00653593,0.413
 55840,0.00000019,-0.00000002,-0.00066815,-0.00000015,0.00000006,-0.000
 04983,-0.00000007,-0.00000014,-0.00082951,0.00000028,-0.00000004,0.002
 52716,-0.00000041,0.00000013,0.01170787,0.00000018,-0.00000017,0.00073
 561,0.00000162,0.00000172,-0.06549526,-0.00002087,-0.00001258,0.037129
 54,0.01048976,-0.00983154,0.00000017,-0.00430976,0.01831894,-0.0000000
 7,-0.04152165,-0.05931223,0.00000025,-0.18255211,-0.08971946,0.0000010
 8,0.03290219,0.01755024,-0.00000005,-0.01551436,-0.00233794,-0.0000000
 4,-0.02055019,-0.01071014,0.00000074,0.00224811,0.00344121,-0.00000014
 ,0.87441374,0.00153414,-0.00957748,-0.00000007,0.00610196,0.00979778,0
 .00000009,-0.03029225,-0.01038178,0.00000023,-0.09597497,-0.32713470,-
 0.00000040,0.00599435,-0.05109107,-0.00000002,-0.00055223,0.00036980,0
 .00000027,-0.02396795,-0.00582828,0.00000036,0.00387635,-0.00284909,0.
 00000006,-0.05065988,0.81409502,0.,-0.00000068,-0.00094371,0.00000034,
 0.00000071,0.00451856,-0.00000051,0.00000055,0.01161593,0.00000414,0.0
 0000500,-0.04240894,0.00000096,-0.00000021,0.00817080,-0.00000012,0.00
 000026,0.00419278,-0.00000094,-0.00000038,-0.00166650,0.00000023,-0.00
 000018,-0.00012758,-0.00002418,-0.00002014,0.01681738,-0.00646348,0.00
 032089,-0.00000006,-0.00021858,-0.00502898,0.00000001,0.00341237,0.000
 85731,0.00000006,0.00005938,-0.01125627,0.,-0.03841277,-0.04643925,0.0
 0000305,-0.00172435,0.00990750,-0.00000008,-0.31462999,-0.26700173,0.0
 0001962,0.03789299,0.00045856,-0.00000009,0.00051687,0.01624735,0.0000
 0015,0.33273458,-0.00809404,0.00491596,-0.00000020,-0.00007505,-0.0082
 0223,0.00000001,0.00728785,0.00410400,-0.00000031,-0.00847306,-0.02430
 412,-0.00000001,-0.04126778,-0.00424524,0.00000193,0.00719554,0.007022
 74,0.00000007,-0.25773658,-0.47871802,0.00002696,-0.01622773,-0.112076
 08,0.00000611,0.02128484,0.00467047,0.00000039,0.30876933,0.59531949,0
 .,-0.00000019,-0.00172943,0.,0.00000027,0.00036432,0.,0.00000008,-0.00
 074432,-0.00000013,0.00000082,-0.00067931,0.00000141,0.00000224,0.0202
 4917,0.00000046,-0.00000030,0.00447808,0.00002085,0.00002730,-0.079307
 84,0.00000011,0.00000551,0.02810790,-0.00000045,-0.00000065,0.00252248
 ,-0.00002306,-0.00003449,0.03670054,-0.12341125,-0.11986351,0.00000031
 ,0.01211680,0.01680807,-0.00000002,-0.00144811,0.00297185,0.00000017,-
 0.00106321,0.00078751,-0.00000003,-0.00502391,0.00170124,-0.00000010,-
 0.01039106,-0.02991573,-0.00000022,0.00078375,-0.00161767,-0.00000004,
 -0.00022077,0.00029347,0.,0.00038572,-0.00010082,0.00000006,-0.0009659
 2,-0.00024131,0.00000010,0.12705399,-0.12006515,-0.28526622,0.00000023
 ,-0.01509485,-0.01814975,0.00000002,0.00406327,-0.00241665,0.00000019,
 0.00087637,-0.00000496,-0.00000005,0.00038375,0.00159632,-0.00000012,0
 .00198028,0.00348195,-0.00000034,0.00044860,0.00001363,-0.00000007,-0.
 00017450,0.00011286,0.00000001,-0.00020144,0.00017051,0.00000012,-0.00
 015588,-0.00000892,0.00000009,0.12861351,0.29975848,0.00000015,-0.0000
 0002,-0.03268034,-0.00000006,-0.00000004,0.00135500,0.00000002,0.00000
 001,0.00566506,0.00000003,0.00000003,-0.00037915,0.00000006,0.,0.00718
 270,0.00000005,0.00000007,0.00197225,-0.00000004,-0.00000001,0.0012360
 1,0.,0.,-0.00001376,-0.00000002,-0.00000004,-0.00055533,-0.00000001,0.
 00000001,-0.00053084,-0.00000015,0.,0.02460656,-0.01118338,-0.00357080
 ,0.,-0.34444847,-0.00691551,0.00000100,-0.01028276,0.00228493,-0.00000
 009,0.00107173,-0.00217321,0.00000004,0.00071930,-0.00005134,0.0000000
 9,-0.00001527,0.00349903,0.00000014,0.00020412,0.00005565,-0.00000002,
 -0.00018375,0.00005164,0.00000007,-0.00093498,-0.00005982,0.,-0.000165
 39,-0.00006144,-0.00000002,0.00079162,0.00019777,-0.00000001,0.3640279
 9,0.02709693,0.00696869,-0.00000007,-0.00607701,-0.06179992,0.00000002
 ,-0.02864061,0.00398581,0.00000011,-0.00235044,-0.00503644,-0.00000002
 ,-0.00054625,-0.00116543,0.,0.00323240,-0.00469426,-0.00000007,0.00040
 407,-0.00022327,-0.00000002,-0.00000381,0.00021737,0.,-0.00130863,0.00
 067897,0.00000010,-0.00007163,0.00002581,0.00000001,-0.00061199,0.0009
 3644,0.,0.00737802,0.05926953,0.00000013,-0.00000002,0.00499091,0.0000
 0095,0.,-0.04186775,0.00000011,0.00000005,0.00505362,0.,0.00000009,0.0
 0868400,0.00000008,-0.00000011,-0.00062192,-0.00000008,-0.00000004,0.0
 0635083,-0.00000005,0.00000001,-0.00108489,-0.00000002,-0.00000002,0.0
 0017274,0.,-0.00000002,-0.00024078,0.00000002,0.00000004,0.00011530,-0
 .00000002,0.,-0.00345026,-0.00000110,-0.00000002,0.02724622,-0.0004379
 7,-0.00308311,0.00000045,0.01217074,-0.01428002,0.,-0.14098917,0.12718
 311,0.00000069,-0.01223043,0.02893847,0.00000002,-0.00487094,-0.001979
 76,-0.00000023,-0.00119717,-0.00121326,-0.00000063,0.00036671,0.001651
 93,-0.00000013,-0.00078865,0.00005734,0.00000001,0.00223722,0.00097075
 ,0.00000002,-0.00011209,-0.00037799,0.00000017,0.00042650,-0.00069732,
 0.,0.00092298,0.00030519,-0.00000004,0.14549938,-0.00419095,-0.0027924
 9,-0.00000058,0.01746613,-0.01945083,-0.00000006,0.12762847,-0.2600011
 3,-0.00000071,-0.00375517,0.00194821,0.00000015,-0.00016138,0.00121426
 ,0.00000030,-0.00080473,0.00009906,0.00000094,-0.00099641,-0.00016099,
 0.00000021,0.00017136,-0.00004728,-0.00000002,-0.00091922,0.00214542,-
 0.00000031,0.00031041,0.00038967,-0.00000026,0.00082920,-0.00099179,-0
 .00000002,-0.00021414,0.00096151,0.00000002,-0.13625349,0.27630337,0.0
 0000006,0.00000011,0.00741606,-0.00000008,0.00000003,0.00273649,0.0000
 0034,-0.00000015,-0.03361637,-0.00000004,-0.00000010,0.00430648,0.0000
 0017,-0.00000013,0.00473305,-0.00000007,0.,-0.00059281,0.00000002,0.00
 000005,0.00005431,-0.00000001,-0.00000005,-0.00005529,0.00000005,-0.00
 000005,-0.00299988,0.,0.00000001,0.00000442,-0.00000002,-0.00000003,0.
 00052474,-0.00000002,-0.00000002,-0.00483392,-0.00000040,0.00000023,0.
 02314609,-0.01010545,0.02703329,-0.00000004,-0.00577556,-0.00093825,0.
 00000001,-0.00051513,-0.00102968,0.,-0.00142638,-0.00318719,0.00000003
 ,0.01164842,-0.01291223,0.,-0.14397205,0.13372936,0.00000023,0.0015235
 1,-0.00171893,0.00000004,-0.00479312,-0.00056540,-0.00000008,0.0005146
 9,-0.00069195,0.,0.00021874,0.00099669,-0.00000007,0.00108487,-0.00030
 820,0.,-0.00061367,0.00127030,0.00000002,0.00005970,0.00008187,0.00000
 001,0.15212108,-0.00324711,0.00670916,0.00000006,-0.00104100,0.0010405
 1,0.00000004,-0.00046211,0.00019996,-0.00000003,-0.00408998,-0.0025084
 5,-0.00000004,0.01533858,-0.01850332,0.00000007,0.13076229,-0.26778005
 ,-0.00000024,0.00250089,-0.00285094,-0.00000005,0.00078853,0.00171168,
 0.00000006,0.00108171,-0.00086710,0.00000007,-0.00023423,0.00098560,-0
 .00000002,0.00030827,0.00074754,0.,-0.00024230,0.00019437,-0.00000002,
 0.00009872,-0.00000075,-0.00000002,-0.14150140,0.28054667,0.00000014,-
 0.00000010,0.00606731,0.00000002,0.00000009,0.00785525,-0.00000005,-0.
 00000001,-0.00079491,0.00000004,0.,0.00568689,0.00000021,0.00000021,0.
 00387532,0.00000001,-0.00000036,-0.04136903,-0.00000019,-0.00000003,-0
 .00367784,-0.00000006,-0.00000003,0.00036191,0.,-0.00000004,0.00026263
 ,0.00000010,0.00000010,0.00053091,0.,0.00000002,-0.00483684,0.,0.,-0.0
 0028443,0.00000002,-0.00000004,-0.00076638,-0.00000022,0.00000018,0.02
 737711,0.00053056,-0.00029726,-0.00000008,0.00009332,0.00034429,0.,-0.
 00018146,0.00029025,-0.00000001,-0.00079211,0.00005249,0.,0.00247225,0
 .00289932,0.00000018,0.00028632,-0.00026116,0.00000011,-0.03299379,0.0
 0663410,0.00000077,-0.48837551,-0.05710340,0.00001923,0.00043493,-0.00
 067051,-0.00000008,0.00244020,-0.00916049,0.00000015,0.00001969,0.0000
 2234,0.,0.00003286,0.00000012,0.00000001,-0.00004749,-0.00002780,0.000
 00002,-0.00013264,-0.00007990,0.,0.51668082,-0.00027715,0.00041130,-0.
 00000006,-0.00016036,-0.00016004,0.00000001,0.00009735,-0.00042826,-0.
 00000007,0.00156420,0.00081589,0.00000005,0.00094529,-0.00667446,0.000
 00032,-0.00085958,-0.00056423,0.00000003,0.05591356,0.00771047,-0.0000
 0210,-0.10595771,-0.06119884,0.00000496,-0.00054288,0.00024327,0.,-0.0
 0811329,0.00156761,0.00000009,-0.00003114,-0.00001816,0.,-0.00003845,0
 .00003092,0.,0.00011891,0.00001438,0.,0.00008908,0.00070865,0.00000002
 ,0.05673213,0.05821089,-0.00000030,-0.00000011,0.00020468,0.00000015,0
 .00000007,0.00003819,0.00000009,0.00000018,-0.00032300,-0.00000024,0.0
 0000010,0.00093687,-0.00000005,0.00000013,0.00404318,0.00000009,0.0000
 0025,-0.00041311,-0.00000032,-0.00000030,0.00391128,0.00002080,0.00000
 329,-0.01421122,-0.00000002,-0.00000011,-0.00005596,0.00000003,0.,-0.0
 0597310,0.00000005,0.00000006,-0.00000265,-0.00000009,0.,-0.00002410,0
 .00000012,-0.00000017,-0.00001478,0.00000006,-0.00000003,-0.00028074,-
 0.00002034,-0.00000327,0.01207216,-0.00236181,0.00236763,0.,-0.0006817
 2,-0.00347584,0.00000005,0.00599115,0.00163003,0.00000015,-0.01278011,
 -0.01252945,0.00000054,-0.00631656,0.00151022,-0.00000018,0.00148935,0
 .00165564,-0.00000008,0.01602604,0.01126283,-0.00000072,-0.00140043,-0
 .00480036,0.00000036,-0.45277846,-0.02144840,0.00002459,-0.01278030,-0
 .00825287,0.00000047,-0.00008953,0.00002504,0.,0.00007576,-0.00008195,
 -0.00000002,-0.00015864,0.00009479,-0.00000001,0.00025871,0.00024253,0
 .,-0.00054504,0.00067417,-0.00000002,0.46684228,0.00215334,-0.00131717
 ,-0.00000015,-0.00146696,0.00310220,-0.00000005,-0.00300534,-0.0074244
 8,-0.00000011,-0.03298723,0.00959331,0.00000191,0.00461500,0.00077383,
 0.00000012,-0.00179517,-0.00146285,0.00000022,-0.00860257,-0.01442881,
 0.00000076,0.00043126,0.00419184,-0.00000014,-0.02273855,-0.07677703,0
 .00000276,0.00221740,0.00757463,-0.00000054,0.00012335,-0.00001902,0.,
 -0.00020230,-0.00039185,0.00000001,-0.00010320,0.00018179,0.00000002,-
 0.00009249,-0.00005004,-0.00000001,0.00050950,-0.00059084,-0.00000006,
 0.03489170,0.06957380,0.00000016,0.00000037,0.00011924,-0.00000017,-0.
 00000032,0.00193266,0.00000004,-0.00000031,0.00381018,-0.00000155,-0.0
 0000103,-0.00398386,-0.00000001,0.00000002,-0.00116037,-0.00000014,-0.
 00000023,-0.00063619,0.00000016,0.00000042,-0.00009905,0.,0.,0.0012578
 8,0.00002917,0.00000443,-0.00201476,0.00000007,-0.00000029,-0.00488681
 ,-0.00000006,-0.00000010,-0.00013647,0.00000002,-0.00000004,-0.0003599
 2,-0.00000012,0.00000024,-0.00076955,0.,-0.00000003,-0.00003016,0.0000
 0003,0.,0.00009886,-0.00002539,-0.00000266,0.01213986,0.00026058,-0.00
 060973,-0.00000016,-0.00019379,0.00113706,0.00000004,0.00064366,-0.003
 30802,-0.00000010,0.01546107,-0.01320635,0.00000047,-0.00039815,-0.004
 19031,0.00000010,0.00029839,-0.00035114,0.00000023,-0.00327504,-0.0026
 8623,0.00000025,0.00037837,0.00082836,-0.00000013,-0.20598173,0.189693
 88,-0.00000466,-0.00180226,0.00443411,0.,-0.00004919,0.00008641,-0.000
 00002,-0.00001869,0.00000530,0.00000002,-0.00085068,0.00074104,-0.0000
 0001,-0.00009571,-0.00022349,-0.00000001,0.00007709,-0.00015413,0.,-0.
 00079070,0.02605226,-0.00000222,0.19633680,-0.00081608,0.00102994,0.,-
 0.00016563,-0.00134843,-0.00000010,0.00316731,0.00290803,-0.00000020,0
 .01862741,-0.02443362,0.00000092,-0.00541289,-0.00114895,0.00000019,0.
 00206078,-0.00038430,-0.00000002,0.00037096,-0.00061821,0.00000003,-0.
 00016744,0.00064849,-0.00000002,0.18660496,-0.34766471,0.00001195,-0.0
 0078751,0.00097861,0.00000003,-0.00005430,0.00005774,0.00000002,0.0000
 6228,0.00004176,0.,-0.00133626,0.00018758,0.00000009,-0.00025486,-0.00
 028348,0.,0.00011600,-0.00007857,0.,-0.00376571,0.00747070,-0.00000048
 ,-0.19824904,0.36263742,0.,0.00000014,-0.00011167,0.,-0.00000014,-0.00
 086342,0.00000019,0.00000009,-0.00244313,-0.00000039,-0.00000159,-0.00
 455746,-0.00000032,0.00000002,0.00371084,-0.00000002,-0.00000007,0.001
 57424,0.00000043,0.00000027,-0.00013951,-0.00000012,-0.00000001,-0.000
 55001,-0.00000648,0.00001610,0.00291287,0.00000019,-0.00000034,0.00077
 852,0.,-0.00000003,0.00004331,0.,-0.00000001,0.00015436,0.00000005,0.0
 0000008,0.00072734,0.,-0.00000003,0.00002301,0.00000003,0.00000001,-0.
 00000655,0.00000024,-0.00000207,-0.00528151,0.00000622,-0.00001241,0.0
 0402878\\-0.00001877,-0.00001783,0.00000011,-0.00001462,-0.00000619,0.
 00000009,0.00000418,0.00001423,0.00000003,0.00000301,0.00002417,0.0000
 0007,0.00001712,-0.00002204,-0.00000219,0.00002928,-0.00000028,-0.0000
 0060,0.00005616,0.00001178,0.00000818,-0.00003702,-0.00007255,-0.00000
 208,0.00000687,-0.00000135,-0.00000012,-0.00001729,0.00004792,-0.00000
 322,0.00000162,-0.00000352,0.,-0.00000529,0.00000239,-0.00000004,-0.00
 000377,0.00000330,0.,0.00001189,-0.00000802,-0.00000002,-0.00002451,0.
 00001521,-0.00000015,-0.00000658,0.00000548,-0.00000026,-0.00000228,0.
 00000730,0.00000020\\\@


 IN SO FAR AS QUANTUM MECHANICS IS CORRECT, CHEMICAL 
 QUESTIONS ARE PROBLEMS IN APPLIED MATHEMATICS.

                    -- EYRING, WALTER, & KIMBALL, 1944
 Job cpu time:       0 days  0 hours 28 minutes 21.7 seconds.
 File lengths (MBytes):  RWF=     93 Int=      0 D2E=      0 Chk=      5 Scr=      1
 Normal termination of Gaussian 09 at Sat Jun 22 17:18:28 2024.
