 Entering Gaussian System, Link 0=g09
 Input=gd3pbeAnthranilicyang.gjf
 Output=gd3pbeAnthranilicyang.log
 Initial command:
 /home/phzd/g09E/g09/l1.exe "/home/phzd/g09E/scratch/Gau-136164.inp" -scrdir="/home/phzd/g09E/scratch/"
 Default is to use a total of  18 processors:
                               18 via shared-memory
                                1 via Linda
 Entering Link 1 = /home/phzd/g09E/g09/l1.exe PID=    136166.
  
 Copyright (c) 1988,1990,1992,1993,1995,1998,2003,2009,2015,
            Gaussian, Inc.  All Rights Reserved.
  
 This is part of the Gaussian(R) 09 program.  It is based on
 the Gaussian(R) 03 system (copyright 2003, Gaussian, Inc.),
 the Gaussian(R) 98 system (copyright 1998, Gaussian, Inc.),
 the Gaussian(R) 94 system (copyright 1995, Gaussian, Inc.),
 the Gaussian 92(TM) system (copyright 1992, Gaussian, Inc.),
 the Gaussian 90(TM) system (copyright 1990, Gaussian, Inc.),
 the Gaussian 88(TM) system (copyright 1988, Gaussian, Inc.),
 the Gaussian 86(TM) system (copyright 1986, Carnegie Mellon
 University), and the Gaussian 82(TM) system (copyright 1983,
 Carnegie Mellon University). Gaussian is a federally registered
 trademark of Gaussian, Inc.
  
 This software contains proprietary and confidential information,
 including trade secrets, belonging to Gaussian, Inc.
  
 This software is provided under written license and may be
 used, copied, transmitted, or stored only in accord with that
 written license.
  
 The following legend is applicable only to US Government
 contracts under FAR:
  
                    RESTRICTED RIGHTS LEGEND
  
 Use, reproduction and disclosure by the US Government is
 subject to restrictions as set forth in subparagraphs (a)
 and (c) of the Commercial Computer Software - Restricted
 Rights clause in FAR 52.227-19.
  
 Gaussian, Inc.
 340 Quinnipiac St., Bldg. 40, Wallingford CT 06492
  
  
 ---------------------------------------------------------------
 Warning -- This program may not be used in any manner that
 competes with the business of Gaussian, Inc. or will provide
 assistance to any competitor of Gaussian, Inc.  The licensee
 of this program is prohibited from giving any competitor of
 Gaussian, Inc. access to this program.  By using this program,
 the user acknowledges that Gaussian, Inc. is engaged in the
 business of creating and licensing software in the field of
 computational chemistry and represents and warrants to the
 licensee that it is not a competitor of Gaussian, Inc. and that
 it will not use this program in any manner prohibited above.
 ---------------------------------------------------------------
  

 Cite this work as:
 Gaussian 09, Revision E.01,
 M. J. Frisch, G. W. Trucks, H. B. Schlegel, G. E. Scuseria, 
 M. A. Robb, J. R. Cheeseman, G. Scalmani, V. Barone, B. Mennucci, 
 G. A. Petersson, H. Nakatsuji, M. Caricato, X. Li, H. P. Hratchian, 
 A. F. Izmaylov, J. Bloino, G. Zheng, J. L. Sonnenberg, M. Hada, 
 M. Ehara, K. Toyota, R. Fukuda, J. Hasegawa, M. Ishida, T. Nakajima, 
 Y. Honda, O. Kitao, H. Nakai, T. Vreven, J. A. Montgomery, Jr., 
 J. E. Peralta, F. Ogliaro, M. Bearpark, J. J. Heyd, E. Brothers, 
 K. N. Kudin, V. N. Staroverov, T. Keith, R. Kobayashi, J. Normand, 
 K. Raghavachari, A. Rendell, J. C. Burant, S. S. Iyengar, J. Tomasi, 
 M. Cossi, N. Rega, J. M. Millam, M. Klene, J. E. Knox, J. B. Cross, 
 V. Bakken, C. Adamo, J. Jaramillo, R. Gomperts, R. E. Stratmann, 
 O. Yazyev, A. J. Austin, R. Cammi, C. Pomelli, J. W. Ochterski, 
 R. L. Martin, K. Morokuma, V. G. Zakrzewski, G. A. Voth, 
 P. Salvador, J. J. Dannenberg, S. Dapprich, A. D. Daniels, 
 O. Farkas, J. B. Foresman, J. V. Ortiz, J. Cioslowski, 
 and D. J. Fox, Gaussian, Inc., Wallingford CT, 2013.
 
 ******************************************
 Gaussian 09:  ES64L-G09RevE.01 30-Nov-2015
                22-Jun-2024 
 ******************************************
 %chk=gd3pbeAnthranilicyang.chk
 --------------------------------------
 # opt freq pbepbe/6-31+g(d,p) em=gd3bj
 --------------------------------------
 1/14=-1,18=20,19=15,26=3,38=1/1,3;
 2/9=110,12=2,17=6,18=5,40=1/2;
 3/5=1,6=6,7=111,11=2,16=1,25=1,30=1,71=1,74=1009,124=41/1,2,3;
 4//1;
 5/5=2,38=5/2;
 6/7=2,8=2,9=2,10=2,28=1/1;
 7//1,2,3,16;
 1/14=-1,18=20,19=15,26=3/3(2);
 2/9=110/2;
 99//99;
 2/9=110/2;
 3/5=1,6=6,7=111,11=2,16=1,25=1,30=1,71=1,74=1009,124=41/1,2,3;
 4/5=5,16=3,69=1/1;
 5/5=2,38=5/2;
 7//1,2,3,16;
 1/14=-1,18=20,19=15,26=3/3(-5);
 2/9=110/2;
 6/7=2,8=2,9=2,10=2,19=2,28=1/1;
 99/9=1/99;
 ----------
 [No Title]
 ----------
 Symbolic Z-matrix:
 Charge =  1 Multiplicity = 1
 C                    -1.93939  -1.47584  -0.0003 
 C                    -2.62312  -0.25842   0.00012 
 C                    -1.91407   0.94845   0.00037 
 C                    -0.5284    0.91123   0.00015 
 C                     0.18707  -0.3019   -0.00007 
 C                    -0.54476  -1.49913  -0.0003 
 C                     1.67336  -0.3022   0. 
 O                     2.22273  -1.5063    0.00051 
 N                     0.23835   2.18198  -0.00008 
 O                     2.34896   0.73349  -0.00035 
 H                    -2.4921   -2.40916  -0.00063 
 H                    -3.70788  -0.2395    0.00021 
 H                    -2.44514   1.8964    0.00077 
 H                    -0.01099  -2.44225  -0.00035 
 H                     3.19406  -1.4217    0.00047 
 H                     0.04136   2.75161   0.82897 
 H                     1.2724    1.88936   0.00009 
 H                     0.04211   2.75063  -0.83 
 

 GradGradGradGradGradGradGradGradGradGradGradGradGradGradGradGradGradGrad
 Berny optimization.
 Initialization pass.
                           ----------------------------
                           !    Initial Parameters    !
                           ! (Angstroms and Degrees)  !
 --------------------------                            --------------------------
 ! Name  Definition              Value          Derivative Info.                !
 --------------------------------------------------------------------------------
 ! R1    R(1,2)                  1.3963         estimate D2E/DX2                !
 ! R2    R(1,6)                  1.3948         estimate D2E/DX2                !
 ! R3    R(1,11)                 1.0847         estimate D2E/DX2                !
 ! R4    R(2,3)                  1.3997         estimate D2E/DX2                !
 ! R5    R(2,12)                 1.0849         estimate D2E/DX2                !
 ! R6    R(3,4)                  1.3862         estimate D2E/DX2                !
 ! R7    R(3,13)                 1.0866         estimate D2E/DX2                !
 ! R8    R(4,5)                  1.4084         estimate D2E/DX2                !
 ! R9    R(4,9)                  1.4842         estimate D2E/DX2                !
 ! R10   R(5,6)                  1.4032         estimate D2E/DX2                !
 ! R11   R(5,7)                  1.4863         estimate D2E/DX2                !
 ! R12   R(6,14)                 1.0837         estimate D2E/DX2                !
 ! R13   R(7,8)                  1.3235         estimate D2E/DX2                !
 ! R14   R(7,10)                 1.2366         estimate D2E/DX2                !
 ! R15   R(8,15)                 0.975          estimate D2E/DX2                !
 ! R16   R(9,16)                 1.025          estimate D2E/DX2                !
 ! R17   R(9,17)                 1.0747         estimate D2E/DX2                !
 ! R18   R(9,18)                 1.025          estimate D2E/DX2                !
 ! A1    A(2,1,6)              120.2761         estimate D2E/DX2                !
 ! A2    A(2,1,11)             120.0466         estimate D2E/DX2                !
 ! A3    A(6,1,11)             119.6774         estimate D2E/DX2                !
 ! A4    A(1,2,3)              120.2459         estimate D2E/DX2                !
 ! A5    A(1,2,12)             120.3186         estimate D2E/DX2                !
 ! A6    A(3,2,12)             119.4355         estimate D2E/DX2                !
 ! A7    A(2,3,4)              118.896          estimate D2E/DX2                !
 ! A8    A(2,3,13)             120.306          estimate D2E/DX2                !
 ! A9    A(4,3,13)             120.798          estimate D2E/DX2                !
 ! A10   A(3,4,5)              122.0696         estimate D2E/DX2                !
 ! A11   A(3,4,9)              119.5674         estimate D2E/DX2                !
 ! A12   A(5,4,9)              118.363          estimate D2E/DX2                !
 ! A13   A(4,5,6)              118.033          estimate D2E/DX2                !
 ! A14   A(4,5,7)              120.5423         estimate D2E/DX2                !
 ! A15   A(6,5,7)              121.4247         estimate D2E/DX2                !
 ! A16   A(1,6,5)              120.4795         estimate D2E/DX2                !
 ! A17   A(1,6,14)             120.4648         estimate D2E/DX2                !
 ! A18   A(5,6,14)             119.0557         estimate D2E/DX2                !
 ! A19   A(5,7,8)              114.5363         estimate D2E/DX2                !
 ! A20   A(5,7,10)             123.1059         estimate D2E/DX2                !
 ! A21   A(8,7,10)             122.3579         estimate D2E/DX2                !
 ! A22   A(7,8,15)             109.547          estimate D2E/DX2                !
 ! A23   A(4,9,16)             112.1121         estimate D2E/DX2                !
 ! A24   A(4,9,17)             105.3054         estimate D2E/DX2                !
 ! A25   A(4,9,18)             112.0996         estimate D2E/DX2                !
 ! A26   A(16,9,17)            109.6413         estimate D2E/DX2                !
 ! A27   A(16,9,18)            108.0461         estimate D2E/DX2                !
 ! A28   A(17,9,18)            109.5972         estimate D2E/DX2                !
 ! D1    D(6,1,2,3)              0.0083         estimate D2E/DX2                !
 ! D2    D(6,1,2,12)          -179.9943         estimate D2E/DX2                !
 ! D3    D(11,1,2,3)          -179.9921         estimate D2E/DX2                !
 ! D4    D(11,1,2,12)            0.0052         estimate D2E/DX2                !
 ! D5    D(2,1,6,5)             -0.0092         estimate D2E/DX2                !
 ! D6    D(2,1,6,14)           179.9827         estimate D2E/DX2                !
 ! D7    D(11,1,6,5)           179.9912         estimate D2E/DX2                !
 ! D8    D(11,1,6,14)           -0.0169         estimate D2E/DX2                !
 ! D9    D(1,2,3,4)              0.0022         estimate D2E/DX2                !
 ! D10   D(1,2,3,13)          -179.9955         estimate D2E/DX2                !
 ! D11   D(12,2,3,4)          -179.9951         estimate D2E/DX2                !
 ! D12   D(12,2,3,13)            0.0072         estimate D2E/DX2                !
 ! D13   D(2,3,4,5)             -0.0122         estimate D2E/DX2                !
 ! D14   D(2,3,4,9)            179.9784         estimate D2E/DX2                !
 ! D15   D(13,3,4,5)           179.9855         estimate D2E/DX2                !
 ! D16   D(13,3,4,9)            -0.0239         estimate D2E/DX2                !
 ! D17   D(3,4,5,6)              0.0112         estimate D2E/DX2                !
 ! D18   D(3,4,5,7)           -179.9863         estimate D2E/DX2                !
 ! D19   D(9,4,5,6)           -179.9795         estimate D2E/DX2                !
 ! D20   D(9,4,5,7)              0.023          estimate D2E/DX2                !
 ! D21   D(3,4,9,16)            60.8162         estimate D2E/DX2                !
 ! D22   D(3,4,9,17)           179.9828         estimate D2E/DX2                !
 ! D23   D(3,4,9,18)           -60.9105         estimate D2E/DX2                !
 ! D24   D(5,4,9,16)          -119.1928         estimate D2E/DX2                !
 ! D25   D(5,4,9,17)            -0.0262         estimate D2E/DX2                !
 ! D26   D(5,4,9,18)           119.0804         estimate D2E/DX2                !
 ! D27   D(4,5,6,1)             -0.0004         estimate D2E/DX2                !
 ! D28   D(4,5,6,14)          -179.9924         estimate D2E/DX2                !
 ! D29   D(7,5,6,1)            179.9971         estimate D2E/DX2                !
 ! D30   D(7,5,6,14)             0.0051         estimate D2E/DX2                !
 ! D31   D(4,5,7,8)            179.9649         estimate D2E/DX2                !
 ! D32   D(4,5,7,10)            -0.033          estimate D2E/DX2                !
 ! D33   D(6,5,7,8)             -0.0325         estimate D2E/DX2                !
 ! D34   D(6,5,7,10)           179.9696         estimate D2E/DX2                !
 ! D35   D(5,7,8,15)           179.9967         estimate D2E/DX2                !
 ! D36   D(10,7,8,15)           -0.0054         estimate D2E/DX2                !
 --------------------------------------------------------------------------------
 Trust Radius=3.00D-01 FncErr=1.00D-07 GrdErr=1.00D-06
 Number of steps in this run=     92 maximum allowed number of steps=    108.
 GradGradGradGradGradGradGradGradGradGradGradGradGradGradGradGradGradGrad

                          Input orientation:                          
 ---------------------------------------------------------------------
 Center     Atomic      Atomic             Coordinates (Angstroms)
 Number     Number       Type             X           Y           Z
 ---------------------------------------------------------------------
      1          6           0       -1.939390   -1.475838   -0.000302
      2          6           0       -2.623116   -0.258417    0.000119
      3          6           0       -1.914065    0.948453    0.000370
      4          6           0       -0.528397    0.911229    0.000146
      5          6           0        0.187071   -0.301902   -0.000072
      6          6           0       -0.544756   -1.499127   -0.000301
      7          6           0        1.673355   -0.302199   -0.000002
      8          8           0        2.222725   -1.506299    0.000512
      9          7           0        0.238354    2.181978   -0.000079
     10          8           0        2.348961    0.733494   -0.000352
     11          1           0       -2.492101   -2.409155   -0.000625
     12          1           0       -3.707882   -0.239496    0.000211
     13          1           0       -2.445144    1.896404    0.000772
     14          1           0       -0.010986   -2.442250   -0.000345
     15          1           0        3.194062   -1.421697    0.000471
     16          1           0        0.041360    2.751607    0.828966
     17          1           0        1.272402    1.889357    0.000085
     18          1           0        0.042110    2.750631   -0.830004
 ---------------------------------------------------------------------
                    Distance matrix (angstroms):
                    1          2          3          4          5
     1  C    0.000000
     2  C    1.396279   0.000000
     3  C    2.424423   1.399746   0.000000
     4  C    2.772903   2.399150   1.386168   0.000000
     5  C    2.428984   2.810523   2.445028   1.408397   0.000000
     6  C    1.394828   2.420525   2.804578   2.410412   1.403182
     7  C    3.798599   4.296694   3.799173   2.513985   1.486284
     8  O    4.162227   5.003937   4.810285   3.662392   2.365261
     9  N    4.257016   3.760790   2.480825   1.484153   2.484409
    10  O    4.824013   5.070053   4.268442   2.882842   2.397043
    11  H    1.084698   2.154725   3.407001   3.857601   3.408589
    12  H    2.157801   1.084931   2.151512   3.381315   3.895453
    13  H    3.409957   2.162158   1.086580   2.155108   3.429447
    14  H    2.157010   3.404754   3.888261   3.393160   2.149492
    15  H    5.133738   5.932350   5.631214   4.393091   3.208728
    16  H    4.741555   4.104469   2.785969   2.097274   3.167405
    17  H    4.651897   4.448370   3.322480   2.049295   2.445314
    18  H    4.741075   4.104498   2.786393   2.097147   3.166664
                    6          7          8          9         10
     6  C    0.000000
     7  C    2.520447   0.000000
     8  O    2.767490   1.323505   0.000000
     9  N    3.763482   2.868861   4.188212   0.000000
    10  O    3.654886   1.236569   2.243348   2.559837   0.000000
    11  H    2.149489   4.668007   4.800493   5.341712   5.771666
    12  H    3.404708   5.381602   6.064395   4.629937   6.134497
    13  H    3.891157   4.668607   5.776451   2.698651   4.933133
    14  H    1.083693   2.723384   2.421873   4.630945   3.956602
    15  H    3.739620   1.888339   0.975014   4.660760   2.314961
    16  H    4.370350   3.560383   4.855353   1.024988   3.175779
    17  H    3.844982   2.227932   3.526130   1.074655   1.579557
    18  H    4.369584   3.559443   4.854513   1.025014   3.174701
                   11         12         13         14         15
    11  H    0.000000
    12  H    2.487075   0.000000
    13  H    4.305815   2.481245   0.000000
    14  H    2.481336   4.303390   4.974841   0.000000
    15  H    5.771267   7.002459   6.542969   3.363608   0.000000
    16  H    5.808624   4.867273   2.756806   5.259909   5.295508
    17  H    5.713903   5.416202   3.717553   4.517732   3.828297
    18  H    5.808054   4.867500   2.757957   5.259008   5.294602
                   16         17         18
    16  H    0.000000
    17  H    1.716387   0.000000
    18  H    1.658970   1.715943   0.000000
 Stoichiometry    C7H8NO2(1+)
 Framework group  C1[X(C7H8NO2)]
 Deg. of freedom    48
 Full point group                 C1      NOp   1
 Largest Abelian subgroup         C1      NOp   1
 Largest concise Abelian subgroup C1      NOp   1
                         Standard orientation:                         
 ---------------------------------------------------------------------
 Center     Atomic      Atomic             Coordinates (Angstroms)
 Number     Number       Type             X           Y           Z
 ---------------------------------------------------------------------
      1          6           0        1.939390   -1.475838    0.000302
      2          6           0        2.623116   -0.258417   -0.000119
      3          6           0        1.914065    0.948453   -0.000370
      4          6           0        0.528397    0.911229   -0.000146
      5          6           0       -0.187071   -0.301902    0.000072
      6          6           0        0.544756   -1.499127    0.000301
      7          6           0       -1.673355   -0.302199    0.000002
      8          8           0       -2.222725   -1.506299   -0.000512
      9          7           0       -0.238354    2.181978    0.000079
     10          8           0       -2.348961    0.733494    0.000352
     11          1           0        2.492101   -2.409155    0.000625
     12          1           0        3.707882   -0.239497   -0.000211
     13          1           0        2.445144    1.896404   -0.000772
     14          1           0        0.010986   -2.442250    0.000345
     15          1           0       -3.194062   -1.421697   -0.000471
     16          1           0       -0.041360    2.751607   -0.828966
     17          1           0       -1.272402    1.889357   -0.000085
     18          1           0       -0.042110    2.750631    0.830004
 ---------------------------------------------------------------------
 Rotational constants (GHZ):      2.2343428      1.2032867      0.7854672
 Standard basis: 6-31+G(d,p) (6D, 7F)
 There are   230 symmetry adapted cartesian basis functions of A   symmetry.
 There are   230 symmetry adapted basis functions of A   symmetry.
   230 basis functions,   376 primitive gaussians,   230 cartesian basis functions
    36 alpha electrons       36 beta electrons
       nuclear repulsion energy       514.1645139868 Hartrees.
 NAtoms=   18 NActive=   18 NUniq=   18 SFac= 1.00D+00 NAtFMM=   60 NAOKFM=F Big=F
 Integral buffers will be    131072 words long.
 Raffenetti 2 integral format.
 Two-electron integral symmetry is turned on.
 Nuclear repulsion after empirical dispersion term =      514.1450931543 Hartrees.
 One-electron integrals computed using PRISM.
 NBasis=   230 RedAO= T EigKep=  2.28D-06  NBF=   230
 NBsUse=   230 1.00D-06 EigRej= -1.00D+00 NBFU=   230
 ExpMin= 4.38D-02 ExpMax= 5.48D+03 ExpMxC= 8.25D+02 IAcc=2 IRadAn=         4 AccDes= 0.00D+00
 Harris functional with IExCor= 1009 and IRadAn=       4 diagonalized for initial guess.
 HarFok:  IExCor= 1009 AccDes= 0.00D+00 IRadAn=         4 IDoV= 1 UseB2=F ITyADJ=14
 ICtDFT=  3500011 ScaDFX=  1.000000  1.000000  1.000000  1.000000
 FoFCou: FMM=F IPFlag=           0 FMFlag=      100000 FMFlg1=           0
         NFxFlg=           0 DoJE=T BraDBF=F KetDBF=T FulRan=T
         wScrn=  0.000000 ICntrl=     500 IOpCl=  0 I1Cent=   200000004 NGrid=           0
         NMat0=    1 NMatS0=      1 NMatT0=    0 NMatD0=    1 NMtDS0=    0 NMtDT0=    0
 Petite list used in FoFCou.
 Keep J ints in memory in canonical form, NReq=359209085.
 Requested convergence on RMS density matrix=1.00D-08 within 128 cycles.
 Requested convergence on MAX density matrix=1.00D-06.
 Requested convergence on             energy=1.00D-06.
 No special actions if energy rises.
 SCF Done:  E(RPBE-PBE) =  -476.038037233     A.U. after   15 cycles
            NFock= 15  Conv=0.66D-08     -V/T= 2.0092

 **********************************************************************

            Population analysis using the SCF density.

 **********************************************************************

 Orbital symmetries:
       Occupied  (A) (A) (A) (A) (A) (A) (A) (A) (A) (A) (A) (A)
                 (A) (A) (A) (A) (A) (A) (A) (A) (A) (A) (A) (A)
                 (A) (A) (A) (A) (A) (A) (A) (A) (A) (A) (A) (A)
       Virtual   (A) (A) (A) (A) (A) (A) (A) (A) (A) (A) (A) (A)
                 (A) (A) (A) (A) (A) (A) (A) (A) (A) (A) (A) (A)
                 (A) (A) (A) (A) (A) (A) (A) (A) (A) (A) (A) (A)
                 (A) (A) (A) (A) (A) (A) (A) (A) (A) (A) (A) (A)
                 (A) (A) (A) (A) (A) (A) (A) (A) (A) (A) (A) (A)
                 (A) (A) (A) (A) (A) (A) (A) (A) (A) (A) (A) (A)
                 (A) (A) (A) (A) (A) (A) (A) (A) (A) (A) (A) (A)
                 (A) (A) (A) (A) (A) (A) (A) (A) (A) (A) (A) (A)
                 (A) (A) (A) (A) (A) (A) (A) (A) (A) (A) (A) (A)
                 (A) (A) (A) (A) (A) (A) (A) (A) (A) (A) (A) (A)
                 (A) (A) (A) (A) (A) (A) (A) (A) (A) (A) (A) (A)
                 (A) (A) (A) (A) (A) (A) (A) (A) (A) (A) (A) (A)
                 (A) (A) (A) (A) (A) (A) (A) (A) (A) (A) (A) (A)
                 (A) (A) (A) (A) (A) (A) (A) (A) (A) (A) (A) (A)
                 (A) (A) (A) (A) (A) (A) (A) (A) (A) (A) (A) (A)
                 (A) (A) (A) (A) (A) (A) (A) (A) (A) (A) (A) (A)
                 (A) (A)
 The electronic state is 1-A.
 Alpha  occ. eigenvalues --  -18.99797 -18.95385 -14.29333 -10.21055 -10.14377
 Alpha  occ. eigenvalues --  -10.10496 -10.08929 -10.08161 -10.08082 -10.07288
 Alpha  occ. eigenvalues --   -1.19882  -1.11764  -1.09010  -0.95938  -0.87563
 Alpha  occ. eigenvalues --   -0.85406  -0.77744  -0.74733  -0.72065  -0.70275
 Alpha  occ. eigenvalues --   -0.68237  -0.65821  -0.62905  -0.60895  -0.57918
 Alpha  occ. eigenvalues --   -0.57620  -0.56355  -0.55726  -0.51625  -0.50388
 Alpha  occ. eigenvalues --   -0.49187  -0.48044  -0.45369  -0.41971  -0.40833
 Alpha  occ. eigenvalues --   -0.40632
 Alpha virt. eigenvalues --   -0.25549  -0.21869  -0.18590  -0.15995  -0.14008
 Alpha virt. eigenvalues --   -0.12932  -0.12009  -0.10796  -0.09516  -0.08590
 Alpha virt. eigenvalues --   -0.07896  -0.07831  -0.06939  -0.05711  -0.05171
 Alpha virt. eigenvalues --   -0.04458  -0.04073  -0.02850  -0.02665  -0.02351
 Alpha virt. eigenvalues --   -0.00967  -0.00706  -0.00133   0.00494   0.02049
 Alpha virt. eigenvalues --    0.02491   0.02868   0.03148   0.03874   0.04219
 Alpha virt. eigenvalues --    0.04379   0.05082   0.05803   0.06450   0.06729
 Alpha virt. eigenvalues --    0.07589   0.07735   0.08584   0.08869   0.10221
 Alpha virt. eigenvalues --    0.11192   0.11796   0.11940   0.12150   0.13774
 Alpha virt. eigenvalues --    0.14276   0.14580   0.14918   0.15535   0.16419
 Alpha virt. eigenvalues --    0.17545   0.17866   0.19295   0.20725   0.21985
 Alpha virt. eigenvalues --    0.23922   0.24878   0.28411   0.30034   0.31723
 Alpha virt. eigenvalues --    0.37768   0.40534   0.43623   0.46024   0.48002
 Alpha virt. eigenvalues --    0.49427   0.52107   0.52237   0.53137   0.53677
 Alpha virt. eigenvalues --    0.54224   0.56631   0.57324   0.60612   0.60785
 Alpha virt. eigenvalues --    0.61333   0.64227   0.65827   0.67172   0.70832
 Alpha virt. eigenvalues --    0.73181   0.74102   0.74821   0.75591   0.78870
 Alpha virt. eigenvalues --    0.81146   0.84100   0.84375   0.88955   0.90331
 Alpha virt. eigenvalues --    0.91533   0.93268   0.93403   0.95407   0.97390
 Alpha virt. eigenvalues --    0.97479   0.99849   1.00214   1.03261   1.04292
 Alpha virt. eigenvalues --    1.06163   1.09120   1.09304   1.11616   1.11890
 Alpha virt. eigenvalues --    1.14599   1.15698   1.16275   1.17031   1.18023
 Alpha virt. eigenvalues --    1.18829   1.22561   1.27952   1.35121   1.35837
 Alpha virt. eigenvalues --    1.43944   1.44894   1.47812   1.48436   1.53061
 Alpha virt. eigenvalues --    1.55519   1.57009   1.59683   1.60342   1.62903
 Alpha virt. eigenvalues --    1.66221   1.68748   1.71746   1.73954   1.74128
 Alpha virt. eigenvalues --    1.76549   1.77425   1.78227   1.78656   1.82556
 Alpha virt. eigenvalues --    1.85365   1.86036   1.94620   1.94689   2.01588
 Alpha virt. eigenvalues --    2.04395   2.05242   2.09003   2.11423   2.13972
 Alpha virt. eigenvalues --    2.13993   2.16329   2.17783   2.18471   2.19529
 Alpha virt. eigenvalues --    2.25484   2.27295   2.27684   2.29780   2.33255
 Alpha virt. eigenvalues --    2.34408   2.36842   2.38339   2.38593   2.42288
 Alpha virt. eigenvalues --    2.44586   2.46806   2.49405   2.51884   2.55515
 Alpha virt. eigenvalues --    2.57813   2.62758   2.62899   2.67133   2.72652
 Alpha virt. eigenvalues --    2.80668   2.84557   2.91314   2.93597   3.00008
 Alpha virt. eigenvalues --    3.04137   3.05217   3.09288   3.09317   3.13299
 Alpha virt. eigenvalues --    3.24550   3.25533   3.31798   3.60864   3.96061
 Alpha virt. eigenvalues --    4.01806   4.04740   4.06329   4.11277   4.21980
 Alpha virt. eigenvalues --    4.23646   4.30626   4.55349   4.59706
          Condensed to atoms (all electrons):
               1          2          3          4          5          6
     1  C    7.504109   0.140284   0.953578  -1.043217   0.157932  -2.079132
     2  C    0.140284   6.070618  -1.035911   1.527012  -1.578558   1.234454
     3  C    0.953578  -1.035911  15.399941  -4.990583  -1.603385  -3.983071
     4  C   -1.043217   1.527012  -4.990583  21.479214  -5.680534  -3.200480
     5  C    0.157932  -1.578558  -1.603385  -5.680534  14.819689  -1.486884
     6  C   -2.079132   1.234454  -3.983071  -3.200480  -1.486884  17.041261
     7  C   -0.161556  -0.196965   0.692838  -0.694856  -0.192319  -0.603871
     8  O    0.115312  -0.005628   0.044402   0.041968  -0.076596  -0.153069
     9  N   -0.037513  -0.006339  -0.762486  -0.021192   0.486531   0.202318
    10  O    0.047817  -0.009543   0.091470  -0.132741  -0.051772  -0.110170
    11  H    0.227671   0.021294   0.005336  -0.002899   0.013447   0.052930
    12  H    0.056185   0.226195   0.056429  -0.043176   0.024765  -0.003325
    13  H    0.018506   0.071186   0.345403  -0.054549  -0.043913  -0.028746
    14  H    0.066976  -0.014070   0.030103   0.041404   0.061768   0.129498
    15  H   -0.008326  -0.000171   0.002160  -0.016177   0.034868   0.007348
    16  H    0.001059  -0.005209  -0.001387  -0.044415   0.028548   0.003574
    17  H    0.004146  -0.003778   0.222879   0.108097  -0.279121  -0.083690
    18  H    0.001038  -0.005194  -0.001548  -0.044280   0.028461   0.003662
               7          8          9         10         11         12
     1  C   -0.161556   0.115312  -0.037513   0.047817   0.227671   0.056185
     2  C   -0.196965  -0.005628  -0.006339  -0.009543   0.021294   0.226195
     3  C    0.692838   0.044402  -0.762486   0.091470   0.005336   0.056429
     4  C   -0.694856   0.041968  -0.021192  -0.132741  -0.002899  -0.043176
     5  C   -0.192319  -0.076596   0.486531  -0.051772   0.013447   0.024765
     6  C   -0.603871  -0.153069   0.202318  -0.110170   0.052930  -0.003325
     7  C    6.037576   0.122118  -0.116192   0.332013   0.001641   0.001815
     8  O    0.122118   8.261565  -0.016116  -0.150907   0.000094   0.000004
     9  N   -0.116192  -0.016116   7.194390  -0.046842   0.000163  -0.000446
    10  O    0.332013  -0.150907  -0.046842   8.347433   0.000026  -0.000003
    11  H    0.001641   0.000094   0.000163   0.000026   0.499676  -0.005030
    12  H    0.001815   0.000004  -0.000446  -0.000003  -0.005030   0.500276
    13  H    0.004048   0.000015  -0.000033   0.000111  -0.000139  -0.005207
    14  H   -0.011242   0.006491  -0.001556   0.000070  -0.004983  -0.000140
    15  H    0.018317   0.191762   0.000846   0.001684  -0.000000   0.000000
    16  H    0.001605   0.000211   0.301888   0.001458  -0.000000  -0.000003
    17  H    0.042264   0.004151   0.161350   0.101878  -0.000000   0.000002
    18  H    0.001601   0.000211   0.301896   0.001444  -0.000000  -0.000002
              13         14         15         16         17         18
     1  C    0.018506   0.066976  -0.008326   0.001059   0.004146   0.001038
     2  C    0.071186  -0.014070  -0.000171  -0.005209  -0.003778  -0.005194
     3  C    0.345403   0.030103   0.002160  -0.001387   0.222879  -0.001548
     4  C   -0.054549   0.041404  -0.016177  -0.044415   0.108097  -0.044280
     5  C   -0.043913   0.061768   0.034868   0.028548  -0.279121   0.028461
     6  C   -0.028746   0.129498   0.007348   0.003574  -0.083690   0.003662
     7  C    0.004048  -0.011242   0.018317   0.001605   0.042264   0.001601
     8  O    0.000015   0.006491   0.191762   0.000211   0.004151   0.000211
     9  N   -0.000033  -0.001556   0.000846   0.301888   0.161350   0.301896
    10  O    0.000111   0.000070   0.001684   0.001458   0.101878   0.001444
    11  H   -0.000139  -0.004983  -0.000000  -0.000000  -0.000000  -0.000000
    12  H   -0.005207  -0.000140   0.000000  -0.000003   0.000002  -0.000002
    13  H    0.513949   0.000012  -0.000000   0.000612   0.000097   0.000607
    14  H    0.000012   0.492417  -0.000049   0.000003   0.000008   0.000003
    15  H   -0.000000  -0.000049   0.355587  -0.000001  -0.000046  -0.000001
    16  H    0.000612   0.000003  -0.000001   0.335801  -0.008930  -0.023841
    17  H    0.000097   0.000008  -0.000046  -0.008930   0.309983  -0.008953
    18  H    0.000607   0.000003  -0.000001  -0.023841  -0.008953   0.335799
 Mulliken charges:
               1
     1  C    0.035131
     2  C   -0.429676
     3  C    0.533830
     4  C   -1.228594
     5  C    1.337073
     6  C   -0.942607
     7  C    0.721165
     8  O   -0.385988
     9  N   -0.640667
    10  O   -0.423426
    11  H    0.190775
    12  H    0.191662
    13  H    0.178044
    14  H    0.203288
    15  H    0.412199
    16  H    0.409027
    17  H    0.429664
    18  H    0.409100
 Sum of Mulliken charges =   1.00000
 Mulliken charges with hydrogens summed into heavy atoms:
               1
     1  C    0.225907
     2  C   -0.238015
     3  C    0.711874
     4  C   -1.228594
     5  C    1.337073
     6  C   -0.739319
     7  C    0.721165
     8  O    0.026211
     9  N    0.607124
    10  O   -0.423426
 Electronic spatial extent (au):  <R**2>=           1375.1367
 Charge=              1.0000 electrons
 Dipole moment (field-independent basis, Debye):
    X=              1.0555    Y=              4.1698    Z=              0.0005  Tot=              4.3013
 Quadrupole moment (field-independent basis, Debye-Ang):
   XX=            -35.8635   YY=            -28.7507   ZZ=            -56.4994
   XY=              3.5903   XZ=              0.0007   YZ=             -0.0011
 Traceless Quadrupole moment (field-independent basis, Debye-Ang):
   XX=              4.5077   YY=             11.6205   ZZ=            -16.1282
   XY=              3.5903   XZ=              0.0007   YZ=             -0.0011
 Octapole moment (field-independent basis, Debye-Ang**2):
  XXX=            -11.8558  YYY=             49.7268  ZZZ=              0.0042  XYY=             -0.9323
  XXY=            -25.8928  XXZ=             -0.0122  XZZ=            -10.9535  YZZ=              9.5625
  YYZ=              0.0045  XYZ=             -0.0080
 Hexadecapole moment (field-independent basis, Debye-Ang**3):
 XXXX=           -797.1067 YYYY=           -409.6824 ZZZZ=            -61.4517 XXXY=             83.7771
 XXXZ=              0.0237 YYYX=             -7.2807 YYYZ=             -0.0139 ZZZX=              0.0014
 ZZZY=              0.0173 XXYY=           -226.3630 XXZZ=           -198.7947 YYZZ=            -98.3698
 XXYZ=             -0.0088 YYXZ=             -0.0040 ZZXY=              3.1044
 N-N= 5.141450931543D+02 E-N=-2.124992772034D+03  KE= 4.716907878932D+02
 Calling FoFJK, ICntrl=      2527 FMM=F ISym2X=0 I1Cent= 0 IOpClX= 0 NMat=1 NMatS=1 NMatT=0.
 ***** Axes restored to original set *****
 -------------------------------------------------------------------
 Center     Atomic                   Forces (Hartrees/Bohr)
 Number     Number              X              Y              Z
 -------------------------------------------------------------------
      1        6           0.000573975   -0.000283023   -0.000003092
      2        6          -0.000047109    0.000520795   -0.000001054
      3        6          -0.000825636   -0.000023207    0.000001977
      4        6           0.002673993    0.002805532   -0.000002294
      5        6           0.003970942   -0.000226860   -0.000001465
      6        6          -0.001100538    0.000191804    0.000013962
      7        6          -0.008578533   -0.003814464   -0.000000188
      8        8          -0.005686161   -0.010531729   -0.000001844
      9        7          -0.003786337   -0.002294149   -0.000038947
     10        8           0.008598280    0.014745032    0.000000858
     11        1          -0.002813281   -0.004738634    0.000002887
     12        1          -0.005483175    0.000181370    0.000001900
     13        1          -0.002649260    0.004781137   -0.000005000
     14        1           0.003085391   -0.004876987   -0.000007285
     15        1           0.007381545    0.001690733    0.000000221
     16        1          -0.001278165    0.002857688    0.004531617
     17        1           0.007259901   -0.003841935    0.000023050
     18        1          -0.001295830    0.002856898   -0.004515304
 -------------------------------------------------------------------
 Cartesian Forces:  Max     0.014745032 RMS     0.004047909

 GradGradGradGradGradGradGradGradGradGradGradGradGradGradGradGradGradGrad
 Berny optimization.
 FormGI is forming the generalized inverse of G from B-inverse, IUseBI=4.
 Internal  Forces:  Max     0.017047470 RMS     0.003297698
 Search for a local minimum.
 Step number   1 out of a maximum of   92
 All quantities printed in internal units (Hartrees-Bohrs-Radians)
 Mixed Optimization -- RFO/linear search
 Second derivative matrix not updated -- first step.
 ITU=  0
     Eigenvalues ---    0.00579   0.00947   0.01524   0.01526   0.01687
     Eigenvalues ---    0.02028   0.02099   0.02114   0.02128   0.02148
     Eigenvalues ---    0.02162   0.02199   0.02704   0.06966   0.07701
     Eigenvalues ---    0.16000   0.16000   0.16000   0.16000   0.16000
     Eigenvalues ---    0.16000   0.16000   0.16000   0.22000   0.22493
     Eigenvalues ---    0.24483   0.25000   0.25000   0.25000   0.25000
     Eigenvalues ---    0.33860   0.34098   0.35211   0.35405   0.35433
     Eigenvalues ---    0.35552   0.36648   0.41342   0.42050   0.43548
     Eigenvalues ---    0.43552   0.45139   0.45398   0.46203   0.47508
     Eigenvalues ---    0.52365   0.61066   0.88403
 RFO step:  Lambda=-1.81176719D-03 EMin= 5.78597264D-03
 Linear search not attempted -- first point.
 Iteration  1 RMS(Cart)=  0.01711944 RMS(Int)=  0.00010659
 Iteration  2 RMS(Cart)=  0.00017239 RMS(Int)=  0.00000503
 Iteration  3 RMS(Cart)=  0.00000004 RMS(Int)=  0.00000503
 Variable       Old X    -DE/DX   Delta X   Delta X   Delta X     New X
                                 (Linear)    (Quad)   (Total)
    R1        2.63859   0.00628   0.00000   0.01371   0.01371   2.65229
    R2        2.63584   0.00543   0.00000   0.01169   0.01169   2.64754
    R3        2.04978   0.00551   0.00000   0.01547   0.01547   2.06526
    R4        2.64514   0.00525   0.00000   0.01158   0.01158   2.65672
    R5        2.05022   0.00549   0.00000   0.01541   0.01541   2.06564
    R6        2.61948   0.00582   0.00000   0.01202   0.01202   2.63150
    R7        2.05334   0.00547   0.00000   0.01544   0.01544   2.06878
    R8        2.66148   0.00323   0.00000   0.00709   0.00709   2.66858
    R9        2.80464   0.00010   0.00000   0.00030   0.00030   2.80495
   R10        2.65163   0.00546   0.00000   0.01193   0.01193   2.66355
   R11        2.80867   0.00171   0.00000   0.00504   0.00504   2.81371
   R12        2.04788   0.00576   0.00000   0.01613   0.01613   2.06401
   R13        2.50106   0.00875   0.00000   0.01428   0.01428   2.51534
   R14        2.33678   0.01705   0.00000   0.01924   0.01924   2.35602
   R15        1.84251   0.00750   0.00000   0.01427   0.01427   1.85678
   R16        1.93695   0.00550   0.00000   0.01257   0.01257   1.94952
   R17        2.03080   0.00803   0.00000   0.02181   0.02181   2.05261
   R18        1.93700   0.00549   0.00000   0.01255   0.01255   1.94955
    A1        2.09921   0.00003   0.00000   0.00069   0.00069   2.09990
    A2        2.09521  -0.00002   0.00000  -0.00038  -0.00038   2.09483
    A3        2.08876  -0.00001   0.00000  -0.00031  -0.00031   2.08846
    A4        2.09869  -0.00013   0.00000   0.00011   0.00012   2.09880
    A5        2.09996   0.00016   0.00000   0.00049   0.00048   2.10044
    A6        2.08454  -0.00002   0.00000  -0.00060  -0.00060   2.08394
    A7        2.07513  -0.00071   0.00000  -0.00294  -0.00294   2.07218
    A8        2.09974   0.00038   0.00000   0.00163   0.00163   2.10137
    A9        2.10832   0.00033   0.00000   0.00131   0.00131   2.10963
   A10        2.13052   0.00099   0.00000   0.00359   0.00359   2.13411
   A11        2.08684   0.00231   0.00000   0.00936   0.00936   2.09621
   A12        2.06582  -0.00330   0.00000  -0.01295  -0.01295   2.05287
   A13        2.06006   0.00013   0.00000   0.00004   0.00004   2.06010
   A14        2.10386  -0.00230   0.00000  -0.00889  -0.00889   2.09497
   A15        2.11926   0.00217   0.00000   0.00885   0.00886   2.12812
   A16        2.10276  -0.00031   0.00000  -0.00149  -0.00149   2.10127
   A17        2.10251   0.00045   0.00000   0.00254   0.00254   2.10504
   A18        2.07791  -0.00013   0.00000  -0.00105  -0.00105   2.07687
   A19        1.99903  -0.00160   0.00000  -0.00635  -0.00635   1.99268
   A20        2.14860  -0.00020   0.00000  -0.00079  -0.00079   2.14781
   A21        2.13555   0.00180   0.00000   0.00714   0.00714   2.14269
   A22        1.91196  -0.00192   0.00000  -0.01189  -0.01189   1.90007
   A23        1.95672   0.00004   0.00000   0.00093   0.00091   1.95764
   A24        1.83793  -0.00245   0.00000  -0.01642  -0.01644   1.82149
   A25        1.95651   0.00005   0.00000   0.00102   0.00101   1.95752
   A26        1.91360   0.00101   0.00000   0.00489   0.00487   1.91847
   A27        1.88576   0.00033   0.00000   0.00431   0.00430   1.89006
   A28        1.91283   0.00104   0.00000   0.00521   0.00519   1.91802
    D1        0.00015  -0.00000   0.00000  -0.00005  -0.00005   0.00009
    D2       -3.14149  -0.00000   0.00000  -0.00002  -0.00002  -3.14152
    D3       -3.14145  -0.00000   0.00000  -0.00006  -0.00006  -3.14151
    D4        0.00009  -0.00000   0.00000  -0.00003  -0.00003   0.00006
    D5       -0.00016   0.00000   0.00000   0.00007   0.00007  -0.00009
    D6        3.14129   0.00000   0.00000   0.00016   0.00016   3.14145
    D7        3.14144   0.00000   0.00000   0.00008   0.00008   3.14152
    D8       -0.00029   0.00000   0.00000   0.00017   0.00017  -0.00012
    D9        0.00004  -0.00000   0.00000  -0.00004  -0.00004  -0.00000
   D10       -3.14151  -0.00000   0.00000  -0.00007  -0.00007  -3.14158
   D11       -3.14151  -0.00000   0.00000  -0.00007  -0.00007  -3.14158
   D12        0.00013  -0.00000   0.00000  -0.00010  -0.00010   0.00003
   D13       -0.00021   0.00000   0.00000   0.00012   0.00012  -0.00009
   D14        3.14122   0.00000   0.00000   0.00018   0.00018   3.14139
   D15        3.14134   0.00000   0.00000   0.00015   0.00015   3.14149
   D16       -0.00042   0.00000   0.00000   0.00020   0.00020  -0.00021
   D17        0.00020  -0.00000   0.00000  -0.00010  -0.00010   0.00009
   D18       -3.14135  -0.00000   0.00000  -0.00006  -0.00006  -3.14142
   D19       -3.14123  -0.00000   0.00000  -0.00016  -0.00016  -3.14139
   D20        0.00040  -0.00000   0.00000  -0.00012  -0.00012   0.00028
   D21        1.06144   0.00026   0.00000   0.00377   0.00376   1.06520
   D22        3.14129  -0.00001   0.00000   0.00003   0.00003   3.14132
   D23       -1.06309  -0.00024   0.00000  -0.00327  -0.00326  -1.06635
   D24       -2.08031   0.00026   0.00000   0.00382   0.00381  -2.07649
   D25       -0.00046  -0.00001   0.00000   0.00008   0.00008  -0.00038
   D26        2.07835  -0.00024   0.00000  -0.00321  -0.00320   2.07514
   D27       -0.00001   0.00000   0.00000   0.00000   0.00000  -0.00000
   D28       -3.14146  -0.00000   0.00000  -0.00009  -0.00009  -3.14155
   D29        3.14154  -0.00000   0.00000  -0.00004  -0.00004   3.14151
   D30        0.00009  -0.00000   0.00000  -0.00013  -0.00013  -0.00004
   D31        3.14098   0.00001   0.00000   0.00050   0.00050   3.14148
   D32       -0.00058   0.00001   0.00000   0.00052   0.00052  -0.00006
   D33       -0.00057   0.00001   0.00000   0.00054   0.00054  -0.00003
   D34        3.14106   0.00001   0.00000   0.00056   0.00056  -3.14156
   D35        3.14154   0.00000   0.00000   0.00004   0.00004   3.14157
   D36       -0.00009   0.00000   0.00000   0.00002   0.00002  -0.00007
         Item               Value     Threshold  Converged?
 Maximum Force            0.017047     0.000450     NO 
 RMS     Force            0.003298     0.000300     NO 
 Maximum Displacement     0.076664     0.001800     NO 
 RMS     Displacement     0.017206     0.001200     NO 
 Predicted change in Energy=-9.098917D-04
 GradGradGradGradGradGradGradGradGradGradGradGradGradGradGradGradGradGrad

                          Input orientation:                          
 ---------------------------------------------------------------------
 Center     Atomic      Atomic             Coordinates (Angstroms)
 Number     Number       Type             X           Y           Z
 ---------------------------------------------------------------------
      1          6           0       -1.948774   -1.482210   -0.000162
      2          6           0       -2.636223   -0.258560    0.000062
      3          6           0       -1.924378    0.953775    0.000171
      4          6           0       -0.532456    0.912642    0.000059
      5          6           0        0.186019   -0.303072   -0.000053
      6          6           0       -0.547967   -1.506373   -0.000166
      7          6           0        1.674900   -0.288781    0.000056
      8          8           0        2.231578   -1.497845    0.000070
      9          7           0        0.249632    2.174198   -0.000085
     10          8           0        2.344977    0.762594    0.000187
     11          1           0       -2.505887   -2.422437   -0.000320
     12          1           0       -3.729138   -0.239120    0.000136
     13          1           0       -2.458136    1.909592    0.000356
     14          1           0       -0.008105   -2.455854   -0.000210
     15          1           0        3.209017   -1.397590    0.000126
     16          1           0        0.061487    2.748857    0.835770
     17          1           0        1.285937    1.848788    0.000136
     18          1           0        0.062079    2.748169   -0.836563
 ---------------------------------------------------------------------
                    Distance matrix (angstroms):
                    1          2          3          4          5
     1  C    0.000000
     2  C    1.403533   0.000000
     3  C    2.436107   1.405873   0.000000
     4  C    2.782315   2.407811   1.392530   0.000000
     5  C    2.438793   2.822593   2.456306   1.412149   0.000000
     6  C    1.401016   2.432663   2.819013   2.419064   1.409492
     7  C    3.815139   4.311229   3.807723   2.513133   1.488950
     8  O    4.180381   5.023078   4.825185   3.667469   2.368923
     9  N    4.266417   3.774450   2.493141   1.484313   2.478086
    10  O    4.845147   5.084792   4.273634   2.881342   2.407642
    11  H    1.092887   2.167799   3.425925   3.875201   3.426086
    12  H    2.171398   1.093088   2.163367   3.397843   3.915680
    13  H    3.429836   2.175454   1.094753   2.168445   3.447816
    14  H    2.171216   3.425654   3.911224   3.409062   2.161517
    15  H    5.158486   5.955185   5.646297   4.397248   3.215041
    16  H    4.758347   4.125604   2.804319   2.103061   3.166761
    17  H    4.643157   4.452444   3.332742   2.045219   2.416675
    18  H    4.758068   4.125676   2.804637   2.102991   3.166257
                    6          7          8          9         10
     6  C    0.000000
     7  C    2.534495   0.000000
     8  O    2.779558   1.331062   0.000000
     9  N    3.766001   2.845638   4.172770   0.000000
    10  O    3.676593   1.246753   2.263282   2.526479   0.000000
    11  H    2.161625   4.693769   4.826846   5.359285   5.803043
    12  H    3.424293   5.404267   6.092169   4.653463   6.156160
    13  H    3.913766   4.681328   5.796900   2.720666   4.938167
    14  H    1.092230   2.743850   2.435972   4.637220   3.986904
    15  H    3.758559   1.892874   0.982568   4.638494   2.326577
    16  H    4.379178   3.539600   4.841712   1.031642   3.139708
    17  H    3.823651   2.172670   3.477670   1.086195   1.517031
    18  H    4.378681   3.538953   4.841004   1.031656   3.139153
                   11         12         13         14         15
    11  H    0.000000
    12  H    2.502643   0.000000
    13  H    4.332293   2.496479   0.000000
    14  H    2.498005   4.331282   5.005974   0.000000
    15  H    5.806069   7.034206   6.561561   3.386709   0.000000
    16  H    5.833758   4.898482   2.784022   5.271880   5.272407
    17  H    5.711505   5.432342   3.744567   4.494940   3.773222
    18  H    5.833432   4.898703   2.784804   5.271268   5.271678
                   16         17         18
    16  H    0.000000
    17  H    1.734268   0.000000
    18  H    1.672333   1.734007   0.000000
 Stoichiometry    C7H8NO2(1+)
 Framework group  C1[X(C7H8NO2)]
 Deg. of freedom    48
 Full point group                 C1      NOp   1
 Largest Abelian subgroup         C1      NOp   1
 Largest concise Abelian subgroup C1      NOp   1
                         Standard orientation:                         
 ---------------------------------------------------------------------
 Center     Atomic      Atomic             Coordinates (Angstroms)
 Number     Number       Type             X           Y           Z
 ---------------------------------------------------------------------
      1          6           0        1.963658   -1.464048    0.000171
      2          6           0        2.637624   -0.232920   -0.000053
      3          6           0        1.912505    0.971523   -0.000162
      4          6           0        0.521118    0.915102   -0.000049
      5          6           0       -0.183959   -0.308430    0.000062
      6          6           0        0.563200   -1.503596    0.000176
      7          6           0       -1.672908   -0.310496   -0.000047
      8          8           0       -2.216270   -1.525602   -0.000060
      9          7           0       -0.274781    2.167991    0.000094
     10          8           0       -2.354493    0.733456   -0.000177
     11          1           0        2.531065   -2.398098    0.000330
     12          1           0        3.730259   -0.201475   -0.000126
     13          1           0        2.435731    1.933145   -0.000347
     14          1           0        0.033801   -2.458950    0.000219
     15          1           0       -3.194752   -1.436089   -0.000116
     16          1           0       -0.092959    2.744682   -0.835760
     17          1           0       -1.307449    1.831217   -0.000127
     18          1           0       -0.093544    2.743988    0.836572
 ---------------------------------------------------------------------
 Rotational constants (GHZ):      2.2311083      1.1953798      0.7817479
 Standard basis: 6-31+G(d,p) (6D, 7F)
 There are   230 symmetry adapted cartesian basis functions of A   symmetry.
 There are   230 symmetry adapted basis functions of A   symmetry.
   230 basis functions,   376 primitive gaussians,   230 cartesian basis functions
    36 alpha electrons       36 beta electrons
       nuclear repulsion energy       512.6757282285 Hartrees.
 NAtoms=   18 NActive=   18 NUniq=   18 SFac= 1.00D+00 NAtFMM=   60 NAOKFM=F Big=F
 Integral buffers will be    131072 words long.
 Raffenetti 2 integral format.
 Two-electron integral symmetry is turned on.
 Nuclear repulsion after empirical dispersion term =      512.6563471975 Hartrees.
 One-electron integrals computed using PRISM.
 NBasis=   230 RedAO= T EigKep=  2.36D-06  NBF=   230
 NBsUse=   230 1.00D-06 EigRej= -1.00D+00 NBFU=   230
 Initial guess from the checkpoint file:  "gd3pbeAnthranilicyang.chk"
 B after Tr=    -0.000000    0.000000    0.000000
         Rot=    0.999990    0.000015    0.000008   -0.004570 Ang=   0.52 deg.
 ExpMin= 4.38D-02 ExpMax= 5.48D+03 ExpMxC= 8.25D+02 IAcc=2 IRadAn=         4 AccDes= 0.00D+00
 Harris functional with IExCor= 1009 and IRadAn=       4 diagonalized for initial guess.
 HarFok:  IExCor= 1009 AccDes= 0.00D+00 IRadAn=         4 IDoV= 1 UseB2=F ITyADJ=14
 ICtDFT=  3500011 ScaDFX=  1.000000  1.000000  1.000000  1.000000
 FoFCou: FMM=F IPFlag=           0 FMFlag=      100000 FMFlg1=           0
         NFxFlg=           0 DoJE=T BraDBF=F KetDBF=T FulRan=T
         wScrn=  0.000000 ICntrl=     500 IOpCl=  0 I1Cent=   200000004 NGrid=           0
         NMat0=    1 NMatS0=      1 NMatT0=    0 NMatD0=    1 NMtDS0=    0 NMtDT0=    0
 Petite list used in FoFCou.
 Keep J ints in memory in canonical form, NReq=359209085.
 Requested convergence on RMS density matrix=1.00D-08 within 128 cycles.
 Requested convergence on MAX density matrix=1.00D-06.
 Requested convergence on             energy=1.00D-06.
 No special actions if energy rises.
 SCF Done:  E(RPBE-PBE) =  -476.038926208     A.U. after   13 cycles
            NFock= 13  Conv=0.59D-08     -V/T= 2.0097
 Calling FoFJK, ICntrl=      2527 FMM=F ISym2X=0 I1Cent= 0 IOpClX= 0 NMat=1 NMatS=1 NMatT=0.
 ***** Axes restored to original set *****
 -------------------------------------------------------------------
 Center     Atomic                   Forces (Hartrees/Bohr)
 Number     Number              X              Y              Z
 -------------------------------------------------------------------
      1        6           0.000791647    0.000257238    0.000000060
      2        6           0.000580715    0.000159308   -0.000000567
      3        6          -0.000094034   -0.000682591    0.000000798
      4        6          -0.000448676    0.002068387   -0.000001943
      5        6           0.001280180   -0.000456078    0.000000470
      6        6          -0.000551452   -0.000376342    0.000003302
      7        6          -0.005164954   -0.003279720    0.000002268
      8        8          -0.000072284    0.000047641   -0.000002934
      9        7          -0.007476409    0.002468478   -0.000026097
     10        8           0.004069518    0.000856635   -0.000003108
     11        1           0.000076608    0.000116015    0.000002283
     12        1           0.000106642   -0.000066937   -0.000000185
     13        1           0.000206950   -0.000114320   -0.000002912
     14        1          -0.000080065    0.000054062   -0.000002372
     15        1           0.001102632    0.000274090    0.000001358
     16        1          -0.000355450    0.000109034   -0.000288498
     17        1           0.006397889   -0.001548119    0.000018808
     18        1          -0.000369457    0.000113219    0.000299267
 -------------------------------------------------------------------
 Cartesian Forces:  Max     0.007476409 RMS     0.001775400

 GradGradGradGradGradGradGradGradGradGradGradGradGradGradGradGradGradGrad
 Berny optimization.
 Using GEDIIS/GDIIS optimizer.
 FormGI is forming the generalized inverse of G from B-inverse, IUseBI=4.
 Internal  Forces:  Max     0.006568724 RMS     0.001489366
 Search for a local minimum.
 Step number   2 out of a maximum of   92
 All quantities printed in internal units (Hartrees-Bohrs-Radians)
 Mixed Optimization -- RFO/linear search
 Update second derivatives using D2CorX and points    1    2
 DE= -8.89D-04 DEPred=-9.10D-04 R= 9.77D-01
 TightC=F SS=  1.41D+00  RLast= 6.66D-02 DXNew= 5.0454D-01 1.9994D-01
 Trust test= 9.77D-01 RLast= 6.66D-02 DXMaxT set to 3.00D-01
 ITU=  1  0
 Use linear search instead of GDIIS.
     Eigenvalues ---    0.00579   0.00947   0.01527   0.01530   0.01687
     Eigenvalues ---    0.02028   0.02099   0.02114   0.02128   0.02148
     Eigenvalues ---    0.02162   0.02199   0.02704   0.07002   0.07803
     Eigenvalues ---    0.15554   0.16000   0.16000   0.16000   0.16000
     Eigenvalues ---    0.16000   0.16000   0.16048   0.21996   0.22291
     Eigenvalues ---    0.22590   0.24500   0.25000   0.25000   0.25759
     Eigenvalues ---    0.32723   0.33890   0.34099   0.35267   0.35418
     Eigenvalues ---    0.35509   0.37817   0.41140   0.42052   0.43550
     Eigenvalues ---    0.44176   0.45065   0.46168   0.46515   0.51249
     Eigenvalues ---    0.55343   0.63631   0.85459
 RFO step:  Lambda=-5.97488843D-04 EMin= 5.78597794D-03
 Quartic linear search produced a step of -0.01871.
 Iteration  1 RMS(Cart)=  0.02181514 RMS(Int)=  0.00013488
 Iteration  2 RMS(Cart)=  0.00026757 RMS(Int)=  0.00000220
 Iteration  3 RMS(Cart)=  0.00000006 RMS(Int)=  0.00000220
 Variable       Old X    -DE/DX   Delta X   Delta X   Delta X     New X
                                 (Linear)    (Quad)   (Total)
    R1        2.65229  -0.00094  -0.00026   0.00244   0.00218   2.65448
    R2        2.64754  -0.00143  -0.00022   0.00088   0.00066   2.64820
    R3        2.06526  -0.00014  -0.00029   0.00501   0.00472   2.06998
    R4        2.65672  -0.00081  -0.00022   0.00214   0.00192   2.65864
    R5        2.06564  -0.00011  -0.00029   0.00507   0.00479   2.07042
    R6        2.63150  -0.00024  -0.00022   0.00388   0.00365   2.63515
    R7        2.06878  -0.00020  -0.00029   0.00483   0.00454   2.07332
    R8        2.66858   0.00384  -0.00013   0.01133   0.01120   2.67977
    R9        2.80495   0.00002  -0.00001   0.00017   0.00016   2.80511
   R10        2.66355   0.00019  -0.00022   0.00475   0.00453   2.66808
   R11        2.81371  -0.00009  -0.00009   0.00151   0.00141   2.81512
   R12        2.06401  -0.00009  -0.00030   0.00538   0.00508   2.06910
   R13        2.51534   0.00014  -0.00027   0.00521   0.00494   2.52028
   R14        2.35602   0.00291  -0.00036   0.00994   0.00958   2.36560
   R15        1.85678   0.00112  -0.00027   0.00708   0.00681   1.86360
   R16        1.94952  -0.00011  -0.00024   0.00414   0.00390   1.95342
   R17        2.05261   0.00657  -0.00041   0.02516   0.02475   2.07736
   R18        1.94955  -0.00011  -0.00023   0.00412   0.00389   1.95343
    A1        2.09990   0.00015  -0.00001  -0.00037  -0.00039   2.09951
    A2        2.09483  -0.00007   0.00001   0.00021   0.00022   2.09504
    A3        2.08846  -0.00008   0.00001   0.00017   0.00017   2.08863
    A4        2.09880   0.00030  -0.00000   0.00012   0.00012   2.09892
    A5        2.10044  -0.00022  -0.00001  -0.00027  -0.00028   2.10016
    A6        2.08394  -0.00008   0.00001   0.00015   0.00016   2.08410
    A7        2.07218   0.00092   0.00006   0.00292   0.00298   2.07516
    A8        2.10137  -0.00033  -0.00003  -0.00061  -0.00064   2.10073
    A9        2.10963  -0.00059  -0.00002  -0.00231  -0.00234   2.10729
   A10        2.13411  -0.00140  -0.00007  -0.00340  -0.00346   2.13065
   A11        2.09621  -0.00309  -0.00018  -0.00926  -0.00944   2.08677
   A12        2.05287   0.00449   0.00024   0.01266   0.01290   2.06577
   A13        2.06010  -0.00072  -0.00000  -0.00198  -0.00197   2.05813
   A14        2.09497   0.00533   0.00017   0.01736   0.01753   2.11249
   A15        2.12812  -0.00461  -0.00017  -0.01538  -0.01555   2.11257
   A16        2.10127   0.00076   0.00003   0.00270   0.00273   2.10400
   A17        2.10504  -0.00043  -0.00005  -0.00100  -0.00105   2.10399
   A18        2.07687  -0.00034   0.00002  -0.00170  -0.00168   2.07519
   A19        1.99268  -0.00035   0.00012  -0.00357  -0.00345   1.98923
   A20        2.14781   0.00367   0.00001   0.01411   0.01412   2.16194
   A21        2.14269  -0.00333  -0.00013  -0.01054  -0.01067   2.13201
   A22        1.90007  -0.00029   0.00022  -0.00594  -0.00571   1.89436
   A23        1.95764  -0.00026  -0.00002  -0.00228  -0.00231   1.95533
   A24        1.82149   0.00086   0.00031   0.00135   0.00166   1.82314
   A25        1.95752  -0.00026  -0.00002  -0.00218  -0.00220   1.95531
   A26        1.91847  -0.00005  -0.00009   0.00311   0.00302   1.92150
   A27        1.89006  -0.00023  -0.00008  -0.00300  -0.00309   1.88697
   A28        1.91802  -0.00003  -0.00010   0.00346   0.00337   1.92139
    D1        0.00009  -0.00000   0.00000  -0.00008  -0.00008   0.00001
    D2       -3.14152  -0.00000   0.00000  -0.00004  -0.00004  -3.14156
    D3       -3.14151  -0.00000   0.00000  -0.00007  -0.00007  -3.14158
    D4        0.00006  -0.00000   0.00000  -0.00003  -0.00003   0.00003
    D5       -0.00009   0.00000  -0.00000   0.00008   0.00008  -0.00001
    D6        3.14145   0.00000  -0.00000   0.00015   0.00015  -3.14158
    D7        3.14152   0.00000  -0.00000   0.00006   0.00006   3.14158
    D8       -0.00012   0.00000  -0.00000   0.00014   0.00014   0.00001
    D9       -0.00000  -0.00000   0.00000  -0.00002  -0.00002  -0.00002
   D10       -3.14158   0.00000   0.00000  -0.00001  -0.00000  -3.14159
   D11       -3.14158  -0.00000   0.00000  -0.00005  -0.00005   3.14155
   D12        0.00003  -0.00000   0.00000  -0.00004  -0.00004  -0.00001
   D13       -0.00009   0.00000  -0.00000   0.00012   0.00012   0.00003
   D14        3.14139   0.00000  -0.00000   0.00024   0.00023  -3.14156
   D15        3.14149   0.00000  -0.00000   0.00011   0.00011  -3.14159
   D16       -0.00021   0.00000  -0.00000   0.00023   0.00022   0.00001
   D17        0.00009  -0.00000   0.00000  -0.00013  -0.00012  -0.00003
   D18       -3.14142  -0.00000   0.00000  -0.00014  -0.00014  -3.14156
   D19       -3.14139  -0.00000   0.00000  -0.00024  -0.00023   3.14156
   D20        0.00028  -0.00000   0.00000  -0.00026  -0.00025   0.00003
   D21        1.06520  -0.00034  -0.00007  -0.00359  -0.00366   1.06154
   D22        3.14132  -0.00001  -0.00000  -0.00023  -0.00023   3.14109
   D23       -1.06635   0.00035   0.00006   0.00361   0.00366  -1.06269
   D24       -2.07649  -0.00034  -0.00007  -0.00349  -0.00355  -2.08004
   D25       -0.00038  -0.00001  -0.00000  -0.00012  -0.00012  -0.00050
   D26        2.07514   0.00035   0.00006   0.00372   0.00377   2.07891
   D27       -0.00000   0.00000  -0.00000   0.00002   0.00002   0.00002
   D28       -3.14155  -0.00000   0.00000  -0.00005  -0.00005   3.14159
   D29        3.14151   0.00000   0.00000   0.00004   0.00004   3.14155
   D30       -0.00004   0.00000   0.00000  -0.00003  -0.00003  -0.00007
   D31        3.14148   0.00000  -0.00001   0.00021   0.00020  -3.14150
   D32       -0.00006  -0.00000  -0.00001   0.00003   0.00002  -0.00004
   D33       -0.00003   0.00000  -0.00001   0.00019   0.00018   0.00015
   D34       -3.14156  -0.00000  -0.00001   0.00001  -0.00000  -3.14157
   D35        3.14157  -0.00000  -0.00000  -0.00004  -0.00004   3.14153
   D36       -0.00007   0.00000  -0.00000   0.00014   0.00014   0.00006
         Item               Value     Threshold  Converged?
 Maximum Force            0.006569     0.000450     NO 
 RMS     Force            0.001489     0.000300     NO 
 Maximum Displacement     0.080119     0.001800     NO 
 RMS     Displacement     0.022007     0.001200     NO 
 Predicted change in Energy=-2.997592D-04
 GradGradGradGradGradGradGradGradGradGradGradGradGradGradGradGradGradGrad

                          Input orientation:                          
 ---------------------------------------------------------------------
 Center     Atomic      Atomic             Coordinates (Angstroms)
 Number     Number       Type             X           Y           Z
 ---------------------------------------------------------------------
      1          6           0       -1.941524   -1.482406   -0.000024
      2          6           0       -2.632983   -0.259689   -0.000020
      3          6           0       -1.924186    0.955607   -0.000034
      4          6           0       -0.530112    0.922656   -0.000026
      5          6           0        0.194365   -0.296389   -0.000042
      6          6           0       -0.540296   -1.502084   -0.000029
      7          6           0        1.684039   -0.304551    0.000010
      8          8           0        2.219271   -1.526114   -0.000120
      9          7           0        0.232567    2.196140    0.000007
     10          8           0        2.387374    0.731005    0.000029
     11          1           0       -2.497050   -2.426469   -0.000026
     12          1           0       -3.728486   -0.243596    0.000013
     13          1           0       -2.462533    1.911603   -0.000025
     14          1           0        0.002942   -2.452735   -0.000045
     15          1           0        3.201506   -1.438068   -0.000131
     16          1           0        0.031019    2.768820    0.836647
     17          1           0        1.286814    1.884687    0.000541
     18          1           0        0.031837    2.768356   -0.837155
 ---------------------------------------------------------------------
                    Distance matrix (angstroms):
                    1          2          3          4          5
     1  C    0.000000
     2  C    1.404689   0.000000
     3  C    2.438074   1.406889   0.000000
     4  C    2.788620   2.412469   1.394463   0.000000
     5  C    2.443083   2.827586   2.460844   1.418075   0.000000
     6  C    1.401365   2.433698   2.820531   2.424761   1.411888
     7  C    3.812092   4.317255   3.821948   2.531502   1.489696
     8  O    4.161024   5.014798   4.829821   3.681790   2.369065
     9  N    4.272981   3.773920   2.488073   1.484400   2.492822
    10  O    4.861948   5.117173   4.317406   2.923774   2.421741
    11  H    1.095384   2.171039   3.430249   3.884003   3.432339
    12  H    2.174370   1.095621   2.166468   3.404370   3.923206
    13  H    3.433765   2.177972   1.097153   2.170775   3.454610
    14  H    2.173128   3.428929   3.915433   3.417222   2.164826
    15  H    5.143220   5.952297   5.657066   4.415653   3.216571
    16  H    4.760658   4.119319   2.794746   2.103143   3.181546
    17  H    4.664705   4.468015   3.342710   2.055900   2.439372
    18  H    4.760663   4.119602   2.795149   2.103136   3.181169
                    6          7          8          9         10
     6  C    0.000000
     7  C    2.526213   0.000000
     8  O    2.759672   1.333675   0.000000
     9  N    3.778118   2.891405   4.219261   0.000000
    10  O    3.682111   1.251821   2.263370   2.605727   0.000000
    11  H    2.164110   4.688714   4.801492   5.368363   5.816119
    12  H    3.427586   5.412868   6.084461   4.652123   6.193027
    13  H    3.917684   4.701637   5.808372   2.710078   4.991534
    14  H    1.094918   2.727779   2.402236   4.654543   3.977652
    15  H    3.742350   1.894087   0.986173   4.692767   2.316827
    16  H    4.389424   3.588599   4.892349   1.033708   3.225683
    17  H    3.848188   2.224983   3.535964   1.099290   1.594433
    18  H    4.389165   3.587948   4.891622   1.033713   3.224939
                   11         12         13         14         15
    11  H    0.000000
    12  H    2.506266   0.000000
    13  H    4.338209   2.499504   0.000000
    14  H    2.500130   4.336341   5.012585   0.000000
    15  H    5.783639   7.032179   6.580397   3.355646   0.000000
    16  H    5.837994   4.889630   2.766341   5.288239   5.333862
    17  H    5.736174   5.448194   3.749443   4.523445   3.834937
    18  H    5.838001   4.890064   2.767073   5.287852   5.333048
                   16         17         18
    16  H    0.000000
    17  H    1.748652   0.000000
    18  H    1.673803   1.748591   0.000000
 Stoichiometry    C7H8NO2(1+)
 Framework group  C1[X(C7H8NO2)]
 Deg. of freedom    48
 Full point group                 C1      NOp   1
 Largest Abelian subgroup         C1      NOp   1
 Largest concise Abelian subgroup C1      NOp   1
                         Standard orientation:                         
 ---------------------------------------------------------------------
 Center     Atomic      Atomic             Coordinates (Angstroms)
 Number     Number       Type             X           Y           Z
 ---------------------------------------------------------------------
      1          6           0        1.937371   -1.491232   -0.000001
      2          6           0        2.634525   -0.271753   -0.000005
      3          6           0        1.931403    0.946835    0.000008
      4          6           0        0.537191    0.920386    0.000000
      5          6           0       -0.192963   -0.295267    0.000016
      6          6           0        0.536067   -1.504375    0.000003
      7          6           0       -1.682659   -0.296482   -0.000035
      8          8           0       -2.223582   -1.515536    0.000095
      9          7           0       -0.219541    2.197413   -0.000032
     10          8           0       -2.381157    0.742342   -0.000054
     11          1           0        2.488489   -2.437875    0.000000
     12          1           0        3.730091   -0.260768   -0.000038
     13          1           0        2.474202    1.900310   -0.000001
     14          1           0       -0.011599   -2.452482    0.000020
     15          1           0       -3.205396   -1.422910    0.000105
     16          1           0       -0.015325    2.769146   -0.836673
     17          1           0       -1.275229    1.890880   -0.000566
     18          1           0       -0.016145    2.768686    0.837130
 ---------------------------------------------------------------------
 Rotational constants (GHZ):      2.2055816      1.1902666      0.7764240
 Standard basis: 6-31+G(d,p) (6D, 7F)
 There are   230 symmetry adapted cartesian basis functions of A   symmetry.
 There are   230 symmetry adapted basis functions of A   symmetry.
   230 basis functions,   376 primitive gaussians,   230 cartesian basis functions
    36 alpha electrons       36 beta electrons
       nuclear repulsion energy       510.9520594471 Hartrees.
 NAtoms=   18 NActive=   18 NUniq=   18 SFac= 1.00D+00 NAtFMM=   60 NAOKFM=F Big=F
 Integral buffers will be    131072 words long.
 Raffenetti 2 integral format.
 Two-electron integral symmetry is turned on.
 Nuclear repulsion after empirical dispersion term =      510.9327396070 Hartrees.
 One-electron integrals computed using PRISM.
 NBasis=   230 RedAO= T EigKep=  2.39D-06  NBF=   230
 NBsUse=   230 1.00D-06 EigRej= -1.00D+00 NBFU=   230
 Initial guess from the checkpoint file:  "gd3pbeAnthranilicyang.chk"
 B after Tr=    -0.000000    0.000000   -0.000000
         Rot=    0.999980   -0.000003   -0.000009    0.006310 Ang=  -0.72 deg.
 ExpMin= 4.38D-02 ExpMax= 5.48D+03 ExpMxC= 8.25D+02 IAcc=2 IRadAn=         4 AccDes= 0.00D+00
 Harris functional with IExCor= 1009 and IRadAn=       4 diagonalized for initial guess.
 HarFok:  IExCor= 1009 AccDes= 0.00D+00 IRadAn=         4 IDoV= 1 UseB2=F ITyADJ=14
 ICtDFT=  3500011 ScaDFX=  1.000000  1.000000  1.000000  1.000000
 FoFCou: FMM=F IPFlag=           0 FMFlag=      100000 FMFlg1=           0
         NFxFlg=           0 DoJE=T BraDBF=F KetDBF=T FulRan=T
         wScrn=  0.000000 ICntrl=     500 IOpCl=  0 I1Cent=   200000004 NGrid=           0
         NMat0=    1 NMatS0=      1 NMatT0=    0 NMatD0=    1 NMtDS0=    0 NMtDT0=    0
 Petite list used in FoFCou.
 Keep J ints in memory in canonical form, NReq=359209085.
 Requested convergence on RMS density matrix=1.00D-08 within 128 cycles.
 Requested convergence on MAX density matrix=1.00D-06.
 Requested convergence on             energy=1.00D-06.
 No special actions if energy rises.
 SCF Done:  E(RPBE-PBE) =  -476.038580127     A.U. after   13 cycles
            NFock= 13  Conv=0.24D-08     -V/T= 2.0100
 Calling FoFJK, ICntrl=      2527 FMM=F ISym2X=0 I1Cent= 0 IOpClX= 0 NMat=1 NMatS=1 NMatT=0.
 ***** Axes restored to original set *****
 -------------------------------------------------------------------
 Center     Atomic                   Forces (Hartrees/Bohr)
 Number     Number              X              Y              Z
 -------------------------------------------------------------------
      1        6          -0.000142797    0.000176616   -0.000000619
      2        6          -0.000095559   -0.000059442    0.000000427
      3        6           0.000316917   -0.000481727    0.000001645
      4        6          -0.000699029   -0.002414198    0.000000705
      5        6          -0.000749577    0.001139542    0.000007431
      6        6          -0.000067981   -0.000101642   -0.000002930
      7        6           0.001344038    0.002687707   -0.000016667
      8        8           0.002051493    0.001003541    0.000003268
      9        7           0.005622618   -0.002382125    0.000010486
     10        8          -0.007500572   -0.000013434    0.000014660
     11        1           0.000883495    0.001562317    0.000000571
     12        1           0.001789260   -0.000026940   -0.000001208
     13        1           0.000844485   -0.001442624   -0.000000069
     14        1          -0.000965591    0.001749150    0.000001020
     15        1          -0.002159320    0.000031017    0.000000659
     16        1           0.000843738   -0.000882815   -0.001135718
     17        1          -0.002163841    0.000337056   -0.000021790
     18        1           0.000848223   -0.000882000    0.001138129
 -------------------------------------------------------------------
 Cartesian Forces:  Max     0.007500572 RMS     0.001636541

 GradGradGradGradGradGradGradGradGradGradGradGradGradGradGradGradGradGrad
 Berny optimization.
 Using GEDIIS/GDIIS optimizer.
 FormGI is forming the generalized inverse of G from B-inverse, IUseBI=4.
 Internal  Forces:  Max     0.014672580 RMS     0.003387264
 Search for a local minimum.
 Step number   3 out of a maximum of   92
 All quantities printed in internal units (Hartrees-Bohrs-Radians)
 Mixed Optimization -- RFO/linear search
 Update second derivatives using D2CorX and points    1    3    2
 DE=  3.46D-04 DEPred=-3.00D-04 R=-1.15D+00
 Trust test=-1.15D+00 RLast= 4.87D-02 DXMaxT set to 1.50D-01
 ITU= -1  1  0
 Use linear search instead of GDIIS.
 Energy rises -- skip Quadratic/GDIIS search.
 Quartic linear search produced a step of -0.69565.
 Iteration  1 RMS(Cart)=  0.01530020 RMS(Int)=  0.00007086
 Iteration  2 RMS(Cart)=  0.00009103 RMS(Int)=  0.00000047
 Iteration  3 RMS(Cart)=  0.00000000 RMS(Int)=  0.00000047
 Variable       Old X    -DE/DX   Delta X   Delta X   Delta X     New X
                                 (Linear)    (Quad)   (Total)
    R1        2.65448  -0.00040  -0.00152   0.00000  -0.00152   2.65296
    R2        2.64820  -0.00098  -0.00046   0.00000  -0.00046   2.64774
    R3        2.06998  -0.00179  -0.00328   0.00000  -0.00328   2.06669
    R4        2.65864  -0.00092  -0.00134   0.00000  -0.00134   2.65730
    R5        2.07042  -0.00179  -0.00333   0.00000  -0.00333   2.06709
    R6        2.63515  -0.00263  -0.00254   0.00000  -0.00254   2.63261
    R7        2.07332  -0.00167  -0.00316   0.00000  -0.00316   2.07016
    R8        2.67977  -0.01041  -0.00779   0.00000  -0.00779   2.67198
    R9        2.80511  -0.00062  -0.00011   0.00000  -0.00011   2.80500
   R10        2.66808  -0.00261  -0.00315   0.00000  -0.00315   2.66493
   R11        2.81512  -0.00629  -0.00098   0.00000  -0.00098   2.81414
   R12        2.06910  -0.00200  -0.00353   0.00000  -0.00353   2.06556
   R13        2.52028  -0.00099  -0.00344   0.00000  -0.00344   2.51685
   R14        2.36560  -0.00423  -0.00666   0.00000  -0.00666   2.35894
   R15        1.86360  -0.00215  -0.00474   0.00000  -0.00474   1.85886
   R16        1.95342  -0.00157  -0.00272   0.00000  -0.00272   1.95071
   R17        2.07736  -0.00217  -0.01722   0.00000  -0.01722   2.06014
   R18        1.95343  -0.00157  -0.00270   0.00000  -0.00270   1.95073
    A1        2.09951  -0.00017   0.00027   0.00000   0.00027   2.09978
    A2        2.09504   0.00005  -0.00015   0.00000  -0.00015   2.09489
    A3        2.08863   0.00012  -0.00012   0.00000  -0.00012   2.08851
    A4        2.09892  -0.00001  -0.00008   0.00000  -0.00008   2.09884
    A5        2.10016   0.00001   0.00020   0.00000   0.00020   2.10036
    A6        2.08410   0.00001  -0.00011   0.00000  -0.00011   2.08399
    A7        2.07516  -0.00198  -0.00207   0.00000  -0.00207   2.07309
    A8        2.10073   0.00102   0.00044   0.00000   0.00044   2.10117
    A9        2.10729   0.00096   0.00163   0.00000   0.00163   2.10892
   A10        2.13065   0.00173   0.00241   0.00000   0.00241   2.13305
   A11        2.08677   0.00896   0.00656   0.00000   0.00656   2.09333
   A12        2.06577  -0.01069  -0.00897   0.00000  -0.00897   2.05680
   A13        2.05813   0.00315   0.00137   0.00000   0.00137   2.05950
   A14        2.11249  -0.01467  -0.01219   0.00000  -0.01219   2.10030
   A15        2.11257   0.01153   0.01082   0.00000   0.01082   2.12338
   A16        2.10400  -0.00271  -0.00190   0.00000  -0.00190   2.10210
   A17        2.10399   0.00139   0.00073   0.00000   0.00073   2.10472
   A18        2.07519   0.00133   0.00117   0.00000   0.00117   2.07636
   A19        1.98923   0.00569   0.00240   0.00000   0.00240   1.99163
   A20        2.16194  -0.01017  -0.00983   0.00000  -0.00983   2.15211
   A21        2.13201   0.00448   0.00743   0.00000   0.00743   2.13944
   A22        1.89436  -0.00041   0.00397   0.00000   0.00397   1.89833
   A23        1.95533   0.00050   0.00160   0.00000   0.00161   1.95694
   A24        1.82314  -0.00075  -0.00115   0.00000  -0.00115   1.82199
   A25        1.95531   0.00050   0.00153   0.00000   0.00153   1.95685
   A26        1.92150  -0.00014  -0.00210   0.00000  -0.00210   1.91939
   A27        1.88697   0.00000   0.00215   0.00000   0.00215   1.88912
   A28        1.92139  -0.00016  -0.00234   0.00000  -0.00234   1.91905
    D1        0.00001   0.00000   0.00006   0.00000   0.00006   0.00007
    D2       -3.14156   0.00000   0.00003   0.00000   0.00003  -3.14153
    D3       -3.14158  -0.00000   0.00005   0.00000   0.00005  -3.14153
    D4        0.00003  -0.00000   0.00002   0.00000   0.00002   0.00005
    D5       -0.00001  -0.00000  -0.00005   0.00000  -0.00005  -0.00006
    D6       -3.14158  -0.00000  -0.00011   0.00000  -0.00011   3.14150
    D7        3.14158   0.00000  -0.00004   0.00000  -0.00004   3.14154
    D8        0.00001  -0.00000  -0.00009   0.00000  -0.00009  -0.00008
    D9       -0.00002   0.00000   0.00001   0.00000   0.00001  -0.00001
   D10       -3.14159  -0.00000   0.00000   0.00000   0.00000  -3.14158
   D11        3.14155   0.00000   0.00004   0.00000   0.00004   3.14159
   D12       -0.00001  -0.00000   0.00003   0.00000   0.00003   0.00002
   D13        0.00003  -0.00000  -0.00008   0.00000  -0.00008  -0.00005
   D14       -3.14156  -0.00001  -0.00016   0.00000  -0.00016   3.14147
   D15       -3.14159  -0.00000  -0.00008   0.00000  -0.00008   3.14152
   D16        0.00001  -0.00000  -0.00016   0.00000  -0.00016  -0.00015
   D17       -0.00003   0.00000   0.00009   0.00000   0.00009   0.00006
   D18       -3.14156   0.00001   0.00010   0.00000   0.00010  -3.14146
   D19        3.14156   0.00001   0.00016   0.00000   0.00016  -3.14146
   D20        0.00003   0.00001   0.00018   0.00000   0.00018   0.00020
   D21        1.06154   0.00037   0.00255   0.00000   0.00255   1.06409
   D22        3.14109   0.00001   0.00016   0.00000   0.00016   3.14125
   D23       -1.06269  -0.00037  -0.00255   0.00000  -0.00255  -1.06523
   D24       -2.08004   0.00037   0.00247   0.00000   0.00247  -2.07757
   D25       -0.00050   0.00001   0.00008   0.00000   0.00008  -0.00041
   D26        2.07891  -0.00037  -0.00262   0.00000  -0.00262   2.07629
   D27        0.00002  -0.00000  -0.00002   0.00000  -0.00002   0.00000
   D28        3.14159   0.00000   0.00003   0.00000   0.00003  -3.14156
   D29        3.14155  -0.00001  -0.00003   0.00000  -0.00003   3.14152
   D30       -0.00007  -0.00000   0.00002   0.00000   0.00002  -0.00005
   D31       -3.14150  -0.00000  -0.00014   0.00000  -0.00014   3.14154
   D32       -0.00004   0.00001  -0.00001   0.00000  -0.00001  -0.00005
   D33        0.00015  -0.00000  -0.00012   0.00000  -0.00013   0.00003
   D34       -3.14157   0.00001   0.00000   0.00000   0.00000  -3.14157
   D35        3.14153   0.00001   0.00003   0.00000   0.00003   3.14156
   D36        0.00006  -0.00001  -0.00010   0.00000  -0.00010  -0.00003
         Item               Value     Threshold  Converged?
 Maximum Force            0.014673     0.000450     NO 
 RMS     Force            0.003387     0.000300     NO 
 Maximum Displacement     0.055634     0.001800     NO 
 RMS     Displacement     0.015307     0.001200     NO 
 Predicted change in Energy=-6.296111D-05
 GradGradGradGradGradGradGradGradGradGradGradGradGradGradGradGradGradGrad

                          Input orientation:                          
 ---------------------------------------------------------------------
 Center     Atomic      Atomic             Coordinates (Angstroms)
 Number     Number       Type             X           Y           Z
 ---------------------------------------------------------------------
      1          6           0       -1.946589   -1.482280   -0.000120
      2          6           0       -2.635259   -0.258912    0.000037
      3          6           0       -1.924341    0.954325    0.000109
      4          6           0       -0.531759    0.915680    0.000033
      5          6           0        0.188540   -0.301050   -0.000049
      6          6           0       -0.545652   -1.505079   -0.000124
      7          6           0        1.677698   -0.293591    0.000042
      8          8           0        2.227877   -1.506500    0.000012
      9          7           0        0.244442    2.180898   -0.000057
     10          8           0        2.357934    0.753080    0.000138
     11          1           0       -2.503221   -2.423674   -0.000230
[...]
 00016,-0.0000009,-0.0572118,-0.2781233,-0.1273397,-0.0000031,-0.188090
 6,-0.0121783,-0.0000057,0.0000024,-0.0000133,-0.0840883,0.4471159,0.18
 2733,0.0000073,-0.0093489,0.4054843,-0.0000155,-0.0000461,-0.0000016,-
 0.0534664,-0.7988061,-0.0186625,-0.0000165,0.0371758,-0.0985088,0.0000
 035,-0.0000321,-0.0000011,0.0372801,0.1382749,-0.1146136,0.0000068,0.0
 959631,0.0256911,0.0000014,-0.0000108,0.0000007,-0.0574634,2.0038688,-
 0.0195408,0.0000363,-0.2403999,1.6479841,0.0001046,-0.0000252,0.000120
 3,0.2951816,-0.8294664,0.4791813,0.0000303,0.5878004,-0.9544346,-0.000
 0331,0.0001092,-0.0001268,-0.2874313,-0.5090679,0.2224911,-0.0000072,-
 0.0029755,-0.5191599,0.000012,0.0000308,-0.0000193,-0.0409747,-1.04232
 57,-0.1530774,-0.0000583,-0.0780266,-1.1627772,-0.0000481,-0.0000266,0
 .0000555,-0.2965121,0.0692865,-0.0214655,-0.0000023,-0.0273257,0.04304
 19,-0.0000004,0.0000018,-0.0000017,0.1423323,0.0379824,0.0030558,-0.00
 00028,0.0051699,0.0868512,0.0000009,-0.0000078,0.0000002,0.139393,0.09
 68189,0.0098363,-0.000001,0.021055,-0.0059916,0.0000035,0.0000046,0.00
 0011,0.147584,0.0896005,0.022031,-0.0000033,0.0166235,0.0844779,0.0000
 017,-0.0000109,0.0000005,0.1368193,0.4201351,-0.1226401,-0.0000099,-0.
 1342295,0.3097716,-0.0000055,-0.0000213,0.0000009,0.3551319,0.1940617,
 -0.0042529,0.0165498,-0.0165178,0.2300274,0.0421369,0.0188211,0.072057
 1,0.2522115,0.691693,-0.5026099,0.0000277,-0.2800952,0.5827024,-0.0000
 32,0.0000301,-0.0000416,0.185567,0.1940573,-0.0042424,-0.0165605,-0.01
 65126,0.2300274,-0.0421304,-0.0188288,-0.0720455,0.2522058\Polar=124.2
 258447,0.0663702,105.7927582,0.00185,0.0001427,49.4456803\PG=C01 [X(C7
 H8N1O2)]\NImag=0\\0.66862133,0.03313384,0.70081632,0.00001765,-0.00000
 178,0.12708408,-0.17046666,0.11760873,-0.00000401,0.71594209,0.0640693
 7,-0.28286533,0.00000242,-0.00364995,0.64192800,-0.00000368,0.00000448
 ,-0.05913503,0.00001904,-0.00000321,0.13043749,0.05417046,-0.01765510,
 0.00000218,-0.17052013,-0.06366522,-0.00000400,0.67263024,0.01274657,-
 0.04967153,0.00000070,-0.12017537,-0.27358937,-0.00000212,-0.03236333,
 0.69889421,0.00000186,-0.00000005,0.00617683,-0.00000255,0.00000076,-0
 .05756090,0.00001737,-0.00000988,0.11960745,-0.04229667,0.02371499,-0.
 00000157,-0.02703792,-0.07245526,0.00000018,-0.34011593,0.05710222,-0.
 00000855,0.68472294,0.02420712,-0.01465310,0.00000135,-0.02667186,0.02
 487191,-0.00000141,-0.01057104,-0.11040893,0.00000059,-0.04778409,0.57
 877882,-0.00000157,0.00000087,-0.00506242,-0.00000063,-0.00000242,0.00
 297866,-0.00000874,0.00000243,-0.05682969,0.00001937,-0.00001210,0.150
 47078,-0.02860126,-0.02495601,-0.00000174,0.00077043,0.00519253,0.0000
 0035,-0.03244491,0.01890876,-0.00000191,-0.15710370,0.10990280,-0.0000
 0801,0.61744420,-0.05777111,0.02575629,-0.00000336,-0.00143774,-0.0491
 7405,0.00000041,0.05867247,0.02069727,0.00000181,0.06016224,-0.2416584
 1,0.00000610,0.00753669,0.67108555,-0.00000081,-0.00000188,0.00676126,
 0.00000039,0.00000012,-0.00561736,-0.00000108,0.00000186,0.00934429,-0
 .00000903,0.00000661,-0.05409403,0.00002137,-0.00000155,0.12648325,-0.
 33903127,-0.02436087,-0.00000892,-0.02394513,0.06210919,-0.00000163,-0
 .03896758,-0.01638205,-0.00000103,0.04996485,-0.02348662,0.00000188,-0
 .15599696,-0.06112443,-0.00000528,0.67379191,0.02922488,-0.11870551,0.
 00000256,0.03119863,0.02569474,0.00000080,-0.02399193,-0.01059097,-0.0
 0000097,0.01635165,-0.05194106,0.00000111,-0.10503351,-0.26565976,-0.0
 0000349,-0.03983884,0.68617348,-0.00001058,-0.00000004,-0.05991445,-0.
 00000143,0.00000230,0.00625154,-0.00000124,-0.00000073,-0.00504066,0.0
 0000172,-0.00000052,0.00405214,-0.00000370,-0.00000179,-0.05732102,0.0
 0002298,-0.00000639,0.13081986,0.00463708,-0.00309225,0.00000025,-0.00
 064240,-0.00372968,-0.00000010,0.01024433,0.00424839,0.00000007,-0.023
 73957,0.02982093,-0.00000063,-0.19256888,0.00235923,-0.00001223,-0.023
 30406,-0.01835436,-0.00000146,0.67150418,-0.00422970,-0.00590095,-0.00
 000008,-0.00047602,-0.00351205,-0.00000009,0.00463191,-0.00643533,0.00
 000035,0.03081169,0.01330536,0.00000223,0.01011899,-0.09375079,0.00000
 134,-0.02612511,0.00906376,-0.00000220,0.07829839,0.81281457,-0.000000
 18,0.00000014,0.00821387,0.00000043,0.00000011,-0.00134070,-0.00000004
 ,-0.00000008,0.00590625,-0.00000009,-0.00000009,-0.00168926,-0.0000058
 2,0.00000116,-0.07020827,0.00000039,0.00000047,-0.00119597,-0.00001688
 ,0.00002436,0.19094504,0.00073781,0.00061013,-0.00000008,-0.00003957,0
 .00197938,0.00000003,-0.00301473,0.00123648,-0.00000042,-0.00445238,-0
 .00841205,-0.00000023,-0.03220148,0.04197578,0.00000488,-0.00317970,0.
 00294722,0.00000025,-0.16899437,0.11209679,0.00001826,0.62727037,0.000
 95453,0.00013978,0.00000018,-0.00028397,-0.00082570,-0.00000001,0.0017
 2555,0.00195444,0.00000008,-0.00375357,0.00074453,-0.00000013,0.019399
 91,-0.00455470,-0.00000282,-0.00303862,-0.00416510,0.00000020,0.071174
 18,-0.28075721,-0.00002687,-0.05564513,0.42514578,0.00000005,-0.000000
 09,-0.00069451,-0.00000002,-0.00000019,-0.00006531,0.00000019,0.000000
 32,-0.00065317,-0.00000037,0.00000036,0.00213986,0.00000079,-0.0000014
 5,0.00808260,-0.00000040,-0.00000053,0.00037340,0.00001427,-0.00003431
 ,-0.05954227,-0.00003329,0.00004318,0.03969704,0.00098040,-0.00065433,
 -0.00000003,-0.00699459,0.00564110,-0.00000074,-0.01979244,-0.04472777
 ,-0.00000004,-0.11508848,-0.02678760,-0.00000058,0.01369737,0.00543630
 ,0.00000120,-0.00028233,0.00067808,-0.00000006,-0.02629164,-0.01768315
 ,-0.00000167,0.00313328,0.01019864,0.00000201,0.46524248,0.00175777,-0
 .00137043,0.,0.00057285,0.00594378,0.00000043,-0.00958759,-0.00847008,
 -0.00000006,-0.04140600,-0.15511254,0.00000157,-0.02087906,-0.03160653
 ,0.00000002,0.00544696,-0.00319800,0.00000069,0.00320450,0.00794423,0.
 00000061,-0.00033239,-0.00423041,-0.00000123,-0.07337192,0.56965122,-0
 .00000032,0.,-0.00127209,-0.00000046,-0.00000026,0.00688904,0.00000023
 ,-0.00000054,0.00146066,-0.00000110,0.00000285,-0.06888940,0.00000258,
 -0.00000003,-0.00051886,-0.00000066,0.00000075,0.00715318,-0.00000012,
 -0.00000052,-0.00233847,0.00000040,0.00000005,-0.00155736,0.00001139,0
 .00000106,0.67248035,-0.00217117,-0.00166484,-0.00000018,0.00037541,-0
 .00008465,0.,-0.00170629,-0.00152232,-0.00000020,0.00582582,-0.0030165
 6,0.00000002,-0.03047347,-0.03996302,0.00000079,-0.00420181,0.00701544
 ,-0.00000029,-0.26118014,-0.21777760,0.00000238,0.03272306,0.00914147,
 0.00000145,-0.02243592,0.02555103,-0.00000423,0.30654735,-0.00202017,0
 .00174181,-0.00000006,0.00070559,0.00055899,0.00000015,-0.00246140,0.0
 0188373,0.00000025,-0.00092770,-0.01988965,-0.00000043,-0.03065748,-0.
 00618314,-0.00000032,0.00179610,0.00516889,0.00000024,-0.19944875,-0.4
 1451567,0.00000469,-0.01674162,-0.09858433,-0.00000744,0.05273685,-0.0
 2004447,0.00000250,0.23550022,0.52383158,0.00000016,-0.00000013,-0.001
 87440,-0.00000017,-0.00000005,0.00037623,0.00000013,-0.00000043,-0.000
 52098,0.00000017,0.00000214,-0.00013340,-0.00000202,-0.00000028,0.0171
 8755,-0.00000004,-0.00000041,0.00351251,0.00000433,0.00000536,-0.06763
 987,-0.00000081,-0.00000810,0.02419219,-0.00000815,0.00000420,0.011166
 40,-0.00000092,0.00000346,0.03631659,-0.12718275,-0.12304662,-0.000001
 99,0.01105566,0.01475939,0.00000020,-0.00089645,0.00329523,-0.00000021
 ,-0.00104363,0.00102876,-0.00000003,-0.00470789,0.00114373,-0.00000062
 ,-0.01137186,-0.02582388,-0.00000028,0.00047855,-0.00150703,0.00000005
 ,-0.00012658,0.00016041,0.,0.00033185,-0.00014466,0.00000002,-0.000752
 94,-0.00029616,0.00000004,0.13239247,-0.12312686,-0.26205749,-0.000002
 55,-0.01400337,-0.01683781,-0.00000035,0.00308699,-0.00273628,0.000000
 16,0.00114161,0.00011180,0.00000003,0.00115114,0.00126689,0.00000014,0
 .00297511,0.00500740,0.00000007,0.00012621,0.00028176,0.,-0.00001497,0
 .00000610,0.00000001,-0.00029341,0.00005277,0.00000002,0.00012514,0.00
 007581,-0.00000001,0.12953338,0.27418824,-0.00000197,-0.00000240,-0.03
 712650,0.00000028,0.00000041,0.00362174,-0.00000012,0.00000021,0.00675
 240,-0.00000006,0.00000007,0.00003349,-0.00000045,0.00000007,0.0068243
 5,-0.00000064,-0.00000084,0.00339325,-0.00000004,0.00000005,0.00043795
 ,0.00000002,-0.00000003,0.00000858,0.00000005,-0.00000006,-0.00112908,
 0.00000002,-0.00000002,-0.00030072,0.00000256,0.00000259,0.02500820,-0
 .00856427,-0.00205461,-0.00000045,-0.33449481,0.00430999,-0.00001006,-
 0.00944734,0.00206233,-0.00000045,0.00088530,-0.00203340,-0.00000016,0
 .00091297,0.00015316,0.00000004,0.00023664,0.00238020,-0.00000024,-0.0
 0040547,0.00002455,0.00000003,0.00003191,-0.00004950,0.,-0.00064543,0.
 00017519,0.,0.00003899,0.00016705,-0.00000003,0.00068019,-0.00012450,0
 .00000015,0.35033711,0.02649178,0.00399956,0.00000081,0.00483674,-0.05
 465424,0.00000021,-0.02684509,0.00287491,-0.00000082,-0.00136125,-0.00
 366846,0.00000004,-0.00006775,-0.00118332,-0.00000002,0.00252985,-0.00
 460415,0.00000015,-0.00016912,-0.00034476,-0.00000003,0.00006185,0.000
 16020,0.00000002,-0.00229676,-0.00024508,-0.00000001,0.00000586,0.0004
 2802,-0.00000005,-0.00015326,0.00083801,-0.00000002,-0.00465353,0.0556
 7001,-0.00000030,-0.00000019,0.00501132,-0.00001027,0.00000019,-0.0379
 4691,0.00000006,0.00000037,0.00402424,-0.00000045,0.00000010,0.0067062
 4,0.00000002,0.00000011,-0.00087708,-0.00000041,-0.00000013,0.00687168
 ,0.00000008,0.00000002,-0.00124268,0.,0.,0.00026016,0.00000010,0.,0.00
 016243,0.,-0.00000012,0.00015718,0.00000011,-0.00000003,-0.00359635,0.
 00001104,-0.00000032,0.02457660,-0.00145998,-0.00319620,-0.00000023,0.
 01173106,-0.01470632,0.00000057,-0.12130190,0.11789253,-0.00000454,-0.
 01091699,0.02670717,-0.00000092,-0.00458082,-0.00211675,-0.00000059,-0
 .00053846,-0.00070526,0.00000002,0.00069101,0.00175883,0.00000002,-0.0
 0071476,-0.00012510,-0.00000002,0.00332230,0.00017624,-0.00000001,0.00
 019182,-0.00091712,0.00000014,0.00049547,-0.00075516,0.,0.00069525,0.0
 0009405,0.00000011,0.12507837,-0.00372966,-0.00265200,-0.00000003,0.01
 406804,-0.01733283,0.00000083,0.11784687,-0.26076741,0.00000781,-0.003
 26738,0.00201993,-0.00000010,-0.00056509,0.00135804,0.00000004,-0.0009
 4557,-0.00002185,-0.00000004,-0.00061314,-0.00006280,-0.00000004,-0.00
 000565,0.00004954,0.,-0.00002455,0.00135470,-0.00000011,0.00007478,0.0
 0028548,0.,0.00083366,-0.00079849,0.00000001,0.00015968,0.00097927,-0.
 00000007,-0.12465367,0.27508914,-0.00000040,0.,0.00636291,-0.00000005,
 -0.00000059,0.00340720,-0.00000442,0.00000807,-0.03297901,-0.00000044,
 0.00000104,0.00305670,-0.00000033,0.00000016,0.00568660,0.00000011,0.0
 0000005,-0.00103848,0.00000004,0.,0.00141904,-0.00000004,0.,-0.0002237
 0,0.00000032,-0.00000037,-0.00340352,0.00000004,-0.00000007,-0.0001356
 6,0.,-0.00000002,-0.00003710,0.00000014,-0.00000005,-0.00357694,0.0000
 0532,-0.00000830,0.02284011,-0.00913778,0.02554996,-0.00000099,-0.0053
 2865,-0.00069183,-0.00000044,-0.00077760,-0.00089530,-0.00000001,-0.00
 153699,-0.00191675,-0.00000030,0.01040366,-0.01517610,0.00000062,-0.12
 150972,0.12166872,-0.00000537,0.00183473,-0.00179184,-0.00000010,-0.00
 317525,-0.00018101,0.00000030,-0.00022146,-0.00150865,0.00000011,-0.00
 005208,0.00134869,-0.00000004,0.00095228,-0.00001215,0.00000018,-0.000
 40827,0.00126852,0.00000006,0.00007855,0.00010245,0.00000003,0.1280837
 9,-0.00248908,0.00522118,-0.00000014,-0.00097724,0.00098798,0.00000004
 ,-0.00028526,0.00025276,0.,-0.00356386,-0.00100412,-0.00000014,0.01203
 124,-0.01797309,0.00000072,0.12009891,-0.26799279,0.00000764,0.0016418
 3,-0.00213453,-0.00000022,0.00036701,0.00098588,0.00000012,0.00014186,
 -0.00093423,0.00000011,-0.00005489,0.00106223,-0.00000003,-0.00001803,
 0.00063194,-0.00000004,-0.00025379,0.00019410,0.,0.00008951,0.00000484
 ,0.,-0.12723328,0.28077190,0.00000006,0.00000099,0.00514773,-0.0000004
 5,0.00000030,0.00680132,-0.00000028,-0.00000002,-0.00094512,-0.0000002
 7,-0.00000020,0.00526695,0.00000045,0.00000041,0.00297242,-0.00000589,
 0.00000702,-0.03671432,0.00000005,-0.00000007,-0.00397237,0.00000022,-
 0.00000005,0.00049299,0.00000011,-0.00000012,0.00106567,0.00000001,-0.
 00000014,0.00055785,0.00000019,-0.00000005,-0.00378168,0.,0.00000007,-
 0.00049679,0.00000003,0.,-0.00072725,0.00000594,-0.00000810,0.02446239
 ,-0.00002594,-0.00017354,0.00000001,0.00005186,-0.00031569,0.,0.000565
 52,0.00064423,-0.00000005,-0.00133395,-0.00033749,0.00000019,0.0021069
 9,0.00238186,0.00000115,0.00058013,-0.00010330,-0.00000009,-0.02763068
 ,0.00775386,0.00000041,-0.44482408,-0.03390242,0.00001831,0.00156138,-
 0.00054488,-0.00000008,0.00201990,-0.00933008,-0.00000017,0.00000861,-
 0.00000018,0.,-0.00000668,-0.00001067,0.,-0.00005981,-0.00000692,-0.00
 000004,-0.00001207,-0.00009254,-0.00000004,0.46904543,-0.00008306,0.00
 032511,-0.00000003,-0.00016937,-0.00003222,0.,0.00003055,-0.00056240,0
 .00000005,0.00157917,0.00095774,0.00000009,0.00105508,-0.00589255,-0.0
 0000132,-0.00084875,-0.00039211,0.00000013,0.05267226,0.00213677,-0.00
 000284,-0.08081981,-0.04816131,-0.00000173,-0.00184427,0.00090475,-0.0
 0000017,-0.00669008,0.00256057,0.00000099,-0.00001942,0.00000824,0.,-0
 .00001521,0.00002613,0.,0.00013936,0.00000694,0.00000003,0.00031135,0.
 00062863,-0.00000005,0.03248446,0.04951398,0.00000011,0.00000004,0.000
 10041,-0.00000007,0.00000015,0.00009131,-0.00000018,-0.00000028,-0.000
 32495,0.00000056,0.00000028,0.00081380,-0.00000096,-0.00000127,0.00536
 170,-0.00000028,-0.00000009,-0.00040478,0.00001054,-0.00000094,0.00284
 168,0.00001110,-0.00000300,-0.01615314,-0.00000047,0.00000023,0.000267
 80,-0.00000133,0.00000081,-0.00558443,0.,0.,0.00002189,0.,0.,-0.000029
 91,0.00000004,0.,-0.00016796,-0.00000003,0.00000006,-0.00017142,-0.000
 01950,0.00000441,0.01353643,0.00051883,-0.00041539,-0.00019532,-0.0000
 9200,0.00054779,0.00073024,0.00061940,-0.00164427,0.00038929,0.0037249
 1,-0.01125918,-0.01599662,-0.00123089,-0.00017946,-0.00117503,-0.00060
 120,-0.00054318,0.00082567,-0.00089711,-0.00097712,-0.00062209,0.00005
 871,0.00044748,0.00068077,-0.06027893,0.03877067,0.05828433,-0.0032680
 8,0.00306142,-0.00259712,-0.00002792,0.00007017,-0.00010665,-0.0000129
 3,-0.00000296,-0.00001450,-0.00084583,0.00032933,-0.00046270,-0.000065
 01,-0.00007063,0.00018085,0.00004728,-0.00006359,-0.00001848,0.0569419
 6,-0.00025615,0.00034409,-0.00023741,0.00012520,-0.00115101,0.00113767
 ,0.00163958,0.00231373,0.00030706,0.00412230,-0.02009798,-0.01813542,-
 0.00279540,-0.00128677,-0.00114168,0.00064769,-0.00065491,0.00108430,-
 0.00050679,-0.00095729,-0.00049285,-0.00009628,0.00049883,-0.00013559,
 0.03654987,-0.15155937,-0.15430098,0.00046382,0.00090948,0.00057943,-0
 .00002048,0.00002418,-0.00020623,0.00002126,0.00008569,-0.00000364,-0.
 00034646,0.00024500,-0.00078346,-0.00020154,-0.00017534,0.00021900,0.0
 0010695,-0.00006388,0.00000051,-0.03549348,0.16235934,-0.00028529,0.00
 039649,0.00001000,0.00004593,-0.00053833,0.00030054,0.00080911,0.00123
 111,0.00044509,-0.00343227,-0.00083728,0.00612295,0.00023976,0.0015214
 9,-0.00039715,0.00014639,0.00041705,-0.00017098,0.00039066,-0.00082103
 ,0.00034942,-0.00030151,0.00064063,-0.00002034,0.05123626,-0.14479525,
 -0.27968753,-0.00159274,0.00172751,-0.00056076,-0.00001005,0.00002077,
 -0.00006567,0.00004831,0.00008381,0.00001704,-0.00034266,-0.00016120,-
 0.00015249,0.00003997,0.00009771,0.00002199,0.00009921,-0.00007193,0.0
 0006117,-0.05831216,0.15913833,0.29301384,-0.00124719,0.00106761,0.000
 00003,-0.00027283,0.00014188,0.00000005,0.00013588,0.00121794,0.000000
 50,-0.02418512,-0.01813061,0.00000012,-0.00419443,-0.00187311,-0.00000
 056,-0.00104225,0.00347283,-0.00000025,0.03716267,0.02605106,0.0000030
 7,-0.00329104,-0.01667088,-0.00000367,-0.17595132,0.03333844,0.0000081
 7,-0.01821057,-0.03557908,0.00000885,-0.00025716,0.00005065,0.00000002
 ,0.00017977,0.00027467,-0.00000010,-0.00101937,0.00006733,-0.00000007,
 0.00093686,0.00073891,-0.00000006,-0.00214115,0.00234502,0.00000050,0.
 00426610,0.00064040,0.00314850,0.18486749,0.00137609,-0.00081197,0.000
 00005,-0.00139624,0.00114022,-0.00000026,-0.00184753,-0.00795302,0.000
 00002,-0.02459185,0.01774356,0.00000122,0.00245370,0.00004550,0.000000
 34,-0.00010106,-0.00252700,0.00000009,-0.01712560,-0.03621856,-0.00000
 095,0.00088955,0.01109503,0.00000285,0.01973934,-0.05751766,-0.0000027
 6,-0.00756795,0.01980189,-0.00000679,0.00029550,-0.00008727,0.,-0.0002
 9013,-0.00064159,0.00000004,0.00101099,-0.00000256,0.00000009,-0.00043
 967,-0.00035197,0.00000003,0.00133939,-0.00190053,-0.00000037,0.012024
 61,-0.00446843,-0.00003752,0.00220566,0.06712292,-0.00000014,0.0000000
 5,0.00020097,0.,-0.00000011,0.00021059,-0.00000011,0.00000030,0.000692
 15,0.00000033,-0.00000100,-0.00106479,-0.00000042,-0.00000066,0.000726
 70,-0.00000017,0.00000014,-0.00045602,0.00000168,0.00000420,-0.0012928
 1,-0.00000024,-0.00000273,0.00368363,0.00001265,-0.00000511,-0.0621731
 7,0.00000200,-0.00000309,-0.01615634,-0.00000004,0.,0.00000092,0.,0.00
 000003,-0.00003726,-0.00000004,-0.00000002,-0.00017803,0.00000005,0.00
 000003,-0.00000231,-0.00000015,0.00000044,-0.00032081,0.02648421,-0.00
 504222,0.00232357,-0.00001615,0.00000686,0.07151790,0.00051903,-0.0004
 1550,0.00019539,-0.00009182,0.00054798,-0.00073003,0.00061947,-0.00164
 429,-0.00038912,0.00372751,-0.01125952,0.01599684,-0.00123092,-0.00017
 974,0.00117480,-0.00060120,-0.00054339,-0.00082564,-0.00089823,-0.0009
 7850,0.00062182,0.00005881,0.00044805,-0.00068034,-0.06028651,0.038781
 48,-0.05830024,-0.00326987,0.00306365,0.00259565,-0.00002793,0.0000701
 8,0.00010662,-0.00001292,-0.00000293,0.00001446,-0.00084591,0.00032948
 ,0.00046250,-0.00006502,-0.00007066,-0.00018093,0.00004725,-0.00006369
 ,0.00001843,0.00114268,-0.00460050,0.00807258,0.00426365,0.01202520,-0
 .02648347,0.05695191,-0.00025617,0.00034416,0.00023739,0.00012534,-0.0
 0115101,-0.00113758,0.00163956,0.00231428,-0.00030716,0.00412511,-0.02
 009939,0.01813503,-0.00279654,-0.00128644,0.00114189,0.00064813,-0.000
 65506,-0.00108411,-0.00050625,-0.00095651,0.00049240,-0.00009630,0.000
 49865,0.00013571,0.03656172,-0.15156265,0.15429805,0.00046415,0.000908
 78,-0.00057929,-0.00002050,0.00002419,0.00020622,0.00002127,0.00008572
 ,0.00000366,-0.00034663,0.00024507,0.00078344,-0.00020158,-0.00017537,
 -0.00021901,0.00010696,-0.00006385,-0.00000051,-0.00460221,0.01363464,
 -0.01801236,0.00064126,-0.00446855,0.00504287,-0.03550730,0.16236335,0
 .00028535,-0.00039651,0.00001003,-0.00004596,0.00053839,0.00030055,-0.
 00080907,-0.00123131,0.00044512,0.00343188,0.00083724,0.00612142,-0.00
 023996,-0.00152134,-0.00039695,-0.00014638,-0.00041709,-0.00017088,-0.
 00039051,0.00082133,0.00034942,0.00030146,-0.00064059,-0.00002064,-0.0
 5125234,0.14479338,-0.27967605,0.00159317,-0.00172790,-0.00055993,0.00
 001005,-0.00002078,-0.00006568,-0.00004832,-0.00008382,0.00001704,0.00
 034276,0.00016120,-0.00015242,-0.00003997,-0.00009773,0.00002196,-0.00
 009919,0.00007193,0.00006121,-0.00807469,0.01801318,-0.02161067,-0.003
 14896,0.00003705,0.00232513,0.05833067,-0.15913663,0.29300134\\0.00000
 014,-0.00001043,0.00000056,-0.00001081,0.00000721,-0.00000008,-0.00000
 452,0.00000111,0.00000194,-0.00001789,0.00000947,-0.00000157,0.0000546
 3,0.00002769,-0.00001011,-0.00001481,-0.00003143,-0.00000147,-0.000096
 46,0.00006887,0.00003574,0.00009249,-0.00005358,-0.00001164,-0.0000132
 0,0.00001491,0.00000589,-0.00001298,-0.00002437,-0.00000847,-0.0000025
 9,0.00001007,0.00000026,0.00000762,-0.00000437,-0.00000039,0.00000581,
 -0.00000717,0.00000019,-0.00000437,0.00001314,-0.00000018,-0.00002460,
 -0.00000934,-0.00000069,0.00000134,-0.00000931,-0.00001431,0.00003452,
 0.00000742,-0.00000938,0.00000568,-0.00000990,0.00001369\\\@


 A MUSTACHE HAIR ACROSS A CHIP IS LIKE A REDWOOD
 TREE FALLING THROUGH A HOUSING PROJECT.
 - AN IBM MANAGER IN EAST FISHKILL, NEW YORK
   AS QUOTED IN "FROM SANDS TO CIRCUITS", IBM INNOVATION JANUARY 1985.
 Job cpu time:       0 days  0 hours 20 minutes 21.2 seconds.
 File lengths (MBytes):  RWF=    100 Int=      0 D2E=      0 Chk=      5 Scr=      1
 Normal termination of Gaussian 09 at Sat Jun 22 17:21:53 2024.
