 Entering Gaussian System, Link 0=g09
 Input=gd3pbeAnthranilic.gjf
 Output=gd3pbeAnthranilic.log
 Initial command:
 /home/phzd/g09E/g09/l1.exe "/home/phzd/g09E/scratch/Gau-168223.inp" -scrdir="/home/phzd/g09E/scratch/"
 Default is to use a total of  18 processors:
                               18 via shared-memory
                                1 via Linda
 Entering Link 1 = /home/phzd/g09E/g09/l1.exe PID=    168225.
  
 Copyright (c) 1988,1990,1992,1993,1995,1998,2003,2009,2015,
            Gaussian, Inc.  All Rights Reserved.
  
 This is part of the Gaussian(R) 09 program.  It is based on
 the Gaussian(R) 03 system (copyright 2003, Gaussian, Inc.),
 the Gaussian(R) 98 system (copyright 1998, Gaussian, Inc.),
 the Gaussian(R) 94 system (copyright 1995, Gaussian, Inc.),
 the Gaussian 92(TM) system (copyright 1992, Gaussian, Inc.),
 the Gaussian 90(TM) system (copyright 1990, Gaussian, Inc.),
 the Gaussian 88(TM) system (copyright 1988, Gaussian, Inc.),
 the Gaussian 86(TM) system (copyright 1986, Carnegie Mellon
 University), and the Gaussian 82(TM) system (copyright 1983,
 Carnegie Mellon University). Gaussian is a federally registered
 trademark of Gaussian, Inc.
  
 This software contains proprietary and confidential information,
 including trade secrets, belonging to Gaussian, Inc.
  
 This software is provided under written license and may be
 used, copied, transmitted, or stored only in accord with that
 written license.
  
 The following legend is applicable only to US Government
 contracts under FAR:
  
                    RESTRICTED RIGHTS LEGEND
  
 Use, reproduction and disclosure by the US Government is
 subject to restrictions as set forth in subparagraphs (a)
 and (c) of the Commercial Computer Software - Restricted
 Rights clause in FAR 52.227-19.
  
 Gaussian, Inc.
 340 Quinnipiac St., Bldg. 40, Wallingford CT 06492
  
  
 ---------------------------------------------------------------
 Warning -- This program may not be used in any manner that
 competes with the business of Gaussian, Inc. or will provide
 assistance to any competitor of Gaussian, Inc.  The licensee
 of this program is prohibited from giving any competitor of
 Gaussian, Inc. access to this program.  By using this program,
 the user acknowledges that Gaussian, Inc. is engaged in the
 business of creating and licensing software in the field of
 computational chemistry and represents and warrants to the
 licensee that it is not a competitor of Gaussian, Inc. and that
 it will not use this program in any manner prohibited above.
 ---------------------------------------------------------------
  

 Cite this work as:
 Gaussian 09, Revision E.01,
 M. J. Frisch, G. W. Trucks, H. B. Schlegel, G. E. Scuseria, 
 M. A. Robb, J. R. Cheeseman, G. Scalmani, V. Barone, B. Mennucci, 
 G. A. Petersson, H. Nakatsuji, M. Caricato, X. Li, H. P. Hratchian, 
 A. F. Izmaylov, J. Bloino, G. Zheng, J. L. Sonnenberg, M. Hada, 
 M. Ehara, K. Toyota, R. Fukuda, J. Hasegawa, M. Ishida, T. Nakajima, 
 Y. Honda, O. Kitao, H. Nakai, T. Vreven, J. A. Montgomery, Jr., 
 J. E. Peralta, F. Ogliaro, M. Bearpark, J. J. Heyd, E. Brothers, 
 K. N. Kudin, V. N. Staroverov, T. Keith, R. Kobayashi, J. Normand, 
 K. Raghavachari, A. Rendell, J. C. Burant, S. S. Iyengar, J. Tomasi, 
 M. Cossi, N. Rega, J. M. Millam, M. Klene, J. E. Knox, J. B. Cross, 
 V. Bakken, C. Adamo, J. Jaramillo, R. Gomperts, R. E. Stratmann, 
 O. Yazyev, A. J. Austin, R. Cammi, C. Pomelli, J. W. Ochterski, 
 R. L. Martin, K. Morokuma, V. G. Zakrzewski, G. A. Voth, 
 P. Salvador, J. J. Dannenberg, S. Dapprich, A. D. Daniels, 
 O. Farkas, J. B. Foresman, J. V. Ortiz, J. Cioslowski, 
 and D. J. Fox, Gaussian, Inc., Wallingford CT, 2013.
 
 ******************************************
 Gaussian 09:  ES64L-G09RevE.01 30-Nov-2015
                22-Jun-2024 
 ******************************************
 %chk=gd3pbeAnthranilic.chk
 --------------------------------------
 # opt freq pbepbe/6-31+g(d,p) em=gd3bj
 --------------------------------------
 1/14=-1,18=20,19=15,26=3,38=1/1,3;
 2/9=110,12=2,17=6,18=5,40=1/2;
 3/5=1,6=6,7=111,11=2,16=1,25=1,30=1,71=1,74=1009,124=41/1,2,3;
 4//1;
 5/5=2,38=5/2;
 6/7=2,8=2,9=2,10=2,28=1/1;
 7//1,2,3,16;
 1/14=-1,18=20,19=15,26=3/3(2);
 2/9=110/2;
 99//99;
 2/9=110/2;
 3/5=1,6=6,7=111,11=2,16=1,25=1,30=1,71=1,74=1009,124=41/1,2,3;
 4/5=5,16=3,69=1/1;
 5/5=2,38=5/2;
 7//1,2,3,16;
 1/14=-1,18=20,19=15,26=3/3(-5);
 2/9=110/2;
 6/7=2,8=2,9=2,10=2,19=2,28=1/1;
 99/9=1/99;
 ----------
 [No Title]
 ----------
 Symbolic Z-matrix:
 Charge =  0 Multiplicity = 1
 C                    -1.85922  -1.52339  -0.00002 
 C                    -2.58942  -0.32163   0.00022 
 C                    -1.94402   0.90306   0.0002 
 C                    -0.52993   0.98772  -0.00006 
 C                     0.2135   -0.23165  -0.00031 
 C                    -0.47524  -1.46411  -0.00026 
 C                     1.67932  -0.20226  -0.00059 
 O                     2.26063  -1.43192   0.00033 
 N                     0.07582   2.20817  -0.00011 
 O                     2.38053   0.80802   0.00027 
 H                    -2.36991  -2.48036  -0.00001 
 H                    -3.67574  -0.34762   0.00042 
 H                    -2.52086   1.82439   0.00038 
 H                     0.10944  -2.37662  -0.00044 
 H                     3.21937  -1.27704   0.00085 
 H                     1.08639   2.25698  -0.0004 
 H                    -0.47851   3.04778   0.00005 
 

 GradGradGradGradGradGradGradGradGradGradGradGradGradGradGradGradGradGrad
 Berny optimization.
 Initialization pass.
                           ----------------------------
                           !    Initial Parameters    !
                           ! (Angstroms and Degrees)  !
 --------------------------                            --------------------------
 ! Name  Definition              Value          Derivative Info.                !
 --------------------------------------------------------------------------------
 ! R1    R(1,2)                  1.4062         estimate D2E/DX2                !
 ! R2    R(1,6)                  1.3852         estimate D2E/DX2                !
 ! R3    R(1,11)                 1.0847         estimate D2E/DX2                !
 ! R4    R(2,3)                  1.3843         estimate D2E/DX2                !
 ! R5    R(2,12)                 1.0866         estimate D2E/DX2                !
 ! R6    R(3,4)                  1.4166         estimate D2E/DX2                !
 ! R7    R(3,13)                 1.087          estimate D2E/DX2                !
 ! R8    R(4,5)                  1.4281         estimate D2E/DX2                !
 ! R9    R(4,9)                  1.3625         estimate D2E/DX2                !
 ! R10   R(5,6)                  1.4119         estimate D2E/DX2                !
 ! R11   R(5,7)                  1.4661         estimate D2E/DX2                !
 ! R12   R(6,14)                 1.0838         estimate D2E/DX2                !
 ! R13   R(7,8)                  1.3601         estimate D2E/DX2                !
 ! R14   R(7,10)                 1.2298         estimate D2E/DX2                !
 ! R15   R(8,15)                 0.9712         estimate D2E/DX2                !
 ! R16   R(9,16)                 1.0118         estimate D2E/DX2                !
 ! R17   R(9,17)                 1.0061         estimate D2E/DX2                !
 ! A1    A(2,1,6)              118.8307         estimate D2E/DX2                !
 ! A2    A(2,1,11)             120.6302         estimate D2E/DX2                !
 ! A3    A(6,1,11)             120.5391         estimate D2E/DX2                !
 ! A4    A(1,2,3)              120.9276         estimate D2E/DX2                !
 ! A5    A(1,2,12)             119.9125         estimate D2E/DX2                !
 ! A6    A(3,2,12)             119.1599         estimate D2E/DX2                !
 ! A7    A(2,3,4)              121.2151         estimate D2E/DX2                !
 ! A8    A(2,3,13)             120.1599         estimate D2E/DX2                !
 ! A9    A(4,3,13)             118.625          estimate D2E/DX2                !
 ! A10   A(3,4,5)              117.9442         estimate D2E/DX2                !
 ! A11   A(3,4,9)              119.8226         estimate D2E/DX2                !
 ! A12   A(5,4,9)              122.2332         estimate D2E/DX2                !
 ! A13   A(4,5,6)              119.4319         estimate D2E/DX2                !
 ! A14   A(4,5,7)              120.2215         estimate D2E/DX2                !
 ! A15   A(6,5,7)              120.3466         estimate D2E/DX2                !
 ! A16   A(1,6,5)              121.6505         estimate D2E/DX2                !
 ! A17   A(1,6,14)             120.1971         estimate D2E/DX2                !
 ! A18   A(5,6,14)             118.1524         estimate D2E/DX2                !
 ! A19   A(5,7,8)              114.1529         estimate D2E/DX2                !
 ! A20   A(5,7,10)             125.9119         estimate D2E/DX2                !
 ! A21   A(8,7,10)             119.9351         estimate D2E/DX2                !
 ! A22   A(7,8,15)             106.1252         estimate D2E/DX2                !
 ! A23   A(4,9,16)             119.1615         estimate D2E/DX2                !
 ! A24   A(4,9,17)             120.1696         estimate D2E/DX2                !
 ! A25   A(16,9,17)            120.6689         estimate D2E/DX2                !
 ! D1    D(6,1,2,3)              0.0008         estimate D2E/DX2                !
 ! D2    D(6,1,2,12)          -179.9993         estimate D2E/DX2                !
 ! D3    D(11,1,2,3)          -179.9997         estimate D2E/DX2                !
 ! D4    D(11,1,2,12)            0.0002         estimate D2E/DX2                !
 ! D5    D(2,1,6,5)             -0.0023         estimate D2E/DX2                !
 ! D6    D(2,1,6,14)           179.9993         estimate D2E/DX2                !
 ! D7    D(11,1,6,5)           179.9983         estimate D2E/DX2                !
 ! D8    D(11,1,6,14)           -0.0002         estimate D2E/DX2                !
 ! D9    D(1,2,3,4)              0.0001         estimate D2E/DX2                !
 ! D10   D(1,2,3,13)           179.9994         estimate D2E/DX2                !
 ! D11   D(12,2,3,4)          -179.9998         estimate D2E/DX2                !
 ! D12   D(12,2,3,13)           -0.0005         estimate D2E/DX2                !
 ! D13   D(2,3,4,5)              0.0003         estimate D2E/DX2                !
 ! D14   D(2,3,4,9)            179.9982         estimate D2E/DX2                !
 ! D15   D(13,3,4,5)          -179.999          estimate D2E/DX2                !
 ! D16   D(13,3,4,9)            -0.0011         estimate D2E/DX2                !
 ! D17   D(3,4,5,6)             -0.0016         estimate D2E/DX2                !
 ! D18   D(3,4,5,7)            179.9999         estimate D2E/DX2                !
 ! D19   D(9,4,5,6)           -179.9995         estimate D2E/DX2                !
 ! D20   D(9,4,5,7)              0.002          estimate D2E/DX2                !
 ! D21   D(3,4,9,16)          -179.9928         estimate D2E/DX2                !
 ! D22   D(3,4,9,17)             0.0001         estimate D2E/DX2                !
 ! D23   D(5,4,9,16)             0.005          estimate D2E/DX2                !
 ! D24   D(5,4,9,17)           179.9978         estimate D2E/DX2                !
 ! D25   D(4,5,6,1)              0.0027         estimate D2E/DX2                !
 ! D26   D(4,5,6,14)          -179.9988         estimate D2E/DX2                !
 ! D27   D(7,5,6,1)           -179.9988         estimate D2E/DX2                !
 ! D28   D(7,5,6,14)            -0.0003         estimate D2E/DX2                !
 ! D29   D(4,5,7,8)            179.947          estimate D2E/DX2                !
 ! D30   D(4,5,7,10)             0.0521         estimate D2E/DX2                !
 ! D31   D(6,5,7,8)             -0.0515         estimate D2E/DX2                !
 ! D32   D(6,5,7,10)          -179.9464         estimate D2E/DX2                !
 ! D33   D(5,7,8,15)          -179.9503         estimate D2E/DX2                !
 ! D34   D(10,7,8,15)           -0.0485         estimate D2E/DX2                !
 --------------------------------------------------------------------------------
 Trust Radius=3.00D-01 FncErr=1.00D-07 GrdErr=1.00D-06
 Number of steps in this run=     86 maximum allowed number of steps=    102.
 GradGradGradGradGradGradGradGradGradGradGradGradGradGradGradGradGradGrad

                          Input orientation:                          
 ---------------------------------------------------------------------
 Center     Atomic      Atomic             Coordinates (Angstroms)
 Number     Number       Type             X           Y           Z
 ---------------------------------------------------------------------
      1          6           0       -1.859221   -1.523389   -0.000022
      2          6           0       -2.589424   -0.321626    0.000218
      3          6           0       -1.944016    0.903063    0.000202
      4          6           0       -0.529934    0.987718   -0.000059
      5          6           0        0.213499   -0.231649   -0.000312
      6          6           0       -0.475244   -1.464112   -0.000259
      7          6           0        1.679323   -0.202258   -0.000591
      8          8           0        2.260625   -1.431921    0.000334
      9          7           0        0.075816    2.208172   -0.000106
     10          8           0        2.380526    0.808024    0.000272
     11          1           0       -2.369909   -2.480363   -0.000013
     12          1           0       -3.675740   -0.347621    0.000418
     13          1           0       -2.520863    1.824385    0.000379
     14          1           0        0.109444   -2.376621   -0.000435
     15          1           0        3.219372   -1.277043    0.000848
     16          1           0        1.086391    2.256975   -0.000404
     17          1           0       -0.478512    3.047779    0.000045
 ---------------------------------------------------------------------
                    Distance matrix (angstroms):
                    1          2          3          4          5
     1  C    0.000000
     2  C    1.406212   0.000000
     3  C    2.427933   1.384346   0.000000
     4  C    2.841243   2.440467   1.416614   0.000000
     5  C    2.442286   2.804367   2.437713   1.428128   0.000000
     6  C    1.385246   2.403130   2.785823   2.452440   1.411854
     7  C    3.777126   4.270416   3.788182   2.509354   1.466119
     8  O    4.120861   4.975513   4.809486   3.693491   2.373052
     9  N    4.203441   3.674695   2.404793   1.362513   2.443703
    10  O    4.838485   5.096716   4.325586   2.916002   2.403524
    11  H    1.084713   2.169869   3.410126   3.925951   3.425013
    12  H    2.163833   1.086627   2.136136   3.417488   3.890968
    13  H    3.412530   2.147106   1.087008   2.159586   3.421113
    14  H    2.145611   3.392181   3.869499   3.424556   2.147494
    15  H    5.084564   5.886844   5.604769   4.380233   3.182471
    16  H    4.792471   4.490078   3.319103   2.055120   2.637269
    17  H    4.775137   3.976033   2.597597   2.060703   3.351645
                    6          7          8          9         10
     6  C    0.000000
     7  C    2.496885   0.000000
     8  O    2.736058   1.360141   0.000000
     9  N    3.713400   2.895066   4.245429   0.000000
    10  O    3.649387   1.229779   2.243152   2.696684   0.000000
    11  H    2.150005   4.646078   4.747744   5.288093   5.777553
    12  H    3.389650   5.357036   6.034578   4.539411   6.165539
    13  H    3.872825   4.663566   5.784994   2.624888   5.005657
    14  H    1.083759   2.681860   2.349476   4.584916   3.911493
    15  H    3.699349   1.878008   0.971176   4.693471   2.247480
    16  H    4.035492   2.529703   3.871276   1.011753   1.942742
    17  H    4.511892   3.901153   5.250770   1.006091   3.631887
                   11         12         13         14         15
    11  H    0.000000
    12  H    2.500757   0.000000
    13  H    4.307394   2.459949   0.000000
    14  H    2.481522   4.294701   4.956508   0.000000
    15  H    5.717346   6.957470   6.524504   3.298594   0.000000
    16  H    5.864161   5.427874   3.633100   4.735466   4.127819
    17  H    5.842751   4.663798   2.380733   5.456172   5.690205
                   16         17
    16  H    0.000000
    17  H    1.753366   0.000000
 Stoichiometry    C7H7NO2
 Framework group  C1[X(C7H7NO2)]
 Deg. of freedom    45
 Full point group                 C1      NOp   1
 Largest Abelian subgroup         C1      NOp   1
 Largest concise Abelian subgroup C1      NOp   1
                         Standard orientation:                         
 ---------------------------------------------------------------------
 Center     Atomic      Atomic             Coordinates (Angstroms)
 Number     Number       Type             X           Y           Z
 ---------------------------------------------------------------------
      1          6           0       -1.859221   -1.523389   -0.000022
      2          6           0       -2.589424   -0.321626    0.000218
      3          6           0       -1.944016    0.903063    0.000202
      4          6           0       -0.529934    0.987718   -0.000059
      5          6           0        0.213499   -0.231649   -0.000312
      6          6           0       -0.475244   -1.464112   -0.000259
      7          6           0        1.679323   -0.202258   -0.000591
      8          8           0        2.260625   -1.431921    0.000334
      9          7           0        0.075816    2.208172   -0.000106
     10          8           0        2.380526    0.808024    0.000272
     11          1           0       -2.369909   -2.480363   -0.000013
     12          1           0       -3.675740   -0.347621    0.000418
     13          1           0       -2.520863    1.824385    0.000379
     14          1           0        0.109444   -2.376621   -0.000435
     15          1           0        3.219372   -1.277043    0.000848
     16          1           0        1.086391    2.256975   -0.000404
     17          1           0       -0.478512    3.047779    0.000045
 ---------------------------------------------------------------------
 Rotational constants (GHZ):      2.2923684      1.2100986      0.7920109
 Standard basis: 6-31+G(d,p) (6D, 7F)
 There are   225 symmetry adapted cartesian basis functions of A   symmetry.
 There are   225 symmetry adapted basis functions of A   symmetry.
   225 basis functions,   369 primitive gaussians,   225 cartesian basis functions
    36 alpha electrons       36 beta electrons
       nuclear repulsion energy       500.0782038866 Hartrees.
 NAtoms=   17 NActive=   17 NUniq=   17 SFac= 1.00D+00 NAtFMM=   60 NAOKFM=F Big=F
 Integral buffers will be    131072 words long.
 Raffenetti 2 integral format.
 Two-electron integral symmetry is turned on.
 Nuclear repulsion after empirical dispersion term =      500.0599720879 Hartrees.
 One-electron integrals computed using PRISM.
 NBasis=   225 RedAO= T EigKep=  2.75D-06  NBF=   225
 NBsUse=   225 1.00D-06 EigRej= -1.00D+00 NBFU=   225
 ExpMin= 4.38D-02 ExpMax= 5.48D+03 ExpMxC= 8.25D+02 IAcc=2 IRadAn=         4 AccDes= 0.00D+00
 Harris functional with IExCor= 1009 and IRadAn=       4 diagonalized for initial guess.
 HarFok:  IExCor= 1009 AccDes= 0.00D+00 IRadAn=         4 IDoV= 1 UseB2=F ITyADJ=14
 ICtDFT=  3500011 ScaDFX=  1.000000  1.000000  1.000000  1.000000
 FoFCou: FMM=F IPFlag=           0 FMFlag=      100000 FMFlg1=           0
         NFxFlg=           0 DoJE=T BraDBF=F KetDBF=T FulRan=T
         wScrn=  0.000000 ICntrl=     500 IOpCl=  0 I1Cent=   200000004 NGrid=           0
         NMat0=    1 NMatS0=      1 NMatT0=    0 NMatD0=    1 NMtDS0=    0 NMtDT0=    0
 Petite list used in FoFCou.
 Keep J ints in memory in canonical form, NReq=329175655.
 Requested convergence on RMS density matrix=1.00D-08 within 128 cycles.
 Requested convergence on MAX density matrix=1.00D-06.
 Requested convergence on             energy=1.00D-06.
 No special actions if energy rises.
 SCF Done:  E(RPBE-PBE) =  -475.686043104     A.U. after   16 cycles
            NFock= 16  Conv=0.17D-08     -V/T= 2.0093

 **********************************************************************

            Population analysis using the SCF density.

 **********************************************************************

 Orbital symmetries:
       Occupied  (A) (A) (A) (A) (A) (A) (A) (A) (A) (A) (A) (A)
                 (A) (A) (A) (A) (A) (A) (A) (A) (A) (A) (A) (A)
                 (A) (A) (A) (A) (A) (A) (A) (A) (A) (A) (A) (A)
       Virtual   (A) (A) (A) (A) (A) (A) (A) (A) (A) (A) (A) (A)
                 (A) (A) (A) (A) (A) (A) (A) (A) (A) (A) (A) (A)
                 (A) (A) (A) (A) (A) (A) (A) (A) (A) (A) (A) (A)
                 (A) (A) (A) (A) (A) (A) (A) (A) (A) (A) (A) (A)
                 (A) (A) (A) (A) (A) (A) (A) (A) (A) (A) (A) (A)
                 (A) (A) (A) (A) (A) (A) (A) (A) (A) (A) (A) (A)
                 (A) (A) (A) (A) (A) (A) (A) (A) (A) (A) (A) (A)
                 (A) (A) (A) (A) (A) (A) (A) (A) (A) (A) (A) (A)
                 (A) (A) (A) (A) (A) (A) (A) (A) (A) (A) (A) (A)
                 (A) (A) (A) (A) (A) (A) (A) (A) (A) (A) (A) (A)
                 (A) (A) (A) (A) (A) (A) (A) (A) (A) (A) (A) (A)
                 (A) (A) (A) (A) (A) (A) (A) (A) (A) (A) (A) (A)
                 (A) (A) (A) (A) (A) (A) (A) (A) (A) (A) (A) (A)
                 (A) (A) (A) (A) (A) (A) (A) (A) (A) (A) (A) (A)
                 (A) (A) (A) (A) (A) (A) (A) (A) (A) (A) (A) (A)
                 (A) (A) (A) (A) (A) (A) (A) (A) (A)
 The electronic state is 1-A.
 Alpha  occ. eigenvalues --  -18.82797 -18.77466 -14.02775 -10.03035  -9.96441
 Alpha  occ. eigenvalues --   -9.92089  -9.91728  -9.91398  -9.91061  -9.90286
 Alpha  occ. eigenvalues --   -1.02118  -0.93194  -0.85702  -0.77397  -0.70270
 Alpha  occ. eigenvalues --   -0.66980  -0.60264  -0.56641  -0.53968  -0.48709
 Alpha  occ. eigenvalues --   -0.47609  -0.45794  -0.43428  -0.40879  -0.40580
 Alpha  occ. eigenvalues --   -0.39208  -0.38322  -0.35446  -0.34966  -0.32823
 Alpha  occ. eigenvalues --   -0.31237  -0.28917  -0.27928  -0.23906  -0.23790
 Alpha  occ. eigenvalues --   -0.18854
 Alpha virt. eigenvalues --   -0.07924  -0.03149  -0.01560  -0.00564   0.00385
 Alpha virt. eigenvalues --    0.00963   0.02026   0.03416   0.04138   0.04190
 Alpha virt. eigenvalues --    0.05727   0.06381   0.06977   0.07993   0.08672
 Alpha virt. eigenvalues --    0.10354   0.11020   0.11621   0.11965   0.12076
 Alpha virt. eigenvalues --    0.12867   0.14259   0.14801   0.15043   0.15504
 Alpha virt. eigenvalues --    0.16294   0.16611   0.17112   0.17832   0.18500
 Alpha virt. eigenvalues --    0.18820   0.19349   0.20293   0.21100   0.21144
 Alpha virt. eigenvalues --    0.21709   0.22783   0.22850   0.23515   0.23896
 Alpha virt. eigenvalues --    0.25066   0.25286   0.25558   0.26933   0.27480
 Alpha virt. eigenvalues --    0.27902   0.28582   0.29638   0.30279   0.30869
 Alpha virt. eigenvalues --    0.32254   0.34570   0.36342   0.37743   0.38050
 Alpha virt. eigenvalues --    0.40121   0.43873   0.45909   0.46254   0.54947
 Alpha virt. eigenvalues --    0.56362   0.61348   0.62190   0.63884   0.67245
 Alpha virt. eigenvalues --    0.67977   0.68565   0.69461   0.70116   0.70128
 Alpha virt. eigenvalues --    0.72270   0.73350   0.76464   0.79249   0.80102
 Alpha virt. eigenvalues --    0.83544   0.85813   0.88675   0.89201   0.89915
 Alpha virt. eigenvalues --    0.91352   0.94467   0.98279   0.98978   0.99503
 Alpha virt. eigenvalues --    1.01818   1.04974   1.06790   1.08234   1.08856
 Alpha virt. eigenvalues --    1.09265   1.10576   1.15661   1.16125   1.16705
 Alpha virt. eigenvalues --    1.19807   1.21633   1.22198   1.23861   1.26918
 Alpha virt. eigenvalues --    1.28566   1.28709   1.30827   1.31496   1.31651
 Alpha virt. eigenvalues --    1.33178   1.33509   1.34528   1.35506   1.38747
 Alpha virt. eigenvalues --    1.42488   1.50589   1.50701   1.56769   1.60987
 Alpha virt. eigenvalues --    1.66850   1.66870   1.71457   1.72637   1.73971
 Alpha virt. eigenvalues --    1.75854   1.78961   1.83225   1.84603   1.85969
 Alpha virt. eigenvalues --    1.88493   1.89426   1.92409   1.93097   1.95377
 Alpha virt. eigenvalues --    1.97835   1.99207   2.00663   2.03988   2.08873
 Alpha virt. eigenvalues --    2.12168   2.13659   2.17911   2.21652   2.25490
 Alpha virt. eigenvalues --    2.30263   2.30446   2.32047   2.32293   2.35099
 Alpha virt. eigenvalues --    2.37019   2.37928   2.42958   2.44317   2.46089
 Alpha virt. eigenvalues --    2.47014   2.49732   2.50261   2.52075   2.54563
 Alpha virt. eigenvalues --    2.55812   2.59890   2.60234   2.64706   2.65968
 Alpha virt. eigenvalues --    2.67777   2.68656   2.73773   2.79563   2.87685
 Alpha virt. eigenvalues --    2.92263   2.97062   3.00848   3.04107   3.12176
 Alpha virt. eigenvalues --    3.16014   3.19437   3.23772   3.27775   3.38924
 Alpha virt. eigenvalues --    3.42250   3.44437   3.58362   3.77814   4.10148
 Alpha virt. eigenvalues --    4.18120   4.20661   4.22502   4.23227   4.36960
 Alpha virt. eigenvalues --    4.41113   4.46444   4.68512   4.78598
          Condensed to atoms (all electrons):
               1          2          3          4          5          6
     1  C    8.174036   0.296174   0.316194  -0.579635  -0.222010  -2.367547
     2  C    0.296174   6.346050  -0.719201   1.637322  -1.925809   0.750207
     3  C    0.316194  -0.719201  11.512713  -1.022387  -1.479882  -3.197586
     4  C   -0.579635   1.637322  -1.022387  21.385087  -7.960746  -4.625629
     5  C   -0.222010  -1.925809  -1.479882  -7.960746  17.011251  -0.847487
     6  C   -2.367547   0.750207  -3.197586  -4.625629  -0.847487  17.051925
     7  C   -0.128448  -0.194306   0.015073  -1.503040   0.299822  -0.175166
     8  O    0.140633   0.002958  -0.032890  -0.191762  -0.157455   0.017585
     9  N   -0.006489   0.045042  -0.157022  -0.010026  -0.007068   0.198519
    10  O    0.046044  -0.001642   0.054674  -0.057012  -0.113875  -0.111511
    11  H    0.213037   0.011640   0.009006  -0.000692   0.005485   0.070414
    12  H    0.063576   0.210225   0.078259  -0.053881   0.007276   0.000533
    13  H    0.007647   0.068444   0.136109   0.049254   0.067509  -0.023034
    14  H    0.056942   0.010694  -0.001521   0.021912   0.053116   0.164369
    15  H   -0.012167  -0.001012   0.007977   0.010909   0.085392  -0.023249
    16  H    0.004238   0.001450   0.122662   0.175663  -0.245234  -0.057268
    17  H   -0.003655   0.004555  -0.125345  -0.098226   0.177511   0.034017
               7          8          9         10         11         12
     1  C   -0.128448   0.140633  -0.006489   0.046044   0.213037   0.063576
     2  C   -0.194306   0.002958   0.045042  -0.001642   0.011640   0.210225
     3  C    0.015073  -0.032890  -0.157022   0.054674   0.009006   0.078259
     4  C   -1.503040  -0.191762  -0.010026  -0.057012  -0.000692  -0.053881
     5  C    0.299822  -0.157455  -0.007068  -0.113875   0.005485   0.007276
     6  C   -0.175166   0.017585   0.198519  -0.111511   0.070414   0.000533
     7  C    6.463400   0.221031  -0.128887   0.387771   0.001285   0.000704
     8  O    0.221031   8.427188   0.001827  -0.167651   0.000123   0.000005
     9  N   -0.128887   0.001827   7.105242  -0.019794   0.000263  -0.000479
    10  O    0.387771  -0.167651  -0.019794   8.425171   0.000025  -0.000001
    11  H    0.001285   0.000123   0.000263   0.000025   0.561182  -0.005590
    12  H    0.000704   0.000005  -0.000479  -0.000001  -0.005590   0.565023
    13  H    0.010271   0.000026  -0.023157  -0.000031  -0.000169  -0.006701
    14  H   -0.008157   0.003820  -0.001066  -0.000096  -0.005773  -0.000181
    15  H   -0.021474   0.172411  -0.000262   0.007507  -0.000000  -0.000000
    16  H    0.001552   0.000879   0.292759   0.033827  -0.000000   0.000003
    17  H    0.001680   0.000241   0.306898   0.002224  -0.000000  -0.000015
              13         14         15         16         17
     1  C    0.007647   0.056942  -0.012167   0.004238  -0.003655
     2  C    0.068444   0.010694  -0.001012   0.001450   0.004555
     3  C    0.136109  -0.001521   0.007977   0.122662  -0.125345
     4  C    0.049254   0.021912   0.010909   0.175663  -0.098226
     5  C    0.067509   0.053116   0.085392  -0.245234   0.177511
     6  C   -0.023034   0.164369  -0.023249  -0.057268   0.034017
     7  C    0.010271  -0.008157  -0.021474   0.001552   0.001680
     8  O    0.000026   0.003820   0.172411   0.000879   0.000241
     9  N   -0.023157  -0.001066  -0.000262   0.292759   0.306898
    10  O   -0.000031  -0.000096   0.007507   0.033827   0.002224
    11  H   -0.000169  -0.005773  -0.000000  -0.000000  -0.000000
    12  H   -0.006701  -0.000181  -0.000000   0.000003  -0.000015
    13  H    0.582753   0.000014  -0.000000   0.000055   0.006493
    14  H    0.000014   0.541595   0.000060  -0.000000   0.000003
    15  H   -0.000000   0.000060   0.395403   0.000012  -0.000001
    16  H    0.000055  -0.000000   0.000012   0.345013  -0.023677
    17  H    0.006493   0.000003  -0.000001  -0.023677   0.407458
 Mulliken charges:
               1
     1  C    0.001428
     2  C   -0.542791
     3  C    0.483165
     4  C   -1.177109
     5  C    1.252204
     6  C   -0.859091
     7  C    0.756890
     8  O   -0.438969
     9  N   -0.596299
    10  O   -0.485631
    11  H    0.139764
    12  H    0.141245
    13  H    0.124519
    14  H    0.164270
    15  H    0.378497
    16  H    0.348068
    17  H    0.309840
 Sum of Mulliken charges =  -0.00000
 Mulliken charges with hydrogens summed into heavy atoms:
               1
     1  C    0.141192
     2  C   -0.401546
     3  C    0.607684
     4  C   -1.177109
     5  C    1.252204
     6  C   -0.694821
     7  C    0.756890
     8  O   -0.060472
     9  N    0.061609
    10  O   -0.485631
 Electronic spatial extent (au):  <R**2>=           1383.9685
 Charge=             -0.0000 electrons
 Dipole moment (field-independent basis, Debye):
    X=             -1.0932    Y=              0.6967    Z=             -0.0005  Tot=              1.2963
 Quadrupole moment (field-independent basis, Debye-Ang):
   XX=            -52.5325   YY=            -50.2593   ZZ=            -62.4415
   XY=             -5.1451   XZ=             -0.0011   YZ=             -0.0012
 Traceless Quadrupole moment (field-independent basis, Debye-Ang):
   XX=              2.5452   YY=              4.8184   ZZ=             -7.3637
   XY=             -5.1451   XZ=             -0.0011   YZ=             -0.0012
 Octapole moment (field-independent basis, Debye-Ang**2):
  XXX=             20.3170  YYY=             26.2916  ZZZ=              0.0035  XYY=             -2.8015
  XXY=            -16.2963  XXZ=              0.0133  XZZ=             11.9529  YZZ=              0.4396
  YYZ=              0.0017  XYZ=             -0.0082
 Hexadecapole moment (field-independent basis, Debye-Ang**3):
 XXXX=           -973.4805 YYYY=           -532.0393 ZZZZ=            -70.8279 XXXY=            -76.3243
 XXXZ=              0.0325 YYYX=            -10.2837 YYYZ=             -0.0014 ZZZX=              0.0086
 ZZZY=             -0.0031 XXYY=           -270.1005 XXZZ=           -211.8959 YYZZ=           -132.1496
 XXYZ=             -0.0237 YYXZ=              0.0040 ZZXY=             -4.7575
 N-N= 5.000599720879D+02 E-N=-2.109270280768D+03  KE= 4.713169702440D+02
 Calling FoFJK, ICntrl=      2527 FMM=F ISym2X=0 I1Cent= 0 IOpClX= 0 NMat=1 NMatS=1 NMatT=0.
 ***** Axes restored to original set *****
 -------------------------------------------------------------------
 Center     Atomic                   Forces (Hartrees/Bohr)
 Number     Number              X              Y              Z
 -------------------------------------------------------------------
      1        6          -0.001096806    0.000394035    0.000005896
      2        6          -0.000501204   -0.001029211   -0.000000754
      3        6           0.000923832    0.000258304    0.000005041
      4        6           0.000526987    0.002597224   -0.000013149
      5        6           0.003213627   -0.001722019   -0.000062835
      6        6           0.000768170    0.001097499   -0.000011195
      7        6          -0.008208357   -0.005876284    0.000224018
      8        8          -0.006410372   -0.010896382   -0.000070114
      9        7          -0.002115899   -0.002616530   -0.000001543
     10        8           0.008754305    0.015674776   -0.000083657
     11        1          -0.002572210   -0.004805486    0.000001727
     12        1          -0.005412847   -0.000077050   -0.000000006
     13        1          -0.002849182    0.004729063    0.000001352
     14        1           0.003439005   -0.004685138   -0.000002148
     15        1           0.007531060    0.002561346    0.000001952
     16        1           0.007775700   -0.000763992    0.000005019
     17        1          -0.003765810    0.005159846    0.000000397
 -------------------------------------------------------------------
 Cartesian Forces:  Max     0.015674776 RMS     0.004223089

 GradGradGradGradGradGradGradGradGradGradGradGradGradGradGradGradGradGrad
 Berny optimization.
 FormGI is forming the generalized inverse of G from B-inverse, IUseBI=4.
 Internal  Forces:  Max     0.017867605 RMS     0.003420165
 Search for a local minimum.
 Step number   1 out of a maximum of   86
 All quantities printed in internal units (Hartrees-Bohrs-Radians)
 Mixed Optimization -- RFO/linear search
 Second derivative matrix not updated -- first step.
 ITU=  0
     Eigenvalues ---    0.01214   0.01520   0.01648   0.01802   0.01930
     Eigenvalues ---    0.02040   0.02056   0.02100   0.02139   0.02161
     Eigenvalues ---    0.02188   0.02188   0.02209   0.02219   0.16000
     Eigenvalues ---    0.16000   0.16000   0.16000   0.16000   0.16000
     Eigenvalues ---    0.16000   0.22000   0.22477   0.24467   0.25000
     Eigenvalues ---    0.25000   0.25000   0.25000   0.35161   0.35205
     Eigenvalues ---    0.35431   0.35544   0.36209   0.39381   0.40635
     Eigenvalues ---    0.42777   0.44008   0.45680   0.46633   0.46772
     Eigenvalues ---    0.47813   0.52443   0.52919   0.53137   0.91179
 RFO step:  Lambda=-1.71741913D-03 EMin= 1.21413269D-02
 Linear search not attempted -- first point.
 Iteration  1 RMS(Cart)=  0.01422231 RMS(Int)=  0.00005966
 Iteration  2 RMS(Cart)=  0.00010246 RMS(Int)=  0.00000488
 Iteration  3 RMS(Cart)=  0.00000001 RMS(Int)=  0.00000488
 Variable       Old X    -DE/DX   Delta X   Delta X   Delta X     New X
                                 (Linear)    (Quad)   (Total)
    R1        2.65735   0.00539   0.00000   0.01229   0.01229   2.66965
    R2        2.61774   0.00666   0.00000   0.01390   0.01390   2.63163
    R3        2.04981   0.00545   0.00000   0.01531   0.01531   2.06512
    R4        2.61604   0.00630   0.00000   0.01312   0.01312   2.62915
    R5        2.05343   0.00541   0.00000   0.01530   0.01530   2.06873
    R6        2.67701   0.00486   0.00000   0.01115   0.01115   2.68816
    R7        2.05415   0.00552   0.00000   0.01563   0.01563   2.06977
    R8        2.69877   0.00448   0.00000   0.01054   0.01054   2.70931
    R9        2.57478   0.00244   0.00000   0.00463   0.00463   2.57941
   R10        2.66802   0.00427   0.00000   0.00960   0.00960   2.67762
   R11        2.77056   0.00169   0.00000   0.00466   0.00466   2.77522
   R12        2.04801   0.00580   0.00000   0.01624   0.01624   2.06425
   R13        2.57029   0.00802   0.00000   0.01510   0.01510   2.58539
   R14        2.32395   0.01787   0.00000   0.01956   0.01956   2.34350
   R15        1.83526   0.00784   0.00000   0.01471   0.01471   1.84997
   R16        1.91194   0.00773   0.00000   0.01686   0.01686   1.92880
   R17        1.90124   0.00638   0.00000   0.01363   0.01363   1.91487
    A1        2.07399   0.00003   0.00000   0.00098   0.00098   2.07497
    A2        2.10539  -0.00002   0.00000  -0.00054  -0.00054   2.10485
    A3        2.10380  -0.00001   0.00000  -0.00043  -0.00043   2.10337
    A4        2.11058  -0.00035   0.00000  -0.00071  -0.00071   2.10987
    A5        2.09287   0.00023   0.00000   0.00070   0.00070   2.09357
    A6        2.07973   0.00012   0.00000   0.00001   0.00001   2.07974
    A7        2.11560  -0.00029   0.00000  -0.00122  -0.00122   2.11438
    A8        2.09719   0.00025   0.00000   0.00122   0.00122   2.09841
    A9        2.07040   0.00005   0.00000   0.00000   0.00000   2.07040
   A10        2.05851   0.00055   0.00000   0.00153   0.00153   2.06004
   A11        2.09130   0.00170   0.00000   0.00709   0.00709   2.09839
   A12        2.13337  -0.00225   0.00000  -0.00862  -0.00861   2.12476
   A13        2.08448   0.00041   0.00000   0.00097   0.00097   2.08545
   A14        2.09826  -0.00214   0.00000  -0.00818  -0.00818   2.09008
   A15        2.10045   0.00173   0.00000   0.00721   0.00721   2.10765
   A16        2.12320  -0.00035   0.00000  -0.00154  -0.00154   2.12166
   A17        2.09784   0.00055   0.00000   0.00309   0.00309   2.10093
   A18        2.06215  -0.00020   0.00000  -0.00155  -0.00155   2.06059
   A19        1.99234  -0.00140   0.00000  -0.00556  -0.00556   1.98678
   A20        2.19758  -0.00133   0.00000  -0.00527  -0.00528   2.19230
   A21        2.09326   0.00273   0.00000   0.01084   0.01083   2.10409
   A22        1.85223  -0.00243   0.00000  -0.01505  -0.01505   1.83719
   A23        2.07976  -0.00126   0.00000  -0.00781  -0.00781   2.07195
   A24        2.09736   0.00035   0.00000   0.00215   0.00215   2.09951
   A25        2.10607   0.00091   0.00000   0.00566   0.00566   2.11173
    D1        0.00001  -0.00000   0.00000  -0.00005  -0.00005  -0.00004
    D2       -3.14158  -0.00000   0.00000  -0.00005  -0.00005   3.14156
    D3       -3.14159  -0.00000   0.00000  -0.00001  -0.00001   3.14159
    D4        0.00000  -0.00000   0.00000  -0.00001  -0.00001  -0.00000
    D5       -0.00004   0.00000   0.00000   0.00014   0.00014   0.00010
    D6        3.14158   0.00000   0.00000   0.00004   0.00005  -3.14156
    D7        3.14156   0.00000   0.00000   0.00010   0.00010  -3.14152
    D8       -0.00000   0.00000   0.00000   0.00000   0.00000   0.00000
    D9        0.00000  -0.00000   0.00000  -0.00001  -0.00001  -0.00000
   D10        3.14158   0.00000   0.00000   0.00004   0.00004  -3.14157
   D11       -3.14159  -0.00000   0.00000  -0.00001  -0.00001   3.14159
   D12       -0.00001   0.00000   0.00000   0.00003   0.00003   0.00002
   D13        0.00000  -0.00000   0.00000  -0.00002  -0.00002  -0.00002
   D14        3.14156   0.00000   0.00000   0.00015   0.00015  -3.14147
   D15       -3.14157  -0.00000   0.00000  -0.00006  -0.00006   3.14155
   D16       -0.00002   0.00000   0.00000   0.00011   0.00011   0.00009
   D17       -0.00003   0.00000   0.00000   0.00011   0.00011   0.00008
   D18        3.14159   0.00000   0.00000  -0.00000  -0.00000   3.14159
   D19       -3.14158  -0.00000   0.00000  -0.00007  -0.00007   3.14153
   D20        0.00004  -0.00000   0.00000  -0.00018  -0.00018  -0.00015
   D21       -3.14147  -0.00001   0.00000  -0.00035  -0.00035   3.14137
   D22        0.00000  -0.00000   0.00000  -0.00011  -0.00011  -0.00011
   D23        0.00009  -0.00000   0.00000  -0.00017  -0.00017  -0.00008
   D24        3.14156   0.00000   0.00000   0.00007   0.00007  -3.14156
   D25        0.00005  -0.00000   0.00000  -0.00017  -0.00017  -0.00012
   D26       -3.14157  -0.00000   0.00000  -0.00008  -0.00008   3.14154
   D27       -3.14157  -0.00000   0.00000  -0.00006  -0.00006   3.14155
   D28       -0.00001   0.00000   0.00000   0.00003   0.00003   0.00003
   D29        3.14067   0.00006   0.00000   0.00348   0.00347  -3.13904
   D30        0.00091  -0.00006   0.00000  -0.00374  -0.00373  -0.00282
   D31       -0.00090   0.00006   0.00000   0.00337   0.00336   0.00246
   D32       -3.14066  -0.00007   0.00000  -0.00385  -0.00384   3.13869
   D33       -3.14072  -0.00006   0.00000  -0.00342  -0.00344   3.13902
   D34       -0.00085   0.00005   0.00000   0.00331   0.00334   0.00249
         Item               Value     Threshold  Converged?
 Maximum Force            0.017868     0.000450     NO 
 RMS     Force            0.003420     0.000300     NO 
 Maximum Displacement     0.044959     0.001800     NO 
 RMS     Displacement     0.014265     0.001200     NO 
 Predicted change in Energy=-8.621424D-04
 GradGradGradGradGradGradGradGradGradGradGradGradGradGradGradGradGradGrad

                          Input orientation:                          
 ---------------------------------------------------------------------
 Center     Atomic      Atomic             Coordinates (Angstroms)
 Number     Number       Type             X           Y           Z
 ---------------------------------------------------------------------
      1          6           0       -1.868293   -1.530824    0.000223
      2          6           0       -2.601406   -0.323218   -0.000449
      3          6           0       -1.951411    0.906898   -0.000408
      4          6           0       -0.531244    0.988610    0.000312
      5          6           0        0.214120   -0.236113    0.001019
      6          6           0       -0.476888   -1.473131    0.000883
      7          6           0        1.682151   -0.195835    0.001769
      8          8           0        2.269118   -1.431654   -0.000792
      9          7           0        0.087072    2.205496    0.000481
     10          8           0        2.376304    0.831815   -0.000983
     11          1           0       -2.383692   -2.494466    0.000195
     12          1           0       -3.695845   -0.348217   -0.001008
     13          1           0       -2.530490    1.836574   -0.000908
     14          1           0        0.114022   -2.391856    0.001379
     15          1           0        3.232778   -1.259256   -0.002399
     16          1           0        1.107255    2.237170    0.001205
     17          1           0       -0.461418    3.057519   -0.000004
 ---------------------------------------------------------------------
                    Distance matrix (angstroms):
                    1          2          3          4          5
     1  C    0.000000
     2  C    1.412716   0.000000
     3  C    2.439139   1.391287   0.000000
     4  C    2.852236   2.450809   1.422516   0.000000
     5  C    2.452086   2.816874   2.448673   1.433706   0.000000
     6  C    1.392601   2.415756   2.799778   2.462341   1.416936
     7  C    3.793132   4.285451   3.797209   2.510384   1.468583
     8  O    4.138599   4.995061   4.825110   3.701311   2.377464
     9  N    4.217053   3.690841   2.416975   1.364964   2.444912
    10  O    4.857847   5.109961   4.328366   2.911773   2.411537
    11  H    1.092814   2.182135   3.428723   3.945045   3.442207
    12  H    2.176811   1.094724   2.149038   3.435375   3.911573
    13  H    3.431891   2.160957   1.095277   2.171642   3.439320
    14  H    2.161239   3.413622   3.892017   3.441500   2.158066
    15  H    5.108295   5.908796   5.618544   4.384150   3.187338
    16  H    4.801215   4.506635   3.335426   2.059996   2.629604
    17  H    4.799187   4.001117   2.616343   2.070088   3.362196
                    6          7          8          9         10
     6  C    0.000000
     7  C    2.508572   0.000000
     8  O    2.746320   1.368132   0.000000
     9  N    3.721605   2.882823   4.241483   0.000000
    10  O    3.667899   1.240129   2.266005   2.669754   0.000000
    11  H    2.163106   4.670630   4.772652   5.309832   5.807040
    12  H    3.409856   5.380155   6.062558   4.564199   6.185747
    13  H    3.895052   4.677289   5.806681   2.643432   5.008609
    14  H    1.092352   2.698433   2.359328   4.597431   3.938271
    15  H    3.715828   1.880246   0.978961   4.679741   2.259674
    16  H    4.034333   2.500003   3.848401   1.020675   1.893545
    17  H    4.530677   3.896050   5.254379   1.013304   3.606442
                   11         12         13         14         15
    11  H    0.000000
    12  H    2.515578   0.000000
    13  H    4.333527   2.476159   0.000000
    14  H    2.499821   4.323373   4.987291   0.000000
    15  H    5.750694   6.988262   6.542127   3.318047   0.000000
    16  H    5.880059   5.454723   3.659736   4.734384   4.091803
    17  H    5.875345   4.696867   2.402450   5.479674   5.681693
                   16         17
    16  H    0.000000
    17  H    1.770229   0.000000
 Stoichiometry    C7H7NO2
 Framework group  C1[X(C7H7NO2)]
 Deg. of freedom    45
 Full point group                 C1      NOp   1
 Largest Abelian subgroup         C1      NOp   1
 Largest concise Abelian subgroup C1      NOp   1
                         Standard orientation:                         
 ---------------------------------------------------------------------
 Center     Atomic      Atomic             Coordinates (Angstroms)
 Number     Number       Type             X           Y           Z
 ---------------------------------------------------------------------
      1          6           0       -1.880332   -1.516628    0.000116
      2          6           0       -2.603417   -0.302991   -0.000556
      3          6           0       -1.943255    0.921699   -0.000516
      4          6           0       -0.522460    0.991644    0.000205
      5          6           0        0.212734   -0.239210    0.000912
      6          6           0       -0.488497   -1.470462    0.000776
      7          6           0        1.681048   -0.211094    0.001662
      8          8           0        2.257758   -1.451732   -0.000899
      9          7           0        0.105915    2.203367    0.000374
     10          8           0        2.383690    0.810771   -0.001090
     11          1           0       -2.403696   -2.475967    0.000087
     12          1           0       -3.698025   -0.318923   -0.001115
     13          1           0       -2.514613    1.856140   -0.001015
     14          1           0        0.094783   -2.394051    0.001272
     15          1           0        3.222813   -1.287323   -0.002507
     16          1           0        1.126325    2.226589    0.001097
     17          1           0       -0.435499    3.059905   -0.000111
 ---------------------------------------------------------------------
 Rotational constants (GHZ):      2.2795666      1.2032276      0.7875396
 Standard basis: 6-31+G(d,p) (6D, 7F)
 There are   225 symmetry adapted cartesian basis functions of A   symmetry.
 There are   225 symmetry adapted basis functions of A   symmetry.
   225 basis functions,   369 primitive gaussians,   225 cartesian basis functions
    36 alpha electrons       36 beta electrons
       nuclear repulsion energy       498.2964424274 Hartrees.
 NAtoms=   17 NActive=   17 NUniq=   17 SFac= 1.00D+00 NAtFMM=   60 NAOKFM=F Big=F
 Integral buffers will be    131072 words long.
 Raffenetti 2 integral format.
 Two-electron integral symmetry is turned on.
 Nuclear repulsion after empirical dispersion term =      498.2782600195 Hartrees.
 One-electron integrals computed using PRISM.
 NBasis=   225 RedAO= T EigKep=  2.87D-06  NBF=   225
 NBsUse=   225 1.00D-06 EigRej= -1.00D+00 NBFU=   225
 Initial guess from the checkpoint file:  "gd3pbeAnthranilic.chk"
 B after Tr=    -0.000000    0.000000    0.000000
         Rot=    0.999994    0.000008   -0.000019    0.003544 Ang=   0.41 deg.
 ExpMin= 4.38D-02 ExpMax= 5.48D+03 ExpMxC= 8.25D+02 IAcc=2 IRadAn=         4 AccDes= 0.00D+00
 Harris functional with IExCor= 1009 and IRadAn=       4 diagonalized for initial guess.
 HarFok:  IExCor= 1009 AccDes= 0.00D+00 IRadAn=         4 IDoV= 1 UseB2=F ITyADJ=14
 ICtDFT=  3500011 ScaDFX=  1.000000  1.000000  1.000000  1.000000
 FoFCou: FMM=F IPFlag=           0 FMFlag=      100000 FMFlg1=           0
         NFxFlg=           0 DoJE=T BraDBF=F KetDBF=T FulRan=T
         wScrn=  0.000000 ICntrl=     500 IOpCl=  0 I1Cent=   200000004 NGrid=           0
         NMat0=    1 NMatS0=      1 NMatT0=    0 NMatD0=    1 NMtDS0=    0 NMtDT0=    0
 Petite list used in FoFCou.
 Keep J ints in memory in canonical form, NReq=329175655.
 Requested convergence on RMS density matrix=1.00D-08 within 128 cycles.
 Requested convergence on MAX density matrix=1.00D-06.
 Requested convergence on             energy=1.00D-06.
 No special actions if energy rises.
 SCF Done:  E(RPBE-PBE) =  -475.686882367     A.U. after   13 cycles
            NFock= 13  Conv=0.44D-08     -V/T= 2.0098
 Calling FoFJK, ICntrl=      2527 FMM=F ISym2X=0 I1Cent= 0 IOpClX= 0 NMat=1 NMatS=1 NMatT=0.
 ***** Axes restored to original set *****
 -------------------------------------------------------------------
 Center     Atomic                   Forces (Hartrees/Bohr)
 Number     Number              X              Y              Z
 -------------------------------------------------------------------
      1        6           0.000380623    0.000476865   -0.000016298
      2        6           0.000621480    0.000017043    0.000002518
      3        6           0.000063134   -0.000330085   -0.000015067
      4        6          -0.000481270    0.001786756    0.000039020
      5        6           0.001544999   -0.001044054    0.000180800
      6        6          -0.000378499    0.000257875    0.000033048
      7        6          -0.004667590   -0.000999216   -0.000680979
      8        8           0.000150938   -0.000665425    0.000200102
      9        7          -0.002038803    0.000497735    0.000007122
     10        8           0.002927672    0.000569697    0.000268082
     11        1           0.000072890    0.000093876   -0.000004730
     12        1           0.000135807    0.000007598    0.000002863
     13        1           0.000054115   -0.000074850   -0.000000859
     14        1          -0.000019370    0.000087318    0.000003126
     15        1           0.001088970    0.000414538    0.000002468
     16        1           0.000949966   -0.000847784   -0.000022586
     17        1          -0.000405061   -0.000247887    0.000001369
 -------------------------------------------------------------------
 Cartesian Forces:  Max     0.004667590 RMS     0.000974166

 GradGradGradGradGradGradGradGradGradGradGradGradGradGradGradGradGradGrad
 Berny optimization.
 Using GEDIIS/GDIIS optimizer.
 FormGI is forming the generalized inverse of G from B-inverse, IUseBI=4.
 Internal  Forces:  Max     0.002650535 RMS     0.000716512
 Search for a local minimum.
 Step number   2 out of a maximum of   86
 All quantities printed in internal units (Hartrees-Bohrs-Radians)
 Mixed Optimization -- En-DIIS/RFO-DIIS
 Update second derivatives using D2CorX and points    1    2
 DE= -8.39D-04 DEPred=-8.62D-04 R= 9.73D-01
 TightC=F SS=  1.41D+00  RLast= 6.33D-02 DXNew= 5.0454D-01 1.8979D-01
 Trust test= 9.73D-01 RLast= 6.33D-02 DXMaxT set to 3.00D-01
 ITU=  1  0
 Use linear search instead of GDIIS.
     Eigenvalues ---    0.01214   0.01530   0.01649   0.01802   0.01930
     Eigenvalues ---    0.02040   0.02056   0.02100   0.02139   0.02161
     Eigenvalues ---    0.02188   0.02188   0.02209   0.02219   0.15533
     Eigenvalues ---    0.16000   0.16000   0.16000   0.16000   0.16000
     Eigenvalues ---    0.16038   0.22001   0.22490   0.24448   0.24806
     Eigenvalues ---    0.25000   0.25000   0.26320   0.35176   0.35289
     Eigenvalues ---    0.35483   0.35622   0.36493   0.38752   0.40679
     Eigenvalues ---    0.42595   0.44826   0.45231   0.46703   0.46803
     Eigenvalues ---    0.49542   0.51626   0.53008   0.53839   0.87500
 RFO step:  Lambda=-1.34358877D-04 EMin= 1.21414094D-02
 Quartic linear search produced a step of -0.01432.
 Iteration  1 RMS(Cart)=  0.00866134 RMS(Int)=  0.00005235
 Iteration  2 RMS(Cart)=  0.00005765 RMS(Int)=  0.00002160
 Iteration  3 RMS(Cart)=  0.00000000 RMS(Int)=  0.00002160
 Variable       Old X    -DE/DX   Delta X   Delta X   Delta X     New X
                                 (Linear)    (Quad)   (Total)
    R1        2.66965  -0.00068  -0.00018  -0.00054  -0.00072   2.66893
    R2        2.63163  -0.00082  -0.00020  -0.00047  -0.00067   2.63097
    R3        2.06512  -0.00012  -0.00022   0.00109   0.00087   2.06599
    R4        2.62915  -0.00071  -0.00019  -0.00032  -0.00050   2.62865
    R5        2.06873  -0.00014  -0.00022   0.00104   0.00082   2.06955
    R6        2.68816  -0.00052  -0.00016  -0.00007  -0.00023   2.68794
    R7        2.06977  -0.00009  -0.00022   0.00119   0.00096   2.07074
    R8        2.70931   0.00194  -0.00015   0.00581   0.00565   2.71497
    R9        2.57941  -0.00121  -0.00007  -0.00184  -0.00191   2.57750
   R10        2.67762  -0.00050  -0.00014  -0.00017  -0.00030   2.67732
   R11        2.77522  -0.00052  -0.00007  -0.00098  -0.00105   2.77417
   R12        2.06425  -0.00008  -0.00023   0.00127   0.00104   2.06528
   R13        2.58539   0.00076  -0.00022   0.00281   0.00260   2.58799
   R14        2.34350   0.00211  -0.00028   0.00409   0.00381   2.34732
   R15        1.84997   0.00114  -0.00021   0.00349   0.00327   1.85324
   R16        1.92880   0.00092  -0.00024   0.00355   0.00331   1.93211
   R17        1.91487   0.00001  -0.00020   0.00128   0.00109   1.91596
    A1        2.07497   0.00020  -0.00001   0.00037   0.00036   2.07533
    A2        2.10485  -0.00008   0.00001  -0.00007  -0.00006   2.10479
    A3        2.10337  -0.00012   0.00001  -0.00031  -0.00030   2.10307
    A4        2.10987   0.00022   0.00001   0.00032   0.00033   2.11021
    A5        2.09357  -0.00010  -0.00001  -0.00010  -0.00011   2.09346
    A6        2.07974  -0.00011  -0.00000  -0.00023  -0.00023   2.07952
    A7        2.11438   0.00011   0.00002   0.00034   0.00036   2.11474
    A8        2.09841  -0.00005  -0.00002  -0.00007  -0.00009   2.09832
    A9        2.07040  -0.00006  -0.00000  -0.00027  -0.00027   2.07013
   A10        2.06004  -0.00024  -0.00002  -0.00035  -0.00037   2.05967
   A11        2.09839  -0.00085  -0.00010  -0.00294  -0.00304   2.09535
   A12        2.12476   0.00109   0.00012   0.00329   0.00341   2.12817
   A13        2.08545  -0.00058  -0.00001  -0.00180  -0.00181   2.08363
   A14        2.09008   0.00218   0.00012   0.00764   0.00776   2.09784
   A15        2.10765  -0.00160  -0.00010  -0.00584  -0.00595   2.10171
   A16        2.12166   0.00030   0.00002   0.00111   0.00113   2.12280
   A17        2.10093  -0.00012  -0.00004  -0.00015  -0.00019   2.10073
   A18        2.06059  -0.00018   0.00002  -0.00096  -0.00094   2.05966
   A19        1.98678   0.00036   0.00008   0.00095   0.00096   1.98774
   A20        2.19230   0.00229   0.00008   0.00856   0.00857   2.20087
   A21        2.10409  -0.00265  -0.00016  -0.00941  -0.00964   2.09446
   A22        1.83719  -0.00040   0.00022  -0.00384  -0.00362   1.83357
   A23        2.07195  -0.00083   0.00011  -0.00580  -0.00569   2.06626
   A24        2.09951  -0.00004  -0.00003  -0.00006  -0.00009   2.09942
   A25        2.11173   0.00087  -0.00008   0.00586   0.00577   2.11750
    D1       -0.00004   0.00000   0.00000   0.00017   0.00017   0.00013
    D2        3.14156   0.00000   0.00000   0.00015   0.00015  -3.14148
    D3        3.14159   0.00000   0.00000   0.00003   0.00003  -3.14157
    D4       -0.00000   0.00000   0.00000   0.00002   0.00002   0.00001
    D5        0.00010  -0.00001  -0.00000  -0.00043  -0.00043  -0.00033
    D6       -3.14156  -0.00000  -0.00000  -0.00015  -0.00015   3.14147
    D7       -3.14152  -0.00001  -0.00000  -0.00030  -0.00030   3.14137
    D8        0.00000  -0.00000  -0.00000  -0.00002  -0.00002  -0.00002
    D9       -0.00000   0.00000   0.00000   0.00002   0.00002   0.00002
   D10       -3.14157  -0.00000  -0.00000  -0.00011  -0.00011   3.14151
   D11        3.14159   0.00000   0.00000   0.00003   0.00003  -3.14156
   D12        0.00002  -0.00000  -0.00000  -0.00010  -0.00010  -0.00007
   D13       -0.00002   0.00000   0.00000   0.00005   0.00005   0.00004
   D14       -3.14147  -0.00001  -0.00000  -0.00050  -0.00050   3.14121
   D15        3.14155   0.00000   0.00000   0.00018   0.00018  -3.14146
   D16        0.00009  -0.00001  -0.00000  -0.00037  -0.00037  -0.00028
   D17        0.00008  -0.00001  -0.00000  -0.00030  -0.00031  -0.00023
   D18        3.14159   0.00000   0.00000   0.00008   0.00008  -3.14151
   D19        3.14153   0.00001   0.00000   0.00026   0.00026  -3.14140
   D20       -0.00015   0.00001   0.00000   0.00064   0.00065   0.00050
   D21        3.14137   0.00003   0.00001   0.00115   0.00115  -3.14066
   D22       -0.00011   0.00001   0.00000   0.00035   0.00035   0.00024
   D23       -0.00008   0.00001   0.00000   0.00058   0.00058   0.00050
   D24       -3.14156  -0.00000  -0.00000  -0.00023  -0.00023   3.14140
   D25       -0.00012   0.00001   0.00000   0.00050   0.00051   0.00038
   D26        3.14154   0.00000   0.00000   0.00023   0.00023  -3.14142
   D27        3.14155   0.00000   0.00000   0.00011   0.00011  -3.14152
   D28        0.00003  -0.00000  -0.00000  -0.00016  -0.00016  -0.00013
   D29       -3.13904  -0.00017  -0.00005  -0.01051  -0.01060   3.13354
   D30       -0.00282   0.00018   0.00005   0.01145   0.01155   0.00873
   D31        0.00246  -0.00016  -0.00005  -0.01012  -0.01021  -0.00774
   D32        3.13869   0.00019   0.00005   0.01184   0.01194  -3.13256
   D33        3.13902   0.00018   0.00005   0.01055   0.01051  -3.13366
   D34        0.00249  -0.00017  -0.00005  -0.01025  -0.01021  -0.00772
         Item               Value     Threshold  Converged?
 Maximum Force            0.002651     0.000450     NO 
 RMS     Force            0.000717     0.000300     NO 
 Maximum Displacement     0.033981     0.001800     NO 
 RMS     Displacement     0.008669     0.001200     NO 
 Predicted change in Energy=-6.743591D-05
 GradGradGradGradGradGradGradGradGradGradGradGradGradGradGradGradGradGrad

                          Input orientation:                          
 ---------------------------------------------------------------------
 Center     Atomic      Atomic             Coordinates (Angstroms)
 Number     Number       Type             X           Y           Z
 ---------------------------------------------------------------------
      1          6           0       -1.865138   -1.528975   -0.000532
      2          6           0       -2.600028   -0.322895    0.001613
      3          6           0       -1.952581    0.908263    0.001479
      4          6           0       -0.532730    0.993273   -0.000836
      5          6           0        0.216588   -0.232542   -0.003084
      6          6           0       -0.474163   -1.469520   -0.002643
      7          6           0        1.684271   -0.200791   -0.005424
      8          8           0        2.265844   -1.440651    0.002668
      9          7           0        0.078590    2.212558   -0.001368
     10          8           0        2.394286    0.818394    0.003054
     11          1           0       -2.379234   -2.493834   -0.000439
     12          1           0       -3.694852   -0.349813    0.003400
     13          1           0       -2.533840    1.837178    0.003073
     14          1           0        0.118040   -2.388064   -0.004215
     15          1           0        3.231402   -1.269089    0.007561
     16          1           0        1.100533    2.243962   -0.003881
     17          1           0       -0.474854    3.062058    0.000087
 ---------------------------------------------------------------------
                    Distance matrix (angstroms):
                    1          2          3          4          5
     1  C    0.000000
     2  C    1.412337   0.000000
     3  C    2.438807   1.391021   0.000000
     4  C    2.852550   2.450720   1.422396   0.000000
     5  C    2.452413   2.818069   2.450867   1.436699   0.000000
     6  C    1.392247   2.415382   2.799926   2.463489   1.416775
     7  C    3.789776   4.286045   3.802202   2.518115   1.468028
     8  O    4.131927   4.992604   4.828303   3.708910   2.378868
     9  N    4.216295   3.688296   2.413887   1.363953   2.448991
    10  O    4.863419   5.123058   4.347796   2.932238   2.418031
    11  H    1.093274   2.182139   3.428746   3.945820   3.442636
    12  H    2.176762   1.095156   2.149015   3.435537   3.913203
    13  H    3.431933   2.161088   1.095787   2.171781   3.442184
    14  H    2.161260   3.413628   3.892721   3.443393   2.157774
    15  H    5.103168   5.907698   5.622684   4.391702   3.188048
    16  H    4.798986   4.503659   3.332510   2.057129   2.629531
    17  H    4.796923   3.996783   2.611994   2.069595   3.366376
                    6          7          8          9         10
     6  C    0.000000
     7  C    2.503700   0.000000
     8  O    2.740164   1.369506   0.000000
     9  N    3.723336   2.898703   4.257937   0.000000
    10  O    3.669139   1.242148   2.262694   2.702991   0.000000
    11  H    2.162989   4.665849   4.762978   5.309522   5.810109
    12  H    3.409783   5.381194   6.059689   4.561210   6.200187
    13  H    3.895710   4.684640   5.812154   2.639265   5.032330
    14  H    1.092900   2.690213   2.347488   4.600792   3.932267
    15  H    3.710995   1.880171   0.980694   4.697038   2.249082
    16  H    4.033561   2.513478   3.864501   1.022428   1.925121
    17  H    4.531579   3.912549   5.271226   1.013881   3.642253
                   11         12         13         14         15
    11  H    0.000000
    12  H    2.515491   0.000000
    13  H    4.333773   2.476061   0.000000
    14  H    2.499516   4.323503   4.988506   0.000000
    15  H    5.742761   6.986994   6.548812   3.308363   0.000000
    16  H    5.878393   5.451921   3.657074   4.735078   4.108804
    17  H    5.873211   4.691403   2.395780   5.482278   5.700459
                   16         17
    16  H    0.000000
    17  H    1.775145   0.000000
 Stoichiometry    C7H7NO2
 Framework group  C1[X(C7H7NO2)]
 Deg. of freedom    45
 Full point group                 C1      NOp   1
 Largest Abelian subgroup         C1      NOp   1
 Largest concise Abelian subgroup C1      NOp   1
                         Standard orientation:                         
 ---------------------------------------------------------------------
 Center     Atomic      Atomic             Coordinates (Angstroms)
 Number     Number       Type             X           Y           Z
 ---------------------------------------------------------------------
      1          6           0       -1.868349   -1.526455   -0.000326
      2          6           0       -2.601314   -0.319205    0.001818
      3          6           0       -1.951903    0.910919    0.001684
      4          6           0       -0.531918    0.993663   -0.000631
      5          6           0        0.215443   -0.233346   -0.002879
      6          6           0       -0.477281   -1.469220   -0.002438
      7          6           0        1.683174   -0.203937   -0.005219
      8          8           0        2.262768   -1.444724    0.002873
      9          7           0        0.081347    2.211970   -0.001163
     10          8           0        2.394815    0.814114    0.003260
     11          1           0       -2.383985   -2.490493   -0.000234
     12          1           0       -3.696180   -0.344375    0.003606
     13          1           0       -2.531679    1.840760    0.003279
     14          1           0        0.113455   -2.388708   -0.004010
     15          1           0        3.228599   -1.274703    0.007766
     16          1           0        1.103338    2.241745   -0.003676
     17          1           0       -0.470741    3.062353    0.000292
 ---------------------------------------------------------------------
 Rotational constants (GHZ):      2.2741262      1.2004525      0.7857036
 Standard basis: 6-31+G(d,p) (6D, 7F)
 There are   225 symmetry adapted cartesian basis functions of A   symmetry.
 There are   225 symmetry adapted basis functions of A   symmetry.
   225 basis functions,   369 primitive gaussians,   225 cartesian basis functions
    36 alpha electrons       36 beta electrons
       nuclear repulsion energy       497.8444546233 Hartrees.
 NAtoms=   17 NActive=   17 NUniq=   17 SFac= 1.00D+00 NAtFMM=   60 NAOKFM=F Big=F
 Integral buffers will be    131072 words long.
 Raffenetti 2 integral format.
 Two-electron integral symmetry is turned on.
 Nuclear repulsion after empirical dispersion term =      497.8262864155 Hartrees.
 One-electron integrals computed using PRISM.
 NBasis=   225 RedAO= T EigKep=  2.88D-06  NBF=   225
 NBsUse=   225 1.00D-06 EigRej= -1.00D+00 NBFU=   225
 Initial guess from the checkpoint file:  "gd3pbeAnthranilic.chk"
 B after Tr=     0.000000   -0.000000    0.000000
         Rot=    0.999996   -0.000029    0.000065   -0.002757 Ang=  -0.32 deg.
 ExpMin= 4.38D-02 ExpMax= 5.48D+03 ExpMxC= 8.25D+02 IAcc=2 IRadAn=         4 AccDes= 0.00D+00
 Harris functional with IExCor= 1009 and IRadAn=       4 diagonalized for initial guess.
 HarFok:  IExCor= 1009 AccDes= 0.00D+00 IRadAn=         4 IDoV= 1 UseB2=F ITyADJ=14
 ICtDFT=  3500011 ScaDFX=  1.000000  1.000000  1.000000  1.000000
 FoFCou: FMM=F IPFlag=           0 FMFlag=      100000 FMFlg1=           0
         NFxFlg=           0 DoJE=T BraDBF=F KetDBF=T FulRan=T
         wScrn=  0.000000 ICntrl=     500 IOpCl=  0 I1Cent=   200000004 NGrid=           0
         NMat0=    1 NMatS0=      1 NMatT0=    0 NMatD0=    1 NMtDS0=    0 NMtDT0=    0
 Petite list used in FoFCou.
 Keep J ints in memory in canonical form, NReq=329175655.
 Requested convergence on RMS density matrix=1.00D-08 within 128 cycles.
 Requested convergence on MAX density matrix=1.00D-06.
 Requested convergence on             energy=1.00D-06.
 No special actions if energy rises.
 SCF Done:  E(RPBE-PBE) =  -475.686889014     A.U. after   12 cycles
            NFock= 12  Conv=0.74D-08     -V/T= 2.0098
 Calling FoFJK, ICntrl=      2527 FMM=F ISym2X=0 I1Cent= 0 IOpClX= 0 NMat=1 NMatS=1 NMatT=0.
 ***** Axes restored to original set *****
 -------------------------------------------------------------------
 Center     Atomic                   Forces (Hartrees/Bohr)
 Number     Number              X              Y              Z
 -------------------------------------------------------------------
      1        6           0.000017716    0.000015866    0.000050052
      2        6           0.000013023   -0.000059102   -0.000006381
      3        6           0.000075193   -0.000247070    0.000046824
      4        6          -0.000350873   -0.000260037   -0.000124023
      5        6           0.000525373    0.000408311   -0.000550620
      6        6          -0.000197593   -0.000190183   -0.000102776
      7        6          -0.000842468    0.000449092    0.002138459
      8        8           0.000577382   -0.000382186   -0.000624089
      9        7           0.001084090   -0.000153786   -0.000026814
     10        8          -0.001113375    0.000428028   -0.000854708
     11        1           0.000205643    0.000366963    0.000014586
     12        1           0.000402215    0.000001453   -0.000009275
     13        1           0.000250524   -0.000335852    0.000002210
     14        1          -0.000283820    0.000407620   -0.000009193
     15        1          -0.000508390    0.000166917   -0.000014711
     16        1          -0.000273807   -0.000099145    0.000077188
     17        1           0.000419166   -0.000516889   -0.000006728
 -------------------------------------------------------------------
 Cartesian Forces:  Max     0.002138459 RMS     0.000493117

 GradGradGradGradGradGradGradGradGradGradGradGradGradGradGradGradGradGrad
 Berny optimization.
 Using GEDIIS/GDIIS optimizer.
 FormGI is forming the generalized inverse of G from B-inverse, IUseBI=4.
 Internal  Forces:  Max     0.002842030 RMS     0.000723369
 Search for a local minimum.
 Step number   3 out of a maximum of   86
 All quantities printed in internal units (Hartrees-Bohrs-Radians)
 Mixed Optimization -- En-DIIS/RFO-DIIS
 Swapping is turned off.
 Update second derivatives using D2CorX and points    1    2    3
 DE= -6.65D-06 DEPred=-6.74D-05 R= 9.86D-02
 Trust test= 9.86D-02 RLast= 3.41D-02 DXMaxT set to 1.50D-01
 ITU= -1  1  0
     Eigenvalues ---    0.01214   0.01648   0.01802   0.01889   0.01939
     Eigenvalues ---    0.02040   0.02056   0.02101   0.02139   0.02161
     Eigenvalues ---    0.02188   0.02192   0.02209   0.02219   0.13286
     Eigenvalues ---    0.16000   0.16000   0.16000   0.16000   0.16003
     Eigenvalues ---    0.16046   0.22001   0.22344   0.22868   0.24475
     Eigenvalues ---    0.25000   0.25072   0.34001   0.35141   0.35222
     Eigenvalues ---    0.35324   0.35493   0.37060   0.40669   0.42266
     Eigenvalues ---    0.44019   0.45051   0.46671   0.46774   0.49537
     Eigenvalues ---    0.50226   0.52418   0.53667   0.59450   0.84196
 En-DIIS/RFO-DIIS IScMMF=        0 using points:     3    2
 RFO step:  Lambda=-5.58572666D-05.
 DidBck=T Rises=F RFO-DIIS coefs:    0.52925    0.47075
 Iteration  1 RMS(Cart)=  0.00757074 RMS(Int)=  0.00004847
 Iteration  2 RMS(Cart)=  0.00006441 RMS(Int)=  0.00002175
 Iteration  3 RMS(Cart)=  0.00000000 RMS(Int)=  0.00002175
 Variable       Old X    -DE/DX   Delta X   Delta X   Delta X     New X
                                 (Linear)    (Quad)   (Total)
    R1        2.66893  -0.00021   0.00034  -0.00072  -0.00039   2.66854
    R2        2.63097  -0.00039   0.00031  -0.00090  -0.00058   2.63039
    R3        2.06599  -0.00042  -0.00041   0.00007  -0.00034   2.06565
    R4        2.62865  -0.00020   0.00024  -0.00056  -0.00033   2.62832
    R5        2.06955  -0.00040  -0.00038   0.00005  -0.00033   2.06921
    R6        2.68794  -0.00055   0.00011  -0.00086  -0.00075   2.68718
    R7        2.07074  -0.00042  -0.00045   0.00014  -0.00031   2.07043
    R8        2.71497  -0.00206  -0.00266   0.00169  -0.00097   2.71400
    R9        2.57750  -0.00014   0.00090  -0.00160  -0.00070   2.57680
   R10        2.67732  -0.00035   0.00014  -0.00066  -0.00052   2.67680
   R11        2.77417  -0.00187   0.00049  -0.00351  -0.00302   2.77115
   R12        2.06528  -0.00050  -0.00049   0.00009  -0.00040   2.06488
   R13        2.58799   0.00022  -0.00122   0.00224   0.00102   2.58901
   R14        2.34732  -0.00029  -0.00180   0.00280   0.00100   2.34832
   R15        1.85324  -0.00047  -0.00154   0.00208   0.00054   1.85378
   R16        1.93211  -0.00028  -0.00156   0.00226   0.00070   1.93281
   R17        1.91596  -0.00066  -0.00051   0.00011  -0.00040   1.91556
    A1        2.07533  -0.00008  -0.00017   0.00031   0.00014   2.07546
    A2        2.10479   0.00005   0.00003  -0.00004  -0.00001   2.10478
    A3        2.10307   0.00003   0.00014  -0.00027  -0.00013   2.10294
    A4        2.11021   0.00002  -0.00016   0.00050   0.00035   2.11055
    A5        2.09346  -0.00002   0.00005  -0.00023  -0.00018   2.09328
    A6        2.07952  -0.00000   0.00011  -0.00027  -0.00017   2.07935
    A7        2.11474  -0.00028  -0.00017  -0.00037  -0.00053   2.11420
    A8        2.09832   0.00017   0.00004   0.00037   0.00042   2.09874
    A9        2.07013   0.00010   0.00013  -0.00001   0.00012   2.07025
   A10        2.05967   0.00015   0.00017  -0.00009   0.00009   2.05976
   A11        2.09535   0.00194   0.00143   0.00181   0.00324   2.09858
   A12        2.12817  -0.00210  -0.00161  -0.00172  -0.00333   2.12484
   A13        2.08363   0.00064   0.00085  -0.00015   0.00070   2.08433
   A14        2.09784  -0.00284  -0.00365   0.00006  -0.00359   2.09425
   A15        2.10171   0.00220   0.00280   0.00010   0.00290   2.10461
   A16        2.12280  -0.00047  -0.00053  -0.00020  -0.00074   2.12206
   A17        2.10073   0.00022   0.00009   0.00033   0.00042   2.10116
   A18        2.05966   0.00025   0.00044  -0.00013   0.00031   2.05997
   A19        1.98774   0.00117  -0.00045   0.00330   0.00274   1.99048
   A20        2.20087  -0.00193  -0.00403   0.00265  -0.00149   2.19938
   A21        2.09446   0.00078   0.00454  -0.00565  -0.00122   2.09324
   A22        1.83357  -0.00047   0.00171  -0.00435  -0.00264   1.83092
   A23        2.06626  -0.00016   0.00268  -0.00493  -0.00225   2.06402
   A24        2.09942   0.00015   0.00004   0.00042   0.00046   2.09988
   A25        2.11750   0.00001  -0.00272   0.00450   0.00179   2.11929
    D1        0.00013  -0.00001  -0.00008  -0.00016  -0.00024  -0.00012
    D2       -3.14148  -0.00001  -0.00007  -0.00014  -0.00021   3.14150
    D3       -3.14157  -0.00000  -0.00002  -0.00003  -0.00005   3.14157
    D4        0.00001  -0.00000  -0.00001  -0.00001  -0.00002  -0.00000
    D5       -0.00033   0.00003   0.00020   0.00039   0.00059   0.00027
    D6        3.14147   0.00001   0.00007   0.00016   0.00023  -3.14148
    D7        3.14137   0.00002   0.00014   0.00026   0.00040  -3.14142
    D8       -0.00002   0.00000   0.00001   0.00003   0.00004   0.00002
    D9        0.00002  -0.00000  -0.00001  -0.00002  -0.00002  -0.00001
   D10        3.14151   0.00001   0.00005   0.00013   0.00019  -3.14149
   D11       -3.14156  -0.00000  -0.00002  -0.00004  -0.00006   3.14156
   D12       -0.00007   0.00001   0.00005   0.00011   0.00015   0.00008
   D13        0.00004  -0.00000  -0.00002  -0.00002  -0.00005  -0.00001
   D14        3.14121   0.00003   0.00024   0.00054   0.00078  -3.14119
   D15       -3.14146  -0.00001  -0.00009  -0.00017  -0.00026   3.14147
   D16       -0.00028   0.00002   0.00017   0.00039   0.00057   0.00029
   D17       -0.00023   0.00002   0.00014   0.00024   0.00038   0.00016
   D18       -3.14151  -0.00001  -0.00004  -0.00013  -0.00017   3.14150
   D19       -3.14140  -0.00002  -0.00012  -0.00034  -0.00046   3.14133
   D20        0.00050  -0.00004  -0.00030  -0.00071  -0.00102  -0.00051
   D21       -3.14066  -0.00008  -0.00054  -0.00118  -0.00173   3.14079
   D22        0.00024  -0.00002  -0.00016  -0.00036  -0.00053  -0.00029
   D23        0.00050  -0.00005  -0.00027  -0.00059  -0.00087  -0.00037
   D24        3.14140   0.00001   0.00011   0.00022   0.00033  -3.14146
   D25        0.00038  -0.00003  -0.00024  -0.00043  -0.00067  -0.00029
   D26       -3.14142  -0.00001  -0.00011  -0.00021  -0.00032   3.14145
   D27       -3.14152  -0.00001  -0.00005  -0.00006  -0.00011   3.14156
   D28       -0.00013   0.00001   0.00007   0.00017   0.00024   0.00012
   D29        3.13354   0.00053   0.00499   0.00961   0.01462  -3.13503
   D30        0.00873  -0.00057  -0.00543  -0.01089  -0.01634  -0.00762
   D31       -0.00774   0.00051   0.00480   0.00923   0.01405   0.00631
   D32       -3.13256  -0.00059  -0.00562  -0.01127  -0.01691   3.13372
   D33       -3.13366  -0.00051  -0.00495  -0.00972  -0.01463   3.13490
   D34       -0.00772   0.00049   0.00481   0.00949   0.01426   0.00654
         Item               Value     Threshold  Converged?
 Maximum Force            0.002842     0.000450     NO 
 RMS     Force            0.000723     0.000300     NO 
 Maximum Displacement     0.026021     0.001800     NO 
 RMS     Displacement     0.007569     0.001200     NO 
 Predicted change in Energy=-4.804292D-05
 GradGradGradGradGradGradGradGradGradGradGradGradGradGradGradGradGradGrad

                          Input orientation:                          
 ---------------------------------------------------------------------
 Center     Atomic      Atomic             Coordinates (Angstroms)
 Number     Number       Type             X           Y           Z
 ---------------------------------------------------------------------
      1          6           0       -1.866922   -1.529250    0.000529
      2          6           0       -2.600746   -0.322761   -0.001284
      3          6           0       -1.952826    0.907953   -0.001189
      4          6           0       -0.533289    0.991542    0.000741
      5          6           0        0.214664   -0.234506    0.002613
      6          6           0       -0.476198   -1.471108    0.002285
      7          6           0        1.680659   -0.198833    0.004519
      8          8           0        2.269197   -1.436008   -0.002026
      9          7           0        0.083006    2.207903    0.001270
     10          8           0        2.386696    0.823763   -0.002944
     11          1           0       -2.381709   -2.493537    0.000468
     12          1           0       -3.695411   -0.348999   -0.002770
     13          1           0       -2.533194    1.837232   -0.002511
     14          1           0        0.115420   -2.389779    0.003601
     15          1           0        3.233621   -1.256606   -0.006209
     16          1           0        1.105501    2.232702    0.003389
     17          1           0       -0.466337    3.059810    0.000034
 ---------------------------------------------------------------------
                    Distance matrix (angstroms):
                    1          2          3          4          5
     1  C    0.000000
     2  C    1.412132   0.000000
     3  C    2.438717   1.390848   0.000000
     4  C    2.851836   2.449852   1.421997   0.000000
     5  C    2.451401   2.816796   2.450151   1.436186   0.000000
     6  C    1.391940   2.415040   2.800067   2.463312   1.416501
     7  C    3.788845   4.283202   3.798318   2.513677   1.466429
     8  O    4.137171   4.995565   4.829041   3.707686   2.380070
     9  N    4.215274   3.688739   2.415468   1.363582   2.445955
    10  O    4.861064   5.117528   4.340338   2.924804   2.416130
    11  H    1.093095   2.181799   3.428422   3.944925   3.441567
    12  H    2.176322   1.094981   2.148612   3.434542   3.911755
    13  H    3.431782   2.161049   1.095622   2.171364   3.441344
    14  H    2.161064   3.413231   3.892647   3.442987   2.157557
    15  H    5.107829   5.908632   5.620015   4.386779   3.187298
    16  H    4.794537   4.501853   3.332918   2.055753   2.623110
    17  H    4.798032   3.999687   2.615366   2.069352   3.363969
                    6          7          8          9         10
     6  C    0.000000
     7  C    2.504140   0.000000
     8  O    2.745623   1.370045   0.000000
     9  N    3.721267   2.888751   4.249415   0.000000
    10  O    3.669144   1.242678   2.262824   2.687535   0.000000
    11  H    2.162484   4.665674   4.769623   5.308329   5.808802
    12  H    3.409177   5.378171   6.062850   4.562258   6.194142
    13  H    3.895686   4.679975   5.811804   2.642332   5.023190
    14  H    1.092689   2.692623   2.355519   4.597797   3.935173
    15  H    3.716025   1.879013   0.980977   4.682868   2.246158
    16  H    4.027404   2.498634   3.848851   1.022798   1.904365
    17  H    4.530929   3.902354   5.262655   1.013670   3.624874
                   11         12         13         14         15
    11  H    0.000000
    12  H    2.514929   0.000000
    13  H    4.333419   2.475955   0.000000
    14  H    2.499286   4.322876   4.988268   0.000000
    15  H    5.749955   6.988222   6.544311   3.317734   0.000000
    16  H    5.873498   5.451053   3.660128   4.727324   4.087084
    17  H    5.874378   4.695413   2.401375   5.480554   5.685172
                   16         17
    16  H    0.000000
    17  H    1.776174   0.000000
 Stoichiometry    C7H7NO2
 Framework group  C1[X(C7H7NO2)]
 Deg. of freedom    45
 Full point group                 C1      NOp   1
 Largest Abelian subgroup         C1      NOp   1
 Largest concise Abelian subgroup C1      NOp   1
                         Standard orientation:                         
 ---------------------------------------------------------------------
[...]
 ! D32   D(6,5,7,10)           179.9968         -DE/DX =    0.0                 !
 ! D33   D(5,7,8,15)           179.9989         -DE/DX =    0.0                 !
 ! D34   D(10,7,8,15)           -0.0003         -DE/DX =    0.0                 !
 --------------------------------------------------------------------------------
 GradGradGradGradGradGradGradGradGradGradGradGradGradGradGradGradGradGrad

 1\1\ WCSS.PL-BEM-QINLAB\Freq\RPBEPBE\6-31+G(d,p)\C7H7N1O2\PHZD\22-Jun-
 2024\0\\#N Geom=AllCheck Guess=TCheck SCRF=Check GenChk RPBEPBE/6-31+G
 (d,p) Freq\\[No Title]\\0,1\C,-1.8668117626,-1.5294084949,0.0000463894
 \C,-2.6002994316,-0.3229099449,0.0000512719\C,-1.9524415984,0.90762898
 85,0.0000442535\C,-0.5331024051,0.991347471,0.0000327111\C,0.214296549
 2,-0.23471314,0.0000327929\C,-0.476335556,-1.4713364255,0.0000392965\C
 ,1.6792707043,-0.1984289776,0.0000186161\O,2.2686609735,-1.4349690323,
 0.0000651762\N,0.0844183051,2.2070841496,0.000031078\O,2.3833122722,0.
 825242599,-0.0000448712\H,-2.3815734453,-2.4932017871,0.0000476048\H,-
 3.69453931,-0.3490896323,0.0000576188\H,-2.5326393466,1.8364536339,0.0
 00046621\H,0.1150690681,-2.3896067981,0.000035499\H,3.2322437888,-1.25
 46089913,0.0000315614\H,1.1065954352,2.2309867747,-0.000022767\H,-0.46
 39912408,3.0590426072,0.0000021475\\Version=ES64L-G09RevE.01\State=1-A
 \HF=-475.6869355\RMSD=8.952e-09\RMSF=2.613e-05\ZeroPoint=0.1283572\The
 rmal=0.136422\Dipole=-0.4482768,0.2768997,-0.0000227\DipoleDeriv=-0.51
 30522,0.2263057,-0.000917,0.1754484,-0.1621071,0.005975,0.0025432,-0.0
 040195,-0.1847225,0.1493094,0.0135146,-0.003149,-0.2518269,0.4477502,0
 .0002335,-0.0013767,0.0021692,-0.1046279,-0.1218423,-0.5911687,0.00313
 33,-0.0436677,-0.1590552,-0.0089415,-0.0007224,0.0011477,-0.1873978,0.
 3519883,0.7470203,-0.0096472,0.292228,1.158194,0.010791,-0.008312,0.01
 31282,0.0790422,-0.9648639,0.2941294,0.0024493,-0.3139488,-0.3302554,-
 0.0027341,0.0130727,-0.0206277,-0.0211144,0.5010775,-0.0835594,0.00208
 08,0.4051456,0.0391048,-0.004461,-0.0040613,0.0063956,-0.1014788,2.218
 5714,-0.2978027,-0.0011913,-0.1170701,1.4435491,0.0004039,-0.0009759,0
 .0014527,0.2330898,-0.8129815,0.5207577,0.0000971,0.6556784,-1.0262251
 ,-0.0000031,-0.0012321,0.0019181,-0.3414528,-0.4108364,-0.5137939,0.00
 34987,-0.2953614,-1.194947,0.000314,-0.0002996,0.0004088,-0.5074759,-1
 .1516733,-0.2560354,0.001343,-0.3833772,-0.8601712,0.000149,0.0006901,
 -0.0010148,-0.3440837,0.0173462,-0.0629273,0.0001123,-0.0712571,-0.069
 7328,0.0007521,-0.0005493,0.0008743,0.1515957,-0.1046484,-0.0112809,0.
 0018948,-0.0025403,0.080372,0.000172,0.0003735,-0.0005852,0.1309677,0.
 0213248,0.0471112,-0.0002648,0.0850456,-0.0984301,0.0005344,0.0000696,
 -0.0001058,0.1427054,0.0761324,0.0560834,0.0008484,0.0437008,0.0068961
 ,-0.0012016,-0.0002544,0.0004069,0.1285,0.2810058,-0.0728426,-0.000202
 4,-0.1411832,0.2709078,-0.0009613,0.0004478,-0.0006796,0.3256608,0.349
 752,-0.053168,0.0013487,-0.0416828,0.2332523,-0.0005615,0.0004823,-0.0
 007317,0.2846436,0.1133902,0.0376566,-0.0014347,0.0046684,0.2208976,-0
 .0004605,0.0001045,-0.0001374,0.3161486\Polar=136.428639,3.5870807,120
 .644927,-0.0048927,0.0048326,55.2247994\PG=C01 [X(C7H7N1O2)]\NImag=1\\
 0.67059224,0.03973374,0.68438435,0.00003806,0.00005223,0.11005736,-0.1
 6591591,0.11458542,-0.00002822,0.70161648,0.06128983,-0.26054093,-0.00
 015069,0.01828005,0.65681339,-0.00001932,-0.00004139,-0.05613398,0.000
 01845,0.00007948,0.12619868,0.04856239,-0.01280561,-0.00010579,-0.1697
 8075,-0.07954646,0.00005094,0.63353458,0.01943860,-0.05295442,-0.00001
 027,-0.12842070,-0.31010550,0.00002585,0.00636455,0.72503544,-0.000007
 87,-0.00003964,0.00824894,0.00002243,0.00004173,-0.05069426,0.00001226
 ,0.00003980,0.10937603,-0.04363435,0.02433427,0.00014100,-0.01898970,-
 0.06580202,-0.00005479,-0.28288213,0.03008856,0.00000371,0.65791392,0.
 01975196,-0.00323766,0.00003397,-0.03455258,0.01641897,-0.00004098,-0.
 01797993,-0.11220283,-0.00005530,0.04151002,0.69811300,-0.00013161,-0.
 00018151,-0.00508241,0.00010089,0.00048942,0.00111567,0.00034032,0.000
 05160,-0.06467168,-0.00044436,-0.00013570,0.15678729,-0.03640369,-0.02
 269646,0.00004460,-0.00098429,-0.01128271,-0.00002902,-0.01581435,0.02
 285844,-0.00002290,-0.16511285,0.07589773,-0.00014905,0.60807999,-0.05
 450443,0.01469221,-0.00011785,0.00517864,-0.04007436,0.00006939,0.0411
 6828,0.02401668,0.00004456,0.04915378,-0.21637771,0.00039230,0.0158047
 4,0.65609387,0.00020937,0.00027491,0.00842425,-0.00015297,-0.00076943,
 -0.00541498,-0.00053750,-0.00006624,0.00757407,0.00070919,0.00019148,-
 0.06349595,0.00022737,-0.00061531,0.12307827,-0.35471525,-0.03664144,-
 0.00003569,-0.03187911,0.06309690,0.00001566,-0.03518642,-0.02235242,0
 .00000186,0.05633665,-0.00685500,0.00011679,-0.14059696,-0.06109912,-0
 .00018751,0.69934461,0.01441971,-0.11339790,-0.00000209,0.02604535,0.0
 2525298,0.00001036,-0.01693792,-0.01377220,0.00001971,0.01846172,-0.04
 718958,0.00001511,-0.09217976,-0.26362614,-0.00001499,-0.03715189,0.66
 196742,-0.00006363,-0.00008419,-0.05665149,0.00004726,0.00023811,0.006
 72226,0.00016734,0.00001937,-0.00379059,-0.00022135,-0.00005756,0.0016
 7300,-0.00007122,0.00018979,-0.05296317,0.00005537,0.00000428,0.128586
 65,0.01819725,-0.00607286,0.00002825,0.00033083,0.01205371,-0.00001270
 ,-0.00657428,-0.00070062,-0.00000249,-0.01224592,0.03760404,-0.0000901
 0,-0.20475701,0.00377548,0.00014413,-0.03380691,-0.02667905,-0.0000436
 8,0.69224874,-0.00169274,-0.00744083,0.00006022,-0.00000448,-0.0003916
 6,-0.00003331,0.00101814,-0.00636718,-0.00001866,0.03057726,0.01856246
 ,-0.00019770,0.01577106,-0.09507537,0.00030927,-0.03034237,0.00581948,
 -0.00009567,0.13892340,0.72731259,-0.00001090,-0.00004785,0.00729365,0
 .00002593,0.00005414,-0.00092116,0.00002413,0.00004708,0.00547828,-0.0
 0000578,-0.00006584,-0.00060990,-0.00002736,0.00005690,-0.07012670,0.0
 0000403,0.00002246,-0.00390424,-0.00001955,-0.00005050,0.19060947,-0.0
 0196874,0.00162193,0.00004485,-0.00068295,-0.00087763,-0.00002425,-0.0
 0005513,0.00161200,-0.00001296,-0.00581856,-0.00889963,-0.00014618,-0.
 03300881,0.03958993,0.00022856,-0.00234414,0.00350590,-0.00007145,-0.1
 4417093,0.07258434,-0.00001887,0.60165683,0.00354520,0.00049491,0.0000
 3612,-0.00020172,0.00136802,-0.00001936,-0.00020628,0.00078132,-0.0000
 0994,-0.00263078,0.00134797,-0.00011779,0.01993667,-0.00311031,0.00018
 570,-0.00451316,-0.00591374,-0.00005726,0.03454234,-0.20370874,-0.0000
 0701,0.01149871,0.36095795,-0.00001586,-0.00004535,-0.00066086,0.00002
 459,0.00006932,-0.00011342,0.00003817,0.00003628,-0.00067139,-0.000031
 38,-0.00005409,0.00243670,-0.00002972,0.00006509,0.00958152,0.00001016
 ,0.00001675,0.00065619,-0.00000922,-0.00002468,-0.05692835,-0.00003504
 ,-0.00003302,0.03277493,0.00800284,-0.00706399,-0.00000354,-0.00427915
 ,0.01422310,-0.00000561,-0.03759161,-0.05360326,-0.00001382,-0.1730740
 9,-0.09240915,0.00000531,0.02814279,0.01529770,-0.00001294,-0.01245043
 ,-0.00154006,0.00000468,-0.02024050,-0.00957318,-0.00001467,0.00233992
 ,0.00401584,-0.00001106,0.80721265,0.00045872,-0.00621244,0.00006559,0
 .00504439,0.00641046,-0.00003583,-0.02507256,-0.00956228,-0.00001943,-
 0.09930891,-0.31407546,-0.00021481,0.00189463,-0.04819085,0.00033680,0
 .00130021,0.00026591,-0.00010432,-0.01869778,-0.00461091,-0.00002558,0
 .00301278,-0.00251658,-0.00003160,-0.05040467,0.77232151,-0.00000376,-
 0.00001208,-0.00083787,0.00000668,0.00001771,0.00390542,0.00000904,0.0
 0001031,0.00983082,-0.00000369,-0.00001027,-0.03594605,-0.00000666,0.0
 0001615,0.00617976,0.00000207,0.00000457,0.00350408,-0.00000258,-0.000
 00759,-0.00061991,-0.00000520,-0.00000459,-0.00016716,-0.00002341,-0.0
 0002496,0.01306699,-0.00522522,-0.00062386,-0.00003367,0.00021277,-0.0
 0392403,0.00001523,0.00216032,0.00056166,0.00000362,0.00136463,-0.0099
 0137,0.00010685,-0.03568848,-0.04218152,-0.00016760,-0.00223516,0.0089
 7131,0.00005301,-0.27378008,-0.23146715,0.00002084,0.03317411,0.002664
 03,0.00001092,-0.00072545,0.01510411,0.00000271,0.29394620,-0.00695713
 ,0.00327611,-0.00007116,0.00056202,-0.00654266,0.00003794,0.00540873,0
 .00343517,0.00001908,-0.00467583,-0.02195439,0.00023166,-0.04020811,-0
 .00518286,-0.00036284,0.00599740,0.00679404,0.00011290,-0.21937051,-0.
 42288492,0.00004671,-0.01599186,-0.09740404,0.00003906,0.02264516,0.00
 289173,0.00000843,0.26774091,0.52552794,0.00000836,0.00002870,-0.00170
 113,-0.00001556,-0.00003798,0.00039044,-0.00001926,-0.00002558,-0.0007
 0144,0.00001149,0.00003720,-0.00049539,0.00001949,-0.00003579,0.017449
 02,-0.00000410,-0.00001230,0.00469359,0.00001963,0.00003804,-0.0695690
 4,0.00001221,0.00001518,0.02438463,0.00000770,0.00001720,0.00224894,-0
 .00002319,-0.00004653,0.03311863,-0.11396266,-0.11429275,0.00001581,0.
 01032943,0.01565934,-0.00000860,-0.00134518,0.00266394,-0.00000475,-0.
 00104465,0.00090847,-0.00005080,-0.00468239,0.00176235,0.00007973,-0.0
 1039072,-0.02792690,-0.00002466,0.00078371,-0.00162300,-0.00000627,-0.
 00020630,0.00026563,-0.00000763,0.00042942,-0.00011751,-0.00000193,-0.
 00097870,-0.00024302,0.00000432,0.11908627,-0.11448901,-0.26776751,0.0
 0003780,-0.01431464,-0.01776749,-0.00002170,0.00404746,-0.00234127,-0.
 00001370,0.00070891,0.00034074,-0.00012409,0.00051398,0.00147005,0.000
 19385,0.00199578,0.00221128,-0.00005999,0.00041901,0.00000431,-0.00001
 751,-0.00012943,0.00014973,-0.00002020,-0.00015576,0.00020719,-0.00000
 509,-0.00015155,-0.00002194,0.00001162,0.12225226,0.28296068,-0.000011
 37,0.00000568,-0.02804084,-0.00000261,0.00003385,0.00049857,0.00003235
 ,-0.00002311,0.00510842,-0.00005857,0.00002307,-0.00035646,-0.00000278
 ,0.00001847,0.00661683,0.00001421,-0.00001211,0.00086129,-0.00000964,-
 0.00001199,0.00145691,-0.00000959,-0.00000811,-0.00002642,0.00001070,-
 0.00001364,-0.00054707,0.00001117,0.00001610,-0.00062776,-0.00000346,-
 0.00000646,0.02173289,-0.01130349,-0.00318528,0.00007022,-0.32458261,-
 0.00695886,-0.00003998,-0.01054127,0.00183421,-0.00002752,0.00113639,-
 0.00165258,-0.00023264,0.00085960,-0.00032903,0.00036269,0.00019861,0.
 00334100,-0.00011213,0.00017129,0.00018010,-0.00003508,-0.00009624,0.0
 0012817,-0.00003944,-0.00080821,0.00016932,-0.00000997,-0.00016083,-0.
 00017950,0.00002295,0.00079462,0.00022526,-0.00001019,0.34429328,0.025
 53598,0.00552126,0.00000626,-0.00590773,-0.05471860,-0.00000376,-0.026
 96362,0.00254470,-0.00000237,-0.00180170,-0.00465523,-0.00002132,-0.00
 046880,-0.00103699,0.00003324,0.00268381,-0.00455187,-0.00001029,0.000
 34761,-0.00018517,-0.00000321,-0.00000922,0.00022437,-0.00000361,-0.00
 138202,0.00062662,-0.00000083,-0.00005332,0.00004225,0.00000209,-0.000
 43129,0.00086682,-0.00000093,0.00708551,0.05462089,0.00000302,0.000026
 00,0.00364589,-0.00001228,-0.00002047,-0.03561727,-0.00000498,-0.00002
 934,0.00348214,-0.00001018,0.00003858,0.00802661,0.00001390,-0.0000253
 5,-0.00067161,0.00000126,-0.00001422,0.00579764,0.00000029,0.00000997,
 -0.00115927,0.00000668,0.00000503,0.00022428,0.00001047,0.00001027,-0.
 00008050,-0.00000062,-0.00000966,0.00015645,0.00000252,0.00000767,-0.0
 0301565,0.00001395,0.00000137,0.02382320,-0.00042870,-0.00303103,-0.00
 003190,0.01054011,-0.01323123,0.00001770,-0.13068352,0.12147212,0.0000
 1054,-0.01195791,0.02661782,0.00010494,-0.00462260,-0.00211751,-0.0001
 6433,-0.00105952,-0.00099651,0.00005093,0.00037443,0.00159026,0.000013
 07,-0.00081797,-0.00000930,0.00001587,0.00193570,0.00119874,0.00000381
 ,-0.00007402,-0.00029710,-0.00000892,0.00039924,-0.00075997,0.00000633
 ,0.00080977,0.00017667,-0.00000539,0.13639272,-0.00433472,-0.00221163,
 0.00005395,0.01633714,-0.01901546,-0.00003017,0.12142809,-0.24392666,-
 0.00001769,-0.00389989,0.00121507,-0.00017689,-0.00001764,0.00115942,0
 .00027738,-0.00067374,-0.00003416,-0.00008591,-0.00102562,-0.00016231,
 -0.00002248,0.00022254,-0.00001979,-0.00002705,-0.00087971,0.00237362,
 -0.00000684,0.00031738,0.00034586,0.00001525,0.00089462,-0.00097742,-0
 .00001043,-0.00003975,0.00090152,0.00000929,-0.12947950,0.26026014,-0.
 00000072,0.00001264,0.00677903,-0.00000679,-0.00000304,0.00163060,0.00
 000399,-0.00001764,-0.02898496,-0.00001490,0.00002109,0.00334155,0.000
 00578,-0.00000806,0.00444792,0.00000310,-0.00000847,-0.00063118,-0.000
 00155,0.00000233,0.00009235,0.00000130,0.00000082,-0.00003481,0.000006
 62,0.00000209,-0.00242559,0.00000170,-0.00000149,0.00000423,0.00000058
 ,0.00000234,0.00066610,0.00000524,0.00000047,-0.00421901,-0.00000190,0
 .00000275,0.02041411,-0.01039553,0.02523606,-0.00003879,-0.00530811,-0
 .00136557,0.00001912,-0.00047576,-0.00073671,0.00000719,-0.00115272,-0
 .00306279,0.00012506,0.00970918,-0.01250182,-0.00019811,-0.13283206,0.
 12727996,0.00006223,0.00167996,-0.00159981,0.00001034,-0.00404051,-0.0
 0051027,0.00001501,0.00037365,-0.00071110,0.00000375,0.00011917,0.0009
 5576,-0.00000791,0.00097451,-0.00020848,0.00001100,-0.00068210,0.00130
 443,-0.00000284,0.00007076,0.00010792,0.00000067,0.14180636,-0.0032736
 1,0.00541444,0.00006609,-0.00095568,0.00112607,-0.00003292,-0.00024430
 ,-0.00017037,-0.00001328,-0.00454095,-0.00172108,-0.00021316,0.0141177
 6,-0.01837308,0.00033730,0.12479778,-0.25134033,-0.00010551,0.00270513
 ,-0.00263726,-0.00001859,0.00017765,0.00154245,-0.00002666,0.00127144,
 -0.00080661,-0.00000652,-0.00025794,0.00088760,0.00001393,0.00021056,0
 .00075337,-0.00001806,-0.00020463,0.00016926,0.00000559,0.00010517,0.0
 0000333,-0.00000069,-0.13396493,0.26493706,-0.00000432,-0.00000366,0.0
 0449012,0.00000206,0.00001537,0.00713588,0.00001165,-0.00000161,-0.000
 78536,-0.00001712,-0.00000023,0.00518987,-0.00000366,0.00001138,0.0026
 7541,0.00000499,-0.00000203,-0.03506750,-0.00000333,-0.00000599,-0.003
 43981,-0.00000465,-0.00000373,0.00054164,0.00000138,-0.00000661,0.0003
 9584,0.00000387,0.00000738,0.00049351,-0.00000157,-0.00000359,-0.00418
 667,-0.00000658,-0.00000061,-0.00012823,0.00000317,-0.00000533,-0.0008
 2949,0.00000346,-0.00000628,0.02382781,0.00050926,-0.00050203,-0.00006
 493,0.00021726,0.00038750,0.00003530,-0.00018917,0.00080440,0.00001896
 ,-0.00070001,-0.00075358,0.00021213,0.00208622,0.00331928,-0.00033332,
 0.00031092,0.00001866,0.00010336,-0.03352132,0.00598537,0.00002547,-0.
 44244571,-0.06373558,0.00004514,0.00043054,-0.00055923,0.00000771,0.00
 247682,-0.00833222,-0.00001701,-0.00001273,-0.00004094,0.00001379,-0.0
 0009580,-0.00000660,-0.00000983,-0.00005323,-0.00008002,-0.00000195,-0
 .00006341,0.00001297,0.00000656,0.47163991,-0.00024322,0.00033298,-0.0
 0000562,-0.00013193,-0.00005296,0.00000508,0.00015778,-0.00043200,0.00
 000565,0.00148647,0.00087126,0.00002033,0.00129243,-0.00650261,-0.0000
 2978,-0.00087873,-0.00065596,0.00000918,0.05155649,0.00756866,0.000005
 32,-0.10851205,-0.05927961,0.00001098,-0.00067471,0.00023019,0.0000016
 0,-0.00781068,0.00108207,-0.00000402,-0.00004402,-0.00004849,-0.000001
 50,-0.00009689,0.00003192,-0.00000381,0.00016718,-0.00002539,-0.000001
 97,0.00020146,0.00063484,0.00000031,0.06281335,0.05701290,0.00000461,0
 .00002287,0.00021051,-0.00001229,-0.00002444,0.00007183,-0.00001012,-0
 .00002295,-0.00033253,0.00000034,0.00003147,0.00101315,0.00001328,-0.0
 0002582,0.00386168,-0.00000127,-0.00001099,-0.00042395,0.00000019,0.00
 001089,0.00314607,0.00002419,0.00000968,-0.01288809,0.00000775,0.00001
 159,-0.00001638,-0.00000226,-0.00001165,-0.00556876,0.00000285,0.00000
 804,-0.00001856,0.00001618,0.00000148,-0.00003541,-0.00000596,0.000010
 25,-0.00001700,-0.00000440,0.00000817,-0.00033121,-0.00002616,-0.00000
 709,0.01130784,-0.00231741,0.00177860,-0.00010294,-0.00041928,-0.00331
 574,0.00005247,0.00580637,0.00194220,0.00002308,-0.01337610,-0.0138157
 1,0.00033375,-0.00710701,0.00173116,-0.00052651,0.00103230,0.00195488,
 0.00016323,0.01903054,0.01275779,0.00003070,-0.00194733,-0.00585512,0.
 00004383,-0.41239728,-0.01094987,0.00003138,-0.01261290,-0.01205921,-0
 .00002279,-0.00011927,-0.00002142,0.00002665,-0.00003283,-0.00011730,-
 0.00001037,-0.00015018,0.00006806,0.00000008,0.00025111,0.00033887,0.0
 0001089,-0.00068442,0.00096777,-0.00001395,0.42390325,0.00196363,-0.00
 110297,-0.00000093,-0.00150847,0.00297103,0.00000165,-0.00283854,-0.00
 716199,0.00000273,-0.03121175,0.00900619,0.00000579,0.00448644,0.00051
 496,-0.00000559,-0.00140547,-0.00140151,0.00000166,-0.00994439,-0.0154
 5619,0.00000384,0.00077067,0.00455977,0.00000213,-0.01451186,-0.068557
 21,0.00000268,0.00168511,0.00904965,-0.00000200,0.00013660,-0.00004158
 ,-0.00000140,-0.00026304,-0.00044131,-0.00000188,-0.00005881,0.0001330
 5,-0.00000109,-0.00009671,-0.00008343,-0.00000008,0.00050937,-0.000740
 87,-0.00000148,0.02865060,0.06291496,0.00000602,0.00001992,0.00013285,
 -0.00001082,-0.00002765,0.00196116,-0.00001423,-0.00001728,0.00388812,
 0.00000855,0.00002400,-0.00402478,0.00001233,-0.00002657,-0.00106113,-
 0.00000328,-0.00000795,-0.00061930,0.00000298,0.00001197,-0.00076591,0
 .00000859,0.00000693,0.00151392,0.00002996,0.00001580,-0.00216657,-0.0
 0000389,-0.00001302,-0.00506265,0.00000307,0.00000825,-0.00015374,0.00
 001624,0.00000146,-0.00041359,-0.00000634,0.00001092,-0.00074920,-0.00
 000578,0.00001023,-0.00003478,-0.00001240,-0.00000271,0.00005842,-0.00
 003807,-0.00000323,0.01309886,0.00040697,-0.00037471,0.00006270,-0.000
 42502,0.00131381,-0.00003058,0.00105591,-0.00382697,-0.00001132,0.0132
 3740,-0.01240774,-0.00020130,-0.00009933,-0.00404791,0.00031972,0.0002
 7358,-0.00058640,-0.00009927,-0.00371981,-0.00308499,-0.00001604,0.000
 43247,0.00106563,-0.00002434,-0.18730080,0.17763872,-0.00000994,-0.001
 97320,0.00500449,0.00001260,-0.00005460,0.00010853,-0.00001798,0.00003
 981,0.00000761,0.00000439,-0.00067507,0.00105485,-0.00000126,-0.000034
 50,-0.00029528,-0.00000681,0.00009486,-0.00025071,0.00000703,0.0011404
 6,0.02363663,0.00000710,0.17760087,-0.00064250,0.00075002,-0.00005363,
 -0.00003510,-0.00115131,0.00002969,0.00300217,0.00318342,0.00001674,0.
 01755087,-0.02446173,0.00017677,-0.00572038,-0.00039689,-0.00027575,0.
 00204145,-0.00042770,0.00008542,0.00056362,-0.00034697,0.00002212,-0.0
 0017663,0.00052633,0.00002665,0.17474511,-0.33079489,0.00001733,-0.000
 67311,0.00065838,-0.00001501,-0.00007528,0.00000153,0.00001059,-0.0000
 5400,0.00003957,-0.00000903,-0.00134701,-0.00001919,-0.00000207,-0.000
 32740,-0.00033627,0.00000532,0.00015930,-0.00002693,-0.00001003,-0.004
 05555,0.00583745,-0.00001108,-0.18495555,0.34696517,-0.00000008,0.0000
 1271,-0.00017403,-0.00000673,-0.00000542,-0.00073543,0.00000170,-0.000
 01626,-0.00235462,-0.00001217,0.00001910,-0.00490122,0.00000562,-0.000
 00926,0.00384483,0.00000236,-0.00000809,0.00155675,-0.00000060,0.00000
 341,-0.00003245,0.00000181,0.00000136,-0.00062332,0.00000047,0.0000174
 3,0.00367525,0.00000130,-0.00000293,0.00078674,0.00000079,0.00000277,0
 .00003218,0.00000606,0.00000054,0.00018432,-0.00000162,0.00000303,0.00
 051534,0.00000002,0.00000037,0.00005297,-0.00000283,-0.00000193,-0.000
 03761,-0.00000142,-0.00000281,-0.00560167,0.00000531,-0.00001404,0.003
 81196\\0.00000617,0.00003116,-0.00000005,0.00001587,-0.00001026,0.0000
 0015,-0.00001612,-0.00000212,-0.00000007,0.00002697,-0.00000397,0.0000
 0004,-0.00003839,-0.00006070,-0.00000040,0.00002459,0.00003083,-0.0000
 0020,0.00002951,0.00002924,0.00000189,-0.00010334,-0.00007035,-0.00000
 016,-0.00005456,-0.00000219,-0.00000006,0.00000792,0.00002190,-0.00000
 101,0.00000508,-0.00000399,-0.00000005,0.00000045,-0.00000187,-0.00000
 003,0.00000730,0.00000253,0.,0.00000177,-0.00000901,-0.00000005,0.0000
 4339,0.00003647,-0.00000009,0.00003641,0.00000851,-0.00000008,0.000006
 97,0.00000383,0.00000017\\\@


 Human beings, who are almost unique in having the
 ability to learn from the experience of others, are
 also remarkable for their apparent disinclination to do so.
                               -- Douglas Adams,
                                Last Chance to See
 Job cpu time:       0 days  0 hours 20 minutes 29.9 seconds.
 File lengths (MBytes):  RWF=     93 Int=      0 D2E=      0 Chk=      5 Scr=      1
 Normal termination of Gaussian 09 at Sat Jun 22 17:21:43 2024.
