 Entering Gaussian System, Link 0=g09
 Input=m062x63113HPA.gjf
 Output=m062x63113HPA.log
 Initial command:
 /home/phzd/g09E/g09/l1.exe "/home/phzd/g09E/scratch/Gau-421780.inp" -scrdir="/home/phzd/g09E/scratch/"
 Default is to use a total of  18 processors:
                               18 via shared-memory
                                1 via Linda
 Entering Link 1 = /home/phzd/g09E/g09/l1.exe PID=    421782.
  
 Copyright (c) 1988,1990,1992,1993,1995,1998,2003,2009,2015,
            Gaussian, Inc.  All Rights Reserved.
  
 This is part of the Gaussian(R) 09 program.  It is based on
 the Gaussian(R) 03 system (copyright 2003, Gaussian, Inc.),
 the Gaussian(R) 98 system (copyright 1998, Gaussian, Inc.),
 the Gaussian(R) 94 system (copyright 1995, Gaussian, Inc.),
 the Gaussian 92(TM) system (copyright 1992, Gaussian, Inc.),
 the Gaussian 90(TM) system (copyright 1990, Gaussian, Inc.),
 the Gaussian 88(TM) system (copyright 1988, Gaussian, Inc.),
 the Gaussian 86(TM) system (copyright 1986, Carnegie Mellon
 University), and the Gaussian 82(TM) system (copyright 1983,
 Carnegie Mellon University). Gaussian is a federally registered
 trademark of Gaussian, Inc.
  
 This software contains proprietary and confidential information,
 including trade secrets, belonging to Gaussian, Inc.
  
 This software is provided under written license and may be
 used, copied, transmitted, or stored only in accord with that
 written license.
  
 The following legend is applicable only to US Government
 contracts under FAR:
  
                    RESTRICTED RIGHTS LEGEND
  
 Use, reproduction and disclosure by the US Government is
 subject to restrictions as set forth in subparagraphs (a)
 and (c) of the Commercial Computer Software - Restricted
 Rights clause in FAR 52.227-19.
  
 Gaussian, Inc.
 340 Quinnipiac St., Bldg. 40, Wallingford CT 06492
  
  
 ---------------------------------------------------------------
 Warning -- This program may not be used in any manner that
 competes with the business of Gaussian, Inc. or will provide
 assistance to any competitor of Gaussian, Inc.  The licensee
 of this program is prohibited from giving any competitor of
 Gaussian, Inc. access to this program.  By using this program,
 the user acknowledges that Gaussian, Inc. is engaged in the
 business of creating and licensing software in the field of
 computational chemistry and represents and warrants to the
 licensee that it is not a competitor of Gaussian, Inc. and that
 it will not use this program in any manner prohibited above.
 ---------------------------------------------------------------
  

 Cite this work as:
 Gaussian 09, Revision E.01,
 M. J. Frisch, G. W. Trucks, H. B. Schlegel, G. E. Scuseria, 
 M. A. Robb, J. R. Cheeseman, G. Scalmani, V. Barone, B. Mennucci, 
 G. A. Petersson, H. Nakatsuji, M. Caricato, X. Li, H. P. Hratchian, 
 A. F. Izmaylov, J. Bloino, G. Zheng, J. L. Sonnenberg, M. Hada, 
 M. Ehara, K. Toyota, R. Fukuda, J. Hasegawa, M. Ishida, T. Nakajima, 
 Y. Honda, O. Kitao, H. Nakai, T. Vreven, J. A. Montgomery, Jr., 
 J. E. Peralta, F. Ogliaro, M. Bearpark, J. J. Heyd, E. Brothers, 
 K. N. Kudin, V. N. Staroverov, T. Keith, R. Kobayashi, J. Normand, 
 K. Raghavachari, A. Rendell, J. C. Burant, S. S. Iyengar, J. Tomasi, 
 M. Cossi, N. Rega, J. M. Millam, M. Klene, J. E. Knox, J. B. Cross, 
 V. Bakken, C. Adamo, J. Jaramillo, R. Gomperts, R. E. Stratmann, 
 O. Yazyev, A. J. Austin, R. Cammi, C. Pomelli, J. W. Ochterski, 
 R. L. Martin, K. Morokuma, V. G. Zakrzewski, G. A. Voth, 
 P. Salvador, J. J. Dannenberg, S. Dapprich, A. D. Daniels, 
 O. Farkas, J. B. Foresman, J. V. Ortiz, J. Cioslowski, 
 and D. J. Fox, Gaussian, Inc., Wallingford CT, 2013.
 
 ******************************************
 Gaussian 09:  ES64L-G09RevE.01 30-Nov-2015
                28-Apr-2024 
 ******************************************
 %chk=m062x63113HPA.chk
 -----------------------------
 # opt freq 6-311+g(d,p) m062x
 -----------------------------
 1/14=-1,18=20,19=15,26=3,38=1/1,3;
 2/9=110,12=2,17=6,18=5,40=1/2;
 3/5=4,6=6,7=111,11=2,16=1,25=1,30=1,71=1,74=-55/1,2,3;
 4//1;
 5/5=2,38=5/2;
 6/7=2,8=2,9=2,10=2,28=1/1;
 7//1,2,3,16;
 1/14=-1,18=20,19=15,26=3/3(2);
 2/9=110/2;
 99//99;
 2/9=110/2;
 3/5=4,6=6,7=111,11=2,16=1,25=1,30=1,71=1,74=-55/1,2,3;
 4/5=5,16=3,69=1/1;
 5/5=2,38=5/2;
 7//1,2,3,16;
 1/14=-1,18=20,19=15,26=3/3(-5);
 2/9=110/2;
 6/7=2,8=2,9=2,10=2,19=2,28=1/1;
 99/9=1/99;
 ----------
 [No Title]
 ----------
 Symbolic Z-matrix:
 Charge =  0 Multiplicity = 1
 N                     0.42843  -1.44393  -0.00002 
 C                     1.74927  -1.48668  -0.00003 
 C                     2.54529  -0.32915  -0.00002 
 C                     1.93469   0.90826  -0.00001 
 C                     0.53356   0.97142   0.00001 
 C                    -0.17357  -0.24725  0. 
 C                    -1.65617  -0.21681  -0.00001 
 O                    -2.3016    0.8237    0.00001 
 O                    -2.24322  -1.40826   0.00002 
 O                    -0.04369   2.17854   0.00003 
 H                     2.20348  -2.4735   -0.00004 
 H                     3.62705  -0.41343  -0.00003 
 H                     2.49659   1.83621   0. 
 H                    -3.20062  -1.253     0.00003 
 H                    -1.01585   2.06063   0.00004 
 

 GradGradGradGradGradGradGradGradGradGradGradGradGradGradGradGradGradGrad
 Berny optimization.
 Initialization pass.
                           ----------------------------
                           !    Initial Parameters    !
                           ! (Angstroms and Degrees)  !
 --------------------------                            --------------------------
 ! Name  Definition              Value          Derivative Info.                !
 --------------------------------------------------------------------------------
 ! R1    R(1,2)                  1.3215         estimate D2E/DX2                !
 ! R2    R(1,6)                  1.3396         estimate D2E/DX2                !
 ! R3    R(2,3)                  1.4048         estimate D2E/DX2                !
 ! R4    R(2,11)                 1.0863         estimate D2E/DX2                !
 ! R5    R(3,4)                  1.3799         estimate D2E/DX2                !
 ! R6    R(3,12)                 1.085          estimate D2E/DX2                !
 ! R7    R(4,5)                  1.4026         estimate D2E/DX2                !
 ! R8    R(4,13)                 1.0848         estimate D2E/DX2                !
 ! R9    R(5,6)                  1.409          estimate D2E/DX2                !
 ! R10   R(5,10)                 1.338          estimate D2E/DX2                !
 ! R11   R(6,7)                  1.4829         estimate D2E/DX2                !
 ! R12   R(7,8)                  1.2244         estimate D2E/DX2                !
 ! R13   R(7,9)                  1.3282         estimate D2E/DX2                !
 ! R14   R(9,14)                 0.9699         estimate D2E/DX2                !
 ! R15   R(10,15)                0.9793         estimate D2E/DX2                !
 ! A1    A(2,1,6)              118.5586         estimate D2E/DX2                !
 ! A2    A(1,2,3)              122.6627         estimate D2E/DX2                !
 ! A3    A(1,2,11)             116.5691         estimate D2E/DX2                !
 ! A4    A(3,2,11)             120.7682         estimate D2E/DX2                !
 ! A5    A(2,3,4)              119.2197         estimate D2E/DX2                !
 ! A6    A(2,3,12)             120.0617         estimate D2E/DX2                !
 ! A7    A(4,3,12)             120.7187         estimate D2E/DX2                !
 ! A8    A(3,4,5)              118.8452         estimate D2E/DX2                !
 ! A9    A(3,4,13)             122.5398         estimate D2E/DX2                !
 ! A10   A(5,4,13)             118.6151         estimate D2E/DX2                !
 ! A11   A(4,5,6)              117.5433         estimate D2E/DX2                !
 ! A12   A(4,5,10)             118.1382         estimate D2E/DX2                !
 ! A13   A(6,5,10)             124.3185         estimate D2E/DX2                !
 ! A14   A(1,6,5)              123.1706         estimate D2E/DX2                !
 ! A15   A(1,6,7)              117.8817         estimate D2E/DX2                !
 ! A16   A(5,6,7)              118.9477         estimate D2E/DX2                !
 ! A17   A(6,7,8)              122.9883         estimate D2E/DX2                !
 ! A18   A(6,7,9)              115.0537         estimate D2E/DX2                !
 ! A19   A(8,7,9)              121.958          estimate D2E/DX2                !
 ! A20   A(7,9,14)             107.0192         estimate D2E/DX2                !
 ! A21   A(5,10,15)            108.642          estimate D2E/DX2                !
 ! D1    D(6,1,2,3)              0.0            estimate D2E/DX2                !
 ! D2    D(6,1,2,11)          -179.9999         estimate D2E/DX2                !
 ! D3    D(2,1,6,5)             -0.0001         estimate D2E/DX2                !
 ! D4    D(2,1,6,7)            179.9995         estimate D2E/DX2                !
 ! D5    D(1,2,3,4)              0.0            estimate D2E/DX2                !
 ! D6    D(1,2,3,12)          -180.0            estimate D2E/DX2                !
 ! D7    D(11,2,3,4)           180.0            estimate D2E/DX2                !
 ! D8    D(11,2,3,12)            0.0            estimate D2E/DX2                !
 ! D9    D(2,3,4,5)              0.0001         estimate D2E/DX2                !
 ! D10   D(2,3,4,13)           179.9999         estimate D2E/DX2                !
 ! D11   D(12,3,4,5)          -179.9999         estimate D2E/DX2                !
 ! D12   D(12,3,4,13)           -0.0001         estimate D2E/DX2                !
 ! D13   D(3,4,5,6)             -0.0001         estimate D2E/DX2                !
 ! D14   D(3,4,5,10)           179.9996         estimate D2E/DX2                !
 ! D15   D(13,4,5,6)          -180.0            estimate D2E/DX2                !
 ! D16   D(13,4,5,10)           -0.0003         estimate D2E/DX2                !
 ! D17   D(4,5,6,1)              0.0002         estimate D2E/DX2                !
 ! D18   D(4,5,6,7)           -179.9994         estimate D2E/DX2                !
 ! D19   D(10,5,6,1)          -179.9995         estimate D2E/DX2                !
 ! D20   D(10,5,6,7)             0.0009         estimate D2E/DX2                !
 ! D21   D(4,5,10,15)         -179.9994         estimate D2E/DX2                !
 ! D22   D(6,5,10,15)            0.0003         estimate D2E/DX2                !
 ! D23   D(1,6,7,8)            179.9996         estimate D2E/DX2                !
 ! D24   D(1,6,7,9)              0.0019         estimate D2E/DX2                !
 ! D25   D(5,6,7,8)             -0.0008         estimate D2E/DX2                !
 ! D26   D(5,6,7,9)           -179.9984         estimate D2E/DX2                !
 ! D27   D(6,7,9,14)           179.9988         estimate D2E/DX2                !
 ! D28   D(8,7,9,14)             0.0011         estimate D2E/DX2                !
 --------------------------------------------------------------------------------
 Trust Radius=3.00D-01 FncErr=1.00D-07 GrdErr=1.00D-06
 Number of steps in this run=     74 maximum allowed number of steps=    100.
 GradGradGradGradGradGradGradGradGradGradGradGradGradGradGradGradGradGrad

                          Input orientation:                          
 ---------------------------------------------------------------------
 Center     Atomic      Atomic             Coordinates (Angstroms)
 Number     Number       Type             X           Y           Z
 ---------------------------------------------------------------------
      1          7           0        0.428428   -1.443933   -0.000019
      2          6           0        1.749269   -1.486676   -0.000028
      3          6           0        2.545293   -0.329153   -0.000022
      4          6           0        1.934687    0.908262   -0.000006
      5          6           0        0.533558    0.971421    0.000005
      6          6           0       -0.173573   -0.247254   -0.000004
      7          6           0       -1.656168   -0.216805   -0.000006
      8          8           0       -2.301602    0.823696    0.000014
      9          8           0       -2.243216   -1.408256    0.000018
     10          8           0       -0.043688    2.178540    0.000029
     11          1           0        2.203484   -2.473502   -0.000041
     12          1           0        3.627053   -0.413425   -0.000030
     13          1           0        2.496586    1.836212    0.000001
     14          1           0       -3.200617   -1.253002    0.000034
     15          1           0       -1.015853    2.060634    0.000043
 ---------------------------------------------------------------------
                    Distance matrix (angstroms):
                    1          2          3          4          5
     1  N    0.000000
     2  C    1.321532   0.000000
     3  C    2.392457   1.404818   0.000000
     4  C    2.793141   2.402105   1.379868   0.000000
     5  C    2.417641   2.742297   2.395531   1.402552   0.000000
     6  C    1.339569   2.287682   2.720099   2.404158   1.408972
     7  C    2.418963   3.634498   4.202963   3.762980   2.491341
     8  O    3.548972   4.663408   4.982113   4.237133   2.839006
     9  O    2.671882   3.993255   4.908593   4.777147   3.656957
    10  O    3.653109   4.080258   3.604351   2.351079   1.338039
    11  H    2.052032   1.086341   2.171420   3.392430   3.828335
    12  H    3.360528   2.162855   1.085038   2.147314   3.389323
    13  H    3.877709   3.405887   2.165913   1.084814   2.145074
    14  H    3.634064   4.955399   5.819706   5.571572   4.346507
    15  H    3.790506   4.497700   4.288688   3.167593   1.893953
                    6          7          8          9         10
     6  C    0.000000
     7  C    1.482908   0.000000
     8  O    2.382318   1.224429   0.000000
     9  O    2.373046   1.328225   2.232716   0.000000
    10  O    2.429269   2.887520   2.633207   4.207497   0.000000
    11  H    3.256774   4.470972   5.582769   4.572515   5.166360
    12  H    3.804257   5.286878   6.056354   5.953969   4.493620
    13  H    3.386824   4.632520   4.903855   5.743892   2.563236
    14  H    3.189753   1.859846   2.262941   0.969907   4.662798
    15  H    2.456783   2.365741   1.784143   3.679622   0.979289
                   11         12         13         14         15
    11  H    0.000000
    12  H    2.504090   0.000000
    13  H    4.319669   2.517702   0.000000
    14  H    5.540210   6.879096   6.480846   0.000000
    15  H    5.560802   5.260945   3.519601   3.969052   0.000000
 Stoichiometry    C6H5NO3
 Framework group  C1[X(C6H5NO3)]
 Deg. of freedom    39
 Full point group                 C1      NOp   1
 Largest Abelian subgroup         C1      NOp   1
 Largest concise Abelian subgroup C1      NOp   1
                         Standard orientation:                         
 ---------------------------------------------------------------------
 Center     Atomic      Atomic             Coordinates (Angstroms)
 Number     Number       Type             X           Y           Z
 ---------------------------------------------------------------------
      1          7           0       -0.428428   -1.443933    0.000019
      2          6           0       -1.749269   -1.486676    0.000028
      3          6           0       -2.545293   -0.329153    0.000022
      4          6           0       -1.934687    0.908262    0.000006
      5          6           0       -0.533558    0.971421   -0.000005
      6          6           0        0.173573   -0.247254    0.000004
      7          6           0        1.656168   -0.216805    0.000006
      8          8           0        2.301602    0.823696   -0.000014
      9          8           0        2.243216   -1.408256   -0.000018
     10          8           0        0.043688    2.178540   -0.000029
     11          1           0       -2.203484   -2.473502    0.000041
     12          1           0       -3.627053   -0.413425    0.000030
     13          1           0       -2.496586    1.836212   -0.000001
     14          1           0        3.200617   -1.253002   -0.000034
     15          1           0        1.015853    2.060634   -0.000043
 ---------------------------------------------------------------------
 Rotational constants (GHZ):      2.3657717      1.2648099      0.8241797
 Standard basis: 6-311+G(d,p) (5D, 7F)
 There are   260 symmetry adapted cartesian basis functions of A   symmetry.
 There are   250 symmetry adapted basis functions of A   symmetry.
   250 basis functions,   400 primitive gaussians,   260 cartesian basis functions
    36 alpha electrons       36 beta electrons
       nuclear repulsion energy       508.0776174991 Hartrees.
 NAtoms=   15 NActive=   15 NUniq=   15 SFac= 1.00D+00 NAtFMM=   60 NAOKFM=F Big=F
 Integral buffers will be    131072 words long.
 Raffenetti 2 integral format.
 Two-electron integral symmetry is turned on.
 One-electron integrals computed using PRISM.
 NBasis=   250 RedAO= T EigKep=  4.63D-06  NBF=   250
 NBsUse=   250 1.00D-06 EigRej= -1.00D+00 NBFU=   250
 ExpMin= 4.38D-02 ExpMax= 8.59D+03 ExpMxC= 1.30D+03 IAcc=2 IRadAn=         4 AccDes= 0.00D+00
 Harris functional with IExCor= 1009 and IRadAn=       4 diagonalized for initial guess.
 HarFok:  IExCor= 1009 AccDes= 0.00D+00 IRadAn=         4 IDoV= 1 UseB2=F ITyADJ=14
 ICtDFT=  3500011 ScaDFX=  1.000000  1.000000  1.000000  1.000000
 FoFCou: FMM=F IPFlag=           0 FMFlag=      100000 FMFlg1=           0
         NFxFlg=           0 DoJE=T BraDBF=F KetDBF=T FulRan=T
         wScrn=  0.000000 ICntrl=     500 IOpCl=  0 I1Cent=   200000004 NGrid=           0
         NMat0=    1 NMatS0=      1 NMatT0=    0 NMatD0=    1 NMtDS0=    0 NMtDT0=    0
 Petite list used in FoFCou.
 Keep R1 ints in memory in canonical form, NReq=501328610.
 Requested convergence on RMS density matrix=1.00D-08 within 128 cycles.
 Requested convergence on MAX density matrix=1.00D-06.
 Requested convergence on             energy=1.00D-06.
 No special actions if energy rises.
 SCF Done:  E(RM062X) =  -512.041811014     A.U. after   15 cycles
            NFock= 15  Conv=0.58D-08     -V/T= 2.0035

 **********************************************************************

            Population analysis using the SCF density.

 **********************************************************************

 Orbital symmetries:
       Occupied  (A) (A) (A) (A) (A) (A) (A) (A) (A) (A) (A) (A)
                 (A) (A) (A) (A) (A) (A) (A) (A) (A) (A) (A) (A)
                 (A) (A) (A) (A) (A) (A) (A) (A) (A) (A) (A) (A)
       Virtual   (A) (A) (A) (A) (A) (A) (A) (A) (A) (A) (A) (A)
                 (A) (A) (A) (A) (A) (A) (A) (A) (A) (A) (A) (A)
                 (A) (A) (A) (A) (A) (A) (A) (A) (A) (A) (A) (A)
                 (A) (A) (A) (A) (A) (A) (A) (A) (A) (A) (A) (A)
                 (A) (A) (A) (A) (A) (A) (A) (A) (A) (A) (A) (A)
                 (A) (A) (A) (A) (A) (A) (A) (A) (A) (A) (A) (A)
                 (A) (A) (A) (A) (A) (A) (A) (A) (A) (A) (A) (A)
                 (A) (A) (A) (A) (A) (A) (A) (A) (A) (A) (A) (A)
                 (A) (A) (A) (A) (A) (A) (A) (A) (A) (A) (A) (A)
                 (A) (A) (A) (A) (A) (A) (A) (A) (A) (A) (A) (A)
                 (A) (A) (A) (A) (A) (A) (A) (A) (A) (A) (A) (A)
                 (A) (A) (A) (A) (A) (A) (A) (A) (A) (A) (A) (A)
                 (A) (A) (A) (A) (A) (A) (A) (A) (A) (A) (A) (A)
                 (A) (A) (A) (A) (A) (A) (A) (A) (A) (A) (A) (A)
                 (A) (A) (A) (A) (A) (A) (A) (A) (A) (A) (A) (A)
                 (A) (A) (A) (A) (A) (A) (A) (A) (A) (A) (A) (A)
                 (A) (A) (A) (A) (A) (A) (A) (A) (A) (A) (A) (A)
                 (A) (A) (A) (A) (A) (A) (A) (A) (A) (A)
 The electronic state is 1-A.
 Alpha  occ. eigenvalues --  -19.69012 -19.66390 -19.64321 -14.77181 -10.70619
 Alpha  occ. eigenvalues --  -10.64053 -10.60492 -10.58925 -10.57645 -10.57404
 Alpha  occ. eigenvalues --   -1.26540  -1.20929  -1.16292  -1.07770  -0.92366
 Alpha  occ. eigenvalues --   -0.88948  -0.79070  -0.73651  -0.72437  -0.64465
 Alpha  occ. eigenvalues --   -0.63462  -0.60781  -0.57926  -0.56772  -0.55891
 Alpha  occ. eigenvalues --   -0.51573  -0.50779  -0.49415  -0.48346  -0.47030
 Alpha  occ. eigenvalues --   -0.45900  -0.41958  -0.39248  -0.35989  -0.34187
 Alpha  occ. eigenvalues --   -0.30911
 Alpha virt. eigenvalues --   -0.04396   0.00320   0.00575   0.01284   0.02935
 Alpha virt. eigenvalues --    0.03583   0.04668   0.05146   0.05826   0.06505
 Alpha virt. eigenvalues --    0.07556   0.07954   0.08645   0.09058   0.10324
 Alpha virt. eigenvalues --    0.11648   0.12646   0.13448   0.13903   0.14468
 Alpha virt. eigenvalues --    0.14636   0.16767   0.16802   0.17901   0.18533
 Alpha virt. eigenvalues --    0.19375   0.20354   0.20628   0.21364   0.21917
 Alpha virt. eigenvalues --    0.23102   0.24149   0.24243   0.24766   0.25517
 Alpha virt. eigenvalues --    0.25589   0.26671   0.27860   0.28583   0.29189
 Alpha virt. eigenvalues --    0.30004   0.30174   0.30505   0.31536   0.33206
 Alpha virt. eigenvalues --    0.33524   0.34809   0.35401   0.36624   0.37654
 Alpha virt. eigenvalues --    0.39288   0.39997   0.41856   0.43505   0.45515
 Alpha virt. eigenvalues --    0.48276   0.52344   0.54679   0.54887   0.55897
 Alpha virt. eigenvalues --    0.57327   0.58112   0.58741   0.60648   0.60871
 Alpha virt. eigenvalues --    0.62191   0.63502   0.65869   0.65997   0.69246
 Alpha virt. eigenvalues --    0.69869   0.72411   0.73455   0.75278   0.78451
 Alpha virt. eigenvalues --    0.80431   0.81715   0.83384   0.85459   0.87067
 Alpha virt. eigenvalues --    0.87634   0.90998   0.93179   0.93438   0.94725
 Alpha virt. eigenvalues --    0.94896   0.97692   1.02653   1.03170   1.04765
 Alpha virt. eigenvalues --    1.04767   1.08595   1.11227   1.13459   1.14047
 Alpha virt. eigenvalues --    1.16300   1.16377   1.19046   1.19344   1.21923
 Alpha virt. eigenvalues --    1.22481   1.26239   1.29260   1.29682   1.29709
 Alpha virt. eigenvalues --    1.31836   1.32672   1.42386   1.45996   1.46414
 Alpha virt. eigenvalues --    1.49896   1.54751   1.55282   1.58382   1.59395
 Alpha virt. eigenvalues --    1.60291   1.62042   1.62600   1.64380   1.67467
 Alpha virt. eigenvalues --    1.69266   1.73851   1.75962   1.77627   1.80719
 Alpha virt. eigenvalues --    1.82277   1.88592   1.89425   1.91788   1.93611
 Alpha virt. eigenvalues --    1.96485   1.96683   1.97120   2.00772   2.01949
 Alpha virt. eigenvalues --    2.05648   2.08188   2.10283   2.15405   2.16379
 Alpha virt. eigenvalues --    2.21553   2.27156   2.39398   2.40401   2.40866
 Alpha virt. eigenvalues --    2.47808   2.49802   2.58255   2.60959   2.65401
 Alpha virt. eigenvalues --    2.66813   2.68958   2.70414   2.70885   2.71718
 Alpha virt. eigenvalues --    2.74811   2.77438   2.82300   2.83187   2.86769
 Alpha virt. eigenvalues --    2.90425   2.97128   2.97291   2.99511   3.05376
 Alpha virt. eigenvalues --    3.06306   3.11441   3.11542   3.15916   3.17520
 Alpha virt. eigenvalues --    3.23432   3.24634   3.25327   3.25398   3.30728
 Alpha virt. eigenvalues --    3.39522   3.42391   3.50504   3.51591   3.58302
 Alpha virt. eigenvalues --    3.63040   3.66372   3.73301   3.75989   3.88458
 Alpha virt. eigenvalues --    3.94736   3.99525   4.01004   4.04694   4.12135
 Alpha virt. eigenvalues --    4.16159   4.27462   4.48899   4.52421   5.05833
 Alpha virt. eigenvalues --    5.11899   5.13321   5.24758   5.33599   5.52043
 Alpha virt. eigenvalues --    5.56384   5.75184   5.85835   5.95282  23.72018
 Alpha virt. eigenvalues --   23.88063  23.96689  24.04457  24.08579  24.19887
 Alpha virt. eigenvalues --   35.77097  49.97321  50.06932  50.12818
          Condensed to atoms (all electrons):
               1          2          3          4          5          6
     1  N    6.691480  -0.207632   0.363722  -0.294940   0.520103   0.172575
     2  C   -0.207632   7.165974  -1.064910   1.182098  -1.949336   0.626087
     3  C    0.363722  -1.064910   6.741358  -1.711351   2.965662  -1.558943
     4  C   -0.294940   1.182098  -1.711351  10.899646  -6.065590   2.095305
     5  C    0.520103  -1.949336   2.965662  -6.065590  17.503336  -6.346189
     6  C    0.172575   0.626087  -1.558943   2.095305  -6.346189  11.666431
     7  C   -0.334349   0.133459  -0.169385   0.038527  -1.120250  -0.326453
     8  O    0.026170  -0.006715   0.019203   0.021492   0.085151  -0.164181
     9  O    0.078632   0.006900  -0.009248   0.050879   0.059740  -0.242067
    10  O    0.003606  -0.001882  -0.011145  -0.391457   0.353224   0.099801
    11  H   -0.090489   0.477058  -0.075511  -0.005715  -0.017603   0.028600
    12  H    0.006079  -0.010486   0.378006  -0.028618  -0.008165   0.015634
    13  H    0.001810  -0.019275   0.039850   0.328092   0.016163  -0.006242
    14  H   -0.008219  -0.001245  -0.001792   0.005883  -0.048012  -0.013976
    15  H   -0.003636   0.002608  -0.014802   0.152068  -0.082200  -0.037103
               7          8          9         10         11         12
     1  N   -0.334349   0.026170   0.078632   0.003606  -0.090489   0.006079
     2  C    0.133459  -0.006715   0.006900  -0.001882   0.477058  -0.010486
     3  C   -0.169385   0.019203  -0.009248  -0.011145  -0.075511   0.378006
     4  C    0.038527   0.021492   0.050879  -0.391457  -0.005715  -0.028618
     5  C   -1.120250   0.085151   0.059740   0.353224  -0.017603  -0.008165
     6  C   -0.326453  -0.164181  -0.242067   0.099801   0.028600   0.015634
     7  C    7.065220   0.287033   0.253009  -0.008679   0.016105   0.004101
     8  O    0.287033   8.263181  -0.130797  -0.036764   0.000035   0.000002
     9  O    0.253009  -0.130797   7.932132  -0.004029  -0.000253   0.000005
    10  O   -0.008679  -0.036764  -0.004029   8.019775   0.000139  -0.000536
    11  H    0.016105   0.000035  -0.000253   0.000139   0.512620  -0.002558
    12  H    0.004101   0.000002   0.000005  -0.000536  -0.002558   0.478140
    13  H    0.004868   0.000099   0.000006  -0.007551  -0.000138  -0.005020
    14  H    0.116690  -0.023509   0.196706   0.000311  -0.000010   0.000001
    15  H   -0.006775   0.041259   0.004252   0.274917  -0.000006  -0.000006
              13         14         15
     1  N    0.001810  -0.008219  -0.003636
     2  C   -0.019275  -0.001245   0.002608
     3  C    0.039850  -0.001792  -0.014802
     4  C    0.328092   0.005883   0.152068
     5  C    0.016163  -0.048012  -0.082200
     6  C   -0.006242  -0.013976  -0.037103
     7  C    0.004868   0.116690  -0.006775
     8  O    0.000099  -0.023509   0.041259
     9  O    0.000006   0.196706   0.004252
    10  O   -0.007551   0.000311   0.274917
    11  H   -0.000138  -0.000010  -0.000006
    12  H   -0.005020   0.000001  -0.000006
    13  H    0.469281  -0.000001   0.000072
    14  H   -0.000001   0.476177   0.000642
    15  H    0.000072   0.000642   0.357857
 Mulliken charges:
               1
     1  N    0.075087
     2  C   -0.332704
     3  C    0.109286
     4  C   -0.276319
     5  C    0.133966
     6  C   -0.009279
     7  C    0.046879
     8  O   -0.381659
     9  O   -0.195864
    10  O   -0.289731
    11  H    0.157726
    12  H    0.173419
    13  H    0.177987
    14  H    0.300354
    15  H    0.310852
 Sum of Mulliken charges =  -0.00000
 Mulliken charges with hydrogens summed into heavy atoms:
               1
     1  N    0.075087
     2  C   -0.174979
     3  C    0.282705
     4  C   -0.098331
     5  C    0.133966
     6  C   -0.009279
     7  C    0.046879
     8  O   -0.381659
     9  O    0.104490
    10  O    0.021122
 Electronic spatial extent (au):  <R**2>=           1307.8082
 Charge=             -0.0000 electrons
 Dipole moment (field-independent basis, Debye):
    X=             -1.2603    Y=             -0.4598    Z=             -0.0000  Tot=              1.3415
 Quadrupole moment (field-independent basis, Debye-Ang):
   XX=            -43.4640   YY=            -62.3490   ZZ=            -58.5944
   XY=             -2.1468   XZ=             -0.0002   YZ=              0.0000
 Traceless Quadrupole moment (field-independent basis, Debye-Ang):
   XX=             11.3385   YY=             -7.5465   ZZ=             -3.7919
   XY=             -2.1468   XZ=             -0.0002   YZ=              0.0000
 Octapole moment (field-independent basis, Debye-Ang**2):
  XXX=             16.5688  YYY=              2.2884  ZZZ=             -0.0004  XYY=             -0.8668
  XXY=            -18.4763  XXZ=             -0.0002  XZZ=             11.0119  YZZ=              1.7569
  YYZ=             -0.0001  XYZ=              0.0002
 Hexadecapole moment (field-independent basis, Debye-Ang**3):
 XXXX=           -851.1972 YYYY=           -592.3227 ZZZZ=            -59.4528 XXXY=            -76.2196
 XXXZ=              0.0012 YYYX=             19.2352 YYYZ=              0.0023 ZZZX=              0.0039
 ZZZY=              0.0025 XXYY=           -232.5233 XXZZ=           -194.6473 YYZZ=           -109.3548
 XXYZ=              0.0010 YYXZ=              0.0003 ZZXY=             -2.6954
 N-N= 5.080776174991D+02 E-N=-2.214629115675D+03  KE= 5.102558514204D+02
 Calling FoFJK, ICntrl=      2127 FMM=F ISym2X=0 I1Cent= 0 IOpClX= 0 NMat=1 NMatS=1 NMatT=0.
 ***** Axes restored to original set *****
 -------------------------------------------------------------------
 Center     Atomic                   Forces (Hartrees/Bohr)
 Number     Number              X              Y              Z
 -------------------------------------------------------------------
      1        7           0.002047643    0.002250427   -0.000000449
      2        6          -0.001559527    0.001044178    0.000000325
      3        6          -0.001519833    0.000577114   -0.000000131
      4        6          -0.000575595   -0.001622468    0.000000239
      5        6          -0.000278524    0.000118488    0.000000409
      6        6           0.002060697   -0.000657509   -0.000002116
      7        6          -0.006404579    0.006191201    0.000006347
      8        8           0.005708027   -0.008761929   -0.000002091
      9        8          -0.001277018    0.002745956   -0.000001869
     10        8          -0.001601279   -0.001746959    0.000000007
     11        1          -0.000494727    0.001142943    0.000000062
     12        1          -0.001340929    0.000077606   -0.000000035
     13        1          -0.000682598   -0.001057779   -0.000000037
     14        1           0.002871959   -0.000191724   -0.000000101
     15        1           0.003046283   -0.000109545   -0.000000559
 -------------------------------------------------------------------
 Cartesian Forces:  Max     0.008761929 RMS     0.002353074

 GradGradGradGradGradGradGradGradGradGradGradGradGradGradGradGradGradGrad
 Berny optimization.
 FormGI is forming the generalized inverse of G from B-inverse, IUseBI=4.
 Internal  Forces:  Max     0.010457624 RMS     0.001749597
 Search for a local minimum.
 Step number   1 out of a maximum of   74
 All quantities printed in internal units (Hartrees-Bohrs-Radians)
 Mixed Optimization -- RFO/linear search
 Second derivative matrix not updated -- first step.
 ITU=  0
     Eigenvalues ---    0.00992   0.01533   0.01747   0.02032   0.02124
     Eigenvalues ---    0.02154   0.02192   0.02220   0.02284   0.02500
     Eigenvalues ---    0.02511   0.02641   0.16000   0.16000   0.16000
     Eigenvalues ---    0.16000   0.16000   0.22081   0.23322   0.24912
     Eigenvalues ---    0.25000   0.25000   0.25000   0.25000   0.34239
     Eigenvalues ---    0.35239   0.35392   0.35419   0.41208   0.43854
     Eigenvalues ---    0.44557   0.47798   0.51523   0.53396   0.55749
     Eigenvalues ---    0.57647   0.59879   0.59927   0.93447
 RFO step:  Lambda=-2.92303605D-04 EMin= 9.92046563D-03
 Linear search not attempted -- first point.
 Iteration  1 RMS(Cart)=  0.00516824 RMS(Int)=  0.00000412
 Iteration  2 RMS(Cart)=  0.00000540 RMS(Int)=  0.00000009
 Iteration  3 RMS(Cart)=  0.00000000 RMS(Int)=  0.00000009
 Variable       Old X    -DE/DX   Delta X   Delta X   Delta X     New X
                                 (Linear)    (Quad)   (Total)
    R1        2.49733  -0.00347   0.00000  -0.00573  -0.00573   2.49161
    R2        2.53142  -0.00281   0.00000  -0.00494  -0.00494   2.52647
    R3        2.65472  -0.00245   0.00000  -0.00556  -0.00555   2.64917
    R4        2.05289  -0.00125   0.00000  -0.00353  -0.00353   2.04935
    R5        2.60757  -0.00303   0.00000  -0.00613  -0.00613   2.60145
    R6        2.05042  -0.00134   0.00000  -0.00379  -0.00379   2.04663
    R7        2.65044  -0.00271   0.00000  -0.00585  -0.00585   2.64459
    R8        2.05000  -0.00126   0.00000  -0.00355  -0.00355   2.04646
    R9        2.66257  -0.00229   0.00000  -0.00510  -0.00510   2.65747
   R10        2.52853  -0.00230   0.00000  -0.00398  -0.00398   2.52454
   R11        2.80229  -0.00090   0.00000  -0.00263  -0.00263   2.79966
   R12        2.31384  -0.01046   0.00000  -0.01119  -0.01119   2.30265
   R13        2.50998  -0.00299   0.00000  -0.00499  -0.00499   2.50500
   R14        1.83286  -0.00287   0.00000  -0.00537  -0.00537   1.82749
   R15        1.85059  -0.00301   0.00000  -0.00583  -0.00583   1.84475
    A1        2.06924  -0.00010   0.00000  -0.00088  -0.00088   2.06836
    A2        2.14087   0.00008   0.00000  -0.00004  -0.00004   2.14082
    A3        2.03451  -0.00001   0.00000   0.00024   0.00024   2.03475
    A4        2.10780  -0.00008   0.00000  -0.00019  -0.00019   2.10761
    A5        2.08078   0.00014   0.00000   0.00060   0.00060   2.08138
    A6        2.09547  -0.00009   0.00000  -0.00044  -0.00044   2.09504
    A7        2.10694  -0.00005   0.00000  -0.00016  -0.00017   2.10677
    A8        2.07424  -0.00004   0.00000   0.00020   0.00020   2.07444
    A9        2.13872   0.00006   0.00000   0.00016   0.00016   2.13888
   A10        2.07022  -0.00002   0.00000  -0.00036  -0.00036   2.06987
   A11        2.05152  -0.00036   0.00000  -0.00104  -0.00104   2.05047
   A12        2.06190  -0.00000   0.00000  -0.00021  -0.00021   2.06169
   A13        2.16977   0.00037   0.00000   0.00126   0.00126   2.17102
   A14        2.14973   0.00028   0.00000   0.00116   0.00116   2.15090
   A15        2.05742  -0.00004   0.00000  -0.00020  -0.00020   2.05722
   A16        2.07603  -0.00023   0.00000  -0.00096  -0.00096   2.07507
   A17        2.14655  -0.00025   0.00000  -0.00102  -0.00102   2.14553
   A18        2.00807  -0.00002   0.00000  -0.00008  -0.00008   2.00799
   A19        2.12857   0.00027   0.00000   0.00109   0.00109   2.12966
   A20        1.86784  -0.00049   0.00000  -0.00303  -0.00303   1.86481
   A21        1.89616  -0.00088   0.00000  -0.00551  -0.00551   1.89065
    D1        0.00000  -0.00000   0.00000  -0.00000  -0.00000  -0.00000
    D2       -3.14159  -0.00000   0.00000  -0.00000  -0.00000   3.14159
    D3       -0.00000   0.00000   0.00000   0.00001   0.00001   0.00000
    D4        3.14158   0.00000   0.00000   0.00002   0.00002  -3.14158
    D5        0.00000   0.00000   0.00000   0.00000   0.00000   0.00000
    D6       -3.14159   0.00000   0.00000   0.00000   0.00000  -3.14159
    D7        3.14159  -0.00000   0.00000  -0.00000  -0.00000   3.14159
    D8       -0.00000   0.00000   0.00000   0.00000   0.00000   0.00000
    D9        0.00000  -0.00000   0.00000  -0.00000  -0.00000  -0.00000
   D10        3.14159   0.00000   0.00000   0.00000   0.00000  -3.14159
   D11       -3.14159  -0.00000   0.00000  -0.00000  -0.00000   3.14159
   D12       -0.00000   0.00000   0.00000   0.00000   0.00000   0.00000
   D13       -0.00000   0.00000   0.00000   0.00000   0.00000   0.00000
   D14        3.14159   0.00000   0.00000   0.00001   0.00001  -3.14159
   D15       -3.14159  -0.00000   0.00000  -0.00000  -0.00000   3.14159
   D16       -0.00000   0.00000   0.00000   0.00001   0.00001   0.00000
   D17        0.00000  -0.00000   0.00000  -0.00001  -0.00001  -0.00000
   D18       -3.14158  -0.00000   0.00000  -0.00002  -0.00002   3.14158
   D19       -3.14158  -0.00000   0.00000  -0.00001  -0.00001   3.14159
   D20        0.00002  -0.00000   0.00000  -0.00003  -0.00003  -0.00001
   D21       -3.14158  -0.00000   0.00000  -0.00002  -0.00002   3.14158
   D22        0.00000  -0.00000   0.00000  -0.00001  -0.00001  -0.00001
   D23        3.14159   0.00000   0.00000   0.00007   0.00007  -3.14153
   D24        0.00003  -0.00000   0.00000  -0.00011  -0.00011  -0.00008
   D25       -0.00001   0.00000   0.00000   0.00008   0.00008   0.00007
   D26       -3.14157  -0.00000   0.00000  -0.00010  -0.00010   3.14152
   D27        3.14157   0.00000   0.00000   0.00009   0.00009  -3.14153
   D28        0.00002  -0.00000   0.00000  -0.00008  -0.00008  -0.00007
         Item               Value     Threshold  Converged?
 Maximum Force            0.010458     0.000450     NO 
 RMS     Force            0.001750     0.000300     NO 
 Maximum Displacement     0.014625     0.001800     NO 
 RMS     Displacement     0.005167     0.001200     NO 
 Predicted change in Energy=-1.462263D-04
 GradGradGradGradGradGradGradGradGradGradGradGradGradGradGradGradGradGrad

                          Input orientation:                          
 ---------------------------------------------------------------------
 Center     Atomic      Atomic             Coordinates (Angstroms)
 Number     Number       Type             X           Y           Z
 ---------------------------------------------------------------------
      1          7           0        0.428378   -1.441641    0.000005
      2          6           0        1.746212   -1.483630   -0.000020
      3          6           0        2.539945   -0.328099   -0.000030
      4          6           0        1.930847    0.906445   -0.000012
      5          6           0        0.532826    0.969824    0.000015
      6          6           0       -0.171995   -0.247072    0.000024
      7          6           0       -1.653192   -0.216390    0.000067
      8          8           0       -2.294268    0.819846    0.000027
      9          8           0       -2.239192   -1.405417   -0.000009
     10          8           0       -0.042943    2.175312    0.000027
     11          1           0        2.200368   -2.468425   -0.000034
     12          1           0        3.619714   -0.412102   -0.000053
     13          1           0        2.491680    1.832846   -0.000021
     14          1           0       -3.193299   -1.247631   -0.000032
     15          1           0       -1.011439    2.052895    0.000034
 ---------------------------------------------------------------------
                    Distance matrix (angstroms):
                    1          2          3          4          5
     1  N    0.000000
     2  C    1.318502   0.000000
     3  C    2.387192   1.401879   0.000000
     4  C    2.787637   2.397196   1.376626   0.000000
     5  C    2.413726   2.737105   2.390215   1.399457   0.000000
     6  C    1.336953   2.282234   2.713149   2.398446   1.406275
     7  C    2.415403   3.627925   4.194624   3.755807   2.487122
     8  O    3.539368   4.650966   4.968641   4.226002   2.831070
     9  O    2.667816   3.986171   4.899057   4.768011   3.650459
    10  O    3.647532   4.072952   3.596995   2.346459   1.335931
    11  H    2.047983   1.084471   2.167096   3.385614   3.821289
    12  H    3.353293   2.158282   1.083032   2.142624   3.382099
    13  H    3.870334   3.399227   2.161485   1.082938   2.140541
    14  H    3.626870   4.945146   5.806516   5.558499   4.336025
    15  H    3.779531   4.484601   4.275682   3.157751   1.886212
                    6          7          8          9         10
     6  C    0.000000
     7  C    1.481515   0.000000
     8  O    2.375365   1.218509   0.000000
     9  O    2.369613   1.325587   2.225944   0.000000
    10  O    2.425819   2.883252   2.627880   4.200610   0.000000
    11  H    3.250002   4.463360   5.569065   4.565050   5.157202
    12  H    3.795298   5.276536   6.040933   5.942512   4.484391
    13  H    3.379530   4.623779   4.891980   5.733018   2.557654
    14  H    3.182672   1.853480   2.254488   0.967066   4.652019
    15  H    2.448370   2.358283   1.779343   3.669781   0.976202
                   11         12         13         14         15
    11  H    0.000000
    12  H    2.498601   0.000000
    13  H    4.311125   2.512419   0.000000
    14  H    5.530098   6.864055   6.465936   0.000000
    15  H    5.545993   5.246311   3.510023   3.956512   0.000000
 Stoichiometry    C6H5NO3
 Framework group  C1[X(C6H5NO3)]
 Deg. of freedom    39
 Full point group                 C1      NOp   1
 Largest Abelian subgroup         C1      NOp   1
 Largest concise Abelian subgroup C1      NOp   1
                         Standard orientation:                         
 ---------------------------------------------------------------------
 Center     Atomic      Atomic             Coordinates (Angstroms)
 Number     Number       Type             X           Y           Z
 ---------------------------------------------------------------------
      1          7           0       -0.426833   -1.441793    0.000002
      2          6           0       -1.744638   -1.484658    0.000028
      3          6           0       -2.539139   -0.329655    0.000038
      4          6           0       -1.930861    0.905294    0.000020
      5          6           0       -0.532883    0.969602   -0.000007
      6          6           0        0.172746   -0.246825   -0.000017
      7          6           0        1.653922   -0.215159   -0.000059
      8          8           0        2.294311    0.821503   -0.000020
      9          8           0        2.240713   -1.403796    0.000017
     10          8           0        0.042085    2.175473   -0.000019
     11          1           0       -2.198140   -2.469754    0.000042
     12          1           0       -3.618851   -0.414374    0.000061
     13          1           0       -2.492310    1.831323    0.000028
     14          1           0        3.194715   -1.245376    0.000040
     15          1           0        1.010662    2.053699   -0.000026
 ---------------------------------------------------------------------
 Rotational constants (GHZ):      2.3749822      1.2703372      0.8276444
 Standard basis: 6-311+G(d,p) (5D, 7F)
 There are   260 symmetry adapted cartesian basis functions of A   symmetry.
 There are   250 symmetry adapted basis functions of A   symmetry.
   250 basis functions,   400 primitive gaussians,   260 cartesian basis functions
    36 alpha electrons       36 beta electrons
       nuclear repulsion energy       509.1906088457 Hartrees.
 NAtoms=   15 NActive=   15 NUniq=   15 SFac= 1.00D+00 NAtFMM=   60 NAOKFM=F Big=F
 Integral buffers will be    131072 words long.
 Raffenetti 2 integral format.
 Two-electron integral symmetry is turned on.
 One-electron integrals computed using PRISM.
 NBasis=   250 RedAO= T EigKep=  4.55D-06  NBF=   250
 NBsUse=   250 1.00D-06 EigRej= -1.00D+00 NBFU=   250
 Initial guess from the checkpoint file:  "m062x63113HPA.chk"
 B after Tr=     0.000000    0.000000   -0.000000
         Rot=    1.000000   -0.000000   -0.000001   -0.000303 Ang=  -0.03 deg.
 Keep R1 ints in memory in canonical form, NReq=501328610.
 Requested convergence on RMS density matrix=1.00D-08 within 128 cycles.
 Requested convergence on MAX density matrix=1.00D-06.
 Requested convergence on             energy=1.00D-06.
 No special actions if energy rises.
 SCF Done:  E(RM062X) =  -512.041950546     A.U. after   11 cycles
            NFock= 11  Conv=0.32D-08     -V/T= 2.0033
 Calling FoFJK, ICntrl=      2127 FMM=F ISym2X=0 I1Cent= 0 IOpClX= 0 NMat=1 NMatS=1 NMatT=0.
 ***** Axes restored to original set *****
 -------------------------------------------------------------------
 Center     Atomic                   Forces (Hartrees/Bohr)
 Number     Number              X              Y              Z
 -------------------------------------------------------------------
      1        7           0.000129015    0.000366536    0.000001201
      2        6           0.000007589   -0.000473908   -0.000000797
      3        6           0.000341440   -0.000057348    0.000000057
      4        6           0.000206840   -0.000015415   -0.000000510
      5        6           0.000073896    0.000299462    0.000000041
      6        6           0.000324608   -0.000482508    0.000005885
      7        6          -0.001362768    0.001329419   -0.000019556
      8        8           0.000495724   -0.000928375    0.000007325
      9        8          -0.000165377   -0.000175035    0.000005983
     10        8          -0.000434256   -0.000102116    0.000000148
     11        1           0.000135060   -0.000066761   -0.000000091
     12        1           0.000074385   -0.000045089    0.000000181
     13        1           0.000050236    0.000070749    0.000000042
     14        1          -0.000059115   -0.000259014   -0.000000022
     15        1           0.000182724    0.000539401    0.000000113
 -------------------------------------------------------------------
 Cartesian Forces:  Max     0.001362768 RMS     0.000376952

 GradGradGradGradGradGradGradGradGradGradGradGradGradGradGradGradGradGrad
 Berny optimization.
 Using GEDIIS/GDIIS optimizer.
 FormGI is forming the generalized inverse of G from B-inverse, IUseBI=4.
 Internal  Forces:  Max     0.001086727 RMS     0.000329013
 Search for a local minimum.
 Step number   2 out of a maximum of   74
 All quantities printed in internal units (Hartrees-Bohrs-Radians)
 Mixed Optimization -- En-DIIS/RFO-DIIS
 Update second derivatives using D2CorX and points    1    2
 DE= -1.40D-04 DEPred=-1.46D-04 R= 9.54D-01
 TightC=F SS=  1.41D+00  RLast= 2.26D-02 DXNew= 5.0454D-01 6.7712D-02
 Trust test= 9.54D-01 RLast= 2.26D-02 DXMaxT set to 3.00D-01
 ITU=  1  0
 Use linear search instead of GDIIS.
     Eigenvalues ---    0.00992   0.01534   0.01747   0.02032   0.02124
     Eigenvalues ---    0.02154   0.02192   0.02220   0.02284   0.02499
     Eigenvalues ---    0.02511   0.02641   0.15990   0.16000   0.16000
     Eigenvalues ---    0.16000   0.16541   0.22086   0.23155   0.24713
     Eigenvalues ---    0.24956   0.25000   0.25000   0.25144   0.34074
     Eigenvalues ---    0.35286   0.35406   0.35863   0.41114   0.43954
     Eigenvalues ---    0.46242   0.48185   0.51004   0.53401   0.56152
     Eigenvalues ---    0.58279   0.59836   0.63157   0.85687
 RFO step:  Lambda=-1.97011660D-05 EMin= 9.92046519D-03
 Quartic linear search produced a step of -0.04770.
 Iteration  1 RMS(Cart)=  0.00401951 RMS(Int)=  0.00000857
 Iteration  2 RMS(Cart)=  0.00000914 RMS(Int)=  0.00000008
 Iteration  3 RMS(Cart)=  0.00000000 RMS(Int)=  0.00000008
 Variable       Old X    -DE/DX   Delta X   Delta X   Delta X     New X
                                 (Linear)    (Quad)   (Total)
    R1        2.49161   0.00021   0.00027  -0.00035  -0.00008   2.49153
    R2        2.52647   0.00018   0.00024  -0.00026  -0.00003   2.52645
    R3        2.64917   0.00014   0.00026  -0.00038  -0.00012   2.64905
    R4        2.04935   0.00012   0.00017  -0.00010   0.00007   2.04942
    R5        2.60145   0.00036   0.00029  -0.00002   0.00028   2.60172
    R6        2.04663   0.00008   0.00018  -0.00023  -0.00005   2.04658
    R7        2.64459   0.00063   0.00028   0.00066   0.00094   2.64553
    R8        2.04646   0.00009   0.00017  -0.00018  -0.00001   2.04645
    R9        2.65747   0.00071   0.00024   0.00097   0.00121   2.65869
   R10        2.52454   0.00050   0.00019   0.00037   0.00056   2.52510
   R11        2.79966   0.00109   0.00013   0.00272   0.00284   2.80250
   R12        2.30265  -0.00105   0.00053  -0.00237  -0.00183   2.30082
   R13        2.50500   0.00050   0.00024   0.00021   0.00045   2.50544
   R14        1.82749   0.00001   0.00026  -0.00060  -0.00034   1.82715
   R15        1.84475  -0.00024   0.00028  -0.00113  -0.00085   1.84390
    A1        2.06836   0.00059   0.00004   0.00213   0.00217   2.07054
    A2        2.14082  -0.00020   0.00000  -0.00094  -0.00094   2.13989
    A3        2.03475   0.00020  -0.00001   0.00111   0.00109   2.03585
    A4        2.10761  -0.00000   0.00001  -0.00017  -0.00016   2.10745
    A5        2.08138  -0.00009  -0.00003  -0.00039  -0.00042   2.08095
    A6        2.09504   0.00001   0.00002  -0.00002   0.00000   2.09504
    A7        2.10677   0.00008   0.00001   0.00041   0.00042   2.10720
    A8        2.07444   0.00028  -0.00001   0.00128   0.00127   2.07571
    A9        2.13888  -0.00014  -0.00001  -0.00062  -0.00063   2.13826
   A10        2.06987  -0.00014   0.00002  -0.00066  -0.00064   2.06922
   A11        2.05047  -0.00023   0.00005  -0.00089  -0.00084   2.04963
   A12        2.06169  -0.00030   0.00001  -0.00121  -0.00120   2.06049
   A13        2.17102   0.00052  -0.00006   0.00210   0.00204   2.17306
   A14        2.15090  -0.00036  -0.00006  -0.00119  -0.00124   2.14966
   A15        2.05722  -0.00025   0.00001  -0.00101  -0.00100   2.05622
   A16        2.07507   0.00062   0.00005   0.00220   0.00225   2.07731
   A17        2.14553   0.00027   0.00005   0.00092   0.00097   2.14651
   A18        2.00799  -0.00038   0.00000  -0.00147  -0.00147   2.00652
   A19        2.12966   0.00011  -0.00005   0.00055   0.00050   2.13016
   A20        1.86481   0.00050   0.00014   0.00259   0.00274   1.86754
   A21        1.89065   0.00094   0.00026   0.00495   0.00521   1.89587
    D1       -0.00000   0.00000   0.00000   0.00001   0.00001   0.00001
    D2        3.14159   0.00000   0.00000   0.00000   0.00000  -3.14159
    D3        0.00000  -0.00000  -0.00000  -0.00001  -0.00001  -0.00001
    D4       -3.14158  -0.00000  -0.00000  -0.00003  -0.00003   3.14158
    D5        0.00000  -0.00000  -0.00000  -0.00000  -0.00000  -0.00000
    D6       -3.14159  -0.00000  -0.00000  -0.00001  -0.00001   3.14159
    D7        3.14159   0.00000   0.00000   0.00000   0.00000  -3.14159
    D8        0.00000  -0.00000  -0.00000  -0.00000  -0.00000  -0.00000
    D9       -0.00000   0.00000   0.00000   0.00000   0.00000   0.00000
   D10       -3.14159  -0.00000  -0.00000  -0.00000  -0.00000  -3.14159
   D11        3.14159   0.00000   0.00000   0.00000   0.00000  -3.14159
   D12        0.00000   0.00000  -0.00000   0.00000   0.00000   0.00000
   D13        0.00000  -0.00000  -0.00000  -0.00000  -0.00000  -0.00000
   D14       -3.14159  -0.00000  -0.00000   0.00000  -0.00000  -3.14159
   D15        3.14159  -0.00000   0.00000  -0.00000  -0.00000   3.14159
   D16        0.00000   0.00000  -0.00000   0.00000   0.00000   0.00000
   D17       -0.00000   0.00000   0.00000   0.00001   0.00001   0.00000
   D18        3.14158   0.00000   0.00000   0.00002   0.00002  -3.14158
   D19        3.14159   0.00000   0.00000   0.00000   0.00001   3.14159
   D20       -0.00001   0.00000   0.00000   0.00002   0.00002   0.00001
   D21        3.14158   0.00000   0.00000  -0.00000   0.00000   3.14158
   D22       -0.00001   0.00000   0.00000   0.00000   0.00000  -0.00001
   D23       -3.14153  -0.00000  -0.00000  -0.00028  -0.00028   3.14137
   D24       -0.00008   0.00000   0.00001   0.00027   0.00027   0.00020
   D25        0.00007  -0.00000  -0.00000  -0.00030  -0.00030  -0.00023
   D26        3.14152   0.00000   0.00000   0.00026   0.00026  -3.14140
   D27       -3.14153  -0.00000  -0.00000  -0.00027  -0.00028   3.14138
   D28       -0.00007   0.00000   0.00000   0.00027   0.00028   0.00021
         Item               Value     Threshold  Converged?
 Maximum Force            0.001087     0.000450     NO 
 RMS     Force            0.000329     0.000300     NO 
 Maximum Displacement     0.021235     0.001800     NO 
 RMS     Displacement     0.004020     0.001200     NO 
 Predicted change in Energy=-1.021570D-05
 GradGradGradGradGradGradGradGradGradGradGradGradGradGradGradGradGradGrad

                          Input orientation:                          
 ---------------------------------------------------------------------
 Center     Atomic      Atomic             Coordinates (Angstroms)
 Number     Number       Type             X           Y           Z
 ---------------------------------------------------------------------
      1          7           0        0.427990   -1.439757   -0.000090
      2          6           0        1.745712   -1.483923   -0.000055
      3          6           0        2.540236   -0.329011    0.000006
      4          6           0        1.931434    0.905842    0.000026
      5          6           0        0.533019    0.971429   -0.000014
      6          6           0       -0.173000   -0.245515   -0.000074
      7          6           0       -1.655745   -0.217065   -0.000134
      8          8           0       -2.298895    0.816743    0.000105
      9          8           0       -2.238287   -1.408054    0.000042
     10          8           0       -0.039548    2.178769    0.000002
     11          1           0        2.199335   -2.469004   -0.000072
     12          1           0        3.619918   -0.413784    0.000038
     13          1           0        2.493116    1.831725    0.000072
     14          1           0       -3.193103   -1.255767    0.000175
     15          1           0       -1.008542    2.064132   -0.000041
 ---------------------------------------------------------------------
                    Distance matrix (angstroms):
                    1          2          3          4          5
     1  N    0.000000
     2  C    1.318462   0.000000
     3  C    2.386491   1.401816   0.000000
     4  C    2.786068   2.396970   1.376772   0.000000
     5  C    2.413472   2.738499   2.391665   1.399952   0.000000
     6  C    1.336938   2.283661   2.714520   2.398805   1.406917
     7  C    2.415973   3.629716   4.197474   3.758826   2.490623
     8  O    3.539448   4.653161   4.972920   4.231267   2.836135
     9  O    2.666466   3.984722   4.898838   4.768720   3.652680
    10  O    3.648605   4.074612   3.597811   2.346298   1.336227
    11  H    2.048661   1.084508   2.166975   3.385462   3.822720
    12  H    3.352763   2.158203   1.083005   2.142986   3.383453
    13  H    3.868765   3.398843   2.161251   1.082934   2.140581
    14  H    3.625764   4.944083   5.807758   5.561783   4.341012
    15  H    3.786933   4.491615   4.280299   3.159920   1.889553
                    6          7          8          9         10
     6  C    0.000000
     7  C    1.483018   0.000000
     8  O    2.376515   1.217539   0.000000
     9  O    2.370002   1.325824   2.225622   0.000000
    10  O    2.427954   2.890002   2.638136   4.207107   0.000000
    11  H    3.251442   4.464624   5.570476   4.562686   5.158914
    12  H    3.796648   5.279329   6.045373   5.941980   4.484754
    13  H    3.379808   4.627157   4.898321   5.734313   2.556330
    14  H    3.184593   1.855363   2.257190   0.966884   4.662719
    15  H    2.456135   2.371230   1.794711   3.683523   0.975752
                   11         12         13         14         15
    11  H    0.000000
    12  H    2.498397   0.000000
    13  H    4.310752   2.512368   0.000000
    14  H    5.527235   6.864851   6.470370   0.000000
    15  H    5.553359   5.250019   3.509362   3.974171   0.000000
 Stoichiometry    C6H5NO3
 Framework group  C1[X(C6H5NO3)]
 Deg. of freedom    39
 Full point group                 C1      NOp   1
 Largest Abelian subgroup         C1      NOp   1
 Largest concise Abelian subgroup C1      NOp   1
                         Standard orientation:                         
 ---------------------------------------------------------------------
 Center     Atomic      Atomic             Coordinates (Angstroms)
 Number     Number       Type             X           Y           Z
 ---------------------------------------------------------------------
      1          7           0       -0.424668   -1.440497    0.000080
      2          6           0       -1.742295   -1.487413    0.000045
      3          6           0       -2.539228   -0.334163   -0.000017
      4          6           0       -1.933005    0.901959   -0.000037
      5          6           0       -0.534730    0.970464    0.000004
      6          6           0        0.173828   -0.245003    0.000064
      7          6           0        1.656510   -0.213458    0.000124
      8          8           0        2.297500    0.821691   -0.000115
      9          8           0        2.241537   -1.403228   -0.000052
     10          8           0        0.035316    2.178997   -0.000012
     11          1           0       -2.193860   -2.473439    0.000061
     12          1           0       -3.618730   -0.421189   -0.000048
     13          1           0       -2.496618    1.826668   -0.000082
     14          1           0        3.196033   -1.248948   -0.000185
     15          1           0        1.004547    2.066383    0.000031
 ---------------------------------------------------------------------
 Rotational constants (GHZ):      2.3715991      1.2690783      0.8266992
 Standard basis: 6-311+G(d,p) (5D, 7F)
 There are   260 symmetry adapted cartesian basis functions of A   symmetry.
 There are   250 symmetry adapted basis functions of A   symmetry.
   250 basis functions,   400 primitive gaussians,   260 cartesian basis functions
    36 alpha electrons       36 beta electrons
       nuclear repulsion energy       508.9605193311 Hartrees.
 NAtoms=   15 NActive=   15 NUniq=   15 SFac= 1.00D+00 NAtFMM=   60 NAOKFM=F Big=F
 Integral buffers will be    131072 words long.
 Raffenetti 2 integral format.
 Two-electron integral symmetry is turned on.
 One-electron integrals computed using PRISM.
 NBasis=   250 RedAO= T EigKep=  4.56D-06  NBF=   250
 NBsUse=   250 1.00D-06 EigRej= -1.00D+00 NBFU=   250
 Initial guess from the checkpoint file:  "m062x63113HPA.chk"
 B after Tr=    -0.000000   -0.000000    0.000000
         Rot=    1.000000    0.000004   -0.000000   -0.000631 Ang=   0.07 deg.
 ExpMin= 4.38D-02 ExpMax= 8.59D+03 ExpMxC= 1.30D+03 IAcc=2 IRadAn=         4 AccDes= 0.00D+00
 Harris functional with IExCor= 1009 and IRadAn=       4 diagonalized for initial guess.
 HarFok:  IExCor= 1009 AccDes= 0.00D+00 IRadAn=         4 IDoV= 1 UseB2=F ITyADJ=14
 ICtDFT=  3500011 ScaDFX=  1.000000  1.000000  1.000000  1.000000
 FoFCou: FMM=F IPFlag=           0 FMFlag=      100000 FMFlg1=           0
         NFxFlg=           0 DoJE=T BraDBF=F KetDBF=T FulRan=T
         wScrn=  0.000000 ICntrl=     500 IOpCl=  0 I1Cent=   200000004 NGrid=           0
         NMat0=    1 NMatS0=      1 NMatT0=    0 NMatD0=    1 NMtDS0=    0 NMtDT0=    0
 Petite list used in FoFCou.
 Keep R1 ints in memory in canonical form, NReq=501328610.
 Requested convergence on RMS density matrix=1.00D-08 within 128 cycles.
 Requested convergence on MAX density matrix=1.00D-06.
 Requested convergence on             energy=1.00D-06.
 No special actions if energy rises.
 SCF Done:  E(RM062X) =  -512.041958894     A.U. after   10 cycles
            NFock= 10  Conv=0.83D-08     -V/T= 2.0033
 Calling FoFJK, ICntrl=      2127 FMM=F ISym2X=0 I1Cent= 0 IOpClX= 0 NMat=1 NMatS=1 NMatT=0.
 ***** Axes restored to original set *****
 -------------------------------------------------------------------
 Center     Atomic                   Forces (Hartrees/Bohr)
 Number     Number              X              Y              Z
 -------------------------------------------------------------------
      1        7          -0.000154153    0.000130395   -0.000003622
      2        6           0.000047086   -0.000071306    0.000002550
      3        6           0.000161194   -0.000068598    0.000000011
      4        6          -0.000144786    0.000123206    0.000001358
      5        6          -0.000005945   -0.000397492   -0.000001844
      6        6           0.000319261   -0.000196928   -0.000017515
      7        6          -0.000556176    0.000722064    0.000061572
      8        8           0.000396011    0.000132833   -0.000024605
      9        8           0.000138425   -0.000500441   -0.000018624
     10        8          -0.000672799    0.000096793   -0.000001154
     11        1           0.000019027   -0.000081160    0.000000145
     12        1           0.000094053    0.000016978   -0.000000430
     13        1           0.000047644    0.000097383   -0.000000047
     14        1          -0.000094516    0.000031705    0.000000099
     15        1           0.000405675   -0.000035431    0.000002106
 -------------------------------------------------------------------
 Cartesian Forces:  Max     0.000722064 RMS     0.000228966

 GradGradGradGradGradGradGradGradGradGradGradGradGradGradGradGradGradGrad
 Berny optimization.
 Using GEDIIS/GDIIS optimizer.
 FormGI is forming the generalized inverse of G from B-inverse, IUseBI=4.
 Internal  Forces:  Max     0.000741534 RMS     0.000198470
 Search for a local minimum.
 Step number   3 out of a maximum of   74
 All quantities printed in internal units (Hartrees-Bohrs-Radians)
 Mixed Optimization -- En-DIIS/RFO-DIIS
 Swapping is turned off.
 Update second derivatives using D2CorX and points    1    2    3
 DE= -8.35D-06 DEPred=-1.02D-05 R= 8.17D-01
 TightC=F SS=  1.41D+00  RLast= 8.79D-03 DXNew= 5.0454D-01 2.6368D-02
 Trust test= 8.17D-01 RLast= 8.79D-03 DXMaxT set to 3.00D-01
 ITU=  1  1  0
     Eigenvalues ---    0.00992   0.01537   0.01747   0.02032   0.02125
     Eigenvalues ---    0.02154   0.02192   0.02220   0.02284   0.02500
     Eigenvalues ---    0.02511   0.02641   0.14618   0.16000   0.16000
     Eigenvalues ---    0.16003   0.16038   0.21365   0.22141   0.24158
     Eigenvalues ---    0.24947   0.25000   0.25008   0.31578   0.35183
     Eigenvalues ---    0.35277   0.35413   0.35816   0.43663   0.44607
     Eigenvalues ---    0.47583   0.48142   0.53254   0.54832   0.56669
     Eigenvalues ---    0.59727   0.59930   0.61902   0.83714
 En-DIIS/RFO-DIIS IScMMF=        0 using points:     3    2
 RFO step:  Lambda=-3.73881853D-06.
 DidBck=F Rises=F RFO-DIIS coefs:    0.82088    0.17912
 Iteration  1 RMS(Cart)=  0.00149175 RMS(Int)=  0.00000111
 Iteration  2 RMS(Cart)=  0.00000127 RMS(Int)=  0.00000020
 Iteration  3 RMS(Cart)=  0.00000000 RMS(Int)=  0.00000020
 Variable       Old X    -DE/DX   Delta X   Delta X   Delta X     New X
                                 (Linear)    (Quad)   (Total)
    R1        2.49153   0.00024   0.00001   0.00026   0.00027   2.49181
    R2        2.52645  -0.00009   0.00001  -0.00021  -0.00020   2.52624
    R3        2.64905   0.00024   0.00002   0.00039   0.00041   2.64946
    R4        2.04942   0.00008  -0.00001   0.00019   0.00018   2.04960
    R5        2.60172   0.00023  -0.00005   0.00048   0.00043   2.60215
    R6        2.04658   0.00009   0.00001   0.00016   0.00017   2.04675
    R7        2.64553  -0.00002  -0.00017   0.00031   0.00014   2.64567
    R8        2.04645   0.00011   0.00000   0.00022   0.00022   2.04667
    R9        2.65869  -0.00043  -0.00022  -0.00036  -0.00057   2.65811
   R10        2.52510   0.00017  -0.00010   0.00045   0.00035   2.52546
   R11        2.80250   0.00012  -0.00051   0.00150   0.00100   2.80349
   R12        2.30082  -0.00010   0.00033  -0.00097  -0.00065   2.30017
   R13        2.50544   0.00041  -0.00008   0.00071   0.00063   2.50607
   R14        1.82715   0.00010   0.00006  -0.00005   0.00001   1.82716
   R15        1.84390  -0.00040   0.00015  -0.00104  -0.00089   1.84302
    A1        2.07054  -0.00009  -0.00039   0.00063   0.00024   2.07078
    A2        2.13989  -0.00002   0.00017  -0.00033  -0.00016   2.13972
    A3        2.03585  -0.00000  -0.00020   0.00038   0.00018   2.03603
    A4        2.10745   0.00002   0.00003  -0.00004  -0.00002   2.10744
    A5        2.08095  -0.00010   0.00008  -0.00034  -0.00026   2.08069
    A6        2.09504   0.00008  -0.00000   0.00023   0.00023   2.09526
    A7        2.10720   0.00002  -0.00008   0.00011   0.00004   2.10723
    A8        2.07571  -0.00010  -0.00023   0.00023   0.00000   2.07571
    A9        2.13826   0.00006   0.00011  -0.00004   0.00008   2.13833
   A10        2.06922   0.00004   0.00012  -0.00019  -0.00008   2.06914
   A11        2.04963   0.00018   0.00015   0.00006   0.00021   2.04984
   A12        2.06049   0.00027   0.00021   0.00042   0.00063   2.06112
   A13        2.17306  -0.00045  -0.00037  -0.00048  -0.00084   2.17222
   A14        2.14966   0.00014   0.00022  -0.00024  -0.00002   2.14964
   A15        2.05622   0.00061   0.00018   0.00160   0.00178   2.05800
   A16        2.07731  -0.00074  -0.00040  -0.00136  -0.00176   2.07555
   A17        2.14651  -0.00041  -0.00017  -0.00093  -0.00110   2.14540
   A18        2.00652  -0.00010   0.00026  -0.00096  -0.00070   2.00582
   A19        2.13016   0.00051  -0.00009   0.00189   0.00180   2.13196
   A20        1.86754  -0.00002  -0.00049   0.00106   0.00057   1.86812
   A21        1.89587  -0.00016  -0.00093   0.00145   0.00051   1.89638
    D1        0.00001  -0.00000  -0.00000  -0.00003  -0.00003  -0.00002
    D2       -3.14159  -0.00000  -0.00000  -0.00001  -0.00001   3.14159
    D3       -0.00001   0.00000   0.00000   0.00002   0.00002   0.00002
    D4        3.14158   0.00000   0.00000   0.00002   0.00003  -3.14158
    D5       -0.00000   0.00000   0.00000   0.00002   0.00002   0.00001
    D6        3.14159   0.00000   0.00000   0.00002   0.00002  -3.14158
    D7       -3.14159  -0.00000  -0.00000  -0.00000  -0.00000   3.14159
    D8       -0.00000  -0.00000   0.00000  -0.00000  -0.00000  -0.00000
    D9        0.00000  -0.00000  -0.00000  -0.00000  -0.00000  -0.00000
   D10       -3.14159  -0.00000   0.00000  -0.00001  -0.00001   3.14158
   D11       -3.14159  -0.00000  -0.00000  -0.00000  -0.00000  -3.14159
   D12        0.00000  -0.00000  -0.00000  -0.00001  -0.00001  -0.00001
   D13       -0.00000  -0.00000   0.00000  -0.00000  -0.00000  -0.00000
   D14       -3.14159  -0.00000   0.00000  -0.00004  -0.00004   3.14156
   D15        3.14159   0.00000   0.00000   0.00001   0.00001  -3.14159
   D16        0.00000  -0.00000  -0.00000  -0.00003  -0.00003  -0.00003
   D17        0.00000  -0.00000  -0.00000  -0.00001  -0.00001  -0.00000
   D18       -3.14158  -0.00000  -0.00000  -0.00001  -0.00001   3.14159
   D19        3.14159   0.00000  -0.00000   0.00003   0.00003  -3.14156
   D20        0.00001   0.00000  -0.00000   0.00003   0.00002   0.00003
   D21        3.14158   0.00000  -0.00000   0.00008   0.00008  -3.14152
   D22       -0.00001   0.00000  -0.00000   0.00004   0.00004   0.00004
   D23        3.14137   0.00002   0.00005   0.00077   0.00082  -3.14100
   D24        0.00020  -0.00001  -0.00005  -0.00057  -0.00062  -0.00042
   D25       -0.00023   0.00002   0.00005   0.00077   0.00083   0.00059
   D26       -3.14140  -0.00001  -0.00005  -0.00057  -0.00062   3.14117
   D27        3.14138   0.00001   0.00005   0.00066   0.00071  -3.14109
   D28        0.00021  -0.00001  -0.00005  -0.00067  -0.00072  -0.00050
         Item               Value     Threshold  Converged?
 Maximum Force            0.000742     0.000450     NO 
 RMS     Force            0.000198     0.000300     YES
 Maximum Displacement     0.004786     0.001800     NO 
 RMS     Displacement     0.001492     0.001200     NO 
 Predicted change in Energy=-2.920758D-06
 GradGradGradGradGradGradGradGradGradGradGradGradGradGradGradGradGradGrad

                          Input orientation:                          
 ---------------------------------------------------------------------
 Center     Atomic      Atomic             Coordinates (Angstroms)
 Number     Number       Type             X           Y           Z
 ---------------------------------------------------------------------
      1          7           0        0.428732   -1.440373    0.000171
      2          6           0        1.746606   -1.484308    0.000044
      3          6           0        2.540855   -0.328945   -0.000099
      4          6           0        1.931203    0.905741   -0.000093
      5          6           0        0.532675    0.970484    0.000055
      6          6           0       -0.172708   -0.246479    0.000187
      7          6           0       -1.655940   -0.215999    0.000349
      8          8           0       -2.296362    0.819099   -0.000232
      9          8           0       -2.239418   -1.406900   -0.000043
     10          8           0       -0.041469    2.177281    0.000099
     11          1           0        2.200622   -2.469310    0.000041
     12          1           0        3.620674   -0.413108   -0.000212
     13          1           0        2.492313    1.832108   -0.000191
     14          1           0       -3.194228   -1.254527   -0.000353
     15          1           0       -1.009914    2.061995    0.000267
 ---------------------------------------------------------------------
                    Distance matrix (angstroms):
                    1          2          3          4          5
     1  N    0.000000
     2  C    1.318607   0.000000
     3  C    2.386700   1.402032   0.000000
     4  C    2.785978   2.397167   1.376999   0.000000
     5  C    2.413096   2.738545   2.391924   1.400026   0.000000
     6  C    1.336830   2.283854   2.714816   2.398761   1.406614
     7  C    2.417633   3.631243   4.198315   3.758444   2.489534
     8  O    3.539964   4.653093   4.971586   4.228453   2.833084
     9  O    2.668360   3.986776   4.900306   4.768898   3.651911
    10  O    3.648083   4.074856   3.598551   2.346966   1.336414
    11  H    2.048978   1.084602   2.167238   3.385787   3.822856
    12  H    3.353173   2.158611   1.083094   2.143286   3.383795
    13  H    3.868785   3.399219   2.161598   1.083051   2.140696
    14  H    3.627723   4.946175   5.809292   5.562086   4.340562
    15  H    3.786328   4.491621   4.280719   3.160236   1.889703
                    6          7          8          9         10
     6  C    0.000000
     7  C    1.483545   0.000000
     8  O    2.375997   1.217197   0.000000
     9  O    2.370204   1.326157   2.226727   0.000000
    10  O    2.427311   2.886921   2.632338   4.204443   0.000000
    11  H    3.251719   4.466597   5.571041   4.565378   5.159243
    12  H    3.797041   5.280295   6.043976   5.943762   4.485690
    13  H    3.379772   4.626311   4.894650   5.734148   2.557186
    14  H    3.185238   1.856036   2.259666   0.966892   4.660172
    15  H    2.455598   2.367828   1.788782   3.680342   0.975282
                   11         12         13         14         15
    11  H    0.000000
    12  H    2.498903   0.000000
    13  H    4.311297   2.512805   0.000000
    14  H    5.529929   6.866650   6.470245   0.000000
    15  H    5.553401   5.250569   3.509764   3.971215   0.000000
 Stoichiometry    C6H5NO3
 Framework group  C1[X(C6H5NO3)]
 Deg. of freedom    39
 Full point group                 C1      NOp   1
 Largest Abelian subgroup         C1      NOp   1
 Largest concise Abelian subgroup C1      NOp   1
                         Standard orientation:                         
 ---------------------------------------------------------------------
 Center     Atomic      Atomic             Coordinates (Angstroms)
 Number     Number       Type             X           Y           Z
 ---------------------------------------------------------------------
      1          7           0       -0.426898   -1.440706   -0.000144
      2          6           0       -1.744728   -1.485954   -0.000017
      3          6           0       -2.540127   -0.331383    0.000127
      4          6           0       -1.931705    0.903910    0.000121
      5          6           0       -0.533242    0.970045   -0.000027
      6          6           0        0.173353   -0.246214   -0.000159
      7          6           0        1.656554   -0.214257   -0.000321
      8          8           0        2.295944    0.821478    0.000260
      9          8           0        2.241217   -1.404577    0.000071
     10          8           0        0.039700    2.177414   -0.000071
     11          1           0       -2.197763   -2.471408   -0.000013
     12          1           0       -3.619862   -0.416621    0.000239
     13          1           0       -2.493737    1.829717    0.000219
     14          1           0        3.195875   -1.251253    0.000381
     15          1           0        1.008259    2.063092   -0.000240
 ---------------------------------------------------------------------
 Rotational constants (GHZ):      2.3725778      1.2691129      0.8268328
 Standard basis: 6-311+G(d,p) (5D, 7F)
 There are   260 symmetry adapted cartesian basis functions of A   symmetry.
 There are   250 symmetry adapted basis functions of A   symmetry.
   250 basis functions,   400 primitive gaussians,   260 cartesian basis functions
    36 alpha electrons       36 beta electrons
       nuclear repulsion energy       508.9878477026 Hartrees.
 NAtoms=   15 NActive=   15 NUniq=   15 SFac= 1.00D+00 NAtFMM=   60 NAOKFM=F Big=F
 Integral buffers will be    131072 words long.
 Raffenetti 2 integral format.
 Two-electron integral symmetry is turned on.
 One-electron integrals computed using PRISM.
 NBasis=   250 RedAO= T EigKep=  4.57D-06  NBF=   250
 NBsUse=   250 1.00D-06 EigRej= -1.00D+00 NBFU=   250
 Initial guess from the checkpoint file:  "m062x63113HPA.chk"
 B after Tr=     0.000000    0.000000   -0.000000
         Rot=    1.000000   -0.000015    0.000004    0.000469 Ang=  -0.05 deg.
 Keep R1 ints in memory in canonical form, NReq=501328610.
 Requested convergence on RMS density matrix=1.00D-08 within 128 cycles.
 Requested convergence on MAX density matrix=1.00D-06.
 Requested convergence on             energy=1.00D-06.
 No special actions if energy rises.
 SCF Done:  E(RM062X) =  -512.041960347     A.U. after   10 cycles
            NFock= 10  Conv=0.46D-08     -V/T= 2.0033
 Calling FoFJK, ICntrl=      2127 FMM=F ISym2X=0 I1Cent= 0 IOpClX= 0 NMat=1 NMatS=1 NMatT=0.
 ***** Axes restored to original set *****
 -------------------------------------------------------------------
 Center     Atomic                   Forces (Hartrees/Bohr)
 Number     Number              X              Y              Z
 -------------------------------------------------------------------
      1        7          -0.000174633   -0.000024862    0.000008546
      2        6           0.000007594    0.000085248   -0.000006223
      3        6          -0.000026124   -0.000011617   -0.000000171
      4        6          -0.000058959    0.000089844   -0.000002932
      5        6          -0.000032461   -0.000035499    0.000006232
      6        6           0.000071712   -0.000160491    0.000040581
      7        6           0.000246931   -0.000057981   -0.000146173
      8        8          -0.000315448    0.000082110    0.000059963
      9        8           0.000080467   -0.000063032    0.000044039
     10        8           0.000295433    0.000192220    0.000003277
     11        1          -0.000028236   -0.000025829   -0.000000198
     12        1           0.000025266    0.000016407    0.000000909
     13        1           0.000019770    0.000019294    0.000000012
     14        1          -0.000094048    0.000043955   -0.000000322
     15        1          -0.000017265   -0.000149768   -0.000007540
 -------------------------------------------------------------------
 Cartesian Forces:  Max     0.000315448 RMS     0.000100521

 GradGradGradGradGradGradGradGradGradGradGradGradGradGradGradGradGradGrad
 Berny optimization.
 Using GEDIIS/GDIIS optimizer.
 FormGI is forming the generalized inverse of G from B-inverse, IUseBI=4.
 Internal  Forces:  Max     0.000340223 RMS     0.000099329
 Search for a local minimum.
 Step number   4 out of a maximum of   74
 All quantities printed in internal units (Hartrees-Bohrs-Radians)
 Mixed Optimization -- En-DIIS/RFO-DIIS
 Swapping is turned off.
 Update second derivatives using D2CorX and points    1    2    3    4
 DE= -1.45D-06 DEPred=-2.92D-06 R= 4.98D-01
 Trust test= 4.98D-01 RLast= 4.47D-03 DXMaxT set to 3.00D-01
 ITU=  0  1  1  0
     Eigenvalues ---    0.00992   0.01589   0.01747   0.02032   0.02125
     Eigenvalues ---    0.02154   0.02192   0.02220   0.02284   0.02500
     Eigenvalues ---    0.02512   0.02641   0.15225   0.16000   0.16001
     Eigenvalues ---    0.16003   0.18542   0.19171   0.22132   0.24293
     Eigenvalues ---    0.24958   0.25001   0.26146   0.31245   0.35257
     Eigenvalues ---    0.35406   0.35438   0.37650   0.43853   0.45034
     Eigenvalues ---    0.46939   0.48235   0.53494   0.55981   0.58683
     Eigenvalues ---    0.59721   0.60825   0.66387   0.84681
 En-DIIS/RFO-DIIS IScMMF=        0 using points:     4    3    2
 RFO step:  Lambda=-9.16837164D-07.
 DidBck=T Rises=F RFO-DIIS coefs:    0.69068    0.27064    0.03868
 Iteration  1 RMS(Cart)=  0.00073787 RMS(Int)=  0.00000058
 Iteration  2 RMS(Cart)=  0.00000069 RMS(Int)=  0.00000026
 Variable       Old X    -DE/DX   Delta X   Delta X   Delta X     New X
                                 (Linear)    (Quad)   (Total)
    R1        2.49181   0.00002  -0.00008   0.00017   0.00008   2.49189
    R2        2.52624  -0.00010   0.00006  -0.00020  -0.00014   2.52610
    R3        2.64946   0.00002  -0.00012   0.00024   0.00012   2.64957
    R4        2.04960   0.00001  -0.00006   0.00011   0.00005   2.04965
    R5        2.60215  -0.00003  -0.00014   0.00018   0.00004   2.60219
    R6        2.04675   0.00002  -0.00005   0.00013   0.00008   2.04684
    R7        2.64567  -0.00009  -0.00008  -0.00005  -0.00013   2.64554
    R8        2.04667   0.00003  -0.00007   0.00017   0.00010   2.04677
    R9        2.65811   0.00019   0.00013   0.00004   0.00017   2.65828
   R10        2.52546  -0.00008  -0.00013   0.00008  -0.00005   2.52541
   R11        2.80349   0.00008  -0.00042   0.00063   0.00021   2.80370
   R12        2.30017   0.00023   0.00027  -0.00011   0.00016   2.30033
   R13        2.50607   0.00003  -0.00021   0.00034   0.00013   2.50620
   R14        1.82716   0.00010   0.00001   0.00014   0.00015   1.82731
   R15        1.84302   0.00004   0.00031  -0.00035  -0.00004   1.84297
    A1        2.07078  -0.00005  -0.00016  -0.00002  -0.00018   2.07060
    A2        2.13972   0.00006   0.00009   0.00009   0.00018   2.13990
    A3        2.03603  -0.00006  -0.00010  -0.00013  -0.00023   2.03580
    A4        2.10744   0.00000   0.00001   0.00004   0.00005   2.10749
    A5        2.08069   0.00000   0.00010  -0.00013  -0.00004   2.08065
    A6        2.09526   0.00002  -0.00007   0.00021   0.00014   2.09541
    A7        2.10723  -0.00002  -0.00003  -0.00008  -0.00011   2.10713
    A8        2.07571  -0.00004  -0.00005  -0.00011  -0.00016   2.07555
    A9        2.13833   0.00002   0.00000   0.00008   0.00008   2.13841
   A10        2.06914   0.00002   0.00005   0.00003   0.00008   2.06922
   A11        2.04984   0.00005  -0.00003   0.00024   0.00021   2.05005
   A12        2.06112  -0.00022  -0.00015  -0.00029  -0.00044   2.06069
   A13        2.17222   0.00017   0.00018   0.00005   0.00023   2.17245
   A14        2.14964  -0.00002   0.00005  -0.00007  -0.00001   2.14962
   A15        2.05800  -0.00026  -0.00051   0.00015  -0.00036   2.05763
   A16        2.07555   0.00028   0.00046  -0.00008   0.00037   2.07593
   A17        2.14540   0.00034   0.00030   0.00039   0.00069   2.14610
   A18        2.00582  -0.00015   0.00027  -0.00074  -0.00047   2.00536
   A19        2.13196  -0.00019  -0.00058   0.00035  -0.00023   2.13173
   A20        1.86812  -0.00004  -0.00028   0.00010  -0.00018   1.86794
   A21        1.89638  -0.00027  -0.00036  -0.00088  -0.00124   1.89514
[...]
 ! A1    A(2,1,6)              118.6293         -DE/DX =    0.0                 !
 ! A2    A(1,2,3)              122.6128         -DE/DX =    0.0                 !
 ! A3    A(1,2,11)             116.6344         -DE/DX =    0.0                 !
 ! A4    A(3,2,11)             120.7527         -DE/DX =    0.0                 !
 ! A5    A(2,3,4)              119.2117         -DE/DX =    0.0                 !
 ! A6    A(2,3,12)             120.0622         -DE/DX =    0.0                 !
 ! A7    A(4,3,12)             120.7261         -DE/DX =    0.0                 !
 ! A8    A(3,4,5)              118.915          -DE/DX =    0.0                 !
 ! A9    A(3,4,13)             122.5251         -DE/DX =    0.0                 !
 ! A10   A(5,4,13)             118.5598         -DE/DX =    0.0                 !
 ! A11   A(4,5,6)              117.4642         -DE/DX =    0.0                 !
 ! A12   A(4,5,10)             118.0579         -DE/DX =    0.0001              !
 ! A13   A(6,5,10)             124.4779         -DE/DX =   -0.0001              !
 ! A14   A(1,6,5)              123.1669         -DE/DX =    0.0                 !
 ! A15   A(1,6,7)              117.8874         -DE/DX =    0.0001              !
 ! A16   A(5,6,7)              118.9457         -DE/DX =   -0.0001              !
 ! A17   A(6,7,8)              122.9802         -DE/DX =   -0.0001              !
 ! A18   A(6,7,9)              114.8853         -DE/DX =    0.0001              !
 ! A19   A(8,7,9)              122.1345         -DE/DX =    0.0                 !
 ! A20   A(7,9,14)             107.0184         -DE/DX =    0.0                 !
 ! A21   A(5,10,15)            108.5649         -DE/DX =    0.0001              !
 ! D1    D(6,1,2,3)             -0.0018         -DE/DX =    0.0                 !
 ! D2    D(6,1,2,11)           179.9996         -DE/DX =    0.0                 !
 ! D3    D(2,1,6,5)              0.0013         -DE/DX =    0.0                 !
 ! D4    D(2,1,6,7)            180.0007         -DE/DX =    0.0                 !
 ! D5    D(1,2,3,4)              0.0012         -DE/DX =    0.0                 !
 ! D6    D(1,2,3,12)          -179.999          -DE/DX =    0.0                 !
 ! D7    D(11,2,3,4)          -180.0002         -DE/DX =    0.0                 !
 ! D8    D(11,2,3,12)           -0.0004         -DE/DX =    0.0                 !
 ! D9    D(2,3,4,5)              0.0            -DE/DX =    0.0                 !
 ! D10   D(2,3,4,13)          -180.001          -DE/DX =    0.0                 !
 ! D11   D(12,3,4,5)           180.0001         -DE/DX =    0.0                 !
 ! D12   D(12,3,4,13)           -0.0008         -DE/DX =    0.0                 !
 ! D13   D(3,4,5,6)             -0.0004         -DE/DX =    0.0                 !
 ! D14   D(3,4,5,10)           179.9965         -DE/DX =    0.0                 !
 ! D15   D(13,4,5,6)           180.0005         -DE/DX =    0.0                 !
 ! D16   D(13,4,5,10)           -0.0025         -DE/DX =    0.0                 !
 ! D17   D(4,5,6,1)             -0.0002         -DE/DX =    0.0                 !
 ! D18   D(4,5,6,7)           -179.9996         -DE/DX =    0.0                 !
 ! D19   D(10,5,6,1)          -179.9969         -DE/DX =    0.0                 !
 ! D20   D(10,5,6,7)             0.0036         -DE/DX =    0.0                 !
 ! D21   D(4,5,10,15)         -179.993          -DE/DX =    0.0                 !
 ! D22   D(6,5,10,15)            0.0037         -DE/DX =    0.0                 !
 ! D23   D(1,6,7,8)            180.0523         -DE/DX =   -0.0001              !
 ! D24   D(1,6,7,9)             -0.0353         -DE/DX =    0.0                 !
 ! D25   D(5,6,7,8)              0.0517         -DE/DX =   -0.0001              !
 ! D26   D(5,6,7,9)            179.9642         -DE/DX =    0.0                 !
 ! D27   D(6,7,9,14)          -179.9568         -DE/DX =   -0.0001              !
 ! D28   D(8,7,9,14)            -0.0435         -DE/DX =    0.0001              !
 --------------------------------------------------------------------------------
 GradGradGradGradGradGradGradGradGradGradGradGradGradGradGradGradGradGrad

 1\1\ WCSS.PL-BEM-QINLAB\Freq\RM062X\6-311+G(d,p)\C6H5N1O3\PHZD\28-Apr-
 2024\0\\#N Geom=AllCheck Guess=TCheck SCRF=Check GenChk RM062X/6-311+G
 (d,p) Freq\\[No Title]\\0,1\N,0.4281484195,-1.4401130625,0.0002690348\
 C,1.7461004446,-1.4840870632,0.0000824207\C,2.5407457031,-0.3289001643
 ,-0.0001403922\C,1.9313846095,0.9059744963,-0.0001423538\C,0.532966935
 1,0.9707127812,0.0000778101\C,-0.1728361812,-0.2461393808,0.0002813887
 \C,-1.6562338446,-0.2158674848,0.0005091153\O,-2.2979002363,0.81858696
 47,-0.0003930821\O,-2.2387692581,-1.4073708012,-0.0000604743\O,-0.0404
 326155,2.1778902691,0.0001434505\H,2.1997403601,-2.4693090333,0.000085
 6591\H,3.6206231888,-0.4131601159,-0.0003054616\H,2.4926412188,1.83234
 04328,-0.0002926999\H,-3.1937870532,-1.2554964181,-0.0005386008\H,-1.0
 087506906,2.0616975799,0.0004121856\\Version=ES64L-G09RevE.01\State=1-
 A\HF=-512.0419609\RMSD=3.534e-09\RMSF=5.221e-05\ZeroPoint=0.1096892\Th
 ermal=0.1173846\Dipole=0.4811997,-0.1713092,0.0002989\DipoleDeriv=0.08
 0369,0.0653339,-0.0000272,-0.4133918,-0.4131863,0.0000444,0.0001207,0.
 0000364,-0.2450262,-0.3260497,-0.0890739,0.0000012,-0.2790354,0.251670
 8,0.0000004,0.0000606,0.0000077,-0.0306905,0.1258333,-0.0572147,-0.000
 0277,0.360624,0.0474565,-0.0000174,-0.0000588,-0.0000078,-0.0845933,0.
 076699,0.3827407,-0.0000231,-0.0563872,-0.0397198,-0.0000244,-0.000083
 ,-0.0000751,-0.145026,0.1756893,-0.6700199,-0.0000364,-0.4645214,1.186
 9851,0.0000949,0.0001769,0.0000724,0.1602952,-0.5204711,-0.2452856,-0.
 0000022,0.4299516,-0.1056148,-0.0000343,0.00012,0.0000598,0.0301176,2.
 1537848,0.2433101,0.0000643,0.1900812,1.7714486,-0.0000516,0.0003791,-
 0.0000591,0.349239,-1.1897926,0.2911867,-0.0000187,0.2634792,-1.083911
 ,-0.0000334,-0.0004576,0.0004452,-0.38712,-0.8910743,-0.5927218,0.0000
 061,-0.5983078,-1.0748235,0.000013,-0.0002821,-0.0005088,-0.3632217,-0
 .6461238,0.5217731,0.0000244,0.3752317,-1.2946116,-0.0000924,-0.000015
 1,-0.0001276,-0.3668358,0.0208412,0.0456661,0.0000049,0.0714796,-0.028
 9065,0.0000006,-0.0000075,-0.0000076,0.1218501,-0.036679,0.0145253,0.0
 000233,0.0150048,0.090182,0.0000025,0.0000359,0.0000009,0.1367295,0.06
 90517,-0.0268581,0.0000112,-0.0376424,0.0210443,0.0000136,0.0000048,0.
 0000171,0.1477187,0.3668933,0.0927531,-0.0000024,0.1213606,0.2851862,0
 .0000328,-0.0000552,0.0000357,0.3488206,0.541029,0.023885,0.0000022,0.
 0220734,0.3868002,0.0000513,0.0000613,0.0001106,0.3277429\Polar=111.66
 26372,-3.8500443,93.7244491,-0.0014737,-0.0029559,45.7479232\PG=C01 [X
 (C6H5N1O3)]\NImag=0\\0.65663577,-0.11367949,0.46899856,-0.00007897,-0.
 00001337,0.09976443,-0.39220884,-0.01400054,0.00004984,0.71655587,0.03
 226980,-0.12505257,0.00000302,-0.05828572,0.74176377,0.00004383,0.0000
 1482,-0.06653498,-0.00008187,-0.00003883,0.15070312,-0.05642095,-0.021
 17206,0.00001689,-0.18124462,-0.11630697,0.00002741,0.76273441,-0.1013
 2731,0.05465513,0.00001504,-0.03347093,-0.26390186,0.00002135,-0.03751
 322,0.69208537,0.00001963,0.00000453,0.02405502,0.00002376,0.00003656,
 -0.07008913,-0.00009317,-0.00004254,0.13813995,-0.06587253,0.03987750,
 0.00000739,0.08097600,0.01897882,-0.00001519,-0.18826152,0.06636372,0.
 00001433,0.69146720,0.04213955,-0.02203207,-0.00000640,-0.03487084,-0.
 05750793,0.00001093,0.13761493,-0.34816381,0.00000143,0.00773969,0.796
 22939,0.00000654,-0.00000613,-0.00698925,-0.00000955,0.00000217,0.0077
 5015,0.00000856,0.00001294,-0.05732103,-0.00008359,-0.00004670,0.12910
 604,0.09089702,-0.03624250,-0.00001127,-0.07618639,-0.03078486,0.00001
 496,-0.00977790,0.09285227,-0.00000557,-0.31764357,-0.05372528,0.00003
 726,0.71771912,0.02992812,-0.07065191,-0.00000644,-0.03818183,-0.00758
 419,0.00000787,0.04061801,0.02858812,-0.00000751,0.01740668,-0.1250909
 0,0.00000125,-0.02904981,0.71607157,-0.00001864,0.00001323,0.01487507,
 0.00001689,0.00000666,-0.00967685,-0.00000097,-0.00001957,-0.00248246,
 0.00003173,0.00001235,-0.06752525,-0.00009949,-0.00002438,0.16026628,-
 0.14349260,0.08996909,0.00001395,-0.06746350,0.03510542,0.00001322,-0.
 00032992,0.02038836,-0.00000278,-0.01083971,-0.02846616,0.00000732,-0.
 20290788,-0.09441951,0.00004069,0.66535381,0.06789459,-0.30052115,0.00
 001008,0.10045005,0.01040306,-0.00002203,-0.01788421,-0.07510723,0.000
 00524,-0.06946268,0.04304811,0.00001062,-0.03584805,-0.23382755,0.0000
 1290,-0.01811545,0.71231788,0.00002075,-0.00000015,-0.06343557,0.00000
 194,-0.00000977,0.00652681,-0.00000039,0.00000171,-0.00881666,0.000008
 39,0.00000647,0.00871607,0.00003592,0.00002659,-0.06709518,-0.00005693
 ,-0.00003230,0.14205726,-0.04206216,0.03263490,0.00000040,0.02545960,0
 .00932931,-0.00000767,0.00031308,-0.01722518,0.00000152,-0.01194877,0.
 00275303,-0.00000138,0.00014841,-0.03901777,-0.00000336,-0.20531623,-0
 .01588133,0.00005757,0.75091976,0.03530107,-0.00438179,-0.00001151,0.0
 0633265,-0.00674342,0.00000047,-0.00036437,-0.00214131,0.00000108,-0.0
 0252835,-0.00657779,0.00000168,-0.03828948,0.02697818,0.00001197,-0.02
 580156,-0.09570857,-0.00000210,-0.13060343,0.89551635,0.00000687,-0.00
 001015,-0.01205004,0.00000095,-0.00000028,0.01247401,-0.00000218,0.000
 00025,0.00060349,0.00000225,0.00000447,0.00666265,0.00000653,-0.000014
 66,0.00116893,-0.00002439,0.00000756,-0.07789819,0.00034198,-0.0002518
 1,0.21360035,-0.00570637,-0.00351539,-0.00000255,-0.00655184,-0.000766
 79,0.00000404,-0.00026641,0.00460848,-0.00000051,0.00308250,-0.0002748
 2,-0.00000053,-0.00088397,0.00429364,-0.00000143,-0.02413435,0.0447963
 8,-0.00004063,-0.30053218,0.26394713,-0.00025368,0.31629275,-0.0032528
 6,0.00641619,0.00000236,0.00733208,0.00447173,-0.00000383,-0.00000334,
 -0.00683991,0.00000052,-0.00655496,0.00429815,0.00000063,0.01310594,-0
 .02918075,-0.00000790,0.03335788,-0.00674886,0.00002508,0.25400049,-0.
 51118951,0.00033107,-0.30054006,0.63438815,-0.00001001,0.00000311,0.00
 546754,-0.00000079,0.00000038,-0.00259104,0.00000045,0.00000038,-0.000
 03304,-0.00000068,-0.00000100,-0.00069384,-0.00000138,0.00001004,-0.00
 003744,0.00000693,0.00001793,0.01937300,-0.00028640,0.00035606,-0.0785
 0816,0.00028798,-0.00038730,0.03682356,-0.00111698,-0.00380485,0.00000
 036,-0.00311395,-0.00266048,0.00000045,-0.00041735,0.00232907,-0.00000
 039,0.00060886,-0.00285484,0.00000178,-0.00860417,0.00970306,0.0000025
 3,-0.03055397,-0.04289264,-0.00002347,-0.17986953,-0.10023174,-0.00006
 793,0.03908022,0.00900585,0.00000638,0.67801537,0.00551900,-0.00152861
 ,0.00000364,-0.00496735,-0.00080118,0.00000137,0.00025556,0.00263438,-
 0.00000054,0.00088796,0.00025500,0.00000040,0.00222227,-0.00113130,0.0
 0000099,-0.01427911,-0.00404709,-0.00001606,-0.07060105,-0.27536017,-0
 .00004623,-0.00675092,-0.11707688,0.00000787,0.02513431,0.45368657,-0.
 00000073,0.00000231,0.00157396,-0.00000294,-0.00000072,-0.00131582,0.0
 0000041,0.00000171,-0.00008128,0.00000044,-0.00000189,-0.00099829,-0.0
 0000225,0.00000264,0.00159535,0.00000617,-0.00001326,0.01208441,-0.000
 07098,-0.00009165,-0.06743601,0.00000327,0.00003460,0.02888707,0.00030
 388,0.00003094,0.04055993,-0.01444746,0.00340835,0.00000064,0.01179002
 ,0.00958719,-0.00000269,-0.00619700,-0.01762481,0.00000346,-0.04016550
 ,0.06444341,0.00000667,-0.15108826,0.10582359,0.00001833,0.02942198,-0
 .01059707,-0.00000485,-0.02820890,0.02220045,-0.00000903,-0.00950224,-
 0.03753566,0.00000269,0.00294021,-0.00721422,-0.00000111,0.64276545,0.
 00146180,-0.00604039,0.00000386,-0.00441090,-0.00754438,0.00000066,-0.
 00404990,0.00850851,-0.00000037,0.02682796,-0.00974504,-0.00000651,0.0
 6996296,-0.31162305,0.00000448,0.00582511,-0.04523012,0.00000019,0.023
 54735,-0.00782945,0.00000577,-0.01543017,0.00966780,-0.00000880,-0.003
 71460,-0.00063440,-0.00000178,-0.05815422,0.43104310,0.00000547,0.0000
 0119,0.00793282,-0.00000281,-0.00000171,-0.00041447,0.00000298,0.00000
 364,0.00602407,0.00000864,-0.00001316,0.00722973,0.00002128,-0.0000039
 6,-0.04612045,-0.00001048,0.00000091,0.00594531,0.00000573,-0.00000276
 ,-0.00064484,-0.00000259,0.00000302,0.00349762,-0.00000172,-0.00000222
 ,-0.00064865,-0.00014022,-0.00000851,0.03595384,-0.02566574,0.03261412
 ,0.00000024,-0.09333374,0.09561487,0.00000067,0.01099409,-0.01755219,0
 .00000049,-0.00217055,-0.00314931,0.00000133,-0.00110761,-0.00022736,0
 .00000041,-0.00404034,0.00080384,0.00000308,0.00084450,0.00116638,0.00
 000065,-0.00085648,0.00025538,-0.00000072,-0.00028630,-0.00024472,-0.0
 0000021,0.00040758,0.00033508,-0.00000021,0.11442304,0.00552782,0.0049
 7901,-0.00000228,0.09732564,-0.29350439,0.00000400,0.01248544,-0.01614
 929,-0.00000051,-0.00378173,-0.00264054,0.00000123,-0.00116532,-0.0002
 6898,0.00000027,-0.00161972,0.00333045,0.00000102,-0.00013545,0.000266
 94,0.00000010,0.00007942,-0.00004051,0.00000002,0.00014364,-0.00000897
 ,0.00000003,0.00006088,0.00027654,-0.00000014,-0.10931840,0.30425967,0
 .00000115,-0.00000735,-0.00669325,0.00000119,0.00000370,-0.03857993,-0
 .00000172,0.00000551,0.00483510,0.00000218,0.00000114,0.00591015,0.000
 00044,0.00000090,0.00109744,0.00000175,0.00000073,0.01139039,0.0000001
 5,-0.00000033,0.00058881,0.00000065,-0.00000001,-0.00040765,-0.0000000
 8,-0.00000006,0.00007250,0.00000011,-0.00000051,-0.00167158,-0.0000050
 3,-0.00000354,0.02627897,-0.00162340,-0.00351091,0.00000159,-0.0108456
 2,0.00671789,0.00000134,-0.34347615,0.02089207,0.00004155,-0.00786666,
 -0.00164082,0.00000189,0.00154862,0.00152917,0.00000108,0.00154248,-0.
 00049565,-0.00000012,-0.00016560,-0.00006217,-0.00000010,-0.00010833,-
 0.00000652,-0.00000012,-0.00009525,-0.00000150,-0.00000003,-0.00088182
 ,0.00016136,0.00000020,0.00033865,-0.00030943,-0.00000047,0.36084599,-
 0.00569383,-0.00394276,0.00000198,-0.02469587,0.01015367,0.00000271,0.
 02065810,-0.06149905,-0.00000121,0.02904225,0.00325327,-0.00000404,0.0
 0143817,-0.00470509,0.00000081,0.00121522,-0.00229306,-0.00000010,-0.0
 0041641,-0.00019957,0.00000005,0.00002046,0.00018262,-0.00000015,0.000
 06982,0.00020906,0.00000006,0.00186674,0.00021986,-0.00000047,0.000715
 11,0.00032390,-0.00000041,-0.02360195,0.05776997,0.00000235,-0.0000006
 3,0.00656077,0.00000292,-0.00000172,0.00241350,0.00004180,-0.00000131,
 -0.04028101,-0.00000113,0.00000082,0.00446767,0.00000206,0.00000079,0.
 00964088,-0.00000095,0.00000124,-0.00024555,0.00000057,-0.00000034,-0.
 00205791,-0.00000009,0.00000021,0.00033059,0.00000008,-0.00000004,0.00
 026652,-0.00000052,0.00000025,-0.00009132,-0.00000047,-0.00000012,-0.0
 0273161,-0.00004592,0.00000107,0.02686607,-0.00083911,0.00115611,-0.00
 000025,-0.00057982,0.00360240,0.00000098,0.01301968,0.01345277,-0.0000
 0231,-0.13853246,-0.12738296,0.00002439,-0.01093194,-0.02950383,0.0000
 0487,-0.00546656,0.00151488,0.00000248,0.00036440,-0.00186098,0.000000
 76,0.00005186,0.00056077,-0.00000039,-0.00078724,0.00002720,-0.0000004
 0,0.00313555,0.00029718,-0.00000134,0.00051770,0.00073485,-0.00000020,
 0.00058478,-0.00060260,-0.00000067,0.13980153,0.00041495,0.00028437,-0
 .00000032,0.00425119,-0.00289231,0.00000007,-0.01605066,-0.01614786,0.
 00000382,-0.12945828,-0.26631187,0.00003297,0.00276792,0.00413837,-0.0
 0000054,0.00049107,0.00096165,0.00000016,0.00055353,0.00010392,-0.0000
 0002,-0.00011251,0.00015952,-0.00000014,0.00002670,-0.00002603,0.00000
 004,-0.00042477,0.00046853,-0.00000013,-0.00087669,-0.00080209,0.00000
 027,0.00011839,0.00091942,-0.00000039,0.13821030,0.27907542,0.00000028
 ,-0.00000145,-0.00328320,0.00000054,0.00000023,0.00930390,-0.00000019,
 0.00000034,0.00394082,0.00002554,0.00003166,-0.03887987,0.00000167,0.0
 0000350,0.00630090,0.00000138,0.00000183,0.00619548,0.00000068,-0.0000
 0043,-0.00056104,-0.00000007,0.00000012,0.00000419,-0.00000008,0.,-0.0
 0001107,-0.00000129,0.00000052,-0.00345625,-0.00000009,-0.00000007,-0.
 00013516,-0.00000083,-0.00000031,-0.00481502,-0.00002771,-0.00003582,0
 .02582854,0.00060345,0.00006469,-0.00000006,0.00050314,0.00045450,0.00
 000009,0.00011788,-0.00040821,-0.00000004,-0.00020787,-0.00029178,0.00
 000053,-0.00076046,0.00047654,-0.00000086,0.00204859,-0.00280344,-0.00
 000469,-0.03353923,-0.00873248,-0.00001419,0.00275516,0.01003469,0.000
 00192,-0.49431780,0.06100194,-0.00023420,0.00096546,0.00033219,0.00000
 022,0.00001490,-0.00002044,0.00000004,0.00002630,0.00000453,-0.0000000
 4,-0.00005776,0.00001919,0.00000002,0.52296618,0.00155487,0.00020666,-
 0.00000050,0.00008595,0.00046861,0.00000003,0.00021725,-0.00015628,-0.
 00000011,-0.00016169,-0.00045807,0.00000043,-0.00148541,0.00102344,0.0
 0000010,-0.00110658,-0.00673705,-0.00000070,-0.05622924,0.00666480,-0.
 00003192,0.00718323,0.00111227,0.00000640,0.10936762,-0.06186720,0.000
 03605,0.00100430,0.00008355,-0.00000010,0.00004701,-0.00002646,0.00000
 006,0.00003481,0.00003390,-0.00000004,-0.00013177,0.00001874,-0.000000
 02,-0.05931830,0.06034134,0.00000125,0.00000012,-0.00038730,0.00000026
 ,0.00000075,0.00001498,0.00000020,-0.00000021,0.00001042,-0.00000012,-
 0.00000062,-0.00034806,-0.00000140,0.00000062,0.00054712,0.00000591,-0
 .00000220,0.00458631,-0.00004475,-0.00000719,0.00466056,0.00000741,0.0
 0000265,-0.00609870,-0.00022070,0.00001561,-0.01605336,0.00000069,0.00
 000003,-0.00003748,-0.00000006,0.,-0.00000554,0.00000002,0.00000003,-0
 .00000160,-0.00000008,0.00000003,0.00002437,0.00025195,-0.00000924,0.0
 1303257,0.00131989,-0.00379901,0.00000180,-0.00375630,-0.00285536,0.00
 000043,-0.00078732,0.00423511,0.00000002,0.00737458,-0.00203380,-0.000
 00124,-0.03042103,0.02062129,0.00000823,-0.00382181,-0.00147923,0.0000
 0092,0.02359285,-0.02047312,0.00001150,-0.01272032,0.02024030,-0.00000
 586,-0.00148212,0.00901063,-0.00000130,-0.44093507,-0.04299120,0.00011
 485,-0.00007969,-0.00000720,-0.00000016,0.00017602,-0.00001976,0.00000
 003,-0.00028060,0.00006967,0.00000016,-0.00111794,-0.00106204,-0.00000
 060,0.46293885,0.00194192,-0.00138865,0.00000086,-0.00289358,-0.001728
 62,0.00000040,0.00149546,0.00363509,-0.00000037,0.00482310,-0.00855588
 ,-0.00000094,0.04424116,0.00726406,-0.00001138,-0.00254406,0.00015954,
 -0.00000004,0.00729125,-0.01939860,0.00000579,0.00246191,0.01037999,-0
 .00000478,0.00037906,0.00569683,0.00000092,-0.07684416,-0.06162106,0.0
 0002439,-0.00018311,0.00000472,-0.00000010,0.00017527,-0.00042614,0.00
 000023,-0.00007433,0.00005022,-0.00000010,-0.00081362,-0.00070825,-0.0
 0000038,0.02054371,0.06663674,0.00000022,-0.00000008,-0.00085602,-0.00
 000032,-0.00000043,0.00001575,-0.00000009,0.00000078,0.00149573,-0.000
 00018,0.00000050,0.00291311,0.00000123,0.00000274,-0.00255435,-0.00000
 181,0.00000077,0.00061611,0.00000593,-0.00000315,-0.00060261,-0.000001
 26,-0.00000121,-0.00601370,-0.00000110,0.00000434,0.00150473,0.0001271
 1,0.00001072,-0.01349835,-0.00000007,0.,0.00005137,-0.00000008,-0.0000
 0003,-0.00032199,-0.00000013,0.,-0.00045658,-0.00000067,-0.00000044,0.
 00005570,-0.00012879,-0.00001451,0.01765110\\-0.00001547,0.00001109,-0
 .00001280,-0.00005145,-0.00002545,0.00000945,0.00003279,0.00003765,0.0
 0000031,-0.00001236,0.00002383,0.00000430,-0.00008129,0.00004178,-0.00
 001007,0.00005690,-0.00007254,-0.00006043,-0.00007274,0.00005983,0.000
 21969,-0.00005432,-0.00000816,-0.00009092,0.00004616,-0.00004035,-0.00
 006604,0.00003883,0.00002165,-0.00000521,0.00000877,-0.00001445,0.0000
 0024,0.00002425,0.00001436,-0.00000133,0.00001230,0.00002816,0.0000000
 2,-0.00002641,-0.00000988,0.00000047,0.00009405,-0.00006751,0.00001232
 \\\@


 Some scientists claim that hydrogen, because it is so
 plentiful, is the basic building block of the universe. 
 I dispute that. I say that stupidity is far more
 abundant than hydrogen, and THAT is the basic building 
 block of the universe.
                   --Frank Zappa
 Job cpu time:       0 days  0 hours 37 minutes 23.3 seconds.
 File lengths (MBytes):  RWF=     98 Int=      0 D2E=      0 Chk=      6 Scr=      1
 Normal termination of Gaussian 09 at Sun Apr 28 15:43:36 2024.
