 Entering Gaussian System, Link 0=g09
 Input=ccpvTZPNAyang.gjf
 Output=ccpvTZPNAyang.log
 Initial command:
 /home/phzd/g09E/g09/l1.exe "/home/phzd/g09E/scratch/Gau-1533392.inp" -scrdir="/home/phzd/g09E/scratch/"
 Default is to use a total of  18 processors:
                               18 via shared-memory
                                1 via Linda
 Entering Link 1 = /home/phzd/g09E/g09/l1.exe PID=   1533394.
  
 Copyright (c) 1988,1990,1992,1993,1995,1998,2003,2009,2015,
            Gaussian, Inc.  All Rights Reserved.
  
 This is part of the Gaussian(R) 09 program.  It is based on
 the Gaussian(R) 03 system (copyright 2003, Gaussian, Inc.),
 the Gaussian(R) 98 system (copyright 1998, Gaussian, Inc.),
 the Gaussian(R) 94 system (copyright 1995, Gaussian, Inc.),
 the Gaussian 92(TM) system (copyright 1992, Gaussian, Inc.),
 the Gaussian 90(TM) system (copyright 1990, Gaussian, Inc.),
 the Gaussian 88(TM) system (copyright 1988, Gaussian, Inc.),
 the Gaussian 86(TM) system (copyright 1986, Carnegie Mellon
 University), and the Gaussian 82(TM) system (copyright 1983,
 Carnegie Mellon University). Gaussian is a federally registered
 trademark of Gaussian, Inc.
  
 This software contains proprietary and confidential information,
 including trade secrets, belonging to Gaussian, Inc.
  
 This software is provided under written license and may be
 used, copied, transmitted, or stored only in accord with that
 written license.
  
 The following legend is applicable only to US Government
 contracts under FAR:
  
                    RESTRICTED RIGHTS LEGEND
  
 Use, reproduction and disclosure by the US Government is
 subject to restrictions as set forth in subparagraphs (a)
 and (c) of the Commercial Computer Software - Restricted
 Rights clause in FAR 52.227-19.
  
 Gaussian, Inc.
 340 Quinnipiac St., Bldg. 40, Wallingford CT 06492
  
  
 ---------------------------------------------------------------
 Warning -- This program may not be used in any manner that
 competes with the business of Gaussian, Inc. or will provide
 assistance to any competitor of Gaussian, Inc.  The licensee
 of this program is prohibited from giving any competitor of
 Gaussian, Inc. access to this program.  By using this program,
 the user acknowledges that Gaussian, Inc. is engaged in the
 business of creating and licensing software in the field of
 computational chemistry and represents and warrants to the
 licensee that it is not a competitor of Gaussian, Inc. and that
 it will not use this program in any manner prohibited above.
 ---------------------------------------------------------------
  

 Cite this work as:
 Gaussian 09, Revision E.01,
 M. J. Frisch, G. W. Trucks, H. B. Schlegel, G. E. Scuseria, 
 M. A. Robb, J. R. Cheeseman, G. Scalmani, V. Barone, B. Mennucci, 
 G. A. Petersson, H. Nakatsuji, M. Caricato, X. Li, H. P. Hratchian, 
 A. F. Izmaylov, J. Bloino, G. Zheng, J. L. Sonnenberg, M. Hada, 
 M. Ehara, K. Toyota, R. Fukuda, J. Hasegawa, M. Ishida, T. Nakajima, 
 Y. Honda, O. Kitao, H. Nakai, T. Vreven, J. A. Montgomery, Jr., 
 J. E. Peralta, F. Ogliaro, M. Bearpark, J. J. Heyd, E. Brothers, 
 K. N. Kudin, V. N. Staroverov, T. Keith, R. Kobayashi, J. Normand, 
 K. Raghavachari, A. Rendell, J. C. Burant, S. S. Iyengar, J. Tomasi, 
 M. Cossi, N. Rega, J. M. Millam, M. Klene, J. E. Knox, J. B. Cross, 
 V. Bakken, C. Adamo, J. Jaramillo, R. Gomperts, R. E. Stratmann, 
 O. Yazyev, A. J. Austin, R. Cammi, C. Pomelli, J. W. Ochterski, 
 R. L. Martin, K. Morokuma, V. G. Zakrzewski, G. A. Voth, 
 P. Salvador, J. J. Dannenberg, S. Dapprich, A. D. Daniels, 
 O. Farkas, J. B. Foresman, J. V. Ortiz, J. Cioslowski, 
 and D. J. Fox, Gaussian, Inc., Wallingford CT, 2013.
 
 ******************************************
 Gaussian 09:  ES64L-G09RevE.01 30-Nov-2015
                19-Dec-2024 
 ******************************************
 %chk=ccpvTZPNAyang.chk
 ------------------------
 # opt freq m062x/cc-pvtz
 ------------------------
 1/14=-1,18=20,19=15,26=3,38=1/1,3;
 2/9=110,12=2,17=6,18=5,40=1/2;
 3/5=16,6=1,11=2,16=1,25=1,30=1,71=1,74=-55/1,2,3;
 4//1;
 5/5=2,38=5/2;
 6/7=2,8=2,9=2,10=2,28=1/1;
 7//1,2,3,16;
 1/14=-1,18=20,19=15,26=3/3(2);
 2/9=110/2;
 99//99;
 2/9=110/2;
 3/5=16,6=1,11=2,16=1,25=1,30=1,71=1,74=-55/1,2,3;
 4/5=5,16=3,69=1/1;
 5/5=2,38=5/2;
 7//1,2,3,16;
 1/14=-1,18=20,19=15,26=3/3(-5);
 2/9=110/2;
 6/7=2,8=2,9=2,10=2,19=2,28=1/1;
 99/9=1/99;
 ----------
 [No Title]
 ----------
 Symbolic Z-matrix:
 Charge =  1 Multiplicity = 1
 C                    -0.0573    1.2641   -0.00001 
 C                     0.66318   0.0366   -0.00002 
 C                    -0.00534  -1.21938  -0.00001 
 C                    -1.36847  -1.24186   0.00001 
 C                    -2.11107  -0.01816   0.00001 
 C                    -1.41895   1.23549   0.00001 
 N                    -3.44112  -0.04429   0.00003 
 N                     2.02694   0.10571  -0.00003 
 O                     2.66123  -1.08288   0. 
 O                     2.69497   1.10285  0. 
 H                     0.48951   2.20496  -0.00001 
 H                     0.5648   -2.14458  -0.00001 
 H                    -1.90332  -2.18981   0.00001 
 H                    -1.9911    2.16137   0.00001 
 H                    -3.98339   0.80906   0.00003 
 H                    -3.95019  -0.91777   0.00003 
 H                     3.611    -0.85365   0.00002 
 

 GradGradGradGradGradGradGradGradGradGradGradGradGradGradGradGradGradGrad
 Berny optimization.
 Initialization pass.
                           ----------------------------
                           !    Initial Parameters    !
                           ! (Angstroms and Degrees)  !
 --------------------------                            --------------------------
 ! Name  Definition              Value          Derivative Info.                !
 --------------------------------------------------------------------------------
 ! R1    R(1,2)                  1.4233         estimate D2E/DX2                !
 ! R2    R(1,6)                  1.362          estimate D2E/DX2                !
 ! R3    R(1,11)                 1.0882         estimate D2E/DX2                !
 ! R4    R(2,3)                  1.4228         estimate D2E/DX2                !
 ! R5    R(2,8)                  1.3655         estimate D2E/DX2                !
 ! R6    R(3,4)                  1.3633         estimate D2E/DX2                !
 ! R7    R(3,12)                 1.0868         estimate D2E/DX2                !
 ! R8    R(4,5)                  1.4314         estimate D2E/DX2                !
 ! R9    R(4,13)                 1.0884         estimate D2E/DX2                !
 ! R10   R(5,6)                  1.432          estimate D2E/DX2                !
 ! R11   R(5,7)                  1.3303         estimate D2E/DX2                !
 ! R12   R(6,14)                 1.0884         estimate D2E/DX2                !
 ! R13   R(7,15)                 1.0111         estimate D2E/DX2                !
 ! R14   R(7,16)                 1.011          estimate D2E/DX2                !
 ! R15   R(8,9)                  1.3472         estimate D2E/DX2                !
 ! R16   R(8,10)                 1.2002         estimate D2E/DX2                !
 ! R17   R(9,17)                 0.977          estimate D2E/DX2                !
 ! A1    A(2,1,6)              119.2073         estimate D2E/DX2                !
 ! A2    A(2,1,11)             119.4253         estimate D2E/DX2                !
 ! A3    A(6,1,11)             121.3674         estimate D2E/DX2                !
 ! A4    A(1,2,3)              121.5643         estimate D2E/DX2                !
 ! A5    A(1,2,8)              117.51           estimate D2E/DX2                !
 ! A6    A(3,2,8)              120.9257         estimate D2E/DX2                !
 ! A7    A(2,3,4)              118.9697         estimate D2E/DX2                !
 ! A8    A(2,3,12)             120.332          estimate D2E/DX2                !
 ! A9    A(4,3,12)             120.6983         estimate D2E/DX2                !
 ! A10   A(3,4,5)              120.3066         estimate D2E/DX2                !
 ! A11   A(3,4,13)             120.3773         estimate D2E/DX2                !
 ! A12   A(5,4,13)             119.3161         estimate D2E/DX2                !
 ! A13   A(4,5,6)              119.8461         estimate D2E/DX2                !
 ! A14   A(4,5,7)              120.1258         estimate D2E/DX2                !
 ! A15   A(6,5,7)              120.0281         estimate D2E/DX2                !
 ! A16   A(1,6,5)              120.106          estimate D2E/DX2                !
 ! A17   A(1,6,14)             120.5106         estimate D2E/DX2                !
 ! A18   A(5,6,14)             119.3834         estimate D2E/DX2                !
 ! A19   A(5,7,15)             121.3087         estimate D2E/DX2                !
 ! A20   A(5,7,16)             121.3592         estimate D2E/DX2                !
 ! A21   A(15,7,16)            117.332          estimate D2E/DX2                !
 ! A22   A(2,8,9)              115.186          estimate D2E/DX2                !
 ! A23   A(2,8,10)             126.7206         estimate D2E/DX2                !
 ! A24   A(9,8,10)             118.0934         estimate D2E/DX2                !
 ! A25   A(8,9,17)             104.5171         estimate D2E/DX2                !
 ! D1    D(6,1,2,3)             -0.0003         estimate D2E/DX2                !
 ! D2    D(6,1,2,8)            180.0            estimate D2E/DX2                !
 ! D3    D(11,1,2,3)           179.9999         estimate D2E/DX2                !
 ! D4    D(11,1,2,8)             0.0002         estimate D2E/DX2                !
 ! D5    D(2,1,6,5)              0.0002         estimate D2E/DX2                !
 ! D6    D(2,1,6,14)          -179.9998         estimate D2E/DX2                !
 ! D7    D(11,1,6,5)           180.0            estimate D2E/DX2                !
 ! D8    D(11,1,6,14)            0.0            estimate D2E/DX2                !
 ! D9    D(1,2,3,4)              0.0003         estimate D2E/DX2                !
 ! D10   D(1,2,3,12)          -179.9998         estimate D2E/DX2                !
 ! D11   D(8,2,3,4)            179.9999         estimate D2E/DX2                !
 ! D12   D(8,2,3,12)            -0.0002         estimate D2E/DX2                !
 ! D13   D(1,2,8,9)            179.9981         estimate D2E/DX2                !
 ! D14   D(1,2,8,10)             0.0017         estimate D2E/DX2                !
 ! D15   D(3,2,8,9)             -0.0016         estimate D2E/DX2                !
 ! D16   D(3,2,8,10)          -179.9979         estimate D2E/DX2                !
 ! D17   D(2,3,4,5)             -0.0001         estimate D2E/DX2                !
 ! D18   D(2,3,4,13)           179.9998         estimate D2E/DX2                !
 ! D19   D(12,3,4,5)           180.0            estimate D2E/DX2                !
 ! D20   D(12,3,4,13)           -0.0001         estimate D2E/DX2                !
 ! D21   D(3,4,5,6)              0.0            estimate D2E/DX2                !
 ! D22   D(3,4,5,7)            180.0            estimate D2E/DX2                !
 ! D23   D(13,4,5,6)          -179.9999         estimate D2E/DX2                !
 ! D24   D(13,4,5,7)             0.0            estimate D2E/DX2                !
 ! D25   D(4,5,6,1)             -0.0001         estimate D2E/DX2                !
 ! D26   D(4,5,6,14)           179.9999         estimate D2E/DX2                !
 ! D27   D(7,5,6,1)            180.0            estimate D2E/DX2                !
 ! D28   D(7,5,6,14)             0.0            estimate D2E/DX2                !
 ! D29   D(4,5,7,15)           180.0            estimate D2E/DX2                !
 ! D30   D(4,5,7,16)             0.0            estimate D2E/DX2                !
 ! D31   D(6,5,7,15)            -0.0001         estimate D2E/DX2                !
 ! D32   D(6,5,7,16)           180.0            estimate D2E/DX2                !
 ! D33   D(2,8,9,17)          -179.9982         estimate D2E/DX2                !
 ! D34   D(10,8,9,17)           -0.0014         estimate D2E/DX2                !
 --------------------------------------------------------------------------------
 Trust Radius=3.00D-01 FncErr=1.00D-07 GrdErr=1.00D-06
 Number of steps in this run=     86 maximum allowed number of steps=    102.
 GradGradGradGradGradGradGradGradGradGradGradGradGradGradGradGradGradGrad

                          Input orientation:                          
 ---------------------------------------------------------------------
 Center     Atomic      Atomic             Coordinates (Angstroms)
 Number     Number       Type             X           Y           Z
 ---------------------------------------------------------------------
      1          6           0       -0.057295    1.264097   -0.000006
      2          6           0        0.663179    0.036604   -0.000017
      3          6           0       -0.005344   -1.219384   -0.000008
      4          6           0       -1.368465   -1.241863    0.000006
      5          6           0       -2.111070   -0.018155    0.000014
      6          6           0       -1.418947    1.235493    0.000007
      7          7           0       -3.441123   -0.044287    0.000027
      8          7           0        2.026940    0.105707   -0.000030
      9          8           0        2.661234   -1.082884    0.000000
     10          8           0        2.694969    1.102848   -0.000004
     11          1           0        0.489509    2.204959   -0.000012
     12          1           0        0.564801   -2.144584   -0.000014
     13          1           0       -1.903315   -2.189811    0.000010
     14          1           0       -1.991096    2.161374    0.000012
     15          1           0       -3.983393    0.809064    0.000033
     16          1           0       -3.950187   -0.917765    0.000032
     17          1           0        3.610997   -0.853645    0.000016
 ---------------------------------------------------------------------
                    Distance matrix (angstroms):
                    1          2          3          4          5
     1  C    0.000000
     2  C    1.423314   0.000000
     3  C    2.484024   1.422824   0.000000
     4  C    2.828251   2.400428   1.363306   0.000000
     5  C    2.421190   2.774789   2.424259   1.431406   0.000000
     6  C    1.361952   2.402620   2.832789   2.477870   1.432015
     7  N    3.627969   4.105099   3.631175   2.393763   1.330310
     8  N    2.384513   1.365511   2.426117   3.653043   4.139863
     9  O    3.591479   2.290301   2.670069   4.032834   4.889635
    10  O    2.756984   2.294569   3.561524   4.691393   4.935044
    11  H    1.088217   2.175299   3.459914   3.915693   3.421293
    12  H    3.464983   2.183405   1.086766   2.133641   3.417892
    13  H    3.916283   3.397619   2.131671   1.088425   2.181571
    14  H    2.131828   3.399974   3.920808   3.459724   2.182829
    15  H    3.952379   4.710342   4.465364   3.323274   2.046921
    16  H    4.462637   4.711047   3.956357   2.601985   2.047352
    17  H    4.235705   3.079314   3.634788   4.994573   5.782741
                    6          7          8          9         10
     6  C    0.000000
     7  N    2.393122   0.000000
     8  N    3.626369   5.470120   0.000000
     9  O    4.692840   6.190109   1.347248   0.000000
    10  O    4.116054   6.242399   1.200230   2.185992   0.000000
    11  H    2.140577   4.528684   2.602029   3.940343   2.465502
    12  H    3.919206   4.523127   2.683591   2.349944   3.883739
    13  H    3.459381   2.639721   4.551517   4.696849   5.655601
    14  H    1.088398   2.639606   4.513356   5.671806   4.804132
    15  H    2.599659   1.011071   6.051348   6.908729   6.684821
    16  H    3.323206   1.010995   6.064119   6.613483   6.945572
    17  H    5.446543   7.098412   1.851916   0.977036   2.160318
                   11         12         13         14         15
    11  H    0.000000
    12  H    4.350195   0.000000
    13  H    5.003959   2.468530   0.000000
    14  H    2.480988   5.007383   4.352070   0.000000
    15  H    4.685656   5.423108   3.649654   2.407902   0.000000
    16  H    5.427919   4.678697   2.409935   3.649539   1.727148
    17  H    4.370211   3.308449   5.673885   6.361901   7.774276
                   16         17
    16  H    0.000000
    17  H    7.561456   0.000000
 Stoichiometry    C6H7N2O2(1+)
 Framework group  C1[X(C6H7N2O2)]
 Deg. of freedom    45
 Full point group                 C1      NOp   1
 Largest Abelian subgroup         C1      NOp   1
 Largest concise Abelian subgroup C1      NOp   1
                         Standard orientation:                         
 ---------------------------------------------------------------------
 Center     Atomic      Atomic             Coordinates (Angstroms)
 Number     Number       Type             X           Y           Z
 ---------------------------------------------------------------------
      1          6           0       -0.057295    1.264097   -0.000006
      2          6           0        0.663179    0.036604   -0.000017
      3          6           0       -0.005344   -1.219384   -0.000008
      4          6           0       -1.368465   -1.241863    0.000006
      5          6           0       -2.111070   -0.018155    0.000014
      6          6           0       -1.418947    1.235493    0.000007
      7          7           0       -3.441123   -0.044287    0.000027
      8          7           0        2.026940    0.105707   -0.000030
      9          8           0        2.661234   -1.082884    0.000000
     10          8           0        2.694969    1.102848   -0.000004
     11          1           0        0.489509    2.204959   -0.000012
     12          1           0        0.564801   -2.144584   -0.000014
     13          1           0       -1.903315   -2.189811    0.000010
     14          1           0       -1.991096    2.161374    0.000012
     15          1           0       -3.983393    0.809064    0.000033
     16          1           0       -3.950187   -0.917765    0.000032
     17          1           0        3.610997   -0.853645    0.000016
 ---------------------------------------------------------------------
 Rotational constants (GHZ):      3.7841368      0.8272023      0.6788151
 Standard basis: CC-pVTZ (5D, 7F)
 There are   455 symmetry adapted cartesian basis functions of A   symmetry.
 There are   398 symmetry adapted basis functions of A   symmetry.
   398 basis functions,   639 primitive gaussians,   455 cartesian basis functions
    36 alpha electrons       36 beta electrons
       nuclear repulsion energy       510.0589133536 Hartrees.
 NAtoms=   17 NActive=   17 NUniq=   17 SFac= 1.00D+00 NAtFMM=   60 NAOKFM=F Big=F
 Integral buffers will be    131072 words long.
 Raffenetti 2 integral format.
 Two-electron integral symmetry is turned on.
 One-electron integrals computed using PRISM.
 NBasis=   398 RedAO= T EigKep=  3.79D-05  NBF=   398
 NBsUse=   398 1.00D-06 EigRej= -1.00D+00 NBFU=   398
 ExpMin= 1.03D-01 ExpMax= 1.53D+04 ExpMxC= 5.22D+02 IAcc=1 IRadAn=         1 AccDes= 0.00D+00
 Harris functional with IExCor= 1009 and IRadAn=       1 diagonalized for initial guess.
 HarFok:  IExCor= 1009 AccDes= 0.00D+00 IRadAn=         1 IDoV= 1 UseB2=F ITyADJ=14
 ICtDFT=  3500011 ScaDFX=  1.000000  1.000000  1.000000  1.000000
 FoFCou: FMM=F IPFlag=           0 FMFlag=      100000 FMFlg1=           0
         NFxFlg=           0 DoJE=T BraDBF=F KetDBF=T FulRan=T
         wScrn=  0.000000 ICntrl=     500 IOpCl=  0 I1Cent=   200000004 NGrid=           0
         NMat0=    1 NMatS0=      1 NMatT0=    0 NMatD0=    1 NMtDS0=    0 NMtDT0=    0
 Petite list used in FoFCou.
 Requested convergence on RMS density matrix=1.00D-08 within 128 cycles.
 Requested convergence on MAX density matrix=1.00D-06.
 Requested convergence on             energy=1.00D-06.
 No special actions if energy rises.
 Integral accuracy reduced to 1.0D-05 until final iterations.
 Initial convergence to 1.0D-05 achieved.  Increase integral accuracy.
 SCF Done:  E(RM062X) =  -492.438191961     A.U. after   16 cycles
            NFock= 16  Conv=0.59D-08     -V/T= 2.0058

 **********************************************************************

            Population analysis using the SCF density.

 **********************************************************************

 Orbital symmetries:
       Occupied  (A) (A) (A) (A) (A) (A) (A) (A) (A) (A) (A) (A)
                 (A) (A) (A) (A) (A) (A) (A) (A) (A) (A) (A) (A)
                 (A) (A) (A) (A) (A) (A) (A) (A) (A) (A) (A) (A)
       Virtual   (A) (A) (A) (A) (A) (A) (A) (A) (A) (A) (A) (A)
                 (A) (A) (A) (A) (A) (A) (A) (A) (A) (A) (A) (A)
                 (A) (A) (A) (A) (A) (A) (A) (A) (A) (A) (A) (A)
                 (A) (A) (A) (A) (A) (A) (A) (A) (A) (A) (A) (A)
                 (A) (A) (A) (A) (A) (A) (A) (A) (A) (A) (A) (A)
                 (A) (A) (A) (A) (A) (A) (A) (A) (A) (A) (A) (A)
                 (A) (A) (A) (A) (A) (A) (A) (A) (A) (A) (A) (A)
                 (A) (A) (A) (A) (A) (A) (A) (A) (A) (A) (A) (A)
                 (A) (A) (A) (A) (A) (A) (A) (A) (A) (A) (A) (A)
                 (A) (A) (A) (A) (A) (A) (A) (A) (A) (A) (A) (A)
                 (A) (A) (A) (A) (A) (A) (A) (A) (A) (A) (A) (A)
                 (A) (A) (A) (A) (A) (A) (A) (A) (A) (A) (A) (A)
                 (A) (A) (A) (A) (A) (A) (A) (A) (A) (A) (A) (A)
                 (A) (A) (A) (A) (A) (A) (A) (A) (A) (A) (A) (A)
                 (A) (A) (A) (A) (A) (A) (A) (A) (A) (A) (A) (A)
                 (A) (A) (A) (A) (A) (A) (A) (A) (A) (A) (A) (A)
                 (A) (A) (A) (A) (A) (A) (A) (A) (A) (A) (A) (A)
                 (A) (A) (A) (A) (A) (A) (A) (A) (A) (A) (A) (A)
                 (A) (A) (A) (A) (A) (A) (A) (A) (A) (A) (A) (A)
                 (A) (A) (A) (A) (A) (A) (A) (A) (A) (A) (A) (A)
                 (A) (A) (A) (A) (A) (A) (A) (A) (A) (A) (A) (A)
                 (A) (A) (A) (A) (A) (A) (A) (A) (A) (A) (A) (A)
                 (A) (A) (A) (A) (A) (A) (A) (A) (A) (A) (A) (A)
                 (A) (A) (A) (A) (A) (A) (A) (A) (A) (A) (A) (A)
                 (A) (A) (A) (A) (A) (A) (A) (A) (A) (A) (A) (A)
                 (A) (A) (A) (A) (A) (A) (A) (A) (A) (A) (A) (A)
                 (A) (A) (A) (A) (A) (A) (A) (A) (A) (A) (A) (A)
                 (A) (A) (A) (A) (A) (A) (A) (A) (A) (A) (A) (A)
                 (A) (A) (A) (A) (A) (A) (A) (A) (A) (A) (A) (A)
                 (A) (A) (A) (A) (A) (A) (A) (A) (A) (A) (A) (A)
                 (A) (A)
 The electronic state is 1-A.
 Alpha  occ. eigenvalues --  -19.89379 -19.86108 -15.18529 -14.95864 -10.79875
 Alpha  occ. eigenvalues --  -10.77608 -10.74492 -10.74295 -10.72529 -10.72526
 Alpha  occ. eigenvalues --   -1.55710  -1.38365  -1.23887  -1.18052  -1.09680
 Alpha  occ. eigenvalues --   -1.04083  -0.97512  -0.90967  -0.88359  -0.83446
 Alpha  occ. eigenvalues --   -0.82471  -0.81251  -0.79029  -0.77951  -0.72931
 Alpha  occ. eigenvalues --   -0.68759  -0.68434  -0.67518  -0.65459  -0.65194
 Alpha  occ. eigenvalues --   -0.61647  -0.58857  -0.57816  -0.57554  -0.50244
 Alpha  occ. eigenvalues --   -0.44901
 Alpha virt. eigenvalues --   -0.25262  -0.15072  -0.11575  -0.08368  -0.07858
 Alpha virt. eigenvalues --   -0.05462  -0.05129  -0.01310  -0.00513   0.01262
 Alpha virt. eigenvalues --    0.02464   0.02741   0.04550   0.05807   0.09193
 Alpha virt. eigenvalues --    0.09625   0.13351   0.14063   0.14965   0.15590
 Alpha virt. eigenvalues --    0.18012   0.19415   0.20483   0.20951   0.21297
 Alpha virt. eigenvalues --    0.21928   0.24320   0.25382   0.26351   0.26637
 Alpha virt. eigenvalues --    0.27311   0.27784   0.28600   0.30310   0.31776
 Alpha virt. eigenvalues --    0.31790   0.32933   0.34711   0.35697   0.35889
 Alpha virt. eigenvalues --    0.36082   0.38647   0.39338   0.41307   0.42211
 Alpha virt. eigenvalues --    0.42429   0.43044   0.43149   0.46768   0.49580
 Alpha virt. eigenvalues --    0.50434   0.50706   0.52715   0.52935   0.53885
 Alpha virt. eigenvalues --    0.54759   0.56605   0.57892   0.59077   0.61090
 Alpha virt. eigenvalues --    0.61848   0.62251   0.63028   0.65000   0.66895
 Alpha virt. eigenvalues --    0.67401   0.69021   0.69209   0.72080   0.73456
 Alpha virt. eigenvalues --    0.73686   0.74757   0.79025   0.81074   0.81270
 Alpha virt. eigenvalues --    0.83243   0.84210   0.84243   0.85753   0.87064
 Alpha virt. eigenvalues --    0.89082   0.90069   0.91664   0.92012   0.93311
 Alpha virt. eigenvalues --    0.94395   0.98393   1.01691   1.03750   1.05786
 Alpha virt. eigenvalues --    1.06984   1.08965   1.09898   1.10474   1.12668
 Alpha virt. eigenvalues --    1.13164   1.14294   1.18321   1.19169   1.20232
 Alpha virt. eigenvalues --    1.20865   1.20898   1.22801   1.25132   1.26642
 Alpha virt. eigenvalues --    1.30410   1.31285   1.32515   1.33636   1.34870
 Alpha virt. eigenvalues --    1.35355   1.38377   1.40640   1.43756   1.45952
 Alpha virt. eigenvalues --    1.47338   1.49530   1.51317   1.55038   1.55689
 Alpha virt. eigenvalues --    1.59979   1.60467   1.62163   1.66218   1.67755
 Alpha virt. eigenvalues --    1.69316   1.76047   1.77340   1.84251   1.84387
 Alpha virt. eigenvalues --    1.87188   1.87949   1.89291   1.96163   1.96527
 Alpha virt. eigenvalues --    2.00107   2.00422   2.02523   2.02797   2.02932
 Alpha virt. eigenvalues --    2.05171   2.08746   2.11683   2.13352   2.18777
 Alpha virt. eigenvalues --    2.20760   2.21127   2.23919   2.25679   2.28071
 Alpha virt. eigenvalues --    2.30648   2.33696   2.35486   2.35917   2.38199
 Alpha virt. eigenvalues --    2.40522   2.45559   2.45773   2.45857   2.50981
 Alpha virt. eigenvalues --    2.53172   2.54773   2.55351   2.57250   2.57291
 Alpha virt. eigenvalues --    2.60857   2.61450   2.62686   2.63759   2.65212
 Alpha virt. eigenvalues --    2.68122   2.69252   2.72718   2.73796   2.74801
 Alpha virt. eigenvalues --    2.76403   2.77709   2.77746   2.81440   2.82234
 Alpha virt. eigenvalues --    2.82690   2.86135   2.86912   2.87106   2.87637
 Alpha virt. eigenvalues --    2.88372   2.89178   2.90581   2.93309   2.94736
 Alpha virt. eigenvalues --    2.95992   2.96260   2.96992   2.98609   2.99406
 Alpha virt. eigenvalues --    3.01106   3.03029   3.03538   3.06744   3.07730
 Alpha virt. eigenvalues --    3.10133   3.10961   3.11426   3.15846   3.16038
 Alpha virt. eigenvalues --    3.16866   3.18545   3.19483   3.20082   3.21009
 Alpha virt. eigenvalues --    3.21218   3.26744   3.27216   3.28835   3.29273
 Alpha virt. eigenvalues --    3.33578   3.33841   3.35732   3.40388   3.40496
 Alpha virt. eigenvalues --    3.43294   3.43974   3.45355   3.47275   3.50403
 Alpha virt. eigenvalues --    3.52681   3.52766   3.53970   3.55144   3.55736
 Alpha virt. eigenvalues --    3.56022   3.58300   3.59382   3.59824   3.61076
 Alpha virt. eigenvalues --    3.61937   3.63230   3.66470   3.67161   3.68325
 Alpha virt. eigenvalues --    3.69817   3.73041   3.73199   3.74678   3.75845
 Alpha virt. eigenvalues --    3.76168   3.78753   3.79378   3.83562   3.85909
 Alpha virt. eigenvalues --    3.86128   3.86971   3.89377   3.89586   3.91112
 Alpha virt. eigenvalues --    3.91642   3.92644   3.95864   3.96021   3.98740
 Alpha virt. eigenvalues --    3.99834   4.01935   4.03765   4.04636   4.06942
 Alpha virt. eigenvalues --    4.07991   4.10301   4.12371   4.14811   4.15156
 Alpha virt. eigenvalues --    4.16106   4.17544   4.23904   4.28112   4.31223
 Alpha virt. eigenvalues --    4.34818   4.37507   4.41309   4.41322   4.43595
 Alpha virt. eigenvalues --    4.44830   4.45867   4.48991   4.52733   4.53056
 Alpha virt. eigenvalues --    4.53815   4.53950   4.55281   4.59357   4.59528
 Alpha virt. eigenvalues --    4.61961   4.62574   4.65344   4.67101   4.67347
 Alpha virt. eigenvalues --    4.70016   4.72332   4.79105   4.81595   4.81834
 Alpha virt. eigenvalues --    4.85946   4.89583   4.91569   4.91624   4.92475
 Alpha virt. eigenvalues --    4.98427   5.03846   5.06527   5.11099   5.18103
 Alpha virt. eigenvalues --    5.18290   5.21160   5.22813   5.23051   5.25110
 Alpha virt. eigenvalues --    5.31821   5.38269   5.38407   5.44608   5.45814
 Alpha virt. eigenvalues --    5.51699   5.52527   5.56285   5.58745   5.64477
 Alpha virt. eigenvalues --    5.68060   5.70952   5.74285   5.82991   5.84262
 Alpha virt. eigenvalues --    6.07314   6.09477   6.09869   6.11853   6.18464
 Alpha virt. eigenvalues --    6.22185   6.24772   6.31841   6.32964   6.36332
 Alpha virt. eigenvalues --    6.50137   6.55477   6.60082   6.65442   6.71181
 Alpha virt. eigenvalues --    6.72873   6.78273   6.86594   6.97069   7.15250
 Alpha virt. eigenvalues --    7.25784   7.29687   8.40988  10.60814  11.87971
 Alpha virt. eigenvalues --   11.94874  12.16757  12.60036  13.25001  14.19027
 Alpha virt. eigenvalues --   14.35416  15.08558
          Condensed to atoms (all electrons):
               1          2          3          4          5          6
     1  C    4.871907   0.356613  -0.025403  -0.011046  -0.052387   0.538214
     2  C    0.356613   5.169864   0.393130  -0.073560  -0.026351  -0.061693
     3  C   -0.025403   0.393130   4.844901   0.540557  -0.056955  -0.012610
     4  C   -0.011046  -0.073560   0.540557   4.976842   0.397599  -0.044552
     5  C   -0.052387  -0.026351  -0.056955   0.397599   4.724361   0.392474
     6  C    0.538214  -0.061693  -0.012610  -0.044552   0.392474   4.979608
     7  N    0.002161  -0.000131   0.002156  -0.065354   0.463073  -0.064346
     8  N   -0.056090   0.420864  -0.047259   0.003485  -0.001186   0.001784
     9  O    0.006429  -0.083567   0.017169  -0.000100   0.000236  -0.000236
    10  O    0.028820  -0.109646   0.002646   0.000017   0.000172   0.000658
    11  H    0.426791  -0.045749   0.003039  -0.000917   0.005996  -0.028855
    12  H    0.003531  -0.038017   0.425906  -0.036797   0.005799  -0.001108
    13  H   -0.000568   0.006410  -0.022430   0.426251  -0.053369   0.002692
    14  H   -0.023621   0.006406  -0.000584   0.002663  -0.053542   0.427656
    15  H    0.000914   0.000018  -0.000498   0.004023  -0.035217  -0.000430
    16  H   -0.000484   0.000015   0.001064  -0.000458  -0.035395   0.003902
    17  H   -0.000452   0.009661  -0.002142  -0.000022  -0.000008   0.000046
               7          8          9         10         11         12
     1  C    0.002161  -0.056090   0.006429   0.028820   0.426791   0.003531
     2  C   -0.000131   0.420864  -0.083567  -0.109646  -0.045749  -0.038017
     3  C    0.002156  -0.047259   0.017169   0.002646   0.003039   0.425906
     4  C   -0.065354   0.003485  -0.000100   0.000017  -0.000917  -0.036797
     5  C    0.463073  -0.001186   0.000236   0.000172   0.005996   0.005799
     6  C   -0.064346   0.001784  -0.000236   0.000658  -0.028855  -0.001108
     7  N    6.222721  -0.000001  -0.000000  -0.000000  -0.000076  -0.000067
     8  N   -0.000001   5.675140   0.232129   0.478987  -0.006946  -0.006991
     9  O   -0.000000   0.232129   7.812657  -0.093249   0.000525   0.014850
    10  O   -0.000000   0.478987  -0.093249   7.875530   0.012161   0.000185
    11  H   -0.000076  -0.006946   0.000525   0.012161   0.469239  -0.000097
    12  H   -0.000067  -0.006991   0.014850   0.000185  -0.000097   0.472208
    13  H   -0.004385  -0.000059  -0.000062   0.000004   0.000023  -0.007307
    14  H   -0.004248  -0.000095   0.000002  -0.000047  -0.006853   0.000023
    15  H    0.391418  -0.000001   0.000000   0.000000  -0.000025   0.000012
    16  H    0.391679  -0.000001   0.000000   0.000000   0.000012  -0.000029
    17  H   -0.000000  -0.018259   0.297630   0.016018  -0.000054  -0.000705
              13         14         15         16         17
     1  C   -0.000568  -0.023621   0.000914  -0.000484  -0.000452
     2  C    0.006410   0.006406   0.000018   0.000015   0.009661
     3  C   -0.022430  -0.000584  -0.000498   0.001064  -0.002142
     4  C    0.426251   0.002663   0.004023  -0.000458  -0.000022
     5  C   -0.053369  -0.053542  -0.035217  -0.035395  -0.000008
     6  C    0.002692   0.427656  -0.000430   0.003902   0.000046
     7  N   -0.004385  -0.004248   0.391418   0.391679  -0.000000
     8  N   -0.000059  -0.000095  -0.000001  -0.000001  -0.018259
     9  O   -0.000062   0.000002   0.000000   0.000000   0.297630
    10  O    0.000004  -0.000047   0.000000   0.000000   0.016018
    11  H    0.000023  -0.006853  -0.000025   0.000012  -0.000054
    12  H   -0.007307   0.000023   0.000012  -0.000029  -0.000705
    13  H    0.511493  -0.000149  -0.000067   0.002704   0.000001
    14  H   -0.000149   0.508294   0.002751  -0.000070  -0.000000
    15  H   -0.000067   0.002751   0.433100  -0.035098  -0.000000
    16  H    0.002704  -0.000070  -0.035098   0.433014  -0.000000
    17  H    0.000001  -0.000000  -0.000000  -0.000000   0.390977
 Mulliken charges:
               1
     1  C   -0.065328
     2  C    0.075735
     3  C   -0.062687
     4  C   -0.118630
     5  C    0.324702
     6  C   -0.133204
     7  N   -0.334599
     8  N    0.324499
     9  O   -0.204411
    10  O   -0.212255
    11  H    0.171786
    12  H    0.168605
    13  H    0.138819
    14  H    0.141415
    15  H    0.239100
    16  H    0.239145
    17  H    0.307309
 Sum of Mulliken charges =   1.00000
 Mulliken charges with hydrogens summed into heavy atoms:
               1
     1  C    0.106458
     2  C    0.075735
     3  C    0.105918
     4  C    0.020189
     5  C    0.324702
     6  C    0.008211
     7  N    0.143647
     8  N    0.324499
     9  O    0.102898
    10  O   -0.212255
 Electronic spatial extent (au):  <R**2>=           1542.9659
 Charge=              1.0000 electrons
 Dipole moment (field-independent basis, Debye):
    X=             -3.2510    Y=             -1.1035    Z=              0.0000  Tot=              3.4332
 Quadrupole moment (field-independent basis, Debye-Ang):
   XX=             -7.7863   YY=            -44.2782   ZZ=            -58.4397
   XY=             -4.6738   XZ=             -0.0003   YZ=             -0.0000
 Traceless Quadrupole moment (field-independent basis, Debye-Ang):
   XX=             29.0484   YY=             -7.4434   ZZ=            -21.6050
   XY=             -4.6738   XZ=             -0.0003   YZ=             -0.0000
 Octapole moment (field-independent basis, Debye-Ang**2):
  XXX=            -37.6571  YYY=             -1.1509  ZZZ=             -0.0000  XYY=            -11.9139
  XXY=            -21.2163  XXZ=              0.0014  XZZ=             11.3705  YZZ=              0.2760
  YYZ=              0.0001  XYZ=             -0.0001
 Hexadecapole moment (field-independent basis, Debye-Ang**3):
 XXXX=           -661.8580 YYYY=           -331.9300 ZZZZ=            -57.1107 XXXY=            -78.9044
 XXXZ=              0.0009 YYYX=             -3.7304 YYYZ=              0.0001 ZZZX=              0.0041
 ZZZY=              0.0001 XXYY=           -241.6114 XXZZ=           -258.9847 YYZZ=            -80.7991
 XXYZ=             -0.0004 YYXZ=              0.0010 ZZXY=              0.4042
 N-N= 5.100589133536D+02 E-N=-2.156166525201D+03  KE= 4.895813922750D+02
 Calling FoFJK, ICntrl=      2127 FMM=F ISym2X=0 I1Cent= 0 IOpClX= 0 NMat=1 NMatS=1 NMatT=0.
 ***** Axes restored to original set *****
 -------------------------------------------------------------------
 Center     Atomic                   Forces (Hartrees/Bohr)
 Number     Number              X              Y              Z
 -------------------------------------------------------------------
      1        6          -0.003329544   -0.000443060   -0.000000973
      2        6          -0.001227247    0.000033742   -0.000001561
      3        6          -0.003298762    0.000342793   -0.000000756
      4        6           0.003656386    0.000362583    0.000000040
      5        6          -0.001606240   -0.000027623   -0.000000194
      6        6           0.003701690   -0.000181215    0.000000157
      7        7           0.002633888    0.000015581   -0.000000008
      8        7           0.001336044    0.005008916    0.000009391
      9        8           0.001017423    0.001944552   -0.000002548
     10        8          -0.004407549   -0.006997723   -0.000003638
     11        1          -0.002642767   -0.004526025    0.000000082
     12        1          -0.002688040    0.004509159   -0.000000015
     13        1           0.002474617    0.004477640    0.000000156
     14        1           0.002632929   -0.004373251    0.000000131
     15        1           0.001738196   -0.002588144   -0.000000021
     16        1           0.001657111    0.002631198   -0.000000009
     17        1          -0.001648134   -0.000189120   -0.000000232
 -------------------------------------------------------------------
 Cartesian Forces:  Max     0.006997723 RMS     0.002384704

 GradGradGradGradGradGradGradGradGradGradGradGradGradGradGradGradGradGrad
 Berny optimization.
 FormGI is forming the generalized inverse of G from B-inverse, IUseBI=4.
 GSVD:  received Info=                   1 from GESDD.
 Internal  Forces:  Max     0.008490604 RMS     0.002588638
 Search for a local minimum.
 Step number   1 out of a maximum of   86
 All quantities printed in internal units (Hartrees-Bohrs-Radians)
 Mixed Optimization -- RFO/linear search
 Second derivative matrix not updated -- first step.
 ITU=  0
     Eigenvalues ---    0.01709   0.01838   0.01941   0.01993   0.02012
     Eigenvalues ---    0.02060   0.02103   0.02148   0.02159   0.02163
     Eigenvalues ---    0.02288   0.02309   0.02614   0.02614   0.16000
     Eigenvalues ---    0.16000   0.16000   0.16000   0.16000   0.16000
     Eigenvalues ---    0.16000   0.22000   0.22953   0.24000   0.25000
     Eigenvalues ---    0.25000   0.25000   0.25000   0.34995   0.34998
     Eigenvalues ---    0.35020   0.35189   0.38144   0.39670   0.41467
     Eigenvalues ---    0.41592   0.45794   0.45806   0.49375   0.51849
     Eigenvalues ---    0.51965   0.52425   0.55611   0.59433   1.04707
 RFO step:  Lambda=-1.06330954D-03 EMin= 1.70876820D-02
 Linear search not attempted -- first point.
 Iteration  1 RMS(Cart)=  0.01059281 RMS(Int)=  0.00000277
 Iteration  2 RMS(Cart)=  0.00000507 RMS(Int)=  0.00000008
 Iteration  3 RMS(Cart)=  0.00000000 RMS(Int)=  0.00000008
 Variable       Old X    -DE/DX   Delta X   Delta X   Delta X     New X
                                 (Linear)    (Quad)   (Total)
    R1        2.68967  -0.00540   0.00000  -0.01290  -0.01290   2.67678
    R2        2.57372  -0.00849   0.00000  -0.01613  -0.01613   2.55759
    R3        2.05643  -0.00524   0.00000  -0.01492  -0.01492   2.04152
    R4        2.68875  -0.00559   0.00000  -0.01330  -0.01330   2.67545
    R5        2.58044  -0.00372   0.00000  -0.00715  -0.00715   2.57329
    R6        2.57628  -0.00840   0.00000  -0.01604  -0.01604   2.56024
    R7        2.05369  -0.00525   0.00000  -0.01488  -0.01488   2.03881
    R8        2.70497  -0.00516   0.00000  -0.01256  -0.01256   2.69241
    R9        2.05683  -0.00512   0.00000  -0.01458  -0.01458   2.04225
   R10        2.70612  -0.00518   0.00000  -0.01265  -0.01265   2.69347
   R11        2.51392  -0.00603   0.00000  -0.01013  -0.01013   2.50379
   R12        2.05677  -0.00510   0.00000  -0.01454  -0.01454   2.04224
   R13        1.91065  -0.00310   0.00000  -0.00676  -0.00676   1.90389
   R14        1.91050  -0.00312   0.00000  -0.00680  -0.00680   1.90370
   R15        2.54593  -0.00182   0.00000  -0.00326  -0.00326   2.54267
   R16        2.26811  -0.00828   0.00000  -0.00790  -0.00790   2.26021
   R17        1.84633  -0.00166   0.00000  -0.00318  -0.00318   1.84315
    A1        2.08056   0.00020   0.00000   0.00072   0.00072   2.08128
    A2        2.08436  -0.00010   0.00000  -0.00037  -0.00037   2.08399
    A3        2.11826  -0.00010   0.00000  -0.00034  -0.00034   2.11792
    A4        2.12170  -0.00025   0.00000  -0.00123  -0.00123   2.12047
    A5        2.05094   0.00007   0.00000   0.00041   0.00041   2.05135
    A6        2.11055   0.00017   0.00000   0.00081   0.00081   2.11136
    A7        2.07641   0.00014   0.00000   0.00046   0.00046   2.07687
    A8        2.10019  -0.00013   0.00000  -0.00064  -0.00064   2.09955
    A9        2.10658  -0.00000   0.00000   0.00018   0.00018   2.10677
   A10        2.09975   0.00025   0.00000   0.00117   0.00117   2.10092
   A11        2.10098  -0.00007   0.00000  -0.00021  -0.00021   2.10077
   A12        2.08246  -0.00019   0.00000  -0.00096  -0.00096   2.08150
   A13        2.09171  -0.00053   0.00000  -0.00201  -0.00201   2.08970
   A14        2.09659   0.00026   0.00000   0.00097   0.00097   2.09757
   A15        2.09489   0.00027   0.00000   0.00103   0.00103   2.09592
   A16        2.09624   0.00019   0.00000   0.00089   0.00089   2.09713
   A17        2.10331  -0.00005   0.00000  -0.00016  -0.00016   2.10315
   A18        2.08363  -0.00014   0.00000  -0.00073  -0.00073   2.08291
   A19        2.11724  -0.00006   0.00000  -0.00037  -0.00037   2.11687
   A20        2.11812  -0.00006   0.00000  -0.00037  -0.00037   2.11775
   A21        2.04783   0.00012   0.00000   0.00074   0.00074   2.04857
   A22        2.01037   0.00045   0.00000   0.00179   0.00179   2.01217
   A23        2.21169   0.00006   0.00000   0.00022   0.00022   2.21191
   A24        2.06112  -0.00051   0.00000  -0.00202  -0.00202   2.05910
   A25        1.82417  -0.00034   0.00000  -0.00209  -0.00209   1.82207
    D1       -0.00001   0.00000   0.00000   0.00002   0.00002   0.00001
    D2        3.14159   0.00000   0.00000   0.00000   0.00000  -3.14159
    D3        3.14159   0.00000   0.00000   0.00001   0.00001  -3.14159
    D4        0.00000  -0.00000   0.00000  -0.00001  -0.00001  -0.00000
    D5        0.00000  -0.00000   0.00000  -0.00001  -0.00001  -0.00000
    D6       -3.14159  -0.00000   0.00000  -0.00001  -0.00001   3.14159
    D7        3.14159   0.00000   0.00000   0.00000   0.00000  -3.14159
    D8       -0.00000   0.00000   0.00000   0.00000   0.00000   0.00000
    D9        0.00000  -0.00000   0.00000  -0.00001  -0.00001  -0.00001
   D10       -3.14159  -0.00000   0.00000  -0.00001  -0.00001   3.14159
   D11        3.14159  -0.00000   0.00000  -0.00000  -0.00000   3.14159
   D12       -0.00000   0.00000   0.00000   0.00001   0.00001   0.00000
   D13        3.14156   0.00000   0.00000   0.00011   0.00011  -3.14152
   D14        0.00003  -0.00000   0.00000  -0.00010  -0.00010  -0.00007
   D15       -0.00003   0.00000   0.00000   0.00010   0.00010   0.00007
   D16       -3.14156  -0.00000   0.00000  -0.00011  -0.00011   3.14152
   D17       -0.00000   0.00000   0.00000   0.00001   0.00001   0.00000
   D18        3.14159   0.00000   0.00000   0.00001   0.00001  -3.14159
   D19        3.14159  -0.00000   0.00000  -0.00000  -0.00000   3.14159
   D20       -0.00000   0.00000   0.00000   0.00000   0.00000   0.00000
   D21        0.00000   0.00000   0.00000   0.00000   0.00000   0.00000
   D22        3.14159   0.00000   0.00000   0.00000   0.00000  -3.14159
   D23       -3.14159  -0.00000   0.00000  -0.00000  -0.00000   3.14159
   D24        0.00000  -0.00000   0.00000  -0.00000  -0.00000   0.00000
   D25       -0.00000   0.00000   0.00000   0.00000   0.00000  -0.00000
   D26        3.14159   0.00000   0.00000   0.00000   0.00000  -3.14159
   D27        3.14159  -0.00000   0.00000  -0.00000  -0.00000   3.14159
   D28       -0.00000   0.00000   0.00000   0.00000   0.00000  -0.00000
   D29        3.14159  -0.00000   0.00000  -0.00000  -0.00000   3.14159
   D30        0.00000  -0.00000   0.00000  -0.00000  -0.00000   0.00000
   D31       -0.00000   0.00000   0.00000   0.00000   0.00000  -0.00000
   D32        3.14159   0.00000   0.00000   0.00000   0.00000  -3.14159
   D33       -3.14156  -0.00000   0.00000  -0.00010  -0.00010   3.14152
   D34       -0.00003   0.00000   0.00000   0.00009   0.00009   0.00006
         Item               Value     Threshold  Converged?
 Maximum Force            0.008491     0.000450     NO 
 RMS     Force            0.002589     0.000300     NO 
 Maximum Displacement     0.027116     0.001800     NO 
 RMS     Displacement     0.010595     0.001200     NO 
 Predicted change in Energy=-5.329342D-04
 GradGradGradGradGradGradGradGradGradGradGradGradGradGradGradGradGradGrad

                          Input orientation:                          
 ---------------------------------------------------------------------
 Center     Atomic      Atomic             Coordinates (Angstroms)
 Number     Number       Type             X           Y           Z
 ---------------------------------------------------------------------
      1          6           0       -0.060971    1.257071    0.000015
      2          6           0        0.656644    0.035814    0.000030
      3          6           0       -0.009494   -1.213468    0.000025
      4          6           0       -1.364136   -1.235428    0.000018
      5          6           0       -2.104379   -0.018061    0.000009
      6          6           0       -1.414098    1.228959    0.000007
      7          7           0       -3.429076   -0.043977    0.000003
      8          7           0        2.016620    0.104826    0.000040
      9          8           0        2.652318   -1.081058   -0.000039
     10          8           0        2.682470    1.098397   -0.000027
     11          1           0        0.481761    2.191171    0.000015
     12          1           0        0.556433   -2.132021    0.000032
     13          1           0       -1.895262   -2.176619    0.000019
     14          1           0       -1.981845    2.148516    0.000001
     15          1           0       -3.969044    0.806597   -0.000002
     16          1           0       -3.936079   -0.914492    0.000005
     17          1           0        3.599531   -0.848460   -0.000086
 ---------------------------------------------------------------------
                    Distance matrix (angstroms):
                    1          2          3          4          5
     1  C    0.000000
     2  C    1.416489   0.000000
     3  C    2.471075   1.415785   0.000000
     4  C    2.812613   2.387386   1.354820   0.000000
     5  C    2.408626   2.761549   2.411958   1.424760   0.000000
     6  C    1.353419   2.389888   2.817509   2.464893   1.425323
     7  N    3.610659   4.086499   3.614035   2.384015   1.324950
     8  N    2.375722   1.361726   2.417238   3.636729   4.122831
     9  O    3.581729   2.286945   2.665103   4.019420   4.874026
    10  O    2.748026   2.287587   3.548435   4.671377   4.915324
    11  H    1.080324   2.162440   3.439898   3.892160   3.401297
    12  H    3.444871   2.170150   1.078894   2.119544   3.398345
    13  H    3.892924   3.377438   2.117495   1.080711   2.168664
    14  H    2.117648   3.380109   3.897834   3.439860   2.170039
    15  H    3.933950   4.689467   4.445076   3.309896   2.038881
    16  H    4.442088   4.690009   3.937951   2.591889   2.039292
    17  H    4.222859   3.072869   3.627436   4.978728   5.764040
                    6          7          8          9         10
     6  C    0.000000
     7  N    2.383381   0.000000
     8  N    3.610194   5.447729   0.000000
     9  O    4.676742   6.169188   1.345523   0.000000
    10  O    4.098648   6.217396   1.196051   2.179663   0.000000
    11  H    2.126060   4.504501   2.590102   3.926678   2.457087
    12  H    3.896046   4.499356   2.671261   2.344623   3.867252
    13  H    3.439402   2.626927   4.528556   4.677685   5.628620
    14  H    1.080705   2.627072   4.490478   5.648506   4.781066
    15  H    2.589622   1.007494   6.026663   6.885178   6.657912
    16  H    3.309799   1.007397   6.039341   6.590502   6.917869
    17  H    5.426983   7.074497   1.847799   0.975354   2.152034
                   11         12         13         14         15
    11  H    0.000000
    12  H    4.323837   0.000000
    13  H    4.972709   2.452101   0.000000
    14  H    2.463975   4.976530   4.326002   0.000000
    15  H    4.661192   5.395870   3.633202   2.397854   0.000000
    16  H    5.400227   4.654571   2.399562   3.633325   1.721405
    17  H    4.354291   3.302723   5.653031   6.335111   7.747422
                   16         17
    16  H    0.000000
    17  H    7.535899   0.000000
 Stoichiometry    C6H7N2O2(1+)
 Framework group  C1[X(C6H7N2O2)]
 Deg. of freedom    45
 Full point group                 C1      NOp   1
 Largest Abelian subgroup         C1      NOp   1
 Largest concise Abelian subgroup C1      NOp   1
                         Standard orientation:                         
 ---------------------------------------------------------------------
 Center     Atomic      Atomic             Coordinates (Angstroms)
 Number     Number       Type             X           Y           Z
 ---------------------------------------------------------------------
      1          6           0       -0.059602    1.257480    0.000009
      2          6           0        0.658440    0.036474    0.000024
      3          6           0       -0.007262   -1.213041    0.000020
      4          6           0       -1.361897   -1.235474    0.000012
      5          6           0       -2.102565   -0.018367    0.000004
      6          6           0       -1.412719    1.228894    0.000002
      7          7           0       -3.427252   -0.044746   -0.000002
      8          7           0        2.018392    0.105961    0.000035
      9          8           0        2.654503   -1.079701   -0.000044
     10          8           0        2.683894    1.099764   -0.000032
     11          1           0        0.482803    2.191769    0.000010
     12          1           0        0.558986   -2.131397    0.000027
     13          1           0       -1.892693   -2.176852    0.000014
     14          1           0       -1.980788    2.148253   -0.000004
     15          1           0       -3.967518    0.805640   -0.000007
     16          1           0       -3.933951   -0.915438   -0.000000
     17          1           0        3.601635   -0.846772   -0.000091
 ---------------------------------------------------------------------
 Rotational constants (GHZ):      3.8195565      0.8335992      0.6842624
 Standard basis: CC-pVTZ (5D, 7F)
 There are   455 symmetry adapted cartesian basis functions of A   symmetry.
 There are   398 symmetry adapted basis functions of A   symmetry.
   398 basis functions,   639 primitive gaussians,   455 cartesian basis functions
    36 alpha electrons       36 beta electrons
       nuclear repulsion energy       512.1805731206 Hartrees.
 NAtoms=   17 NActive=   17 NUniq=   17 SFac= 1.00D+00 NAtFMM=   60 NAOKFM=F Big=F
 Integral buffers will be    131072 words long.
 Raffenetti 2 integral format.
 Two-electron integral symmetry is turned on.
 One-electron integrals computed using PRISM.
 NBasis=   398 RedAO= T EigKep=  3.63D-05  NBF=   398
 NBsUse=   398 1.00D-06 EigRej= -1.00D+00 NBFU=   398
 Initial guess from the checkpoint file:  "ccpvTZPNAyang.chk"
 B after Tr=     0.000000   -0.000000    0.000000
         Rot=    1.000000   -0.000000    0.000000   -0.000136 Ang=  -0.02 deg.
 ExpMin= 1.03D-01 ExpMax= 1.53D+04 ExpMxC= 5.22D+02 IAcc=1 IRadAn=         1 AccDes= 0.00D+00
 Harris functional with IExCor= 1009 and IRadAn=       1 diagonalized for initial guess.
 HarFok:  IExCor= 1009 AccDes= 0.00D+00 IRadAn=         1 IDoV= 1 UseB2=F ITyADJ=14
 ICtDFT=  3500011 ScaDFX=  1.000000  1.000000  1.000000  1.000000
 FoFCou: FMM=F IPFlag=           0 FMFlag=      100000 FMFlg1=           0
         NFxFlg=           0 DoJE=T BraDBF=F KetDBF=T FulRan=T
         wScrn=  0.000000 ICntrl=     500 IOpCl=  0 I1Cent=   200000004 NGrid=           0
         NMat0=    1 NMatS0=      1 NMatT0=    0 NMatD0=    1 NMtDS0=    0 NMtDT0=    0
 Petite list used in FoFCou.
 Requested convergence on RMS density matrix=1.00D-08 within 128 cycles.
 Requested convergence on MAX density matrix=1.00D-06.
 Requested convergence on             energy=1.00D-06.
 No special actions if energy rises.
 Integral accuracy reduced to 1.0D-05 until final iterations.
 Initial convergence to 1.0D-05 achieved.  Increase integral accuracy.
 SCF Done:  E(RM062X) =  -492.438685680     A.U. after   11 cycles
            NFock= 11  Conv=0.64D-08     -V/T= 2.0054
 Calling FoFJK, ICntrl=      2127 FMM=F ISym2X=0 I1Cent= 0 IOpClX= 0 NMat=1 NMatS=1 NMatT=0.
 ***** Axes restored to original set *****
 -------------------------------------------------------------------
 Center     Atomic                   Forces (Hartrees/Bohr)
 Number     Number              X              Y              Z
 -------------------------------------------------------------------
      1        6           0.000393005    0.000158597    0.000001944
      2        6           0.000564699   -0.000120790    0.000004106
      3        6           0.000424071   -0.000050524    0.000001762
      4        6          -0.000243596   -0.000335537   -0.000000343
      5        6          -0.001042235   -0.000053109    0.000000276
      6        6          -0.000223777    0.000282855   -0.000000303
      7        7          -0.000168317   -0.000033202   -0.000000001
      8        7           0.001397121    0.001709358   -0.000021145
      9        8           0.000202256   -0.000131073    0.000005886
     10        8          -0.000881393   -0.001207676    0.000008002
     11        1           0.000070630    0.000196525   -0.000000052
     12        1           0.000168925   -0.000195735    0.000000058
     13        1          -0.000147197   -0.000163499   -0.000000280
     14        1          -0.000181466    0.000178760   -0.000000306
     15        1          -0.000155306   -0.000000419   -0.000000013
     16        1          -0.000141246   -0.000030613   -0.000000012
     17        1          -0.000036173   -0.000203918    0.000000422
 -------------------------------------------------------------------
 Cartesian Forces:  Max     0.001709358 RMS     0.000433759

 GradGradGradGradGradGradGradGradGradGradGradGradGradGradGradGradGradGrad
 Berny optimization.
 Using GEDIIS/GDIIS optimizer.
 FormGI is forming the generalized inverse of G from B-inverse, IUseBI=4.
 Internal  Forces:  Max     0.001504160 RMS     0.000348457
 Search for a local minimum.
 Step number   2 out of a maximum of   86
 All quantities printed in internal units (Hartrees-Bohrs-Radians)
 Mixed Optimization -- En-DIIS/RFO-DIIS
 Update second derivatives using D2CorX and points    1    2
 DE= -4.94D-04 DEPred=-5.33D-04 R= 9.26D-01
 TightC=F SS=  1.41D+00  RLast= 4.90D-02 DXNew= 5.0454D-01 1.4699D-01
 Trust test= 9.26D-01 RLast= 4.90D-02 DXMaxT set to 3.00D-01
 ITU=  1  0
 Use linear search instead of GDIIS.
     Eigenvalues ---    0.01709   0.01838   0.01941   0.01993   0.02012
     Eigenvalues ---    0.02060   0.02103   0.02148   0.02159   0.02163
     Eigenvalues ---    0.02288   0.02309   0.02614   0.02614   0.15996
     Eigenvalues ---    0.16000   0.16000   0.16000   0.16000   0.16000
     Eigenvalues ---    0.16019   0.22000   0.22949   0.23760   0.24997
     Eigenvalues ---    0.25000   0.25000   0.25025   0.34975   0.35008
     Eigenvalues ---    0.35014   0.35204   0.38185   0.39652   0.41587
     Eigenvalues ---    0.42913   0.45761   0.45800   0.49357   0.51889
     Eigenvalues ---    0.51936   0.55071   0.56361   0.60084   1.02407
 RFO step:  Lambda=-1.15136103D-05 EMin= 1.70884393D-02
 Quartic linear search produced a step of -0.07170.
 Iteration  1 RMS(Cart)=  0.00179763 RMS(Int)=  0.00000131
 Iteration  2 RMS(Cart)=  0.00000146 RMS(Int)=  0.00000005
 Iteration  3 RMS(Cart)=  0.00000000 RMS(Int)=  0.00000005
 Variable       Old X    -DE/DX   Delta X   Delta X   Delta X     New X
                                 (Linear)    (Quad)   (Total)
    R1        2.67678   0.00063   0.00092   0.00031   0.00123   2.67801
    R2        2.55759   0.00114   0.00116   0.00067   0.00183   2.55942
    R3        2.04152   0.00021   0.00107  -0.00071   0.00036   2.04187
    R4        2.67545   0.00056   0.00095   0.00009   0.00105   2.67649
    R5        2.57329   0.00068   0.00051   0.00062   0.00114   2.57442
    R6        2.56024   0.00116   0.00115   0.00071   0.00186   2.56210
    R7        2.03881   0.00025   0.00107  -0.00059   0.00048   2.03929
    R8        2.69241   0.00075   0.00090   0.00066   0.00156   2.69396
    R9        2.04225   0.00021   0.00105  -0.00067   0.00038   2.04263
   R10        2.69347   0.00078   0.00091   0.00073   0.00164   2.69511
   R11        2.50379   0.00047   0.00073  -0.00012   0.00060   2.50440
   R12        2.04224   0.00025   0.00104  -0.00057   0.00047   2.04271
   R13        1.90389   0.00010   0.00048  -0.00037   0.00011   1.90400
   R14        1.90370   0.00008   0.00049  -0.00040   0.00009   1.90379
   R15        2.54267   0.00040   0.00023   0.00040   0.00063   2.54330
   R16        2.26021  -0.00150   0.00057  -0.00199  -0.00142   2.25878
   R17        1.84315  -0.00009   0.00023  -0.00043  -0.00020   1.84295
    A1        2.08128   0.00022  -0.00005   0.00091   0.00086   2.08214
    A2        2.08399  -0.00009   0.00003  -0.00031  -0.00028   2.08371
    A3        2.11792  -0.00014   0.00002  -0.00060  -0.00058   2.11734
    A4        2.12047  -0.00043   0.00009  -0.00181  -0.00172   2.11875
    A5        2.05135   0.00032  -0.00003   0.00128   0.00125   2.05260
    A6        2.11136   0.00011  -0.00006   0.00053   0.00047   2.11184
    A7        2.07687   0.00027  -0.00003   0.00106   0.00102   2.07790
    A8        2.09955  -0.00016   0.00005  -0.00074  -0.00069   2.09886
    A9        2.10677  -0.00010  -0.00001  -0.00032  -0.00033   2.10643
   A10        2.10092   0.00021  -0.00008   0.00091   0.00083   2.10175
   A11        2.10077  -0.00004   0.00001  -0.00006  -0.00005   2.10072
   A12        2.08150  -0.00017   0.00007  -0.00085  -0.00078   2.08071
   A13        2.08970  -0.00051   0.00014  -0.00209  -0.00194   2.08776
   A14        2.09757   0.00025  -0.00007   0.00104   0.00097   2.09853
   A15        2.09592   0.00026  -0.00007   0.00105   0.00098   2.09690
   A16        2.09713   0.00024  -0.00006   0.00102   0.00095   2.09808
   A17        2.10315  -0.00007   0.00001  -0.00021  -0.00020   2.10295
   A18        2.08291  -0.00016   0.00005  -0.00081  -0.00076   2.08215
   A19        2.11687   0.00007   0.00003   0.00039   0.00042   2.11729
   A20        2.11775   0.00008   0.00003   0.00042   0.00044   2.11819
   A21        2.04857  -0.00015  -0.00005  -0.00081  -0.00086   2.04770
   A22        2.01217  -0.00029  -0.00013  -0.00091  -0.00104   2.01113
   A23        2.21191   0.00009  -0.00002   0.00036   0.00034   2.21226
   A24        2.05910   0.00020   0.00014   0.00055   0.00070   2.05980
   A25        1.82207   0.00039   0.00015   0.00205   0.00220   1.82428
    D1        0.00001  -0.00000  -0.00000  -0.00003  -0.00003  -0.00002
    D2       -3.14159  -0.00000  -0.00000  -0.00001  -0.00001   3.14159
    D3       -3.14159  -0.00000  -0.00000  -0.00001  -0.00001   3.14158
    D4       -0.00000   0.00000   0.00000   0.00001   0.00001   0.00001
    D5       -0.00000   0.00000   0.00000   0.00001   0.00001   0.00001
    D6        3.14159   0.00000   0.00000   0.00002   0.00002  -3.14158
    D7       -3.14159  -0.00000  -0.00000  -0.00000  -0.00000   3.14159
    D8        0.00000  -0.00000  -0.00000  -0.00000  -0.00000  -0.00000
    D9       -0.00001   0.00000   0.00000   0.00003   0.00003   0.00002
   D10        3.14159   0.00000   0.00000   0.00001   0.00002  -3.14158
   D11        3.14159   0.00000   0.00000   0.00001   0.00001  -3.14159
   D12        0.00000  -0.00000  -0.00000  -0.00001  -0.00001  -0.00001
   D13       -3.14152  -0.00001  -0.00001  -0.00023  -0.00024   3.14143
   D14       -0.00007   0.00000   0.00001   0.00021   0.00021   0.00015
   D15        0.00007  -0.00000  -0.00001  -0.00021  -0.00021  -0.00015
   D16        3.14152   0.00001   0.00001   0.00023   0.00024  -3.14143
   D17        0.00000  -0.00000  -0.00000  -0.00001  -0.00001  -0.00001
   D18       -3.14159  -0.00000  -0.00000  -0.00002  -0.00002   3.14158
   D19        3.14159   0.00000   0.00000   0.00000   0.00000  -3.14159
   D20        0.00000  -0.00000  -0.00000  -0.00000  -0.00000  -0.00000
   D21        0.00000  -0.00000  -0.00000  -0.00000  -0.00000  -0.00000
   D22       -3.14159  -0.00000  -0.00000  -0.00000  -0.00000   3.14159
   D23        3.14159   0.00000   0.00000   0.00000   0.00000  -3.14159
   D24        0.00000   0.00000   0.00000  -0.00000  -0.00000   0.00000
   D25       -0.00000   0.00000  -0.00000   0.00000   0.00000   0.00000
   D26       -3.14159  -0.00000  -0.00000  -0.00000  -0.00000   3.14159
   D27        3.14159   0.00000   0.00000   0.00000   0.00000  -3.14159
   D28       -0.00000  -0.00000  -0.00000  -0.00000  -0.00000  -0.00000
   D29        3.14159   0.00000   0.00000   0.00000   0.00000   3.14159
   D30        0.00000   0.00000   0.00000  -0.00000  -0.00000   0.00000
   D31       -0.00000  -0.00000  -0.00000   0.00000   0.00000  -0.00000
   D32       -3.14159  -0.00000  -0.00000  -0.00000  -0.00000  -3.14159
   D33        3.14152   0.00001   0.00001   0.00021   0.00022  -3.14144
   D34        0.00006  -0.00000  -0.00001  -0.00018  -0.00019  -0.00013
         Item               Value     Threshold  Converged?
 Maximum Force            0.001504     0.000450     NO 
 RMS     Force            0.000348     0.000300     NO 
 Maximum Displacement     0.006733     0.001800     NO 
 RMS     Displacement     0.001797     0.001200     NO 
 Predicted change in Energy=-8.808810D-06
 GradGradGradGradGradGradGradGradGradGradGradGradGradGradGradGradGradGrad

                          Input orientation:                          
 ---------------------------------------------------------------------
 Center     Atomic      Atomic             Coordinates (Angstroms)
 Number     Number       Type             X           Y           Z
 ---------------------------------------------------------------------
      1          6           0       -0.060784    1.257700   -0.000030
      2          6           0        0.658517    0.036680   -0.000070
      3          6           0       -0.008647   -1.212683   -0.000046
      4          6           0       -1.364264   -1.235217   -0.000008
      5          6           0       -2.106447   -0.018068    0.000018
      6          6           0       -1.414869    1.229227    0.000007
      7          7           0       -3.431456   -0.044356    0.000054
      8          7           0        2.019103    0.105534   -0.000113
      9          8           0        2.653561   -1.081393    0.000048
     10          8           0        2.685011    1.098158    0.000019
     11          1           0        0.481268    2.192412   -0.000042
     12          1           0        0.557484   -2.131407   -0.000067
     13          1           0       -1.895057   -2.176826   -0.000000
     14          1           0       -1.982798    2.148965    0.000027
     15          1           0       -3.972048    0.805892    0.000073
     16          1           0       -3.938628   -0.914826    0.000062
     17          1           0        3.601449   -0.852023    0.000134
 ---------------------------------------------------------------------
                    Distance matrix (angstroms):
                    1          2          3          4          5
     1  C    0.000000
     2  C    1.417139   0.000000
     3  C    2.470933   1.416339   0.000000
     4  C    2.813129   2.389427   1.355804   0.000000
     5  C    2.410876   2.765506   2.414098   1.425583   0.000000
     6  C    1.354385   2.391882   2.817869   2.464963   1.426192
     7  N    3.613417   4.090776   3.616712   2.385673   1.325270
     8  N    2.377691   1.362327   2.418567   3.639338   4.127401
     9  O    3.583158   2.286981   2.665443   4.020768   4.877329
    10  O    2.750426   2.287666   3.549054   4.673464   4.919760
    11  H    1.080512   2.163007   3.440158   3.892895   3.403306
    12  H    3.445040   2.170439   1.079147   2.120441   3.400402
    13  H    3.893652   3.379400   2.118517   1.080911   2.169084
    14  H    2.118606   3.382055   3.898454   3.440243   2.170558
    15  H    3.937273   4.694019   4.447830   3.311595   2.039455
    16  H    4.444946   4.694582   3.941252   2.594224   2.039867
    17  H    4.226450   3.074190   3.628067   4.980476   5.768498
                    6          7          8          9         10
     6  C    0.000000
     7  N    2.385086   0.000000
     8  N    3.613150   5.452620   0.000000
     9  O    4.678791   6.172753   1.345857   0.000000
    10  O    4.101975   6.222259   1.195297   2.179778   0.000000
    11  H    2.126749   4.506944   2.592296   3.928951   2.460463
    12  H    3.896670   4.501935   2.672122   2.344370   3.867359
    13  H    3.439735   2.628298   4.530984   4.678664   5.630501
    14  H    1.080954   2.628549   4.493420   5.650755   4.784625
    15  H    2.591983   1.007552   6.031947   6.889160   6.663471
    16  H    3.311543   1.007442   6.044476   6.594292   6.922766
    17  H    5.430935   7.079130   1.849523   0.975245   2.154777
                   11         12         13         14         15
    11  H    0.000000
    12  H    4.324491   0.000000
    13  H    4.973647   2.452961   0.000000
    14  H    2.464449   4.977410   4.326681   0.000000
    15  H    4.664167   5.398554   3.634625   2.400200   0.000000
    16  H    5.402814   4.657799   2.401838   3.634843   1.721042
    17  H    4.359371   3.301901   5.653909   6.339538   7.752841
                   16         17
    16  H    0.000000
    17  H    7.540338   0.000000
 Stoichiometry    C6H7N2O2(1+)
 Framework group  C1[X(C6H7N2O2)]
 Deg. of freedom    45
 Full point group                 C1      NOp   1
 Largest Abelian subgroup         C1      NOp   1
 Largest concise Abelian subgroup C1      NOp   1
                         Standard orientation:                         
 ---------------------------------------------------------------------
 Center     Atomic      Atomic             Coordinates (Angstroms)
 Number     Number       Type             X           Y           Z
 ---------------------------------------------------------------------
      1          6           0       -0.059803    1.257947   -0.000024
      2          6           0        0.659945    0.037190   -0.000063
      3          6           0       -0.006762   -1.212417   -0.000039
      4          6           0       -1.362370   -1.235447   -0.000002
      5          6           0       -2.105000   -0.018570    0.000025
      6          6           0       -1.413878    1.228978    0.000013
      7          7           0       -3.429999   -0.045344    0.000060
      8          7           0        2.020505    0.106543   -0.000106
      9          8           0        2.655397   -1.080152    0.000054
     10          8           0        2.686050    1.099411    0.000025
     11          1           0        0.481906    2.192857   -0.000035
     12          1           0        0.559705   -2.130934   -0.000061
     13          1           0       -1.892818   -2.177251    0.000006
     14          1           0       -1.982144    2.148508    0.000033
     15          1           0       -3.970902    0.804706    0.000080
     16          1           0       -3.936851   -0.915999    0.000069
     17          1           0        3.603202   -0.850435    0.000140
 ---------------------------------------------------------------------
 Rotational constants (GHZ):      3.8191180      0.8323459      0.6834036
 Standard basis: CC-pVTZ (5D, 7F)
 There are   455 symmetry adapted cartesian basis functions of A   symmetry.
 There are   398 symmetry adapted basis functions of A   symmetry.
   398 basis functions,   639 primitive gaussians,   455 cartesian basis functions
    36 alpha electrons       36 beta electrons
       nuclear repulsion energy       511.9533725240 Hartrees.
 NAtoms=   17 NActive=   17 NUniq=   17 SFac= 1.00D+00 NAtFMM=   60 NAOKFM=F Big=F
 Integral buffers will be    131072 words long.
 Raffenetti 2 integral format.
 Two-electron integral symmetry is turned on.
 One-electron integrals computed using PRISM.
 NBasis=   398 RedAO= T EigKep=  3.65D-05  NBF=   398
 NBsUse=   398 1.00D-06 EigRej= -1.00D+00 NBFU=   398
 Initial guess from the checkpoint file:  "ccpvTZPNAyang.chk"
 B after Tr=    -0.000000    0.000000   -0.000000
         Rot=    1.000000    0.000001   -0.000001   -0.000008 Ang=   0.00 deg.
 Requested convergence on RMS density matrix=1.00D-08 within 128 cycles.
 Requested convergence on MAX density matrix=1.00D-06.
 Requested convergence on             energy=1.00D-06.
 No special actions if energy rises.
 SCF Done:  E(RM062X) =  -492.438695202     A.U. after    9 cycles
            NFock=  9  Conv=0.41D-08     -V/T= 2.0054
 Calling FoFJK, ICntrl=      2127 FMM=F ISym2X=0 I1Cent= 0 IOpClX= 0 NMat=1 NMatS=1 NMatT=0.
 ***** Axes restored to original set *****
 -------------------------------------------------------------------
 Center     Atomic                   Forces (Hartrees/Bohr)
 Number     Number              X              Y              Z
 -------------------------------------------------------------------
      1        6          -0.000007492   -0.000113669   -0.000004134
      2        6          -0.000145685   -0.000105451   -0.000008740
      3        6          -0.000066277    0.000091373   -0.000003834
      4        6           0.000097505    0.000044049    0.000000730
      5        6          -0.000198126   -0.000031135   -0.000000526
      6        6           0.000095966   -0.000047173    0.000000626
      7        7           0.000194901   -0.000006291   -0.000000020
      8        7           0.000665960    0.000852577    0.000045202
      9        8          -0.000026334   -0.000209151   -0.000012568
     10        8          -0.000465861   -0.000521756   -0.000017073
     11        1          -0.000005552    0.000116912    0.000000119
     12        1           0.000017410   -0.000079897   -0.000000103
     13        1          -0.000006615   -0.000087230    0.000000600
     14        1          -0.000030054    0.000073148    0.000000645
     15        1          -0.000045377    0.000015817    0.000000007
     16        1          -0.000033931   -0.000053078    0.000000016
     17        1          -0.000040437    0.000060954   -0.000000946
 -------------------------------------------------------------------
 Cartesian Forces:  Max     0.000852577 RMS     0.000193614

 GradGradGradGradGradGradGradGradGradGradGradGradGradGradGradGradGradGrad
 Berny optimization.
 Using GEDIIS/GDIIS optimizer.
 FormGI is forming the generalized inverse of G from B-inverse, IUseBI=4.
 GSVD:  received Info=                   1 from GESDD.
 Internal  Forces:  Max     0.000703172 RMS     0.000093856
 Search for a local minimum.
 Step number   3 out of a maximum of   86
 All quantities printed in internal units (Hartrees-Bohrs-Radians)
 Mixed Optimization -- En-DIIS/RFO-DIIS
 Swapping is turned off.
 Update second derivatives using D2CorX and points    1    2    3
 DE= -9.52D-06 DEPred=-8.81D-06 R= 1.08D+00
 TightC=F SS=  1.41D+00  RLast= 6.58D-03 DXNew= 5.0454D-01 1.9754D-02
 Trust test= 1.08D+00 RLast= 6.58D-03 DXMaxT set to 3.00D-01
 ITU=  1  1  0
     Eigenvalues ---    0.01709   0.01839   0.01942   0.01993   0.02012
     Eigenvalues ---    0.02061   0.02106   0.02148   0.02159   0.02163
     Eigenvalues ---    0.02288   0.02309   0.02614   0.02614   0.15804
     Eigenvalues ---    0.16000   0.16000   0.16000   0.16000   0.16000
     Eigenvalues ---    0.16562   0.21970   0.22281   0.22976   0.24885
     Eigenvalues ---    0.25000   0.25000   0.25648   0.34814   0.34996
     Eigenvalues ---    0.35015   0.35171   0.37986   0.39651   0.41575
     Eigenvalues ---    0.42883   0.45753   0.45801   0.49358   0.51140
     Eigenvalues ---    0.51940   0.55097   0.56357   0.62817   0.93182
 En-DIIS/RFO-DIIS IScMMF=        0 using points:     3    2
 RFO step:  Lambda=-8.76517987D-07.
 DidBck=F Rises=F RFO-DIIS coefs:    1.09378   -0.09378
 Iteration  1 RMS(Cart)=  0.00029487 RMS(Int)=  0.00000012
 Iteration  2 RMS(Cart)=  0.00000018 RMS(Int)=  0.00000005
 Variable       Old X    -DE/DX   Delta X   Delta X   Delta X     New X
                                 (Linear)    (Quad)   (Total)
    R1        2.67801  -0.00002   0.00012  -0.00013  -0.00002   2.67799
    R2        2.55942  -0.00004   0.00017  -0.00017  -0.00000   2.55941
    R3        2.04187   0.00010   0.00003   0.00026   0.00030   2.04217
    R4        2.67649   0.00002   0.00010  -0.00002   0.00008   2.67658
    R5        2.57442   0.00014   0.00011   0.00024   0.00035   2.57477
    R6        2.56210  -0.00003   0.00017  -0.00016   0.00002   2.56212
    R7        2.03929   0.00008   0.00004   0.00018   0.00023   2.03952
    R8        2.69396   0.00004   0.00015   0.00004   0.00019   2.69415
    R9        2.04263   0.00008   0.00004   0.00020   0.00023   2.04286
   R10        2.69511   0.00005   0.00015   0.00007   0.00023   2.69534
   R11        2.50440  -0.00012   0.00006  -0.00026  -0.00020   2.50420
   R12        2.04271   0.00008   0.00004   0.00020   0.00024   2.04295
   R13        1.90400   0.00005   0.00001   0.00010   0.00011   1.90411
   R14        1.90379   0.00005   0.00001   0.00010   0.00011   1.90390
   R15        2.54330   0.00013   0.00006   0.00023   0.00029   2.54359
   R16        2.25878  -0.00070  -0.00013  -0.00073  -0.00086   2.25792
   R17        1.84295  -0.00003  -0.00002  -0.00008  -0.00010   1.84285
    A1        2.08214   0.00001   0.00008   0.00001   0.00009   2.08223
    A2        2.08371   0.00005  -0.00003   0.00035   0.00032   2.08403
    A3        2.11734  -0.00006  -0.00005  -0.00036  -0.00041   2.11693
    A4        2.11875  -0.00001  -0.00016  -0.00001  -0.00018   2.11857
    A5        2.05260  -0.00008   0.00012  -0.00036  -0.00024   2.05236
    A6        2.11184   0.00008   0.00004   0.00037   0.00042   2.11225
    A7        2.07790   0.00001   0.00010   0.00003   0.00013   2.07802
    A8        2.09886   0.00003  -0.00006   0.00026   0.00020   2.09906
    A9        2.10643  -0.00005  -0.00003  -0.00029  -0.00032   2.10611
   A10        2.10175   0.00001   0.00008   0.00003   0.00011   2.10186
   A11        2.10072  -0.00003  -0.00000  -0.00019  -0.00019   2.10053
   A12        2.08071   0.00002  -0.00007   0.00016   0.00008   2.08080
   A13        2.08776  -0.00004  -0.00018  -0.00013  -0.00032   2.08744
   A14        2.09853   0.00003   0.00009   0.00011   0.00020   2.09873
   A15        2.09690   0.00001   0.00009   0.00003   0.00012   2.09702
   A16        2.09808   0.00002   0.00009   0.00008   0.00017   2.09825
   A17        2.10295  -0.00004  -0.00002  -0.00023  -0.00025   2.10270
   A18        2.08215   0.00002  -0.00007   0.00016   0.00009   2.08224
   A19        2.11729   0.00001   0.00004   0.00006   0.00010   2.11739
   A20        2.11819   0.00001   0.00004   0.00006   0.00010   2.11829
   A21        2.04770  -0.00002  -0.00008  -0.00012  -0.00020   2.04751
   A22        2.01113  -0.00014  -0.00010  -0.00059  -0.00069   2.01044
   A23        2.21226  -0.00002   0.00003  -0.00010  -0.00007   2.21218
   A24        2.05980   0.00016   0.00007   0.00070   0.00076   2.06056
   A25        1.82428  -0.00009   0.00021  -0.00068  -0.00047   1.82380
    D1       -0.00002   0.00000  -0.00000   0.00008   0.00008   0.00006
    D2        3.14159   0.00000  -0.00000   0.00002   0.00002  -3.14158
    D3        3.14158   0.00000  -0.00000   0.00003   0.00003  -3.14157
    D4        0.00001  -0.00000   0.00000  -0.00003  -0.00003  -0.00002
    D5        0.00001  -0.00000   0.00000  -0.00004  -0.00004  -0.00003
    D6       -3.14158  -0.00000   0.00000  -0.00005  -0.00004   3.14156
    D7        3.14159   0.00000  -0.00000   0.00001   0.00001  -3.14159
    D8       -0.00000   0.00000  -0.00000   0.00000   0.00000   0.00000
    D9        0.00002  -0.00000   0.00000  -0.00008  -0.00008  -0.00006
   D10       -3.14158  -0.00000   0.00000  -0.00004  -0.00004   3.14156
   D11       -3.14159  -0.00000   0.00000  -0.00002  -0.00002   3.14158
   D12       -0.00001   0.00000  -0.00000   0.00003   0.00002   0.00002
   D13        3.14143   0.00001  -0.00002   0.00062   0.00060  -3.14115
   D14        0.00015  -0.00001   0.00002  -0.00056  -0.00054  -0.00039
   D15       -0.00015   0.00001  -0.00002   0.00056   0.00054   0.00039
   D16       -3.14143  -0.00001   0.00002  -0.00062  -0.00060   3.14116
   D17       -0.00001   0.00000  -0.00000   0.00004   0.00004   0.00003
   D18        3.14158   0.00000  -0.00000   0.00004   0.00004  -3.14156
   D19       -3.14159  -0.00000   0.00000  -0.00000  -0.00000   3.14159
   D20       -0.00000   0.00000  -0.00000   0.00000   0.00000   0.00000
   D21       -0.00000   0.00000  -0.00000   0.00000   0.00000   0.00000
   D22        3.14159   0.00000  -0.00000   0.00000   0.00000  -3.14159
   D23       -3.14159  -0.00000   0.00000  -0.00000  -0.00000   3.14159
   D24        0.00000  -0.00000  -0.00000  -0.00000  -0.00000  -0.00000
   D25        0.00000  -0.00000   0.00000  -0.00000  -0.00000  -0.00000
   D26        3.14159   0.00000  -0.00000   0.00000   0.00000  -3.14159
   D27       -3.14159  -0.00000   0.00000  -0.00000  -0.00000   3.14159
   D28       -0.00000   0.00000  -0.00000   0.00000   0.00000   0.00000
   D29        3.14159  -0.00000   0.00000  -0.00000  -0.00000   3.14159
   D30        0.00000  -0.00000  -0.00000   0.00000   0.00000   0.00000
   D31       -0.00000   0.00000   0.00000  -0.00000  -0.00000  -0.00000
   D32       -3.14159   0.00000  -0.00000   0.00000   0.00000  -3.14159
   D33       -3.14144  -0.00001   0.00002  -0.00058  -0.00056   3.14118
   D34       -0.00013   0.00001  -0.00002   0.00049   0.00047   0.00034
         Item               Value     Threshold  Converged?
 Maximum Force            0.000703     0.000450     NO 
 RMS     Force            0.000094     0.000300     YES
 Maximum Displacement     0.001055     0.001800     YES
 RMS     Displacement     0.000295     0.001200     YES
 Predicted change in Energy=-6.501233D-07
 GradGradGradGradGradGradGradGradGradGradGradGradGradGradGradGradGradGrad

                          Input orientation:                          
 ---------------------------------------------------------------------
 Center     Atomic      Atomic             Coordinates (Angstroms)
 Number     Number       Type             X           Y           Z
 ---------------------------------------------------------------------
      1          6           0       -0.060654    1.257566    0.000085
      2          6           0        0.658715    0.036595    0.000183
      3          6           0       -0.008616   -1.212728    0.000134
      4          6           0       -1.364242   -1.235276    0.000059
      5          6           0       -2.106621   -0.018130   -0.000004
      6          6           0       -1.414740    1.229132    0.000009
      7          7           0       -3.431527   -0.044315   -0.000074
      8          7           0        2.019465    0.105865    0.000272
      9          8           0        2.653531   -1.081444   -0.000171
     10          8           0        2.684751    1.098358   -0.000099
     11          1           0        0.481119    2.192621    0.000103
     12          1           0        0.557289   -2.131734    0.000184
     13          1           0       -1.894904   -2.177099    0.000049
     14          1           0       -1.982475    2.149139   -0.000037
     15          1           0       -3.972169    0.805972   -0.000119
     16          1           0       -3.938879   -0.914743   -0.000084
[...]
 ! D31   D(6,5,7,15)             0.0            -DE/DX =    0.0                 !
 ! D32   D(6,5,7,16)          -180.0            -DE/DX =    0.0                 !
 ! D33   D(2,8,9,17)          -179.9577         -DE/DX =   -0.0001              !
 ! D34   D(10,8,9,17)           -0.0356         -DE/DX =    0.0                 !
 --------------------------------------------------------------------------------
 GradGradGradGradGradGradGradGradGradGradGradGradGradGradGradGradGradGrad

 1\1\ WCSS.PL-BEM-QINLAB\Freq\RM062X\CC-pVTZ\C6H7N2O2(1+)\PHZD\19-Dec-2
 024\0\\#N Geom=AllCheck Guess=TCheck SCRF=Check GenChk RM062X/CC-pVTZ 
 Freq\\[No Title]\\1,1\C,-0.0606992226,1.2575092032,-0.0001522883\C,0.6
 586930071,0.0365921022,-0.0003364459\C,-0.008640872,-1.2126758164,-0.0
 00236779\C,-1.3642453297,-1.2352266388,-0.0000812027\C,-2.1066891962,-
 0.0181286537,0.00004125\C,-1.4147682717,1.2290987659,0.0000045723\N,-3
 .4315408364,-0.0443078942,0.0001891452\N,2.019566554,0.1060248096,-0.0
 005150866\O,2.6536947171,-1.0814107503,0.000282933\O,2.6848114301,1.09
 82841049,0.0001372552\H,0.4808911861,2.19270037,-0.0001933778\H,0.5571
 400559,-2.1317806333,-0.000333524\H,-1.8948154485,-2.1771296146,-0.000
 0538287\H,-1.9824337244,2.1491761378,0.0000941718\H,-3.9722118293,0.80
 59768645,0.000277676\H,-3.9389361452,-0.9147291029,0.0002173568\H,3.60
 15779257,-0.8522052542,0.0007241727\\Version=ES64L-G09RevE.01\State=1-
 A\HF=-492.4386958\RMSD=2.807e-09\RMSF=4.597e-05\ZeroPoint=0.1339978\Th
 ermal=0.1422818\Dipole=-1.2609096,-0.4255616,0.0001826\DipoleDeriv=1.0
 524039,0.0132874,-0.0000557,-0.6142331,0.0326959,0.0000178,-0.000053,0
 .0000475,-0.012904,-2.3229873,-0.1959646,-0.0000168,0.0372043,-0.14954
 97,0.0000053,-0.0001276,0.0000385,0.0097382,1.0838108,0.1114706,-0.000
 0464,0.6391126,0.1153764,-0.0000133,-0.0000678,-0.0000335,-0.0024995,-
 1.0501196,0.0876941,0.0000395,0.8287277,-0.0412867,-0.0000557,0.000203
 9,0.0000048,-0.1544252,2.6074461,0.0806092,-0.0001612,0.030916,0.38405
 34,0.0000012,-0.0002499,0.,0.2399193,-0.9883535,-0.1829074,0.0000243,-
 0.8342367,-0.1207748,0.0000649,0.0001482,0.0000041,-0.1492179,-2.29565
 1,-0.0763289,0.0001193,-0.0379163,-0.1991265,0.0000096,0.000205,0.0000
 146,-0.4122118,4.0905208,0.1674041,0.0000683,0.4889821,1.3853089,-0.00
 02837,0.0026241,-0.000158,0.2854175,-1.1729885,0.4529111,-0.0001446,1.
 0118454,-0.6529086,0.0000464,-0.0011993,0.0004678,-0.2318689,-1.661238
 3,-0.3532967,0.00007,-1.426724,-0.790571,0.0002294,-0.0015655,-0.00036
 31,-0.1556863,0.0793762,-0.0061416,0.0000045,0.0322823,0.1238679,-0.00
 00054,-0.0000228,-0.0000011,0.1448121,0.0978739,-0.0004218,0.0000082,-
 0.0141267,0.1119266,0.0000013,-0.0000152,-0.0000049,0.1451006,0.042660
 3,-0.0194284,0.0000082,-0.0044542,0.0625655,0.0000048,-0.0000277,0.000
 0066,0.1537208,0.0408211,0.0201917,0.0000098,0.0022753,0.0643931,-0.00
 00113,-0.0000399,-0.0000132,0.1541279,0.3557132,-0.0707912,-0.0000022,
 -0.2443515,0.2013759,0.0000131,-0.0000116,0.0000062,0.3081161,0.343470
 1,0.0797009,0.0000038,0.2489295,0.2226184,-0.0000198,0.0000033,-0.0000
 131,0.3075706,0.6972417,-0.1079884,0.000071,-0.1442326,0.2500355,-0.00
 00047,0.0001956,-0.0000032,0.3702906\Polar=189.5106849,5.8313018,85.99
 52913,-0.0023775,0.0006322,41.883572\PG=C01 [X(C6H7N2O2)]\NImag=0\\0.7
 9055952,0.05888592,0.69422918,-0.00008546,0.00001425,0.14616423,-0.112
 32655,0.07425603,0.00000554,0.65240283,0.05137395,-0.26672405,-0.00002
 165,0.01063726,0.72442192,0.00001997,-0.00001750,-0.06165509,0.0000008
 5,0.00001251,0.12905882,0.03188821,-0.00522565,-0.00000649,-0.10889040
 ,-0.04818246,0.00001841,0.78400399,0.00860351,-0.04684885,-0.00000527,
 -0.06927481,-0.27605807,0.00000669,-0.05732220,0.69893943,-0.00000519,
 0.00000134,0.00763402,-0.00000198,0.00000783,-0.05912487,-0.00008676,0
 .00001671,0.14570976,-0.02342744,0.01969777,0.00000524,-0.05136661,-0.
 04694382,0.00000237,-0.44716821,0.01717002,0.00005401,0.79410411,0.005
 81867,-0.00687578,-0.00000178,-0.01422769,0.01513462,0.00000761,-0.035
 57124,-0.12912677,0.00000449,0.06319464,0.67768921,0.00000307,-0.00000
 367,-0.00227543,0.00001237,0.00000758,0.00818420,0.00004863,-0.0000059
 3,-0.05849415,-0.00008121,0.00000452,0.12675094,-0.04294079,-0.0293715
 7,0.00000255,0.03351347,0.00051631,-0.00000127,-0.04698369,0.02617984,
 0.00000527,-0.13241470,0.07249492,0.00000817,0.80163947,-0.05937749,0.
 02994419,0.00001099,0.00109066,-0.03759533,-0.00000081,0.05750021,0.03
 349172,-0.00000847,0.03032813,-0.25638684,-0.00000448,0.00170818,0.664
 33618,-0.00000022,0.00000661,0.00050074,-0.00000630,-0.00000088,-0.010
 43100,0.00000402,-0.00000482,0.00016387,0.00001151,-0.00001354,-0.0726
 0029,-0.00007036,0.00001470,0.18129379,-0.45198945,-0.02906251,0.00005
 382,-0.05359545,0.04522214,0.00000620,-0.02235751,-0.02053615,0.000003
 39,0.04209030,0.00142138,-0.00000534,-0.12801234,-0.02458365,0.0000091
 7,0.80192486,0.02201932,-0.12875837,-0.00000788,0.01218531,0.01867805,
 -0.00000705,-0.00696817,-0.00809608,0.00000123,0.00168808,-0.03143345,
 -0.00000101,-0.06660713,-0.25873054,0.00000204,-0.06052787,0.67291035,
 0.00005198,0.00000239,-0.05846886,0.00001319,-0.00000625,0.00768591,0.
 00000254,0.00000334,-0.00215495,-0.00000522,-0.00000164,0.00651306,0.0
 0000314,-0.00000714,-0.07260057,-0.00008667,0.00002760,0.12789407,0.02
 143261,-0.00691012,-0.00000113,-0.03350534,0.00034606,-0.00000029,0.02
 170322,0.00788211,-0.00000104,-0.05874451,0.02486088,0.00000974,-0.442
 06809,-0.00601863,0.00004377,-0.05553860,-0.02678219,0.00000740,0.8661
 5530,0.00470991,-0.01040389,-0.00000157,-0.00058615,0.00363969,0.00000
 007,-0.00376027,-0.01027570,0.00000052,0.04879144,0.00398851,-0.000006
 41,-0.00598640,-0.14313441,-0.00000242,-0.05094281,0.00111752,0.000006
 17,-0.00040002,0.87253702,-0.00000085,-0.00000032,0.00383379,0.0000034
 6,0.00000008,-0.00024358,-0.00000122,-0.00000064,0.00387894,0.00000844
 ,-0.00000227,0.01091812,0.00004352,-0.00000240,-0.05011662,0.00000488,
 0.00000188,0.01089499,-0.00009119,0.00002700,0.04634234,-0.07466929,0.
 03927950,0.00001695,-0.24155625,-0.01044706,0.00003645,-0.06326946,-0.
 03834814,0.00002297,0.02928446,-0.02009791,-0.00000836,-0.03704005,-0.
 00029398,0.00000597,0.02803660,0.02076231,-0.00000649,0.03445441,0.000
 49575,-0.00000387,0.85872009,0.02663628,0.01670840,-0.00000422,0.01801
 661,-0.13313144,-0.00000061,-0.03878052,0.00784599,0.00001220,-0.00128
 683,-0.01102319,-0.00000020,-0.00535372,-0.00608946,0.00000055,0.00883
 391,-0.00455087,-0.00000373,0.00481403,0.00075090,-0.00000034,0.147045
 60,0.79546159,-0.00001237,0.00000929,-0.00539372,-0.00001432,-0.000000
 75,-0.07310431,-0.00001260,-0.00000931,-0.01064576,0.00000898,-0.00000
 906,0.00596258,-0.00001987,-0.00000278,-0.00129656,0.00001040,0.000010
 30,0.00543406,0.00001781,0.00000086,-0.00035203,0.00023810,0.00013200,
 0.22561557,0.00089135,-0.01030611,-0.00000583,-0.04076639,0.05363152,-
 0.00004125,-0.00150882,0.00401013,0.00000006,-0.00283482,0.00273515,0.
 00000041,0.00673964,0.00373214,-0.00000109,-0.00641609,-0.00118154,0.0
 0000232,-0.00645450,-0.00081017,0.00000087,-0.19573288,0.06695678,-0.0
 0005904,0.65802987,-0.01056829,0.00682175,0.00000656,0.03836703,-0.001
 41884,0.00002270,-0.00988536,-0.00770440,-0.00000276,0.00550432,-0.003
 23469,-0.00000148,-0.00844253,-0.00195536,0.00000099,0.00606696,0.0058
 4172,-0.00000136,0.00795291,0.00072544,-0.00000086,0.00157080,-0.20088
 792,-0.00001080,0.05088362,0.39254461,0.00000707,-0.00000662,0.0051827
 7,-0.00000729,0.00001295,0.01114771,0.00000312,0.00000467,0.00036866,-
 0.00000428,0.00000336,-0.00085624,0.00000866,0.00000319,0.00024011,-0.
 00000583,-0.00000455,-0.00015766,-0.00000822,-0.00000087,0.00002993,-0
 .00006834,0.00008425,-0.06075270,0.00027863,-0.00002953,0.02728529,0.0
 0873949,-0.01019614,0.00000325,-0.06709977,-0.05766951,-0.00004100,0.0
 0691951,0.01515006,-0.00001141,-0.01091332,0.00435834,0.00000398,0.012
 46443,-0.00402084,-0.00000256,-0.00606715,-0.00584191,0.00000047,-0.01
 171477,0.00057645,0.00000152,-0.29918380,-0.23627748,-0.00013580,0.041
 31149,0.01268878,0.00000223,0.32545977,0.01902390,-0.01344424,0.000001
 93,-0.06971200,-0.00771228,-0.00002607,0.01363447,0.01091913,-0.000010
 84,-0.01000405,0.00860869,0.00000349,0.01415470,-0.00181672,-0.0000018
 7,-0.00889256,-0.00545709,0.00000259,-0.01283092,0.00056957,0.00000131
 ,-0.21175552,-0.47187708,-0.00015484,-0.01843825,-0.10582943,-0.000021
 32,0.28994747,0.58439836,0.00001044,-0.00000823,-0.00130359,-0.0000127
 7,-0.00001188,0.01912042,0.00000769,0.00000878,0.00974085,-0.00000674,
 0.00000520,-0.00120915,0.00001248,-0.00000042,0.00020292,-0.00000724,-
 0.00000567,-0.00066127,-0.00001133,0.00000013,0.00006163,-0.00017479,-
 0.00022331,-0.08320679,0.00000652,0.00003281,0.02455821,0.00017161,0.0
 0020975,0.03700485,-0.12916875,-0.12559456,0.00000810,0.01120097,0.014
 36273,-0.00000118,-0.00204088,0.00356692,0.00000053,-0.00078506,0.0003
 9682,-0.00000007,-0.00498694,0.00080870,0.00000267,-0.00937075,-0.0263
 5593,0.00000197,-0.00028460,-0.00143751,-0.00000031,0.00336012,0.00227
 917,0.00000150,0.00011919,-0.00068115,-0.00000028,-0.00492933,-0.00084
 282,-0.00000153,0.13551940,-0.12458711,-0.27833836,0.00000710,-0.01249
 973,-0.01728897,0.00000145,0.00377623,-0.00217845,-0.00000113,0.000035
 70,0.00061524,0.00000013,0.00139417,0.00002862,-0.00000073,0.00256025,
 0.00708343,-0.00000051,0.00039157,0.00052137,0.,-0.00338053,-0.0032024
 7,-0.00000153,0.00008878,0.00034316,-0.00000001,-0.00003185,0.00325556
 ,0.00000158,0.13279631,0.28909141,0.00001001,0.00000523,-0.04331776,-0
 .00000586,-0.00000089,0.00474301,0.00000173,-0.00000076,0.00310607,0.0
 0000013,0.00000045,-0.00120917,0.00000252,0.00000016,0.01090286,0.0000
 0079,0.00000350,0.00744432,-0.00000051,0.00000014,-0.00078450,0.000002
 82,0.00000051,-0.00257066,0.00000008,0.,-0.00039582,-0.00000076,-0.000
 00129,0.00041604,-0.00001023,-0.00000696,0.02747881,-0.00183178,-0.003
 57670,0.00000036,0.01120749,-0.01378320,-0.00000207,-0.13703766,0.1318
 8023,0.00001699,-0.01036357,0.02591471,0.00000353,-0.00514218,-0.00090
 902,0.00000233,-0.00068191,-0.00034200,-0.00000002,-0.00014806,0.00141
 067,-0.00000019,0.00390701,-0.00068793,0.00000236,-0.00649107,-0.00056
 264,-0.00000328,-0.00050389,0.00043505,-0.00000074,0.00065932,-0.00068
 352,0.00000005,0.14567728,-0.00387341,-0.00231551,0.00000091,0.0137886
 9,-0.01669986,-0.00000309,0.13052590,-0.27517577,-0.00002052,-0.002932
 90,0.00756109,0.00000080,-0.00164669,0.00000337,0.00000017,-0.00001455
 ,0.00065779,0.00000001,-0.00028326,0.00053138,0.00000005,0.00280519,-0
 .00182520,0.00000191,0.00052692,0.00141142,-0.00000030,-0.00050569,0.0
 0024328,-0.00000056,0.00074722,-0.00059924,-0.00000018,-0.13900605,0.2
 8473128,0.00000131,0.00000042,0.00333165,-0.00000481,-0.00000073,0.003
 81225,0.00001861,-0.00001703,-0.04308664,0.00000058,-0.00000348,0.0073
 5102,0.00000254,-0.00000122,0.01075518,0.00000032,-0.00000027,-0.00121
 240,-0.00000057,-0.00000003,-0.00074063,0.00000290,0.00000056,-0.00263
 783,-0.00000183,0.00000031,0.00082719,-0.00000034,-0.00000032,0.000024
 53,0.00000019,0.00000006,0.00108525,-0.00001835,0.00002121,0.02759199,
 -0.00072471,0.00048466,0.00000016,-0.00416972,0.00188284,0.00000237,-0
 .01210992,-0.02851117,0.00000222,-0.12623698,-0.12135335,0.00000519,0.
 01040970,0.01657004,-0.00000063,-0.00198226,0.00310673,0.00000055,0.00
 194472,0.00057668,-0.00000030,-0.00036019,-0.00196115,-0.00000025,-0.0
 0006402,-0.00005492,0.,-0.00063452,0.00015781,-0.00000026,0.00005892,-
 0.00009324,-0.00000004,0.00099376,-0.00007454,-0.00000084,0.13250957,0
 .00114765,-0.00016177,-0.00000018,0.00148225,0.00165416,-0.00000075,0.
 00162561,0.00503887,-0.00000035,-0.12168146,-0.27712841,0.00000622,-0.
 01475825,-0.01809016,0.00000159,0.00333059,-0.00243929,-0.00000055,-0.
 00106422,0.00192450,0.00000009,-0.00025495,0.00049494,-0.00000061,-0.0
 0002082,-0.00007000,0.00000005,0.00043498,0.00024001,0.00000047,-0.000
 06306,0.00001155,-0.00000001,-0.00002835,0.00071611,0.00000045,0.12888
 696,0.28892501,0.00000052,-0.00000036,-0.00079853,0.00000406,0.0000010
 0,0.00869062,0.00000125,0.00000363,0.00368152,0.00000494,0.00000556,-0
 .03637015,-0.00000005,-0.00000285,0.00362352,0.00000077,-0.00000100,0.
 00418588,-0.00000106,-0.00000002,-0.00206971,-0.00000225,-0.00000063,0
 .00215689,-0.00000028,0.00000024,0.00007922,0.00000120,0.00000097,-0.0
 0128545,-0.00000001,0.00000002,-0.00043374,-0.00000101,-0.00000008,-0.
 00593861,-0.00000827,-0.00000628,0.02469372,-0.01310505,0.02777276,0.0
 0000430,-0.00404420,-0.00207512,0.00000222,-0.00065167,-0.00049277,0.0
 0000014,-0.00171671,-0.00304502,0.00000030,0.01036132,-0.01529200,-0.0
 0000156,-0.13644010,0.12782975,0.00001439,0.00193968,-0.00055981,-0.00
 000033,-0.00041953,0.00161660,-0.00000027,-0.00075293,-0.00014343,-0.0
 0000021,0.00005494,0.00015611,0.00000012,0.00103383,0.00005945,-0.0000
 0083,0.00005278,0.00009342,-0.00000003,0.00064386,-0.00069487,-0.00000
 009,0.14344012,-0.00218209,0.00604387,0.00000072,-0.00173836,0.0015550
 8,0.00000043,-0.00114803,-0.00022503,0.00000021,-0.00328409,-0.0026323
 8,0.00000012,0.01589094,-0.01811034,-0.00000315,0.12806527,-0.26943910
 ,-0.00002056,0.00101997,0.00189349,0.00000017,0.00033145,0.00062143,0.
 00000059,-0.00041173,0.00019324,-0.00000039,-0.00004019,-0.00017380,-0
 .00000020,0.00004679,0.00069485,-0.00000005,0.00006246,0.00001865,0.00
 000005,0.00074759,-0.00073769,-0.00000012,-0.13572378,0.28072366,0.000
 00134,-0.00000319,0.00377807,0.00000395,-0.00000125,0.00903784,0.00000
 052,0.00000047,-0.00079209,0.00000042,0.00000057,0.00416459,0.00000111
 ,0.00000124,0.00364274,0.00001384,-0.00001960,-0.03743696,-0.00000102,
 0.00000024,-0.00204203,-0.00000125,-0.00000025,0.00167722,0.00000052,-
 0.00000030,-0.00084701,-0.00000043,-0.00000031,0.00017536,-0.00000120,
 0.00000041,-0.00602183,-0.00000003,-0.00000001,-0.00047162,-0.00000003
 ,0.00000007,-0.00025023,-0.00001814,0.00002199,0.02557823,-0.00076497,
 0.00019400,0.,0.00165475,-0.00009587,0.00000010,-0.00070461,0.00148837
 ,0.00000027,-0.00325495,-0.00364796,0.00000097,-0.01721926,0.03150270,
 0.00000278,0.00229443,0.00218715,-0.00000075,-0.17722854,0.17035557,0.
 00002406,-0.00196619,-0.00041622,-0.00000165,0.00053962,-0.00057512,0.
 00000072,0.00071699,0.00075795,0.00000086,0.00004457,-0.00007459,0.000
 00007,-0.00034813,-0.00010933,-0.00000004,0.00002030,0.00018128,-0.000
 00003,-0.00042565,-0.00147175,0.00000016,0.18171267,0.00213554,-0.0012
 8889,-0.00000025,-0.00350827,0.00011566,-0.00000024,0.00200624,0.00112
 276,-0.00000030,-0.00417474,0.00242942,0.00000063,0.00440489,0.0079422
 0,0.00000009,-0.00462484,0.00089334,0.00000078,0.16828448,-0.35666877,
 -0.00003009,0.00403579,0.00067767,0.00000279,-0.00068987,0.00092406,-0
 .00000106,-0.00149689,-0.00176339,-0.00000167,-0.00009222,0.00005091,-
 0.00000004,-0.00006272,-0.00002959,-0.00000005,-0.00014036,0.00019403,
 0.,0.00019736,-0.00066272,-0.00000006,-0.18397778,0.35927258,-0.000000
 26,0.00000022,-0.00064143,-0.00000034,-0.00000067,0.00018841,0.0000010
 9,0.00000047,0.00157378,-0.00000008,0.00000068,0.00695172,0.00000166,-
 0.00000336,-0.00234570,-0.00000025,0.00000008,-0.00413245,0.00002423,-
 0.00003048,-0.00970907,0.00000049,0.00000017,-0.00008635,-0.00000008,0
 .00000008,0.00010807,-0.00000020,-0.00000012,-0.00000007,0.00000012,0.
 ,0.00041142,-0.00000020,0.,-0.00089458,-0.00000007,-0.00000010,-0.0005
 4958,0.00000016,0.00000006,0.00059327,-0.00002499,0.00003157,0.0105632
 2,-0.00056725,-0.00157083,0.00000012,0.00154772,0.00007430,0.00000011,
 -0.00073434,-0.00018114,0.00000001,0.00222035,-0.00212598,-0.00000088,
 -0.01571821,-0.03250694,0.00000050,-0.00357515,0.00343182,0.00000128,-
 0.16441237,-0.16250277,0.00001172,-0.00185179,-0.00026253,-0.00000145,
 0.00037359,-0.00040551,0.00000051,0.00081847,0.00090210,0.00000091,-0.
 00034422,0.00009515,-0.00000004,0.00002914,0.00006396,0.00000008,-0.00
 033939,0.00151690,0.00000022,0.00002006,-0.00019316,-0.00000004,0.0151
 1904,0.01740970,-0.00000134,0.16759422,-0.00200743,0.00101199,0.000000
 23,0.00353506,0.00001176,0.00000023,-0.00213615,-0.00133735,0.00000024
 ,0.00464713,0.00093724,-0.00000048,-0.00522894,0.00657549,0.00000066,0
 .00389960,0.00266978,-0.00000088,-0.16048572,-0.36782464,0.00000627,-0
 .00408297,-0.00070889,-0.00000290,0.00083986,-0.00107006,0.00000122,0.
 00140443,0.00162279,0.00000161,0.00006992,-0.00003989,0.00000010,0.000
 06769,0.00003899,0.00000003,-0.00021824,-0.00059239,0.,0.00014040,0.00
 019582,0.00000007,-0.01632895,-0.01311280,0.00000142,0.17619253,0.3715
 2830,0.00000099,-0.00000039,0.00147589,-0.00000015,0.00000065,0.000336
 97,-0.00000038,-0.00000029,-0.00070012,0.00000004,0.00000030,-0.004095
 31,0.00000142,0.00000411,-0.00227728,0.00000021,-0.00000104,0.00702569
 ,0.00001175,0.00000663,-0.00979790,0.00000010,-0.00000008,-0.00002296,
 0.,0.00000004,-0.00011263,0.00000009,-0.00000008,0.00002776,-0.0000002
 3,0.00000003,-0.00092536,0.00000011,-0.00000002,0.00040053,0.00000017,
 -0.00000012,0.00059743,-0.00000007,0.00000016,-0.00054179,-0.00000244,
 -0.00000228,-0.00198456,-0.00001162,-0.00000761,0.01054062,-0.00199513
 ,0.00124354,-0.00000149,0.00579345,0.00114996,-0.00000200,-0.00105777,
 -0.00126483,0.00000051,0.00152768,-0.00112636,-0.00000050,-0.00260178,
 -0.00023822,0.,0.00168056,0.00139628,-0.00000007,0.00246945,0.00006943
 ,-0.00000021,-0.04171326,0.00882739,-0.00002153,-0.44698324,-0.0917154
 7,-0.00020322,0.00456145,-0.00669343,0.00000478,-0.00008577,0.00015297
 ,0.00000006,0.00002145,-0.00010487,0.00000028,0.00004090,-0.00004023,0
 .00000008,0.00000927,0.00002872,0.00000028,-0.00019007,0.00029369,0.00
 000005,-0.00017986,-0.00030821,0.,0.47870267,0.00224116,0.00040032,0.0
 0000012,-0.00181187,-0.00858211,0.00000441,-0.00008860,-0.00033144,-0.
 00000042,-0.00074933,0.00087751,0.00000019,0.00065127,-0.00041262,0.00
 000002,-0.00021516,-0.00094718,-0.00000027,-0.00077692,0.00010802,0.00
 000008,0.07233469,0.01073561,0.00003482,-0.15154643,-0.08663469,-0.000
 04504,-0.00848003,-0.00178336,-0.00000839,-0.00000731,-0.00004873,0.00
 000011,-0.00012867,0.00073180,0.00000005,-0.00000633,0.00002051,-0.000
 00005,0.00016094,0.00004098,-0.00000008,0.00003055,-0.00009648,-0.0000
 0002,0.00006241,0.00009386,0.,0.08832963,0.08582800,-0.00000236,0.0000
 0054,0.00195326,0.00001041,0.00000234,0.00255270,-0.00000017,-0.000000
 69,-0.00085888,0.00000086,-0.00000098,0.00031367,-0.00000151,-0.000000
 45,0.00034230,0.00000154,0.00000145,-0.00025287,0.00000163,0.00000005,
 -0.00010365,-0.00006139,0.00000314,-0.00077666,-0.00018000,-0.00001663
 ,-0.00670511,0.00000818,-0.00000297,-0.00366622,-0.00000003,0.00000007
 ,0.00007104,0.00000015,-0.00000031,-0.00019729,0.00000002,0.,-0.000012
 80,-0.00000011,-0.00000003,-0.00024377,-0.00000009,0.00000019,-0.00004
 611,-0.00000009,-0.00000019,0.00005301,0.00022298,0.00001448,0.0075773
 7\\-0.00002507,-0.00001015,0.00002007,0.00005535,0.00000017,0.00004265
 ,-0.00005104,0.00000070,0.00001854,0.00002769,-0.00000583,-0.00000351,
 -0.00008600,0.00000124,0.00000246,0.00004733,0.00000729,-0.00000302,0.
 00004564,0.00001856,0.00000011,0.00009526,0.00003846,-0.00021987,-0.00
 001403,0.00001333,0.00006132,-0.00005901,-0.00008705,0.00008274,0.0000
 2111,0.00001950,-0.00000053,-0.00000357,-0.00002528,0.00000053,-0.0000
 2150,-0.00001012,-0.00000289,0.00000188,0.00002892,-0.00000309,-0.0000
 0678,0.00002643,-0.00000002,-0.00001448,0.00001125,-0.00000008,-0.0000
 1277,-0.00002740,0.00000458\\\@


    UPON JULIA'S CLOTHES

 WHENAS IN SILKS MY JULIA GOES,
 THEN, THEN, METHINKS, HOW SWEETLY FLOWS
 THAT LIQUEFACTION OF HER CLOTHES.

 NEXT, WHEN I CAST MINE EYES, AND SEE
 THAT BRAVE VIBRATION, EACH WAY FREE,
 O, HOW THAT GLITTERING TAKETH ME!
     -- ROBERT HERRICK, 1648
 Job cpu time:       0 days  3 hours 21 minutes 43.4 seconds.
 File lengths (MBytes):  RWF=    221 Int=      0 D2E=      0 Chk=     12 Scr=      1
 Normal termination of Gaussian 09 at Thu Dec 19 22:18:02 2024.
