 Entering Gaussian System, Link 0=g09
 Input=B2PLYPD3PNA.gjf
 Output=B2PLYPD3PNA.log
 Initial command:
 /home/c612/g09E/g09/l1.exe "/mnt/ja_sm883/scratch/Gau-1922255.inp" -scrdir="/mnt/ja_sm883/scratch/"
 Default is to use a total of  18 processors:
                               18 via shared-memory
                                1 via Linda
 Entering Link 1 = /home/c612/g09E/g09/l1.exe PID=   1922257.
  
 Copyright (c) 1988,1990,1992,1993,1995,1998,2003,2009,2015,
            Gaussian, Inc.  All Rights Reserved.
  
 This is part of the Gaussian(R) 09 program.  It is based on
 the Gaussian(R) 03 system (copyright 2003, Gaussian, Inc.),
 the Gaussian(R) 98 system (copyright 1998, Gaussian, Inc.),
 the Gaussian(R) 94 system (copyright 1995, Gaussian, Inc.),
 the Gaussian 92(TM) system (copyright 1992, Gaussian, Inc.),
 the Gaussian 90(TM) system (copyright 1990, Gaussian, Inc.),
 the Gaussian 88(TM) system (copyright 1988, Gaussian, Inc.),
 the Gaussian 86(TM) system (copyright 1986, Carnegie Mellon
 University), and the Gaussian 82(TM) system (copyright 1983,
 Carnegie Mellon University). Gaussian is a federally registered
 trademark of Gaussian, Inc.
  
 This software contains proprietary and confidential information,
 including trade secrets, belonging to Gaussian, Inc.
  
 This software is provided under written license and may be
 used, copied, transmitted, or stored only in accord with that
 written license.
  
 The following legend is applicable only to US Government
 contracts under FAR:
  
                    RESTRICTED RIGHTS LEGEND
  
 Use, reproduction and disclosure by the US Government is
 subject to restrictions as set forth in subparagraphs (a)
 and (c) of the Commercial Computer Software - Restricted
 Rights clause in FAR 52.227-19.
  
 Gaussian, Inc.
 340 Quinnipiac St., Bldg. 40, Wallingford CT 06492
  
  
 ---------------------------------------------------------------
 Warning -- This program may not be used in any manner that
 competes with the business of Gaussian, Inc. or will provide
 assistance to any competitor of Gaussian, Inc.  The licensee
 of this program is prohibited from giving any competitor of
 Gaussian, Inc. access to this program.  By using this program,
 the user acknowledges that Gaussian, Inc. is engaged in the
 business of creating and licensing software in the field of
 computational chemistry and represents and warrants to the
 licensee that it is not a competitor of Gaussian, Inc. and that
 it will not use this program in any manner prohibited above.
 ---------------------------------------------------------------
  

 Cite this work as:
 Gaussian 09, Revision E.01,
 M. J. Frisch, G. W. Trucks, H. B. Schlegel, G. E. Scuseria, 
 M. A. Robb, J. R. Cheeseman, G. Scalmani, V. Barone, B. Mennucci, 
 G. A. Petersson, H. Nakatsuji, M. Caricato, X. Li, H. P. Hratchian, 
 A. F. Izmaylov, J. Bloino, G. Zheng, J. L. Sonnenberg, M. Hada, 
 M. Ehara, K. Toyota, R. Fukuda, J. Hasegawa, M. Ishida, T. Nakajima, 
 Y. Honda, O. Kitao, H. Nakai, T. Vreven, J. A. Montgomery, Jr., 
 J. E. Peralta, F. Ogliaro, M. Bearpark, J. J. Heyd, E. Brothers, 
 K. N. Kudin, V. N. Staroverov, T. Keith, R. Kobayashi, J. Normand, 
 K. Raghavachari, A. Rendell, J. C. Burant, S. S. Iyengar, J. Tomasi, 
 M. Cossi, N. Rega, J. M. Millam, M. Klene, J. E. Knox, J. B. Cross, 
 V. Bakken, C. Adamo, J. Jaramillo, R. Gomperts, R. E. Stratmann, 
 O. Yazyev, A. J. Austin, R. Cammi, C. Pomelli, J. W. Ochterski, 
 R. L. Martin, K. Morokuma, V. G. Zakrzewski, G. A. Voth, 
 P. Salvador, J. J. Dannenberg, S. Dapprich, A. D. Daniels, 
 O. Farkas, J. B. Foresman, J. V. Ortiz, J. Cioslowski, 
 and D. J. Fox, Gaussian, Inc., Wallingford CT, 2013.
 
 ******************************************
 Gaussian 09:  ES64L-G09RevE.01 30-Nov-2015
                18-Dec-2024 
 ******************************************
 %chk=B2PLYPD3PNA.chk
 -----------------------------------------------------
 # opt freq B2PLYP/6-31+g(d,p) EmpiricalDispersion=GD3
 -----------------------------------------------------
 1/18=20,19=15,38=1/1,3;
 2/9=110,12=2,17=6,18=5,40=1/2;
 3/5=1,6=6,7=111,11=9,16=1,25=1,30=1,71=1,74=-47,124=31/1,2,3;
 4//1;
 5/5=2,38=5/2;
 8/6=4,10=2/1;
 9/15=2,16=-3/6;
 10/5=1/2;
 6/7=2,8=2,9=2,10=2/1;
 7/12=2/1,2,3,16;
 1/18=20,19=15/3(2);
 2/9=110/2;
 99//99;
 2/9=110/2;
 3/5=1,6=6,7=111,11=9,16=1,25=1,30=1,71=1,74=-47,124=31/1,2,3;
 4/5=5,16=3,69=1/1;
 5/5=2,38=5/2;
 8/6=4,10=2/1;
 9/15=2,16=-3/6;
 10/5=1/2;
 7/12=2/1,2,3,16;
 1/18=20,19=15/3(-8);
 2/9=110/2;
 6/7=2,8=2,9=2,10=2/1;
 99//99;
 ----------
 [No Title]
 ----------
 Symbolic Z-matrix:
 Charge =  0 Multiplicity = 1
 C                    -0.02265   1.21427  -0.00009 
 C                    -0.71135   0.       -0.00008 
 C                    -0.02265  -1.21427  -0.00002 
 C                     1.36059  -1.21428   0.00003 
 C                     2.07997   0.        0.00002 
 C                     1.36059   1.21428  -0.00004 
 N                     3.44517   0.        0.00007 
 N                    -2.16111   0.       -0.00014 
 O                    -2.73864  -1.08697   0.00014 
 O                    -2.73864   1.08698   0.00007 
 H                    -0.58253   2.14253  -0.00014 
 H                    -0.58253  -2.14253  -0.00002 
 H                     1.89882  -2.15832   0.00008 
 H                     1.89882   2.15832  -0.00005 
 H                     3.96512   0.86023   0.00005 
 H                     3.96512  -0.86023   0.0001 
 

 GradGradGradGradGradGradGradGradGradGradGradGradGradGradGradGradGradGrad
 Berny optimization.
 Initialization pass.
                           ----------------------------
                           !    Initial Parameters    !
                           ! (Angstroms and Degrees)  !
 --------------------------                            --------------------------
 ! Name  Definition              Value          Derivative Info.                !
 --------------------------------------------------------------------------------
 ! R1    R(1,2)                  1.396          estimate D2E/DX2                !
 ! R2    R(1,6)                  1.3832         estimate D2E/DX2                !
 ! R3    R(1,11)                 1.084          estimate D2E/DX2                !
 ! R4    R(2,3)                  1.396          estimate D2E/DX2                !
 ! R5    R(2,8)                  1.4498         estimate D2E/DX2                !
 ! R6    R(3,4)                  1.3832         estimate D2E/DX2                !
 ! R7    R(3,12)                 1.084          estimate D2E/DX2                !
 ! R8    R(4,5)                  1.4114         estimate D2E/DX2                !
 ! R9    R(4,13)                 1.0867         estimate D2E/DX2                !
 ! R10   R(5,6)                  1.4114         estimate D2E/DX2                !
 ! R11   R(5,7)                  1.3652         estimate D2E/DX2                !
 ! R12   R(6,14)                 1.0867         estimate D2E/DX2                !
 ! R13   R(7,15)                 1.0052         estimate D2E/DX2                !
 ! R14   R(7,16)                 1.0052         estimate D2E/DX2                !
 ! R15   R(8,9)                  1.2309         estimate D2E/DX2                !
 ! R16   R(8,10)                 1.2309         estimate D2E/DX2                !
 ! A1    A(2,1,6)              119.5611         estimate D2E/DX2                !
 ! A2    A(2,1,11)             119.3425         estimate D2E/DX2                !
 ! A3    A(6,1,11)             121.0964         estimate D2E/DX2                !
 ! A4    A(1,2,3)              120.8784         estimate D2E/DX2                !
 ! A5    A(1,2,8)              119.5608         estimate D2E/DX2                !
 ! A6    A(3,2,8)              119.5608         estimate D2E/DX2                !
 ! A7    A(2,3,4)              119.5611         estimate D2E/DX2                !
 ! A8    A(2,3,12)             119.3426         estimate D2E/DX2                !
 ! A9    A(4,3,12)             121.0964         estimate D2E/DX2                !
 ! A10   A(3,4,5)              120.6437         estimate D2E/DX2                !
 ! A11   A(3,4,13)             119.6893         estimate D2E/DX2                !
 ! A12   A(5,4,13)             119.667          estimate D2E/DX2                !
 ! A13   A(4,5,6)              118.7121         estimate D2E/DX2                !
 ! A14   A(4,5,7)              120.6439         estimate D2E/DX2                !
 ! A15   A(6,5,7)              120.644          estimate D2E/DX2                !
 ! A16   A(1,6,5)              120.6437         estimate D2E/DX2                !
 ! A17   A(1,6,14)             119.6892         estimate D2E/DX2                !
 ! A18   A(5,6,14)             119.667          estimate D2E/DX2                !
 ! A19   A(5,7,15)             121.1503         estimate D2E/DX2                !
 ! A20   A(5,7,16)             121.1503         estimate D2E/DX2                !
 ! A21   A(15,7,16)            117.6995         estimate D2E/DX2                !
 ! A22   A(2,8,9)              117.9828         estimate D2E/DX2                !
 ! A23   A(2,8,10)             117.9827         estimate D2E/DX2                !
 ! A24   A(9,8,10)             124.0346         estimate D2E/DX2                !
 ! D1    D(6,1,2,3)              0.0            estimate D2E/DX2                !
 ! D2    D(6,1,2,8)           -179.9999         estimate D2E/DX2                !
 ! D3    D(11,1,2,3)           179.9999         estimate D2E/DX2                !
 ! D4    D(11,1,2,8)             0.0001         estimate D2E/DX2                !
 ! D5    D(2,1,6,5)              0.0            estimate D2E/DX2                !
 ! D6    D(2,1,6,14)           180.0            estimate D2E/DX2                !
 ! D7    D(11,1,6,5)          -179.9999         estimate D2E/DX2                !
 ! D8    D(11,1,6,14)            0.0            estimate D2E/DX2                !
 ! D9    D(1,2,3,4)              0.0            estimate D2E/DX2                !
 ! D10   D(1,2,3,12)           180.0            estimate D2E/DX2                !
 ! D11   D(8,2,3,4)            179.9999         estimate D2E/DX2                !
 ! D12   D(8,2,3,12)            -0.0001         estimate D2E/DX2                !
 ! D13   D(1,2,8,9)           -179.9862         estimate D2E/DX2                !
 ! D14   D(1,2,8,10)            -0.0138         estimate D2E/DX2                !
 ! D15   D(3,2,8,9)              0.0139         estimate D2E/DX2                !
 ! D16   D(3,2,8,10)           179.9863         estimate D2E/DX2                !
 ! D17   D(2,3,4,5)             -0.0001         estimate D2E/DX2                !
 ! D18   D(2,3,4,13)           179.9999         estimate D2E/DX2                !
 ! D19   D(12,3,4,5)           180.0            estimate D2E/DX2                !
 ! D20   D(12,3,4,13)            0.0            estimate D2E/DX2                !
 ! D21   D(3,4,5,6)              0.0001         estimate D2E/DX2                !
 ! D22   D(3,4,5,7)            179.9998         estimate D2E/DX2                !
 ! D23   D(13,4,5,6)          -179.9999         estimate D2E/DX2                !
 ! D24   D(13,4,5,7)            -0.0002         estimate D2E/DX2                !
 ! D25   D(4,5,6,1)              0.0            estimate D2E/DX2                !
 ! D26   D(4,5,6,14)           180.0            estimate D2E/DX2                !
 ! D27   D(7,5,6,1)           -179.9998         estimate D2E/DX2                !
 ! D28   D(7,5,6,14)             0.0002         estimate D2E/DX2                !
 ! D29   D(4,5,7,15)           179.9988         estimate D2E/DX2                !
 ! D30   D(4,5,7,16)             0.0013         estimate D2E/DX2                !
 ! D31   D(6,5,7,15)            -0.0014         estimate D2E/DX2                !
 ! D32   D(6,5,7,16)          -179.999          estimate D2E/DX2                !
 --------------------------------------------------------------------------------
 Trust Radius=3.00D-01 FncErr=1.00D-07 GrdErr=1.00D-07
 Number of steps in this run=     82 maximum allowed number of steps=    100.
 GradGradGradGradGradGradGradGradGradGradGradGradGradGradGradGradGradGrad

                          Input orientation:                          
 ---------------------------------------------------------------------
 Center     Atomic      Atomic             Coordinates (Angstroms)
 Number     Number       Type             X           Y           Z
 ---------------------------------------------------------------------
      1          6           0       -0.022648    1.214272   -0.000093
      2          6           0       -0.711353    0.000000   -0.000083
      3          6           0       -0.022648   -1.214273   -0.000023
      4          6           0        1.360591   -1.214279    0.000028
      5          6           0        2.079971    0.000000    0.000018
      6          6           0        1.360590    1.214278   -0.000043
      7          7           0        3.445165    0.000000    0.000072
      8          7           0       -2.161106    0.000000   -0.000138
      9          8           0       -2.738641   -1.086974    0.000135
     10          8           0       -2.738639    1.086975    0.000069
     11          1           0       -0.582534    2.142528   -0.000141
     12          1           0       -0.582533   -2.142529   -0.000016
     13          1           0        1.898821   -2.158317    0.000076
     14          1           0        1.898820    2.158317   -0.000051
     15          1           0        3.965121    0.860234    0.000048
     16          1           0        3.965121   -0.860233    0.000100
 ---------------------------------------------------------------------
                    Distance matrix (angstroms):
                    1          2          3          4          5
     1  C    0.000000
     2  C    1.395984   0.000000
     3  C    2.428545   1.395985   0.000000
     4  C    2.794854   2.401546   1.383239   0.000000
     5  C    2.428057   2.791324   2.428058   1.411376   0.000000
     6  C    1.383238   2.401545   2.794854   2.428557   1.411375
     7  N    3.674260   4.156518   3.674260   2.412452   1.365194
     8  N    2.459158   1.449753   2.459159   3.725161   4.241077
     9  O    3.559825   2.300306   2.718975   4.101208   4.939690
    10  O    2.718973   2.300305   3.559824   4.701006   4.939688
    11  H    1.084035   2.146397   3.403173   3.878645   3.417508
    12  H    3.403173   2.146398   1.084034   2.153457   3.417508
    13  H    3.881546   3.386937   2.140855   1.086692   2.165906
    14  H    2.140855   3.386936   3.881546   3.415274   2.165906
    15  H    4.003454   4.754936   4.495095   3.329742   2.072147
    16  H    4.495094   4.754935   4.003454   2.628483   2.072147
                    6          7          8          9         10
     6  C    0.000000
     7  N    2.412452   0.000000
     8  N    3.725160   5.606271   0.000000
     9  O    4.701006   6.278612   1.230877   0.000000
    10  O    4.101205   6.278610   1.230877   2.173949   0.000000
    11  H    2.153457   4.562103   2.661262   3.883102   2.400621
    12  H    3.878644   4.562103   2.661263   2.400625   3.883103
    13  H    3.415273   2.655092   4.597971   4.759604   5.660208
    14  H    1.086693   2.655092   4.597970   5.660208   4.759601
    15  H    2.628484   1.005165   6.186328   6.980834   6.707593
    16  H    3.329741   1.005164   6.186328   6.707595   6.980832
                   11         12         13         14         15
    11  H    0.000000
    12  H    4.285057   0.000000
    13  H    4.965319   2.481404   0.000000
    14  H    2.481404   4.965319   4.316634   0.000000
    15  H    4.724981   5.449564   3.658039   2.440209   0.000000
    16  H    5.449563   4.724980   2.440209   3.658038   1.720467
                   16
    16  H    0.000000
 Stoichiometry    C6H6N2O2
 Framework group  C1[X(C6H6N2O2)]
 Deg. of freedom    42
 Full point group                 C1      NOp   1
 Largest Abelian subgroup         C1      NOp   1
 Largest concise Abelian subgroup C1      NOp   1
                         Standard orientation:                         
 ---------------------------------------------------------------------
 Center     Atomic      Atomic             Coordinates (Angstroms)
 Number     Number       Type             X           Y           Z
 ---------------------------------------------------------------------
      1          6           0       -0.022648   -1.214272    0.000093
      2          6           0       -0.711353    0.000000    0.000083
      3          6           0       -0.022648    1.214273    0.000023
      4          6           0        1.360591    1.214279   -0.000028
      5          6           0        2.079971   -0.000000   -0.000018
      6          6           0        1.360590   -1.214278    0.000043
      7          7           0        3.445165   -0.000000   -0.000072
      8          7           0       -2.161106    0.000000    0.000138
      9          8           0       -2.738641    1.086974   -0.000135
     10          8           0       -2.738639   -1.086975   -0.000069
     11          1           0       -0.582534   -2.142528    0.000141
     12          1           0       -0.582533    2.142529    0.000016
     13          1           0        1.898821    2.158317   -0.000076
     14          1           0        1.898820   -2.158317    0.000051
     15          1           0        3.965121   -0.860234   -0.000048
     16          1           0        3.965121    0.860233   -0.000100
 ---------------------------------------------------------------------
 Rotational constants (GHZ):      3.9266588      0.8246873      0.6815470
 Standard basis: 6-31+G(d,p) (6D, 7F)
 There are   220 symmetry adapted cartesian basis functions of A   symmetry.
 There are   220 symmetry adapted basis functions of A   symmetry.
   220 basis functions,   362 primitive gaussians,   220 cartesian basis functions
    36 alpha electrons       36 beta electrons
       nuclear repulsion energy       495.7061428626 Hartrees.
 NAtoms=   16 NActive=   16 NUniq=   16 SFac= 1.00D+00 NAtFMM=   60 NAOKFM=F Big=F
 Integral buffers will be    131072 words long.
 Regular integral format.
 Two-electron integral symmetry is turned on.
 Nuclear repulsion after empirical dispersion term =      495.6999046887 Hartrees.
 One-electron integrals computed using PRISM.
 NBasis=   220 RedAO= T EigKep=  3.22D-06  NBF=   220
 NBsUse=   220 1.00D-06 EigRej= -1.00D+00 NBFU=   220
 ExpMin= 4.38D-02 ExpMax= 5.48D+03 ExpMxC= 8.25D+02 IAcc=2 IRadAn=         4 AccDes= 0.00D+00
 Harris functional with IExCor=  419 and IRadAn=       4 diagonalized for initial guess.
 HarFok:  IExCor=  419 AccDes= 0.00D+00 IRadAn=         4 IDoV= 1 UseB2=F ITyADJ=14
 ICtDFT=  3500011 ScaDFX=  1.000000  1.000000  1.000000  1.000000
 FoFCou: FMM=F IPFlag=           0 FMFlag=      100000 FMFlg1=           0
         NFxFlg=           0 DoJE=T BraDBF=F KetDBF=T FulRan=T
         wScrn=  0.000000 ICntrl=     500 IOpCl=  0 I1Cent=   200000004 NGrid=           0
         NMat0=    1 NMatS0=      1 NMatT0=    0 NMatD0=    1 NMtDS0=    0 NMtDT0=    0
 Petite list used in FoFCou.
 Keep R1 ints in memory in canonical form, NReq=301066375.
 Requested convergence on RMS density matrix=1.00D-08 within 128 cycles.
 Requested convergence on MAX density matrix=1.00D-06.
 Requested convergence on             energy=1.00D-06.
 No special actions if energy rises.
 SCF Done:  E(RB2PLYP) =  -491.170296251     A.U. after   15 cycles
            NFock= 15  Conv=0.29D-08     -V/T= 2.0069
 DoSCS=T DFT=T ScalE2(SS,OS)=  0.270000  0.270000
 ExpMin= 4.38D-02 ExpMax= 5.48D+03 ExpMxC= 8.25D+02 IAcc=3 IRadAn=         5 AccDes= 0.00D+00
 HarFok:  IExCor=  205 AccDes= 0.00D+00 IRadAn=         5 IDoV=-2 UseB2=F ITyADJ=14
 ICtDFT= 12500011 ScaDFX=  1.000000  1.000000  1.000000  1.000000
 Range of M.O.s used for correlation:    11   220
 NBasis=   220 NAE=    36 NBE=    36 NFC=    10 NFV=     0
 NROrb=    210 NOA=    26 NOB=    26 NVA=   184 NVB=   184

 **** Warning!!: The largest alpha MO coefficient is  0.13741078D+03

 DoSCS=T DFT=T ScalE2(SS,OS)=  0.270000  0.270000
 Fully direct method using O(ONN) memory.
 JobTyp=1 Pass  1:  I=  11 to  18 NPSUse= 18 ParTrn=T ParDer=T DoDerP=T.
 JobTyp=1 Pass  2:  I=  19 to  26 NPSUse= 18 ParTrn=T ParDer=T DoDerP=T.
 JobTyp=1 Pass  3:  I=  27 to  34 NPSUse= 18 ParTrn=T ParDer=T DoDerP=T.
 JobTyp=1 Pass  4:  I=  35 to  36 NPSUse= 18 ParTrn=T ParDer=T DoDerP=T.
 Spin components of T(2) and E(2):
     alpha-alpha T2 =       0.1166865243D+00 E2=     -0.6981269672D-01
     alpha-beta  T2 =       0.6017582641D+00 E2=     -0.3678052378D+00
     beta-beta   T2 =       0.1166865243D+00 E2=     -0.6981269672D-01
 E2(B2PLYP) =    -0.5074306312D+00 E(B2PLYP) =    -0.49167772688194D+03
          IDoAtm=1111111111111111
          Differentiating once with respect to electric field.
                with respect to dipole field.
          Differentiating once with respect to nuclear coordinates.
 Keep R1 ints in memory in canonical form, NReq=300899106.
          There are     1 degrees of freedom in the 1st order CPHF.  IDoFFX=0 NUNeed=     1.
 LinEq1:  Iter=  0 NonCon=     1 RMS=2.29D-03 Max=7.49D-02 NDo=     1
 AX will form     1 AO Fock derivatives at one time.
 LinEq1:  Iter=  1 NonCon=     1 RMS=9.50D-04 Max=2.21D-02 NDo=     1
 LinEq1:  Iter=  2 NonCon=     1 RMS=4.06D-04 Max=1.25D-02 NDo=     1
 LinEq1:  Iter=  3 NonCon=     1 RMS=2.98D-04 Max=1.15D-02 NDo=     1
 LinEq1:  Iter=  4 NonCon=     1 RMS=1.08D-04 Max=5.09D-03 NDo=     1
 LinEq1:  Iter=  5 NonCon=     1 RMS=6.32D-05 Max=2.93D-03 NDo=     1
 LinEq1:  Iter=  6 NonCon=     1 RMS=2.64D-05 Max=7.32D-04 NDo=     1
 LinEq1:  Iter=  7 NonCon=     1 RMS=1.14D-05 Max=1.85D-04 NDo=     1
 LinEq1:  Iter=  8 NonCon=     1 RMS=3.98D-06 Max=7.12D-05 NDo=     1
 LinEq1:  Iter=  9 NonCon=     1 RMS=1.73D-06 Max=3.70D-05 NDo=     1
 LinEq1:  Iter= 10 NonCon=     1 RMS=5.34D-07 Max=7.99D-06 NDo=     1
 LinEq1:  Iter= 11 NonCon=     1 RMS=1.70D-07 Max=2.61D-06 NDo=     1
 LinEq1:  Iter= 12 NonCon=     1 RMS=7.21D-08 Max=9.14D-07 NDo=     1
 LinEq1:  Iter= 13 NonCon=     1 RMS=1.65D-08 Max=3.04D-07 NDo=     1
 LinEq1:  Iter= 14 NonCon=     1 RMS=7.97D-09 Max=4.05D-07 NDo=     1
 LinEq1:  Iter= 15 NonCon=     1 RMS=4.45D-09 Max=1.01D-07 NDo=     1
 LinEq1:  Iter= 16 NonCon=     1 RMS=2.52D-09 Max=6.04D-08 NDo=     1
 LinEq1:  Iter= 17 NonCon=     1 RMS=7.69D-10 Max=2.42D-08 NDo=     1
 LinEq1:  Iter= 18 NonCon=     1 RMS=1.89D-10 Max=7.72D-09 NDo=     1
 LinEq1:  Iter= 19 NonCon=     1 RMS=4.94D-11 Max=1.78D-09 NDo=     1
 LinEq1:  Iter= 20 NonCon=     0 RMS=1.75D-11 Max=3.03D-10 NDo=     1
 Linear equations converged to 1.000D-10 1.000D-09 after    20 iterations.
 End of Minotr F.D. properties file   721 does not exist.
 End of Minotr F.D. properties file   722 does not exist.
 End of Minotr F.D. properties file   788 does not exist.

 **********************************************************************

            Population analysis using the SCF density.

 **********************************************************************

 Orbital symmetries:
       Occupied  (A) (A) (A) (A) (A) (A) (A) (A) (A) (A) (A) (A)
                 (A) (A) (A) (A) (A) (A) (A) (A) (A) (A) (A) (A)
                 (A) (A) (A) (A) (A) (A) (A) (A) (A) (A) (A) (A)
       Virtual   (A) (A) (A) (A) (A) (A) (A) (A) (A) (A) (A) (A)
                 (A) (A) (A) (A) (A) (A) (A) (A) (A) (A) (A) (A)
                 (A) (A) (A) (A) (A) (A) (A) (A) (A) (A) (A) (A)
                 (A) (A) (A) (A) (A) (A) (A) (A) (A) (A) (A) (A)
                 (A) (A) (A) (A) (A) (A) (A) (A) (A) (A) (A) (A)
                 (A) (A) (A) (A) (A) (A) (A) (A) (A) (A) (A) (A)
                 (A) (A) (A) (A) (A) (A) (A) (A) (A) (A) (A) (A)
                 (A) (A) (A) (A) (A) (A) (A) (A) (A) (A) (A) (A)
                 (A) (A) (A) (A) (A) (A) (A) (A) (A) (A) (A) (A)
                 (A) (A) (A) (A) (A) (A) (A) (A) (A) (A) (A) (A)
                 (A) (A) (A) (A) (A) (A) (A) (A) (A) (A) (A) (A)
                 (A) (A) (A) (A) (A) (A) (A) (A) (A) (A) (A) (A)
                 (A) (A) (A) (A) (A) (A) (A) (A) (A) (A) (A) (A)
                 (A) (A) (A) (A) (A) (A) (A) (A) (A) (A) (A) (A)
                 (A) (A) (A) (A) (A) (A) (A) (A) (A) (A) (A) (A)
                 (A) (A) (A) (A)
 The electronic state is 1-A.
 Alpha  occ. eigenvalues --  -19.77576 -19.77573 -15.10648 -14.89779 -10.71524
 Alpha  occ. eigenvalues --  -10.68469 -10.66611 -10.66609 -10.65326 -10.65326
 Alpha  occ. eigenvalues --   -1.37841  -1.18949  -1.08910  -1.00814  -0.91292
 Alpha  occ. eigenvalues --   -0.89344  -0.80170  -0.74284  -0.69775  -0.65129
 Alpha  occ. eigenvalues --   -0.63359  -0.62546  -0.60580  -0.59114  -0.54359
 Alpha  occ. eigenvalues --   -0.53362  -0.52156  -0.49615  -0.48081  -0.43641
 Alpha  occ. eigenvalues --   -0.40192  -0.38301  -0.36816  -0.36400  -0.32131
 Alpha  occ. eigenvalues --   -0.27329
 Alpha virt. eigenvalues --   -0.03239   0.01280   0.01884   0.03527   0.04155
 Alpha virt. eigenvalues --    0.05961   0.06381   0.06785   0.09096   0.09138
 Alpha virt. eigenvalues --    0.10475   0.10848   0.11685   0.12247   0.13955
 Alpha virt. eigenvalues --    0.15275   0.15656   0.15916   0.16294   0.16582
 Alpha virt. eigenvalues --    0.17718   0.19398   0.19740   0.20037   0.20428
 Alpha virt. eigenvalues --    0.20611   0.20624   0.23168   0.23278   0.24624
 Alpha virt. eigenvalues --    0.25065   0.25225   0.25267   0.26321   0.27202
 Alpha virt. eigenvalues --    0.27291   0.28437   0.29992   0.30057   0.30209
 Alpha virt. eigenvalues --    0.32052   0.32947   0.33224   0.36001   0.36446
 Alpha virt. eigenvalues --    0.36679   0.37167   0.38624   0.39800   0.41373
 Alpha virt. eigenvalues --    0.44244   0.44390   0.45829   0.47474   0.48212
 Alpha virt. eigenvalues --    0.52395   0.52696   0.58743   0.67372   0.69484
 Alpha virt. eigenvalues --    0.72519   0.73526   0.73860   0.78665   0.78771
 Alpha virt. eigenvalues --    0.79703   0.81883   0.83731   0.86906   0.87675
 Alpha virt. eigenvalues --    0.90029   0.92321   0.93175   0.96135   0.99432
 Alpha virt. eigenvalues --    0.99605   1.02217   1.03019   1.04358   1.08219
 Alpha virt. eigenvalues --    1.08632   1.11246   1.13250   1.15539   1.15927
 Alpha virt. eigenvalues --    1.17385   1.18483   1.25311   1.25322   1.28336
 Alpha virt. eigenvalues --    1.30570   1.31447   1.31536   1.32934   1.34391
 Alpha virt. eigenvalues --    1.37788   1.40593   1.41373   1.42961   1.45055
 Alpha virt. eigenvalues --    1.45979   1.47446   1.48043   1.48132   1.52800
 Alpha virt. eigenvalues --    1.52861   1.54717   1.56078   1.56314   1.62992
 Alpha virt. eigenvalues --    1.72563   1.79208   1.83052   1.86696   1.90949
 Alpha virt. eigenvalues --    1.93083   1.93339   1.95872   1.97325   1.99302
 Alpha virt. eigenvalues --    2.03351   2.03470   2.03816   2.07647   2.07874
 Alpha virt. eigenvalues --    2.08413   2.09499   2.15355   2.19433   2.20460
 Alpha virt. eigenvalues --    2.25067   2.25269   2.25583   2.29680   2.31242
 Alpha virt. eigenvalues --    2.34611   2.35323   2.42434   2.49921   2.50762
 Alpha virt. eigenvalues --    2.50937   2.53936   2.55178   2.55834   2.61273
 Alpha virt. eigenvalues --    2.64080   2.65901   2.66475   2.68277   2.70406
 Alpha virt. eigenvalues --    2.71547   2.73196   2.80209   2.82635   2.86219
 Alpha virt. eigenvalues --    2.86921   2.91899   2.95367   2.96244   2.97993
 Alpha virt. eigenvalues --    3.13022   3.16468   3.18523   3.20696   3.25836
 Alpha virt. eigenvalues --    3.26458   3.33514   3.41744   3.48444   3.49260
 Alpha virt. eigenvalues --    3.56252   3.66859   3.81101   3.98763   4.28907
 Alpha virt. eigenvalues --    4.38108   4.44986   4.45140   4.49725   4.63967
 Alpha virt. eigenvalues --    4.65611   4.69255   4.97666   5.02209
          Condensed to atoms (all electrons):
               1          2          3          4          5          6
     1  C    9.947657  -0.102267  -2.725996  -1.072314   0.021339  -0.680846
     2  C   -0.102267  10.184121  -0.102247  -1.038531  -0.685481  -1.038544
     3  C   -2.725996  -0.102247   9.947631  -0.680834   0.021339  -1.072319
     4  C   -1.072314  -1.038531  -0.680834   9.147142   0.348321  -0.914850
     5  C    0.021339  -0.685481   0.021339   0.348321   5.714511   0.348318
     6  C   -0.680846  -1.038544  -1.072319  -0.914850   0.348318   9.147176
     7  N    0.053076  -0.032611   0.053076  -0.102471   0.162028  -0.102471
     8  N    0.163030  -0.621819   0.163030  -0.008809  -0.011647  -0.008810
     9  O    0.090577  -0.397362   0.038285   0.189666   0.017118  -0.018410
    10  O    0.038286  -0.397364   0.090575  -0.018410   0.017118   0.189668
    11  H   -0.010892   0.316997   0.096084   0.002253  -0.039463  -0.001852
    12  H    0.096084   0.316996  -0.010891  -0.001853  -0.039463   0.002253
    13  H    0.000890   0.003187   0.122429   0.111857   0.085326   0.015360
    14  H    0.122430   0.003187   0.000890   0.015360   0.085326   0.111856
    15  H    0.019441   0.000245  -0.002956   0.062900  -0.006618  -0.085575
    16  H   -0.002956   0.000245   0.019441  -0.085574  -0.006619   0.062900
               7          8          9         10         11         12
     1  C    0.053076   0.163030   0.090577   0.038286  -0.010892   0.096084
     2  C   -0.032611  -0.621819  -0.397362  -0.397364   0.316997   0.316996
     3  C    0.053076   0.163030   0.038285   0.090575   0.096084  -0.010891
     4  C   -0.102471  -0.008809   0.189666  -0.018410   0.002253  -0.001853
     5  C    0.162028  -0.011647   0.017118   0.017118  -0.039463  -0.039463
     6  C   -0.102471  -0.008810  -0.018410   0.189668  -0.001852   0.002253
     7  N    6.979368   0.000828  -0.000238  -0.000238  -0.000437  -0.000437
     8  N    0.000828   6.731002   0.398621   0.398620  -0.046489  -0.046489
     9  O   -0.000238   0.398621   7.869731  -0.070723  -0.002889   0.016492
    10  O   -0.000238   0.398620  -0.070723   7.869732   0.016492  -0.002889
    11  H   -0.000437  -0.046489  -0.002889   0.016492   0.482867  -0.000125
    12  H   -0.000437  -0.046489   0.016492  -0.002889  -0.000125   0.482867
    13  H   -0.016520  -0.000488   0.000050   0.000032   0.000010  -0.003560
    14  H   -0.016520  -0.000488   0.000032   0.000050  -0.003560   0.000010
    15  H    0.344215   0.000003   0.000000   0.000000  -0.000006   0.000002
    16  H    0.344215   0.000003   0.000000   0.000000   0.000002  -0.000006
              13         14         15         16
     1  C    0.000890   0.122430   0.019441  -0.002956
     2  C    0.003187   0.003187   0.000245   0.000245
     3  C    0.122429   0.000890  -0.002956   0.019441
     4  C    0.111857   0.015360   0.062900  -0.085574
     5  C    0.085326   0.085326  -0.006618  -0.006619
     6  C    0.015360   0.111856  -0.085575   0.062900
     7  N   -0.016520  -0.016520   0.344215   0.344215
     8  N   -0.000488  -0.000488   0.000003   0.000003
     9  O    0.000050   0.000032   0.000000   0.000000
    10  O    0.000032   0.000050   0.000000   0.000000
    11  H    0.000010  -0.003560  -0.000006   0.000002
    12  H   -0.003560   0.000010   0.000002  -0.000006
    13  H    0.537277  -0.000124  -0.000050   0.003952
    14  H   -0.000124   0.537277   0.003952  -0.000050
    15  H   -0.000050   0.003952   0.369432  -0.023530
    16  H    0.003952  -0.000050  -0.023530   0.369432
 Mulliken charges:
               1
     1  C    0.042461
     2  C   -0.408751
     3  C    0.042463
     4  C    0.046146
     5  C   -0.031453
     6  C    0.046146
     7  N   -0.664866
     8  N   -0.110097
     9  O   -0.130950
    10  O   -0.130949
    11  H    0.191009
    12  H    0.191009
    13  H    0.140372
    14  H    0.140372
    15  H    0.318544
    16  H    0.318544
 Sum of Mulliken charges =  -0.00000
 Mulliken charges with hydrogens summed into heavy atoms:
               1
     1  C    0.233470
     2  C   -0.408751
     3  C    0.233472
     4  C    0.186518
     5  C   -0.031453
     6  C    0.186518
     7  N   -0.027778
     8  N   -0.110097
     9  O   -0.130950
    10  O   -0.130949
 Electronic spatial extent (au):  <R**2>=           1558.4309
 Charge=             -0.0000 electrons
 Dipole moment (field-independent basis, Debye):
    X=              7.8255    Y=             -0.0000    Z=              0.0005  Tot=              7.8255
 Quadrupole moment (field-independent basis, Debye-Ang):
   XX=            -57.8370   YY=            -53.0054   ZZ=            -61.1529
   XY=              0.0000   XZ=             -0.0018   YZ=             -0.0002
 Traceless Quadrupole moment (field-independent basis, Debye-Ang):
   XX=             -0.5052   YY=              4.3263   ZZ=             -3.8211
   XY=              0.0000   XZ=             -0.0018   YZ=             -0.0002
 Octapole moment (field-independent basis, Debye-Ang**2):
  XXX=            109.5374  YYY=              0.0000  ZZZ=             -0.0008  XYY=             17.1628
  XXY=             -0.0000  XXZ=              0.0025  XZZ=            -13.6765  YZZ=             -0.0000
  YYZ=             -0.0003  XYZ=             -0.0009
 Hexadecapole moment (field-independent basis, Debye-Ang**3):
 XXXX=          -1376.3538 YYYY=           -365.0519 ZZZZ=            -66.8178 XXXY=             -0.0000
 XXXZ=             -0.0141 YYYX=             -0.0000 YYYZ=              0.0032 ZZZX=              0.0030
 ZZZY=              0.0055 XXYY=           -299.7142 XXZZ=           -280.8811 YYZZ=            -85.0910
 XXYZ=              0.0005 YYXZ=             -0.0001 ZZXY=              0.0000
 N-N= 4.956999046887D+02 E-N=-2.137851087418D+03  KE= 4.878217284597D+02
 Calling FoFJK, ICntrl=  10002127 FMM=F ISym2X=0 I1Cent= 0 IOpClX= 0 NMat=1 NMatS=1 NMatT=0.
 ***** Axes restored to original set *****
 -------------------------------------------------------------------
 Center     Atomic                   Forces (Hartrees/Bohr)
 Number     Number              X              Y              Z
 -------------------------------------------------------------------
      1        6          -0.003877850    0.003374597   -0.000003844
      2        6           0.003809093   -0.000000574   -0.000015396
      3        6          -0.003877030   -0.003373825   -0.000003446
      4        6           0.003502380   -0.001843577    0.000001071
      5        6          -0.003900701   -0.000000388   -0.000000682
      6        6           0.003503788    0.001844228    0.000000995
      7        7           0.005698579    0.000000793    0.000000596
      8        7           0.009081663    0.000000112    0.000066082
      9        8          -0.007441138   -0.014811831   -0.000022389
     10        8          -0.007441441    0.014811903   -0.000023286
     11        1           0.001247688   -0.001472064   -0.000000023
     12        1           0.001247397    0.001471816   -0.000000168
     13        1          -0.000621450    0.001398707    0.000000312
     14        1          -0.000621710   -0.001399209    0.000000427
     15        1          -0.000154824   -0.000534272   -0.000000103
     16        1          -0.000154446    0.000533586   -0.000000148
 -------------------------------------------------------------------
 Cartesian Forces:  Max     0.014811903 RMS     0.004059820

 GradGradGradGradGradGradGradGradGradGradGradGradGradGradGradGradGradGrad
 Berny optimization.
 FormGI is forming the generalized inverse of G from B-inverse, IUseBI=4.
 Internal  Forces:  Max     0.016571769 RMS     0.003032901
 Search for a local minimum.
 Step number   1 out of a maximum of   82
 All quantities printed in internal units (Hartrees-Bohrs-Radians)
 Mixed Optimization -- RFO/linear search
 Second derivative matrix not updated -- first step.
 ITU=  0
     Eigenvalues ---    0.01034   0.01034   0.01805   0.01968   0.02043
     Eigenvalues ---    0.02099   0.02130   0.02152   0.02152   0.02182
     Eigenvalues ---    0.02192   0.02236   0.02242   0.16000   0.16000
     Eigenvalues ---    0.16000   0.16000   0.16000   0.16000   0.22000
     Eigenvalues ---    0.22969   0.24000   0.25000   0.25000   0.25000
     Eigenvalues ---    0.25000   0.35198   0.35198   0.35511   0.35511
     Eigenvalues ---    0.38277   0.41007   0.41966   0.45111   0.45347
     Eigenvalues ---    0.46792   0.46792   0.47048   0.48515   0.51911
     Eigenvalues ---    0.90722   0.90722
 RFO step:  Lambda=-8.67152421D-04 EMin= 1.03364348D-02
 Linear search not attempted -- first point.
 Iteration  1 RMS(Cart)=  0.00724662 RMS(Int)=  0.00000643
 Iteration  2 RMS(Cart)=  0.00000728 RMS(Int)=  0.00000084
 Iteration  3 RMS(Cart)=  0.00000000 RMS(Int)=  0.00000084
 Variable       Old X    -DE/DX   Delta X   Delta X   Delta X     New X
                                 (Linear)    (Quad)   (Total)
    R1        2.63803   0.00203   0.00000   0.00452   0.00452   2.64254
    R2        2.61394   0.00363   0.00000   0.00746   0.00746   2.62140
    R3        2.04853  -0.00190   0.00000  -0.00535  -0.00535   2.04318
    R4        2.63803   0.00203   0.00000   0.00451   0.00452   2.64254
    R5        2.73964   0.00580   0.00000   0.01512   0.01512   2.75476
    R6        2.61394   0.00363   0.00000   0.00746   0.00746   2.62140
    R7        2.04853  -0.00190   0.00000  -0.00535  -0.00535   2.04318
    R8        2.66711   0.00088   0.00000   0.00185   0.00185   2.66897
    R9        2.05355  -0.00152   0.00000  -0.00432  -0.00432   2.04923
   R10        2.66711   0.00088   0.00000   0.00185   0.00185   2.66897
   R11        2.57984   0.00539   0.00000   0.01036   0.01036   2.59021
   R12        2.05355  -0.00152   0.00000  -0.00432  -0.00432   2.04923
   R13        1.89949  -0.00054   0.00000  -0.00115  -0.00115   1.89834
   R14        1.89949  -0.00054   0.00000  -0.00114  -0.00114   1.89834
   R15        2.32602   0.01657   0.00000   0.01825   0.01825   2.34427
   R16        2.32602   0.01657   0.00000   0.01825   0.01825   2.34427
    A1        2.08673  -0.00015   0.00000  -0.00046  -0.00046   2.08628
    A2        2.08292   0.00039   0.00000   0.00219   0.00219   2.08511
    A3        2.11353  -0.00024   0.00000  -0.00173  -0.00173   2.11180
    A4        2.10973  -0.00035   0.00000  -0.00094  -0.00094   2.10879
    A5        2.08673   0.00018   0.00000   0.00047   0.00047   2.08720
    A6        2.08673   0.00018   0.00000   0.00047   0.00047   2.08720
    A7        2.08673  -0.00015   0.00000  -0.00046  -0.00045   2.08628
    A8        2.08292   0.00039   0.00000   0.00219   0.00219   2.08511
    A9        2.11353  -0.00024   0.00000  -0.00173  -0.00173   2.11180
   A10        2.10563   0.00039   0.00000   0.00144   0.00144   2.10707
   A11        2.08897  -0.00004   0.00000   0.00026   0.00026   2.08923
   A12        2.08858  -0.00035   0.00000  -0.00170  -0.00170   2.08689
   A13        2.07192  -0.00012   0.00000  -0.00103  -0.00103   2.07089
   A14        2.10563   0.00006   0.00000   0.00052   0.00052   2.10615
   A15        2.10563   0.00006   0.00000   0.00051   0.00051   2.10615
   A16        2.10563   0.00039   0.00000   0.00144   0.00144   2.10707
   A17        2.08897  -0.00004   0.00000   0.00026   0.00026   2.08923
   A18        2.08858  -0.00035   0.00000  -0.00170  -0.00170   2.08689
   A19        2.11447   0.00009   0.00000   0.00057   0.00057   2.11504
   A20        2.11447   0.00009   0.00000   0.00057   0.00057   2.11504
   A21        2.05424  -0.00018   0.00000  -0.00113  -0.00113   2.05311
   A22        2.05919  -0.00029   0.00000  -0.00117  -0.00117   2.05801
   A23        2.05919  -0.00029   0.00000  -0.00117  -0.00117   2.05801
   A24        2.16481   0.00059   0.00000   0.00234   0.00234   2.16715
    D1        0.00000  -0.00000   0.00000  -0.00006  -0.00006  -0.00006
    D2       -3.14159  -0.00000   0.00000  -0.00002  -0.00002   3.14157
    D3        3.14159  -0.00000   0.00000  -0.00003  -0.00003   3.14156
    D4        0.00000   0.00000   0.00000   0.00001   0.00001   0.00001
    D5       -0.00000   0.00000   0.00000   0.00003   0.00003   0.00003
    D6        3.14159   0.00000   0.00000   0.00003   0.00003  -3.14156
    D7       -3.14159  -0.00000   0.00000  -0.00000  -0.00000   3.14159
    D8        0.00000  -0.00000   0.00000  -0.00000  -0.00000  -0.00000
    D9        0.00000   0.00000   0.00000   0.00006   0.00006   0.00006
   D10        3.14159   0.00000   0.00000   0.00003   0.00003  -3.14156
   D11        3.14159   0.00000   0.00000   0.00002   0.00002  -3.14157
   D12       -0.00000  -0.00000   0.00000  -0.00001  -0.00001  -0.00001
   D13       -3.14135  -0.00003   0.00000  -0.00240  -0.00240   3.13943
   D14       -0.00024   0.00003   0.00000   0.00236   0.00236   0.00212
   D15        0.00024  -0.00003   0.00000  -0.00236  -0.00236  -0.00212
   D16        3.14135   0.00003   0.00000   0.00240   0.00240  -3.13943
   D17       -0.00000  -0.00000   0.00000  -0.00003  -0.00003  -0.00003
   D18        3.14159  -0.00000   0.00000  -0.00003  -0.00003   3.14156
   D19        3.14159   0.00000   0.00000   0.00000   0.00000  -3.14159
   D20       -0.00000   0.00000   0.00000   0.00000   0.00000   0.00000
   D21        0.00000  -0.00000   0.00000  -0.00000  -0.00000  -0.00000
   D22        3.14159  -0.00000   0.00000  -0.00000  -0.00000   3.14159
   D23       -3.14159   0.00000   0.00000  -0.00000  -0.00000   3.14159
   D24       -0.00000   0.00000   0.00000  -0.00000  -0.00000  -0.00000
   D25       -0.00000   0.00000   0.00000   0.00000   0.00000   0.00000
   D26        3.14159  -0.00000   0.00000   0.00000   0.00000  -3.14159
   D27       -3.14159   0.00000   0.00000   0.00000   0.00000  -3.14159
   D28        0.00000  -0.00000   0.00000  -0.00000  -0.00000   0.00000
   D29        3.14157  -0.00000   0.00000  -0.00000  -0.00000   3.14157
   D30        0.00002   0.00000   0.00000   0.00000   0.00000   0.00003
   D31       -0.00003  -0.00000   0.00000  -0.00000  -0.00000  -0.00003
   D32       -3.14157   0.00000   0.00000   0.00001   0.00001  -3.14157
         Item               Value     Threshold  Converged?
 Maximum Force            0.016572     0.000450     NO 
 RMS     Force            0.003033     0.000300     NO 
 Maximum Displacement     0.027307     0.001800     NO 
 RMS     Displacement     0.007244     0.001200     NO 
 Predicted change in Energy=-4.341482D-04
 GradGradGradGradGradGradGradGradGradGradGradGradGradGradGradGradGradGrad

                          Input orientation:                          
 ---------------------------------------------------------------------
 Center     Atomic      Atomic             Coordinates (Angstroms)
 Number     Number       Type             X           Y           Z
 ---------------------------------------------------------------------
      1          6           0       -0.024098    1.216028    0.000373
      2          6           0       -0.714553    0.000001    0.000583
      3          6           0       -0.024098   -1.216027    0.000444
      4          6           0        1.363087   -1.214751    0.000171
      5          6           0        2.083595   -0.000000   -0.000005
      6          6           0        1.363088    1.214751    0.000100
      7          7           0        3.454273    0.000000   -0.000267
      8          7           0       -2.172307   -0.000000    0.000894
      9          8           0       -2.753086   -1.096183   -0.001297
     10          8           0       -2.753089    1.096181   -0.001364
     11          1           0       -0.580058    2.143340    0.000457
     12          1           0       -0.580058   -2.143339    0.000583
     13          1           0        1.901297   -2.156171    0.000094
     14          1           0        1.901299    2.156170   -0.000032
     15          1           0        3.974402    0.859421   -0.000414
     16          1           0        3.974403   -0.859420   -0.000363
 ---------------------------------------------------------------------
                    Distance matrix (angstroms):
                    1          2          3          4          5
     1  C    0.000000
     2  C    1.398374   0.000000
     3  C    2.432055   1.398374   0.000000
     4  C    2.798744   2.406701   1.387186   0.000000
     5  C    2.433329   2.798147   2.433329   1.412356   0.000000
     6  C    1.387186   2.406701   2.798744   2.429502   1.412356
     7  N    3.684805   4.168826   3.684805   2.418404   1.370679
     8  N    2.468507   1.457755   2.468506   3.738266   4.255902
     9  O    3.576828   2.314572   2.731619   4.117881   4.959345
    10  O    2.731622   2.314572   3.576828   4.720521   4.959347
    11  H    1.081203   2.147555   3.405061   3.879767   3.418911
    12  H    3.405061   2.147556   1.081203   2.153623   3.418911
    13  H    3.883152   3.389948   2.142666   1.084408   2.163863
    14  H    2.142666   3.389947   3.883151   3.413617   2.163863
    15  H    4.014370   4.767064   4.505051   3.334839   2.076959
    16  H    4.505052   4.767065   4.014372   2.635380   2.076959
                    6          7          8          9         10
     6  C    0.000000
     7  N    2.418403   0.000000
     8  N    3.738267   5.626581   0.000000
     9  O    4.720520   6.303406   1.240534   0.000000
    10  O    4.117885   6.303409   1.240534   2.192364   0.000000
    11  H    2.153623   4.568340   2.670050   3.900842   2.412180
    12  H    3.879766   4.568341   2.670048   2.412175   3.900840
    13  H    3.413617   2.657218   4.609048   4.773559   5.678125
    14  H    1.084408   2.657216   4.609049   5.678124   4.773563
    15  H    2.635378   1.004559   6.206500   7.005961   6.731656
    16  H    3.334839   1.004559   6.206501   6.731654   7.005963
                   11         12         13         14         15
    11  H    0.000000
    12  H    4.286680   0.000000
    13  H    4.964163   2.481389   0.000000
    14  H    2.481389   4.964163   4.312341   0.000000
    15  H    4.731971   5.455243   3.659447   2.445264   0.000000
    16  H    5.455243   4.731973   2.445267   3.659446   1.718841
                   16
    16  H    0.000000
 Stoichiometry    C6H6N2O2
 Framework group  C1[X(C6H6N2O2)]
 Deg. of freedom    42
 Full point group                 C1      NOp   1
 Largest Abelian subgroup         C1      NOp   1
 Largest concise Abelian subgroup C1      NOp   1
                         Standard orientation:                         
 ---------------------------------------------------------------------
 Center     Atomic      Atomic             Coordinates (Angstroms)
 Number     Number       Type             X           Y           Z
 ---------------------------------------------------------------------
      1          6           0       -0.021289   -1.216028   -0.000464
      2          6           0       -0.711744   -0.000001   -0.000674
      3          6           0       -0.021290    1.216027   -0.000535
      4          6           0        1.365896    1.214751   -0.000262
      5          6           0        2.086403    0.000000   -0.000087
      6          6           0        1.365897   -1.214751   -0.000192
      7          7           0        3.457082    0.000000    0.000175
      8          7           0       -2.169498   -0.000000   -0.000985
      9          8           0       -2.750278    1.096182    0.001206
     10          8           0       -2.750280   -1.096181    0.001273
     11          1           0       -0.577249   -2.143341   -0.000549
     12          1           0       -0.577250    2.143339   -0.000674
     13          1           0        1.904106    2.156171   -0.000185
     14          1           0        1.904107   -2.156170   -0.000059
     15          1           0        3.977211   -0.859421    0.000323
     16          1           0        3.977212    0.859420    0.000272
 ---------------------------------------------------------------------
 Rotational constants (GHZ):      3.9036531      0.8185517      0.6766633
 Standard basis: 6-31+G(d,p) (6D, 7F)
 There are   220 symmetry adapted cartesian basis functions of A   symmetry.
 There are   220 symmetry adapted basis functions of A   symmetry.
   220 basis functions,   362 primitive gaussians,   220 cartesian basis functions
    36 alpha electrons       36 beta electrons
       nuclear repulsion energy       494.0168217196 Hartrees.
 NAtoms=   16 NActive=   16 NUniq=   16 SFac= 1.00D+00 NAtFMM=   60 NAOKFM=F Big=F
 Integral buffers will be    131072 words long.
 Regular integral format.
 Two-electron integral symmetry is turned on.
 Nuclear repulsion after empirical dispersion term =      494.0105670676 Hartrees.
 One-electron integrals computed using PRISM.
 NBasis=   220 RedAO= T EigKep=  3.28D-06  NBF=   220
 NBsUse=   220 1.00D-06 EigRej= -1.00D+00 NBFU=   220
 Initial guess from the checkpoint file:  "B2PLYPD3PNA.chk"
 B after Tr=    -0.000000   -0.000000    0.000000
         Rot=    1.000000    0.000000   -0.000052    0.000000 Ang=   0.01 deg.
 ExpMin= 4.38D-02 ExpMax= 5.48D+03 ExpMxC= 8.25D+02 IAcc=2 IRadAn=         4 AccDes= 0.00D+00
 Harris functional with IExCor=  419 and IRadAn=       4 diagonalized for initial guess.
 HarFok:  IExCor=  419 AccDes= 0.00D+00 IRadAn=         4 IDoV= 1 UseB2=F ITyADJ=14
 ICtDFT=  3500011 ScaDFX=  1.000000  1.000000  1.000000  1.000000
 FoFCou: FMM=F IPFlag=           0 FMFlag=      100000 FMFlg1=           0
         NFxFlg=           0 DoJE=T BraDBF=F KetDBF=T FulRan=T
         wScrn=  0.000000 ICntrl=     500 IOpCl=  0 I1Cent=   200000004 NGrid=           0
         NMat0=    1 NMatS0=      1 NMatT0=    0 NMatD0=    1 NMtDS0=    0 NMtDT0=    0
 Petite list used in FoFCou.
 Keep R1 ints in memory in canonical form, NReq=301066375.
 Requested convergence on RMS density matrix=1.00D-08 within 128 cycles.
 Requested convergence on MAX density matrix=1.00D-06.
 Requested convergence on             energy=1.00D-06.
 No special actions if energy rises.
 SCF Done:  E(RB2PLYP) =  -491.168999023     A.U. after   12 cycles
            NFock= 12  Conv=0.67D-08     -V/T= 2.0071
 DoSCS=T DFT=T ScalE2(SS,OS)=  0.270000  0.270000
 ExpMin= 4.38D-02 ExpMax= 5.48D+03 ExpMxC= 8.25D+02 IAcc=3 IRadAn=         5 AccDes= 0.00D+00
 HarFok:  IExCor=  205 AccDes= 0.00D+00 IRadAn=         5 IDoV=-2 UseB2=F ITyADJ=14
 ICtDFT= 12500011 ScaDFX=  1.000000  1.000000  1.000000  1.000000
 Range of M.O.s used for correlation:    11   220
 NBasis=   220 NAE=    36 NBE=    36 NFC=    10 NFV=     0
 NROrb=    210 NOA=    26 NOB=    26 NVA=   184 NVB=   184

 **** Warning!!: The largest alpha MO coefficient is  0.13557268D+03

 DoSCS=T DFT=T ScalE2(SS,OS)=  0.270000  0.270000
 Fully direct method using O(ONN) memory.
 JobTyp=1 Pass  1:  I=  11 to  18 NPSUse= 18 ParTrn=T ParDer=T DoDerP=T.
 JobTyp=1 Pass  2:  I=  19 to  26 NPSUse= 18 ParTrn=T ParDer=T DoDerP=T.
 JobTyp=1 Pass  3:  I=  27 to  34 NPSUse= 18 ParTrn=T ParDer=T DoDerP=T.
 JobTyp=1 Pass  4:  I=  35 to  36 NPSUse= 18 ParTrn=T ParDer=T DoDerP=T.
 Spin components of T(2) and E(2):
     alpha-alpha T2 =       0.1177807568D+00 E2=     -0.7003865518D-01
     alpha-beta  T2 =       0.6078637744D+00 E2=     -0.3691120965D+00
     beta-beta   T2 =       0.1177807568D+00 E2=     -0.7003865518D-01
 E2(B2PLYP) =    -0.5091894068D+00 E(B2PLYP) =    -0.49167818843000D+03
          IDoAtm=1111111111111111
          Differentiating once with respect to electric field.
                with respect to dipole field.
          Differentiating once with respect to nuclear coordinates.
 Keep R1 ints in memory in canonical form, NReq=300899106.
          There are     1 degrees of freedom in the 1st order CPHF.  IDoFFX=0 NUNeed=     1.
 LinEq1:  Iter=  0 NonCon=     1 RMS=2.33D-03 Max=7.77D-02 NDo=     1
 AX will form     1 AO Fock derivatives at one time.
 LinEq1:  Iter=  1 NonCon=     1 RMS=9.75D-04 Max=2.28D-02 NDo=     1
 LinEq1:  Iter=  2 NonCon=     1 RMS=4.26D-04 Max=1.27D-02 NDo=     1
 LinEq1:  Iter=  3 NonCon=     1 RMS=3.10D-04 Max=1.16D-02 NDo=     1
 LinEq1:  Iter=  4 NonCon=     1 RMS=1.11D-04 Max=5.24D-03 NDo=     1
 LinEq1:  Iter=  5 NonCon=     1 RMS=6.61D-05 Max=3.08D-03 NDo=     1
 LinEq1:  Iter=  6 NonCon=     1 RMS=2.80D-05 Max=8.06D-04 NDo=     1
 LinEq1:  Iter=  7 NonCon=     1 RMS=1.22D-05 Max=2.11D-04 NDo=     1
 LinEq1:  Iter=  8 NonCon=     1 RMS=4.24D-06 Max=7.69D-05 NDo=     1
 LinEq1:  Iter=  9 NonCon=     1 RMS=1.87D-06 Max=3.98D-05 NDo=     1
 LinEq1:  Iter= 10 NonCon=     1 RMS=5.74D-07 Max=8.26D-06 NDo=     1
 LinEq1:  Iter= 11 NonCon=     1 RMS=1.85D-07 Max=2.71D-06 NDo=     1
 LinEq1:  Iter= 12 NonCon=     1 RMS=8.16D-08 Max=1.22D-06 NDo=     1
 LinEq1:  Iter= 13 NonCon=     1 RMS=2.03D-08 Max=6.20D-07 NDo=     1
 LinEq1:  Iter= 14 NonCon=     1 RMS=6.02D-09 Max=2.47D-07 NDo=     1
 LinEq1:  Iter= 15 NonCon=     1 RMS=4.29D-09 Max=1.59D-07 NDo=     1
 LinEq1:  Iter= 16 NonCon=     1 RMS=3.00D-09 Max=1.22D-07 NDo=     1
 LinEq1:  Iter= 17 NonCon=     1 RMS=1.56D-09 Max=3.59D-08 NDo=     1
 LinEq1:  Iter= 18 NonCon=     1 RMS=3.46D-10 Max=6.02D-09 NDo=     1
 LinEq1:  Iter= 19 NonCon=     1 RMS=7.42D-11 Max=1.82D-09 NDo=     1
 LinEq1:  Iter= 20 NonCon=     0 RMS=1.57D-11 Max=1.97D-10 NDo=     1
 Linear equations converged to 1.000D-10 1.000D-09 after    20 iterations.
 End of Minotr F.D. properties file   721 does not exist.
 End of Minotr F.D. properties file   722 does not exist.
 End of Minotr F.D. properties file   788 does not exist.
 Calling FoFJK, ICntrl=  10002127 FMM=F ISym2X=0 I1Cent= 0 IOpClX= 0 NMat=1 NMatS=1 NMatT=0.
 ***** Axes restored to original set *****
 -------------------------------------------------------------------
 Center     Atomic                   Forces (Hartrees/Bohr)
 Number     Number              X              Y              Z
 -------------------------------------------------------------------
      1        6          -0.000840646   -0.000115932    0.000033850
      2        6           0.001278938   -0.000000277    0.000128198
      3        6          -0.000840057    0.000115761    0.000033820
      4        6           0.000489145    0.000353966   -0.000008277
      5        6          -0.001463952    0.000000094    0.000003980
      6        6           0.000489048   -0.000353675   -0.000008271
      7        7           0.000524311   -0.000000034    0.000000548
      8        7           0.003336358   -0.000000051   -0.000612725
      9        8          -0.001330672   -0.002004959    0.000217733
     10        8          -0.001330490    0.002005057    0.000217611
     11        1           0.000072308    0.000136225    0.000001208
     12        1           0.000072300   -0.000136148    0.000001217
     13        1          -0.000108795   -0.000074166   -0.000004104
     14        1          -0.000108788    0.000074168   -0.000004110
     15        1          -0.000119491    0.000075161   -0.000000342
     16        1          -0.000119517   -0.000075189   -0.000000335
 -------------------------------------------------------------------
 Cartesian Forces:  Max     0.003336358 RMS     0.000784555

 GradGradGradGradGradGradGradGradGradGradGradGradGradGradGradGradGradGrad
 Berny optimization.
 Using GEDIIS/GDIIS optimizer.
 FormGI is forming the generalized inverse of G from B-inverse, IUseBI=4.
 Internal  Forces:  Max     0.002394264 RMS     0.000470335
 Search for a local minimum.
 Step number   2 out of a maximum of   82
 All quantities printed in internal units (Hartrees-Bohrs-Radians)
 Mixed Optimization -- En-DIIS/RFO-DIIS
 Update second derivatives using D2CorX and points    1    2
 DE= -4.62D-04 DEPred=-4.34D-04 R= 1.06D+00
 TightC=F SS=  1.41D+00  RLast= 3.63D-02 DXNew= 5.0454D-01 1.0900D-01
 Trust test= 1.06D+00 RLast= 3.63D-02 DXMaxT set to 3.00D-01
 ITU=  1  0
 Use linear search instead of GDIIS.
     Eigenvalues ---    0.01034   0.01039   0.01805   0.01968   0.02044
     Eigenvalues ---    0.02099   0.02130   0.02152   0.02152   0.02182
     Eigenvalues ---    0.02192   0.02236   0.02242   0.15951   0.16000
     Eigenvalues ---    0.16000   0.16000   0.16000   0.16033   0.22000
     Eigenvalues ---    0.22901   0.24007   0.25000   0.25000   0.25000
     Eigenvalues ---    0.25071   0.35198   0.35219   0.35511   0.35610
     Eigenvalues ---    0.39455   0.41015   0.41968   0.45113   0.45990
     Eigenvalues ---    0.46792   0.46811   0.47050   0.49555   0.52047
     Eigenvalues ---    0.78006   0.90722
 RFO step:  Lambda=-4.98951628D-05 EMin= 1.03364348D-02
 Quartic linear search produced a step of  0.08188.
 Iteration  1 RMS(Cart)=  0.00607736 RMS(Int)=  0.00011640
 Iteration  2 RMS(Cart)=  0.00010291 RMS(Int)=  0.00007096
 Iteration  3 RMS(Cart)=  0.00000002 RMS(Int)=  0.00007096
 Variable       Old X    -DE/DX   Delta X   Delta X   Delta X     New X
                                 (Linear)    (Quad)   (Total)
    R1        2.64254  -0.00059   0.00037  -0.00147  -0.00110   2.64144
    R2        2.62140  -0.00021   0.00061  -0.00062  -0.00001   2.62139
    R3        2.04318   0.00008  -0.00044   0.00035  -0.00009   2.04309
    R4        2.64254  -0.00059   0.00037  -0.00147  -0.00110   2.64144
    R5        2.75476  -0.00068   0.00124  -0.00221  -0.00097   2.75379
    R6        2.62140  -0.00021   0.00061  -0.00062  -0.00001   2.62139
    R7        2.04318   0.00008  -0.00044   0.00035  -0.00009   2.04309
    R8        2.66897  -0.00042   0.00015  -0.00107  -0.00092   2.66805
    R9        2.04923   0.00001  -0.00035   0.00012  -0.00024   2.04900
   R10        2.66897  -0.00042   0.00015  -0.00107  -0.00092   2.66805
   R11        2.59021   0.00029   0.00085   0.00038   0.00123   2.59143
   R12        2.04923   0.00001  -0.00035   0.00012  -0.00024   2.04900
   R13        1.89834   0.00000  -0.00009   0.00003  -0.00006   1.89828
   R14        1.89834   0.00000  -0.00009   0.00003  -0.00006   1.89828
   R15        2.34427   0.00239   0.00149   0.00245   0.00395   2.34822
   R16        2.34427   0.00239   0.00149   0.00245   0.00395   2.34822
    A1        2.08628  -0.00045  -0.00004  -0.00211  -0.00215   2.08413
    A2        2.08511   0.00036   0.00018   0.00194   0.00212   2.08723
    A3        2.11180   0.00009  -0.00014   0.00017   0.00003   2.11183
    A4        2.10879   0.00085  -0.00008   0.00377   0.00370   2.11249
    A5        2.08720  -0.00042   0.00004  -0.00189  -0.00185   2.08535
    A6        2.08720  -0.00042   0.00004  -0.00189  -0.00185   2.08535
    A7        2.08628  -0.00045  -0.00004  -0.00211  -0.00215   2.08413
    A8        2.08511   0.00036   0.00018   0.00194   0.00212   2.08723
    A9        2.11180   0.00009  -0.00014   0.00017   0.00003   2.11183
   A10        2.10707  -0.00021   0.00012  -0.00090  -0.00078   2.10629
   A11        2.08923  -0.00003   0.00002  -0.00048  -0.00045   2.08877
   A12        2.08689   0.00024  -0.00014   0.00137   0.00123   2.08812
   A13        2.07089   0.00048  -0.00008   0.00223   0.00215   2.07303
   A14        2.10615  -0.00024   0.00004  -0.00112  -0.00108   2.10507
   A15        2.10615  -0.00024   0.00004  -0.00112  -0.00107   2.10508
   A16        2.10707  -0.00021   0.00012  -0.00090  -0.00078   2.10629
   A17        2.08923  -0.00003   0.00002  -0.00047  -0.00045   2.08877
   A18        2.08689   0.00024  -0.00014   0.00137   0.00123   2.08812
   A19        2.11504  -0.00009   0.00005  -0.00061  -0.00057   2.11447
   A20        2.11504  -0.00009   0.00005  -0.00061  -0.00057   2.11447
   A21        2.05311   0.00018  -0.00009   0.00122   0.00113   2.05424
   A22        2.05801   0.00019  -0.00010   0.00089   0.00044   2.05846
   A23        2.05801   0.00019  -0.00010   0.00089   0.00044   2.05846
   A24        2.16715  -0.00037   0.00019  -0.00158  -0.00174   2.16541
    D1       -0.00006   0.00001  -0.00001   0.00069   0.00068   0.00062
    D2        3.14157   0.00001  -0.00000   0.00023   0.00022  -3.14139
    D3        3.14156   0.00001  -0.00000   0.00032   0.00032  -3.14130
    D4        0.00001  -0.00000   0.00000  -0.00014  -0.00014  -0.00012
    D5        0.00003  -0.00001   0.00000  -0.00032  -0.00032  -0.00028
    D6       -3.14156  -0.00001   0.00000  -0.00036  -0.00035   3.14127
    D7        3.14159   0.00000  -0.00000   0.00005   0.00005  -3.14154
    D8       -0.00000   0.00000  -0.00000   0.00001   0.00001   0.00001
    D9        0.00006  -0.00001   0.00001  -0.00069  -0.00068  -0.00062
   D10       -3.14156  -0.00001   0.00000  -0.00032  -0.00032   3.14130
   D11       -3.14157  -0.00001   0.00000  -0.00023  -0.00022   3.14139
   D12       -0.00001   0.00000  -0.00000   0.00014   0.00014   0.00012
   D13        3.13943   0.00023  -0.00020   0.02394   0.02373  -3.12002
   D14        0.00212  -0.00023   0.00019  -0.02348  -0.02328  -0.02116
   D15       -0.00212   0.00023  -0.00019   0.02348   0.02328   0.02116
   D16       -3.13943  -0.00023   0.00020  -0.02394  -0.02373   3.12003
   D17       -0.00003   0.00001  -0.00000   0.00032   0.00032   0.00029
   D18        3.14156   0.00001  -0.00000   0.00036   0.00035  -3.14127
   D19       -3.14159  -0.00000   0.00000  -0.00005  -0.00005   3.14154
   D20        0.00000  -0.00000   0.00000  -0.00001  -0.00001  -0.00001
   D21       -0.00000   0.00000  -0.00000   0.00004   0.00004   0.00004
   D22        3.14159   0.00000  -0.00000   0.00003   0.00003  -3.14157
   D23        3.14159  -0.00000  -0.00000   0.00000   0.00000  -3.14159
   D24       -0.00000  -0.00000  -0.00000  -0.00000  -0.00000  -0.00001
   D25        0.00000  -0.00000   0.00000  -0.00004  -0.00004  -0.00004
   D26       -3.14159   0.00000   0.00000  -0.00000  -0.00000   3.14159
   D27       -3.14159  -0.00000   0.00000  -0.00003  -0.00003   3.14157
   D28        0.00000   0.00000  -0.00000   0.00000   0.00000   0.00001
   D29        3.14157  -0.00000  -0.00000  -0.00001  -0.00001   3.14155
   D30        0.00003   0.00000   0.00000   0.00002   0.00002   0.00005
   D31       -0.00003  -0.00000  -0.00000  -0.00002  -0.00002  -0.00005
   D32       -3.14157   0.00000   0.00000   0.00001   0.00001  -3.14156
         Item               Value     Threshold  Converged?
 Maximum Force            0.002394     0.000450     NO 
 RMS     Force            0.000470     0.000300     NO 
 Maximum Displacement     0.026674     0.001800     NO 
 RMS     Displacement     0.006094     0.001200     NO 
 Predicted change in Energy=-2.783099D-05
 GradGradGradGradGradGradGradGradGradGradGradGradGradGradGradGradGradGrad

                          Input orientation:                          
 ---------------------------------------------------------------------
 Center     Atomic      Atomic             Coordinates (Angstroms)
 Number     Number       Type             X           Y           Z
 ---------------------------------------------------------------------
      1          6           0       -0.024314    1.216794   -0.004216
      2          6           0       -0.712229   -0.000001   -0.006001
      3          6           0       -0.024313   -1.216795   -0.004145
      4          6           0        1.362865   -1.215107   -0.001220
      5          6           0        2.081817    0.000000    0.000238
      6          6           0        1.362864    1.215107   -0.001291
      7          7           0        3.453142    0.000000    0.003098
      8          7           0       -2.169467   -0.000000   -0.009335
      9          8           0       -2.751765   -1.097520    0.012818
     10          8           0       -2.751762    1.097523    0.012751
     11          1           0       -0.580000    2.144213   -0.005442
     12          1           0       -0.579998   -2.144215   -0.005317
     13          1           0        1.900863   -2.156502   -0.000073
     14          1           0        1.900862    2.156503   -0.000199
     15          1           0        3.972767    0.859685    0.004120
     16          1           0        3.972766   -0.859685    0.004171
 ---------------------------------------------------------------------
                    Distance matrix (angstroms):
                    1          2          3          4          5
     1  C    0.000000
     2  C    1.397791   0.000000
     3  C    2.433589   1.397791   0.000000
     4  C    2.799717   2.404687   1.387182   0.000000
     5  C    2.432364   2.794053   2.432364   1.411871   0.000000
     6  C    1.387182   2.404687   2.799717   2.430214   1.411871
     7  N    3.684202   4.165381   3.684201   2.417802   1.371328
     8  N    2.466231   1.457242   2.466232   3.735494   4.251294
     9  O    3.577056   2.316163   2.730112   4.116334   4.956635
    10  O    2.730108   2.316162   3.577057   4.720022   4.956632
    11  H    1.081155   2.148288   3.406636   3.880693   3.418033
    12  H    3.406636   2.148288   1.081155   2.153596   3.418033
    13  H    3.883999   3.388035   2.142281   1.084282   2.164081
    14  H    2.142281   3.388035   3.883999   3.414263   2.164081
    15  H    4.013010   4.763229   4.504274   3.334124   2.077201
    16  H    4.504274   4.763228   4.013008   2.633997   2.077201
                    6          7          8          9         10
     6  C    0.000000
     7  N    2.417802   0.000000
     8  N    3.735493   5.622623   0.000000
     9  O    4.720023   6.301232   1.242623   0.000000
    10  O    4.116330   6.301229   1.242623   2.195043   0.000000
    11  H    2.153596   4.567708   2.669096   3.902017   2.410901
    12  H    3.880693   4.567707   2.669098   2.410907   3.902019
    13  H    3.414263   2.657082   4.606318   4.771641   5.677655
    14  H    1.084282   2.657083   4.606317   5.677655   4.771637
    15  H    2.633998   1.004524   6.202118   7.003575   6.728739
    16  H    3.334124   1.004524   6.202118   6.728741   7.003572
                   11         12         13         14         15
    11  H    0.000000
    12  H    4.288429   0.000000
    13  H    4.964964   2.480897   0.000000
    14  H    2.480898   4.964964   4.313005   0.000000
    15  H    4.730517   5.454464   3.659261   2.444288   0.000000
    16  H    5.454464   4.730515   2.444286   3.659262   1.719370
                   16
    16  H    0.000000
 Stoichiometry    C6H6N2O2
 Framework group  C1[X(C6H6N2O2)]
 Deg. of freedom    42
 Full point group                 C1      NOp   1
 Largest Abelian subgroup         C1      NOp   1
 Largest concise Abelian subgroup C1      NOp   1
                         Standard orientation:                         
 ---------------------------------------------------------------------
 Center     Atomic      Atomic             Coordinates (Angstroms)
 Number     Number       Type             X           Y           Z
 ---------------------------------------------------------------------
      1          6           0       -0.021878   -1.216794    0.005010
      2          6           0       -0.709791    0.000001    0.007456
      3          6           0       -0.021876    1.216795    0.005011
      4          6           0        1.365298    1.215107    0.000827
      5          6           0        2.084248   -0.000001   -0.001320
      6          6           0        1.365297   -1.215107    0.000826
      7          7           0        3.455571   -0.000000   -0.005425
      8          7           0       -2.167025    0.000000    0.012113
      9          8           0       -2.749343    1.097521   -0.009479
     10          8           0       -2.749340   -1.097522   -0.009477
     11          1           0       -0.577563   -2.144213    0.006714
     12          1           0       -0.577560    2.144215    0.006715
     13          1           0        1.903295    2.156502   -0.000781
     14          1           0        1.903293   -2.156503   -0.000782
     15          1           0        3.975194   -0.859685   -0.006943
     16          1           0        3.975193    0.859685   -0.006944
 ---------------------------------------------------------------------
 Rotational constants (GHZ):      3.8983025      0.8194428      0.6771231
 Standard basis: 6-31+G(d,p) (6D, 7F)
 There are   220 symmetry adapted cartesian basis functions of A   symmetry.
 There are   220 symmetry adapted basis functions of A   symmetry.
   220 basis functions,   362 primitive gaussians,   220 cartesian basis functions
    36 alpha electrons       36 beta electrons
       nuclear repulsion energy       494.0173198742 Hartrees.
 NAtoms=   16 NActive=   16 NUniq=   16 SFac= 1.00D+00 NAtFMM=   60 NAOKFM=F Big=F
 Integral buffers will be    131072 words long.
 Regular integral format.
 Two-electron integral symmetry is turned on.
 Nuclear repulsion after empirical dispersion term =      494.0110649874 Hartrees.
 One-electron integrals computed using PRISM.
 NBasis=   220 RedAO= T EigKep=  3.28D-06  NBF=   220
 NBsUse=   220 1.00D-06 EigRej= -1.00D+00 NBFU=   220
 Initial guess from the checkpoint file:  "B2PLYPD3PNA.chk"
 B after Tr=     0.000000   -0.000000    0.000000
         Rot=    1.000000   -0.000015    0.000052    0.000000 Ang=  -0.01 deg.
 ExpMin= 4.38D-02 ExpMax= 5.48D+03 ExpMxC= 8.25D+02 IAcc=2 IRadAn=         4 AccDes= 0.00D+00
 Harris functional with IExCor=  419 and IRadAn=       4 diagonalized for initial guess.
 HarFok:  IExCor=  419 AccDes= 0.00D+00 IRadAn=         4 IDoV= 1 UseB2=F ITyADJ=14
 ICtDFT=  3500011 ScaDFX=  1.000000  1.000000  1.000000  1.000000
 FoFCou: FMM=F IPFlag=           0 FMFlag=      100000 FMFlg1=           0
         NFxFlg=           0 DoJE=T BraDBF=F KetDBF=T FulRan=T
         wScrn=  0.000000 ICntrl=     500 IOpCl=  0 I1Cent=   200000004 NGrid=           0
         NMat0=    1 NMatS0=      1 NMatT0=    0 NMatD0=    1 NMtDS0=    0 NMtDT0=    0
 Petite list used in FoFCou.
 Keep R1 ints in memory in canonical form, NReq=301066375.
 Requested convergence on RMS density matrix=1.00D-08 within 128 cycles.
 Requested convergence on MAX density matrix=1.00D-06.
 Requested convergence on             energy=1.00D-06.
 No special actions if energy rises.
 SCF Done:  E(RB2PLYP) =  -491.168641963     A.U. after   12 cycles
            NFock= 12  Conv=0.84D-08     -V/T= 2.0071
 DoSCS=T DFT=T ScalE2(SS,OS)=  0.270000  0.270000
 ExpMin= 4.38D-02 ExpMax= 5.48D+03 ExpMxC= 8.25D+02 IAcc=3 IRadAn=         5 AccDes= 0.00D+00
 HarFok:  IExCor=  205 AccDes= 0.00D+00 IRadAn=         5 IDoV=-2 UseB2=F ITyADJ=14
 ICtDFT= 12500011 ScaDFX=  1.000000  1.000000  1.000000  1.000000
 Range of M.O.s used for correlation:    11   220
 NBasis=   220 NAE=    36 NBE=    36 NFC=    10 NFV=     0
 NROrb=    210 NOA=    26 NOB=    26 NVA=   184 NVB=   184

 **** Warning!!: The largest alpha MO coefficient is  0.13612552D+03

 DoSCS=T DFT=T ScalE2(SS,OS)=  0.270000  0.270000
 Fully direct method using O(ONN) memory.
 JobTyp=1 Pass  1:  I=  11 to  18 NPSUse= 18 ParTrn=T ParDer=T DoDerP=T.
 JobTyp=1 Pass  2:  I=  19 to  26 NPSUse= 18 ParTrn=T ParDer=T DoDerP=T.
 JobTyp=1 Pass  3:  I=  27 to  34 NPSUse= 18 ParTrn=T ParDer=T DoDerP=T.
 JobTyp=1 Pass  4:  I=  35 to  36 NPSUse= 18 ParTrn=T ParDer=T DoDerP=T.
 Spin components of T(2) and E(2):
     alpha-alpha T2 =       0.1179370507D+00 E2=     -0.7008045201D-01
     alpha-beta  T2 =       0.6087176805D+00 E2=     -0.3693055677D+00
     beta-beta   T2 =       0.1179370507D+00 E2=     -0.7008045201D-01
 E2(B2PLYP) =    -0.5094664717D+00 E(B2PLYP) =    -0.49167810843479D+03
          IDoAtm=1111111111111111
          Differentiating once with respect to electric field.
                with respect to dipole field.
          Differentiating once with respect to nuclear coordinates.
 Keep R1 ints in memory in canonical form, NReq=300899106.
          There are     1 degrees of freedom in the 1st order CPHF.  IDoFFX=0 NUNeed=     1.
 LinEq1:  Iter=  0 NonCon=     1 RMS=2.34D-03 Max=7.82D-02 NDo=     1
 AX will form     1 AO Fock derivatives at one time.
 LinEq1:  Iter=  1 NonCon=     1 RMS=9.80D-04 Max=2.27D-02 NDo=     1
 LinEq1:  Iter=  2 NonCon=     1 RMS=4.30D-04 Max=1.26D-02 NDo=     1
 LinEq1:  Iter=  3 NonCon=     1 RMS=3.12D-04 Max=1.16D-02 NDo=     1
 LinEq1:  Iter=  4 NonCon=     1 RMS=1.12D-04 Max=5.26D-03 NDo=     1
 LinEq1:  Iter=  5 NonCon=     1 RMS=6.66D-05 Max=3.12D-03 NDo=     1
 LinEq1:  Iter=  6 NonCon=     1 RMS=2.82D-05 Max=8.13D-04 NDo=     1
 LinEq1:  Iter=  7 NonCon=     1 RMS=1.23D-05 Max=2.13D-04 NDo=     1
 LinEq1:  Iter=  8 NonCon=     1 RMS=4.34D-06 Max=7.73D-05 NDo=     1
 LinEq1:  Iter=  9 NonCon=     1 RMS=1.91D-06 Max=3.83D-05 NDo=     1
 LinEq1:  Iter= 10 NonCon=     1 RMS=6.49D-07 Max=2.03D-05 NDo=     1
 LinEq1:  Iter= 11 NonCon=     1 RMS=2.40D-07 Max=9.24D-06 NDo=     1
 LinEq1:  Iter= 12 NonCon=     1 RMS=1.30D-07 Max=4.92D-06 NDo=     1
 LinEq1:  Iter= 13 NonCon=     1 RMS=4.37D-08 Max=1.18D-06 NDo=     1
 LinEq1:  Iter= 14 NonCon=     1 RMS=9.60D-09 Max=2.13D-07 NDo=     1
 LinEq1:  Iter= 15 NonCon=     1 RMS=5.51D-09 Max=2.24D-07 NDo=     1
 LinEq1:  Iter= 16 NonCon=     1 RMS=3.49D-09 Max=1.34D-07 NDo=     1
 LinEq1:  Iter= 17 NonCon=     1 RMS=1.72D-09 Max=3.67D-08 NDo=     1
 LinEq1:  Iter= 18 NonCon=     1 RMS=3.73D-10 Max=6.60D-09 NDo=     1
 LinEq1:  Iter= 19 NonCon=     1 RMS=8.51D-11 Max=1.92D-09 NDo=     1
 LinEq1:  Iter= 20 NonCon=     0 RMS=2.21D-11 Max=3.28D-10 NDo=     1
 Linear equations converged to 1.000D-10 1.000D-09 after    20 iterations.
 End of Minotr F.D. properties file   721 does not exist.
 End of Minotr F.D. properties file   722 does not exist.
 End of Minotr F.D. properties file   788 does not exist.
 Calling FoFJK, ICntrl=  10002127 FMM=F ISym2X=0 I1Cent= 0 IOpClX= 0 NMat=1 NMatS=1 NMatT=0.
 ***** Axes restored to original set *****
 -------------------------------------------------------------------
 Center     Atomic                   Forces (Hartrees/Bohr)
 Number     Number              X              Y              Z
 -------------------------------------------------------------------
      1        6          -0.000043638   -0.000089477   -0.000334371
      2        6          -0.000296593    0.000000231   -0.001277919
      3        6          -0.000044226    0.000089398   -0.000334378
      4        6           0.000066154    0.000151385    0.000080701
      5        6          -0.000120310    0.000000029   -0.000039326
      6        6           0.000066001   -0.000151628    0.000080690
      7        7           0.000019087   -0.000000012   -0.000000209
      8        7           0.000646546    0.000000262    0.006170232
      9        8          -0.000111041    0.000195734   -0.002203537
     10        8          -0.000111251   -0.000195990   -0.002203516
     11        1          -0.000051332    0.000017486   -0.000012250
     12        1          -0.000051376   -0.000017544   -0.000012246
     13        1           0.000043792   -0.000066204    0.000041459
     14        1           0.000043771    0.000066236    0.000041460
     15        1          -0.000027773    0.000034934    0.000001611
     16        1          -0.000027811   -0.000034838    0.000001599
 -------------------------------------------------------------------
 Cartesian Forces:  Max     0.006170232 RMS     0.001024462

 GradGradGradGradGradGradGradGradGradGradGradGradGradGradGradGradGradGrad
 Berny optimization.
 Using GEDIIS/GDIIS optimizer.
 FormGI is forming the generalized inverse of G from B-inverse, IUseBI=4.
 Internal  Forces:  Max     0.002324488 RMS     0.000546155
 Search for a local minimum.
 Step number   3 out of a maximum of   82
 All quantities printed in internal units (Hartrees-Bohrs-Radians)
 Mixed Optimization -- En-DIIS/RFO-DIIS
 Swapping is turned off.
 Update second derivatives using D2CorX and points    1    2    3
 DE=  8.00D-05 DEPred=-2.78D-05 R=-2.87D+00
 Trust test=-2.87D+00 RLast= 4.80D-02 DXMaxT set to 1.50D-01
 ITU= -1  1  0
     Eigenvalues ---    0.01034   0.01806   0.01968   0.02043   0.02099
     Eigenvalues ---    0.02129   0.02152   0.02152   0.02178   0.02191
     Eigenvalues ---    0.02236   0.02242   0.06990   0.14797   0.16000
     Eigenvalues ---    0.16000   0.16000   0.16005   0.16027   0.18115
     Eigenvalues ---    0.22000   0.23134   0.25000   0.25000   0.25000
     Eigenvalues ---    0.25005   0.33617   0.35198   0.35358   0.35511
     Eigenvalues ---    0.37396   0.40152   0.41210   0.41977   0.45115
     Eigenvalues ---    0.46792   0.46812   0.47047   0.47163   0.49626
     Eigenvalues ---    0.56132   0.90722
 En-DIIS/RFO-DIIS IScMMF=        0 using points:     3    2
 RFO step:  Lambda=-7.08282569D-05.
 DidBck=T Rises=F RFO-DIIS coefs:    0.20569    0.79431
 Iteration  1 RMS(Cart)=  0.00701097 RMS(Int)=  0.00012798
 Iteration  2 RMS(Cart)=  0.00013572 RMS(Int)=  0.00003719
 Iteration  3 RMS(Cart)=  0.00000003 RMS(Int)=  0.00003719
 Variable       Old X    -DE/DX   Delta X   Delta X   Delta X     New X
                                 (Linear)    (Quad)   (Total)
    R1        2.64144  -0.00010   0.00088  -0.00126  -0.00039   2.64105
    R2        2.62139   0.00003   0.00001   0.00162   0.00162   2.62302
    R3        2.04309   0.00004   0.00007  -0.00131  -0.00124   2.04185
    R4        2.64144  -0.00010   0.00088  -0.00126  -0.00039   2.64105
    R5        2.75379  -0.00043   0.00077   0.00107   0.00184   2.75563
    R6        2.62139   0.00003   0.00001   0.00162   0.00162   2.62302
    R7        2.04309   0.00004   0.00007  -0.00131  -0.00124   2.04185
    R8        2.66805  -0.00010   0.00073  -0.00148  -0.00075   2.66730
    R9        2.04900   0.00008   0.00019  -0.00135  -0.00116   2.04784
   R10        2.66805  -0.00010   0.00073  -0.00147  -0.00075   2.66730
   R11        2.59143  -0.00004  -0.00098   0.00467   0.00369   2.59513
   R12        2.04900   0.00008   0.00019  -0.00135  -0.00116   2.04784
   R13        1.89828   0.00002   0.00005  -0.00037  -0.00032   1.89796
   R14        1.89828   0.00002   0.00005  -0.00037  -0.00032   1.89796
   R15        2.34822  -0.00016  -0.00314   0.01176   0.00863   2.35685
   R16        2.34822  -0.00016  -0.00314   0.01176   0.00863   2.35685
    A1        2.08413  -0.00002   0.00170  -0.00437  -0.00267   2.08147
    A2        2.08723  -0.00003  -0.00168   0.00462   0.00294   2.09016
    A3        2.11183   0.00004  -0.00002  -0.00025  -0.00027   2.11156
    A4        2.11249   0.00003  -0.00294   0.00717   0.00423   2.11672
    A5        2.08535  -0.00002   0.00147  -0.00359  -0.00212   2.08323
    A6        2.08535  -0.00002   0.00147  -0.00358  -0.00212   2.08324
    A7        2.08413  -0.00002   0.00170  -0.00437  -0.00267   2.08147
    A8        2.08723  -0.00003  -0.00168   0.00462   0.00293   2.09016
    A9        2.11183   0.00004  -0.00002  -0.00025  -0.00027   2.11156
   A10        2.10629  -0.00002   0.00062  -0.00126  -0.00064   2.10565
   A11        2.08877   0.00001   0.00036  -0.00083  -0.00047   2.08830
   A12        2.08812   0.00000  -0.00098   0.00209   0.00111   2.08923
   A13        2.07303   0.00004  -0.00171   0.00408   0.00237   2.07541
   A14        2.10507  -0.00002   0.00085  -0.00204  -0.00119   2.10389
   A15        2.10508  -0.00002   0.00085  -0.00204  -0.00119   2.10389
   A16        2.10629  -0.00002   0.00062  -0.00126  -0.00064   2.10565
   A17        2.08877   0.00001   0.00036  -0.00083  -0.00047   2.08830
   A18        2.08812   0.00000  -0.00098   0.00209   0.00111   2.08923
   A19        2.11447  -0.00003   0.00045  -0.00104  -0.00059   2.11388
   A20        2.11447  -0.00003   0.00045  -0.00104  -0.00059   2.11388
   A21        2.05424   0.00005  -0.00090   0.00209   0.00119   2.05543
   A22        2.05846   0.00023  -0.00035   0.00159   0.00105   2.05951
   A23        2.05846   0.00023  -0.00035   0.00158   0.00105   2.05951
   A24        2.16541  -0.00028   0.00138  -0.00250  -0.00130   2.16411
    D1        0.00062  -0.00013  -0.00054  -0.00024  -0.00078  -0.00016
    D2       -3.14139  -0.00005  -0.00018  -0.00008  -0.00026   3.14154
[...]
 ! D7    D(11,1,6,5)          -180.0            -DE/DX =    0.0                 !
 ! D8    D(11,1,6,14)            0.0            -DE/DX =    0.0                 !
 ! D9    D(1,2,3,4)              0.0006         -DE/DX =    0.0                 !
 ! D10   D(1,2,3,12)           180.0003         -DE/DX =    0.0                 !
 ! D11   D(8,2,3,4)            180.0002         -DE/DX =    0.0                 !
 ! D12   D(8,2,3,12)            -0.0001         -DE/DX =    0.0                 !
 ! D13   D(1,2,8,9)           -180.0165         -DE/DX =    0.0                 !
 ! D14   D(1,2,8,10)             0.0163         -DE/DX =    0.0                 !
 ! D15   D(3,2,8,9)             -0.0161         -DE/DX =    0.0                 !
 ! D16   D(3,2,8,10)          -179.9834         -DE/DX =    0.0                 !
 ! D17   D(2,3,4,5)             -0.0003         -DE/DX =    0.0                 !
 ! D18   D(2,3,4,13)           179.9997         -DE/DX =    0.0                 !
 ! D19   D(12,3,4,5)           180.0            -DE/DX =    0.0                 !
 ! D20   D(12,3,4,13)            0.0            -DE/DX =    0.0                 !
 ! D21   D(3,4,5,6)              0.0            -DE/DX =    0.0                 !
 ! D22   D(3,4,5,7)            179.9996         -DE/DX =    0.0                 !
 ! D23   D(13,4,5,6)          -179.9999         -DE/DX =    0.0                 !
 ! D24   D(13,4,5,7)            -0.0003         -DE/DX =    0.0                 !
 ! D25   D(4,5,6,1)              0.0            -DE/DX =    0.0                 !
 ! D26   D(4,5,6,14)           179.9999         -DE/DX =    0.0                 !
 ! D27   D(7,5,6,1)           -179.9997         -DE/DX =    0.0                 !
 ! D28   D(7,5,6,14)             0.0003         -DE/DX =    0.0                 !
 ! D29   D(4,5,7,15)           179.9978         -DE/DX =    0.0                 !
 ! D30   D(4,5,7,16)             0.0025         -DE/DX =    0.0                 !
 ! D31   D(6,5,7,15)            -0.0026         -DE/DX =    0.0                 !
 ! D32   D(6,5,7,16)          -179.9978         -DE/DX =    0.0                 !
 --------------------------------------------------------------------------------
 GradGradGradGradGradGradGradGradGradGradGradGradGradGradGradGradGradGrad

 1\1\ WCSS.PL-BEM-JP\Freq\RB2PLYP-FC\6-31+G(d,p)\C6H6N2O2\C612\18-Dec-2
 024\0\\#N Geom=AllCheck Guess=TCheck SCRF=Check GenChk RB2PLYP(FC)/6-3
 1+G(d,p) Freq\\[No Title]\\0,1\C,-0.0242676584,1.2167651218,0.00001132
 73\C,-0.7117432307,-0.0000001732,0.0000631924\C,-0.0242673271,-1.21676
 55012,0.0000824802\C,1.3627957158,-1.2150867117,0.0000612399\C,2.08142
 0266,0.0000002464,0.0000144784\C,1.362795497,1.2150868686,-0.000009770
 7\N,3.4525953486,0.0000000155,0.0000007428\N,-2.168108786,-0.000000157
 6,0.0000905442\O,-2.7511854074,-1.0971433616,-0.0001784884\O,-2.751185
 4978,1.0971430535,-0.0002452678\H,-0.5803160665,2.1441479509,-0.000006
 9441\H,-0.5803156745,-2.1441483662,0.0001185397\H,1.9008833681,-2.1566
 263911,0.0000813605\H,1.9008829448,2.1566266899,-0.0000446906\H,3.9720
 575241,0.8598223871,-0.0000660764\H,3.972056984,-0.8598226713,-0.00001
 46676\\Version=ES64L-G09RevE.01\State=1-A\HF=-491.1688069\MP2=-491.678
 2068\RMSD=7.211e-09\RMSF=7.229e-05\ZeroPoint=0.1187055\Thermal=0.12688
 48\Dipole=2.9810473,-0.0000001,0.0001955\DipoleDeriv=0.5256608,0.09887
 58,-0.0000044,0.2852333,0.0668734,0.0000033,0.0000404,-0.0000183,-0.05
 55507,-1.1176852,0.,-0.0000305,-0.0000006,-0.1737847,0.0000054,0.00008
 36,0.0000054,0.0036772,0.5256603,-0.0988757,0.0000012,-0.2852327,0.066
 8731,-0.0000104,0.0000575,0.0000109,-0.0555507,-0.6292964,-0.0131241,-
 0.0000065,-0.5706931,0.0441301,-0.0000051,0.0000363,-0.0000054,-0.1947
 264,2.11862,-0.0000003,0.0000008,-0.0000004,0.0769126,0.0000017,-0.000
 0169,0.0000016,0.13115,-0.6292969,0.0131241,-0.0000074,0.5706932,0.044
 13,-0.0000088,0.0000024,-0.0000086,-0.1947265,-1.9230979,0.0000002,-0.
 0000154,0.0000002,-0.1519987,-0.0000136,-0.0000539,-0.0000136,-0.60862
 75,2.3875495,0.0000002,0.0000255,0.,1.3656354,-0.0000354,0.0000744,-0.
 0000352,0.2124739,-0.9267879,-0.3202668,0.0000199,-0.3957995,-0.832291
 8,0.0000859,-0.0001147,-0.0001486,-0.244163,-0.926788,0.3202667,0.0000
 004,0.3957996,-0.8322916,-0.0000499,-0.0001386,0.0001844,-0.2441631,0.
 1002768,0.0395297,0.0000015,0.0237136,0.0523095,0.0000004,0.0000003,0.
 0000032,0.1431254,0.1002767,-0.0395298,0.0000038,-0.0237136,0.0523095,
 0.0000048,0.0000016,0.0000023,0.1431254,-0.0112267,0.0786969,-0.000002
 7,0.0725828,-0.0367272,0.0000039,-0.0000172,-0.0000011,0.147019,-0.011
 2266,-0.0786969,0.0000019,-0.0725827,-0.0367272,0.0000068,-0.0000129,0
 .0000119,0.147019,0.2086808,0.0475226,0.0000044,0.0976548,0.1473238,0.
 0000102,0.0000262,0.0000105,0.334959,0.2086807,-0.0475227,0.0000073,-0
 .0976547,0.1473238,0.000001,0.0000314,0.0000007,0.334959\Polar=155.072
 496,0.0000018,99.6648901,0.0023315,-0.001445,50.8276575\PG=C01 [X(C6H6
 N2O2)]\NImag=1\\0.72641519,-0.04182626,0.73349478,-0.00001086,-0.00001
 777,0.11253890,-0.14661679,-0.10625340,0.00000796,0.56918335,-0.056032
 22,-0.29340866,0.00000867,0.00000017,0.75597866,0.00000743,0.00000961,
 -0.03591299,0.00000372,-0.00001963,0.08752207,0.04744135,0.01832124,-0
 .00000202,-0.14661674,0.05603209,0.00000417,0.72641542,-0.01832116,-0.
 05447066,0.00000279,0.10625320,-0.29340849,0.00000545,0.04182646,0.733
 49462,-0.00000088,0.00000016,-0.00652365,0.00000172,0.00000639,-0.0359
 1305,-0.00001327,-0.00001867,0.11253894,-0.03629925,-0.02630643,0.0000
 0198,-0.03779764,0.06479018,-0.00000207,-0.37538306,-0.02820378,0.0000
 0746,0.73560493,-0.01671661,-0.01493757,0.00000124,0.02077978,0.027001
 34,-0.00000311,0.02905125,-0.12693481,0.00000275,-0.04076860,0.7018282
 5,0.00000160,0.00000176,0.00794592,0.00000070,-0.00000287,-0.00773857,
 0.00000433,0.00000391,-0.03622297,-0.00000855,-0.00001598,0.09628513,-
 0.03182373,0.03012455,-0.00000136,0.01561428,0.00000001,0.00000028,-0.
 03182370,-0.03012455,0.00000039,-0.15680440,-0.09759284,0.00000476,0.7
 4274562,0.06998023,0.03824303,-0.00000280,-0.00000003,-0.06523433,0.00
 000216,-0.06998010,0.03824277,-0.00000022,-0.03880431,-0.27207343,0.00
 000635,-0.00000029,0.69173869,-0.00000261,-0.00000276,-0.01325885,0.00
 000032,0.00000213,0.00811191,0.00000144,-0.00000023,-0.01325885,0.0000
 0385,0.00000837,-0.04538820,-0.00001052,-0.00001657,0.12716291,-0.3753
 8271,0.02820386,0.00000583,-0.03779763,-0.06479024,0.00000170,-0.03629
 925,0.02630629,0.00000039,0.04945351,0.01170102,-0.00000173,-0.1568045
 9,0.03880444,0.00000155,0.73560466,-0.02905140,-0.12693491,0.00000257,
 -0.02077973,0.02700129,0.00000107,0.01671651,-0.01493742,0.00000005,-0
 .01170096,-0.04212269,0.00000114,0.09759305,-0.27207380,0.00000491,0.0
 4076848,0.70182863,0.00000603,0.00000136,-0.03622297,0.00000193,0.0000
 0085,-0.00773856,0.00000062,-0.00000042,0.00794592,-0.00000106,0.00000
 091,-0.00640283,-0.00000095,0.00000693,-0.04538819,-0.00001091,-0.0000
 1937,0.09628513,0.01053767,0.00130046,0.00000085,-0.01763849,0.,-0.000
 00065,0.01053766,-0.00130046,0.00000093,-0.04337112,-0.01620657,0.0000
 0096,-0.35851238,0.00000003,0.00000372,-0.04337107,0.01620655,0.,0.788
 11249,-0.00641851,-0.01066563,0.00000074,0.,0.00727426,-0.00000027,0.0
 0641850,-0.01066561,0.00000018,-0.04962773,0.00176723,0.00000083,0.000
 00005,-0.13107360,0.00000319,0.04962773,0.00176725,-0.00000062,0.00000
 008,0.89044736,0.00000085,0.00000055,0.00505546,-0.00000070,-0.0000002
 6,-0.00196220,0.00000049,0.00000037,0.00505545,0.00000152,-0.00000045,
 0.00545918,0.00000850,0.00000320,-0.02363425,-0.00000138,0.00000065,0.
 00545918,-0.00003254,-0.00002680,-0.00612686,-0.04085550,-0.01921977,0
 .00000162,-0.14289912,0.00000003,0.00001831,-0.04085551,0.01921973,0.0
 0000049,0.01340294,0.00807402,-0.00000233,-0.01665146,0.00000002,0.000
 00049,0.01340299,-0.00807404,-0.00000184,0.01581472,0.,0.00000059,0.64
 270840,-0.02538702,0.01371786,0.00000170,0.00000003,-0.10842164,0.0000
 0148,0.02538688,0.01371811,-0.00000313,0.00498944,-0.00698338,-0.00000
 049,0.00000003,-0.00551474,0.00000009,-0.00498937,-0.00698331,0.000001
 40,0.,0.00034329,-0.00000002,0.00000012,0.91124830,0.00000031,-0.00000
 350,-0.01043925,-0.00001238,0.00000146,-0.05771905,-0.00000116,0.00000
 208,-0.01043925,-0.00000047,-0.00000038,0.00886336,-0.00000049,0.00000
 008,-0.00319254,-0.00000015,0.00000130,0.00886337,0.00000029,-0.000000
 02,-0.00026234,0.00010874,-0.00002136,0.20740684,-0.00317428,0.0074405
 9,-0.00000204,-0.03663408,-0.04948538,-0.00001509,-0.00188829,-0.00218
 701,-0.00000117,-0.00163258,-0.00229042,0.00000049,0.00417312,-0.00182
 013,-0.00000042,-0.00393929,-0.00062850,0.00000121,-0.00424573,0.00030
 759,-0.00000007,-0.22288450,-0.17074482,-0.00004230,0.23358555,0.00024
 490,0.00283197,-0.00000104,-0.03368327,-0.01216487,-0.00001005,0.01051
 286,-0.00715198,0.00000123,-0.00374180,0.00018167,0.00000075,0.0037063
 8,0.00046115,-0.00000021,-0.00155411,0.00164463,0.00000031,-0.00315894
 ,0.00048002,-0.00000014,-0.15744606,-0.40232166,-0.00005102,0.20166508
 ,0.51251553,-0.00000226,0.00000136,0.00432963,0.00000058,-0.00000732,0
 .01479265,0.00000055,-0.00000104,0.00256628,-0.00000051,-0.00000006,-0
 .00086431,0.00000063,0.00000036,0.00047520,0.00000042,-0.00000074,-0.0
 0093468,-0.00000051,0.00000006,-0.00000402,-0.00005917,-0.00007874,-0.
 06941362,0.00005773,0.00006923,0.02548992,-0.00188831,0.00218702,-0.00
 000132,-0.03663408,0.04948535,-0.00001808,-0.00317426,-0.00744059,-0.0
 0000161,-0.00393928,0.00062850,0.00000118,0.00417312,0.00182012,-0.000
 00052,-0.00163259,0.00229043,0.00000036,-0.00424573,-0.00030759,-0.000
 00005,-0.22288446,0.17074470,-0.00005277,0.04169458,-0.01831166,0.0000
 0333,0.23358552,-0.01051281,-0.00715187,-0.00000065,0.03368324,-0.0121
 6484,0.00001172,-0.00024486,0.00283184,0.00000112,0.00155407,0.0016446
 6,-0.00000046,-0.00370641,0.00046114,0.00000019,0.00374178,0.00018164,
 -0.00000080,0.00315894,0.00048002,0.00000011,0.15744594,-0.40232142,0.
 00007130,0.01831167,-0.10056477,0.00001644,-0.20166494,0.51251528,0.00
 000145,0.00000216,0.00256628,-0.00000157,0.00000897,0.01479267,-0.0000
 0200,-0.00000182,0.00432962,0.00000016,0.00000072,-0.00093464,0.000000
 77,-0.00000037,0.00047509,-0.00000091,-0.00000012,-0.00086427,-0.00000
 070,-0.00000009,-0.00000401,-0.00006882,0.00009899,-0.06941362,0.00000
 221,-0.00000884,0.02411702,0.00007010,-0.00009888,0.02548993,-0.133086
 48,0.13062306,-0.00000179,0.01289437,-0.01285894,-0.00000007,-0.001831
 65,-0.00359538,0.00000013,-0.00089773,-0.00066345,0.00000008,-0.004825
 27,-0.00118899,0.00000026,-0.00982878,0.02620433,-0.00000034,-0.000267
 52,0.00139551,-0.00000005,0.00102015,-0.00057381,0.00000015,0.00034002
 ,0.00117094,0.00000008,-0.00458333,-0.00065375,-0.00000057,0.13967262,
 0.12899321,-0.28149383,0.00000480,0.01540428,-0.01814595,0.00000018,-0
 .00402727,-0.00309932,0.00000049,-0.00072557,0.00041382,-0.00000004,-0
 .00169053,0.00115874,0.00000029,-0.00326720,0.00632242,0.00000010,-0.0
 0003680,0.00028236,0.,0.00279878,-0.00345168,0.00000064,-0.00012304,0.
 00119275,0.00000005,0.00057558,0.00296107,-0.00000059,-0.13892996,0.29
 391857,-0.00000103,0.00000634,-0.03611711,-0.00000210,-0.00000015,0.00
 287038,0.00000021,0.00000054,0.00541143,0.00000027,-0.00000005,-0.0014
 9462,0.00000034,-0.00000009,0.00914025,0.,-0.00000075,0.00247165,-0.00
 000003,0.,-0.00007610,0.00000119,0.00000018,-0.00360954,-0.00000028,-0
 .00000021,0.00033355,-0.00000068,-0.00000007,-0.00007231,0.00000217,-0
 .00000568,0.02577804,-0.00183164,0.00359540,-0.00000007,0.01289437,0.0
 1285894,-0.00000081,-0.13308646,-0.13062307,0.00000587,-0.00982877,-0.
 02620433,0.00000120,-0.00482527,0.00118899,0.00000019,-0.00089774,0.00
 066344,0.00000005,-0.00026752,-0.00139551,0.00000003,0.00102015,0.0005
 7381,0.00000011,-0.00458333,0.00065375,-0.00000061,0.00034002,-0.00117
 094,0.00000015,0.00074457,0.00089018,0.00000005,0.13967258,0.00402727,
 -0.00309929,0.,-0.01540427,-0.01814596,0.00000105,-0.12899319,-0.28149
 387,0.00000956,0.00326720,0.00632242,-0.00000032,0.00169052,0.00115874
 ,0.00000017,0.00072555,0.00041382,-0.00000007,0.00003680,0.00028235,-0
 .00000002,-0.00279878,-0.00345168,-0.00000064,-0.00057558,0.00296107,0
 .00000041,0.00012304,0.00119275,-0.00000011,-0.00089017,-0.00087450,0.
 00000007,0.13892994,0.29391860,-0.00000002,-0.00000005,0.00541142,-0.0
 0000122,0.00000141,0.00287037,0.00000654,0.00000803,-0.03611710,-0.000
 00020,0.00000051,0.00247164,0.00000025,0.00000056,0.00914026,0.0000002
 4,-0.00000006,-0.00149462,-0.00000004,-0.00000002,-0.00007610,0.000001
 35,-0.00000018,-0.00360954,-0.00000062,-0.00000014,-0.00007231,-0.0000
 0029,0.00000016,0.00033355,0.00000010,0.00000002,0.00062007,-0.0000059
 9,-0.00001001,0.02577804,-0.00093163,-0.00077901,0.00000006,-0.0047498
 3,-0.00204684,0.00000067,-0.01189261,0.02937320,-0.00000046,-0.1279748
 6,0.12180065,-0.00000250,0.00959536,-0.01526268,0.00000035,-0.00138819
 ,-0.00309745,0.00000007,0.00223816,-0.00075376,-0.00000008,0.00038578,
 0.00191076,0.00000008,-0.00016513,-0.00018932,-0.00000011,-0.00097655,
 0.00020827,-0.00000025,0.00004076,0.00008489,0.,0.00099669,-0.00017698
 ,-0.00000012,0.13460128,-0.00116255,-0.00004748,0.00000002,-0.00084466
 ,0.00192625,0.00000019,-0.00237101,0.00412799,0.00000002,0.12180190,-0
 .27661828,0.00000517,0.01770840,-0.01851833,0.00000030,-0.00402100,-0.
 00287927,0.00000029,0.00070799,0.00170946,-0.00000017,-0.00042617,0.00
 021040,0.00000011,0.00015520,-0.00000247,0.,-0.00001916,0.00003711,-0.
 00000004,0.00005764,0.00000912,-0.00000002,0.00014489,0.00078653,-0.00
 000021,-0.13067504,0.29067007,0.00000017,0.00000013,-0.00107735,0.0000
 0035,-0.00000013,0.00786768,0.00000012,-0.00000073,0.00023456,-0.00000
 251,0.00000530,-0.02944042,-0.00000028,0.00000085,0.00153783,0.0000001
 8,0.00000041,0.00576138,-0.00000034,0.00000002,-0.00227135,-0.00000010
 ,0.00000025,0.00157572,-0.00000001,-0.00000008,-0.00009540,0.00000023,
 -0.00000015,-0.00068673,-0.00000003,-0.00000003,-0.00058287,-0.0000000
 9,-0.00000008,-0.00439590,0.00000221,-0.00000575,0.02183137,-0.0118925
 8,-0.02937318,0.00000126,-0.00474983,0.00204684,0.00000054,-0.00093163
 ,0.00077900,0.00000002,-0.00138820,0.00309746,-0.00000011,0.00959537,0
 .01526269,-0.00000055,-0.12797480,-0.12180059,0.00000463,0.00223816,0.
 00075376,-0.00000013,0.00038578,-0.00191076,0.00000019,-0.00097655,-0.
 00020827,-0.00000023,-0.00016513,0.00018932,-0.00000013,0.00099669,0.0
 0017698,-0.00000013,0.00004076,-0.00008489,0.,0.00061116,0.00080334,-0
 .00000003,0.13460119,0.00237100,0.00412798,-0.00000025,0.00084466,0.00
 192624,0.00000016,0.00116255,-0.00004747,-0.00000008,0.00402101,-0.002
 87926,0.00000022,-0.01770839,-0.01851834,0.00000088,-0.12180185,-0.276
 61830,0.00000928,-0.00070799,0.00170946,-0.00000006,0.00042617,0.00021
 041,-0.00000003,0.00001916,0.00003711,0.00000001,-0.00015520,-0.000002
 47,-0.00000001,-0.00014489,0.00078652,-0.00000009,-0.00005765,0.000009
 12,-0.00000002,-0.00080333,-0.00103406,0.00000005,0.13067498,0.2906701
 1,0.,0.00000053,0.00023455,0.00000030,0.00000048,0.00786768,0.00000013
 ,-0.00000024,-0.00107735,-0.00000007,0.00000011,0.00576139,0.00000076,
 0.00000032,0.00153783,0.00000461,0.00000914,-0.02944042,-0.00000031,-0
 .00000026,-0.00227135,-0.00000013,-0.00000017,0.00157572,0.00000022,0.
 00000011,-0.00068673,0.,0.00000007,-0.00009541,-0.00000009,-0.00000022
 ,-0.00439590,-0.00000003,0.,-0.00058288,0.00000002,0.,-0.00016783,-0.0
 0000545,-0.00000997,0.02183137,-0.00058048,-0.00000349,-0.00000006,0.0
 0077393,0.00032194,-0.00000004,-0.00003080,-0.00196536,0.00000006,-0.0
 0506001,0.00333870,0.00000011,-0.01191303,-0.03229665,0.00000220,0.001
 91552,-0.00197142,-0.00000009,-0.17877976,-0.17698366,0.00001682,-0.00
 055517,-0.00000811,-0.00000007,0.00020551,0.00027925,0.00000007,0.0001
 2498,-0.00006027,0.00000002,0.00001939,0.00000771,0.00000001,-0.000407
 81,0.00013124,0.,0.00009870,-0.00018360,0.,-0.00048908,0.00167617,0.00
 000004,0.18068232,-0.00099021,-0.00063328,-0.00000017,0.00158149,-0.00
 000664,0.00000010,-0.00080211,0.00042757,0.,0.00257949,0.00186259,0.00
 000001,0.00006662,0.00577116,-0.00000054,0.00312411,0.00152745,-0.0000
 0020,-0.17505035,-0.37706898,0.00002588,-0.00155764,0.00000057,-0.0000
 0007,0.00034470,0.00030151,0.00000005,0.00038910,-0.00040166,0.0000001
 0,0.00008459,-0.00000571,0.,0.00003673,0.00002562,0.,0.00013433,0.0002
 8163,0.,-0.00027233,-0.00065868,0.00000013,0.18902453,0.38239940,-0.00
 000013,-0.00000008,-0.00098465,0.00000015,0.00000005,0.00014452,0.0000
 0001,-0.00000007,0.00245468,-0.00000016,0.00000007,0.00291960,-0.00000
 156,-0.00000065,-0.00673019,0.00000018,-0.00000020,-0.00121965,0.00001
 945,0.00002957,0.00782966,-0.00000015,0.,-0.00009313,0.00000008,0.0000
 0004,-0.00002761,0.00000003,-0.00000003,-0.00000556,0.00000001,0.,0.00
 012601,-0.00000005,-0.00000001,-0.00040291,0.,0.00000001,-0.00075138,0
 .00000010,0.,0.00066071,-0.00001716,-0.00002726,0.00088184,-0.00003080
 ,0.00196536,-0.00000005,0.00077392,-0.00032194,-0.00000002,-0.00058048
 ,0.00000348,-0.00000006,0.00191551,0.00197143,-0.00000020,-0.01191303,
 0.03229666,0.00000027,-0.00506002,-0.00333870,0.00000030,-0.17877954,0
 .17698355,0.00000621,-0.00055517,0.00000811,-0.00000008,0.00012498,0.0
 0006027,0.00000002,0.00020551,-0.00027925,0.00000008,-0.00040781,-0.00
 013124,0.,0.00001939,-0.00000771,0.00000002,-0.00048908,-0.00167617,0.
 00000014,0.00009870,0.00018360,0.,0.01399581,-0.01869305,-0.00000080,0
 .18068210,0.00080211,0.00042757,0.00000013,-0.00158149,-0.00000665,-0.
 00000009,0.00099021,-0.00063327,0.00000015,-0.00312412,0.00152744,0.00
 000004,-0.00006661,0.00577116,-0.00000021,-0.00257949,0.00186258,0.000
 00005,0.17505026,-0.37706922,-0.00000285,0.00155764,0.00000057,0.00000
 007,-0.00038910,-0.00040166,-0.00000007,-0.00034470,0.00030151,-0.0000
 0007,-0.00003673,0.00002562,-0.00000002,-0.00008459,-0.00000571,0.,0.0
 0027233,-0.00065868,-0.00000005,-0.00013433,0.00028163,-0.00000006,0.0
 1869303,-0.01382254,-0.00000145,-0.18902441,0.38239965,-0.00000003,0.0
 0000020,0.00245468,0.00000024,-0.00000005,0.00014452,-0.00000018,0.000
 00004,-0.00098465,0.00000036,0.00000004,-0.00121965,-0.00000151,-0.000
 00011,-0.00673019,0.,0.,0.00291961,0.00000892,-0.00000653,0.00782966,-
 0.00000023,-0.00000001,-0.00009313,0.00000005,0.00000005,-0.00000556,0
 .00000010,-0.00000005,-0.00002761,-0.00000005,-0.00000001,-0.00040291,
 0.00000002,0.,0.00012601,0.00000008,0.00000008,0.00066071,0.,-0.000000
 07,-0.00075138,-0.00000191,0.00000198,-0.00480194,-0.00000583,0.000004
 43,0.00088183\\0.00000802,-0.00014956,-0.00000454,0.00031450,0.0000000
 6,-0.00001704,0.00000815,0.00014942,-0.00000455,-0.00007485,0.00008326
 ,0.00000110,-0.00002251,0.00000011,-0.00000022,-0.00007481,-0.00008331
 ,0.00000109,-0.00015715,-0.00000003,-0.00000087,-0.00004509,-0.0000000
 3,0.00008246,0.00003651,0.00011411,-0.00002943,0.00003647,-0.00011405,
 -0.00002943,-0.00001861,0.00007604,-0.00000017,-0.00001862,-0.00007603
 ,-0.00000017,-0.00000145,-0.00004621,0.00000057,-0.00000142,0.00004621
 ,0.00000057,0.00000544,0.00001806,0.00000032,0.00000542,-0.00001806,0.
 00000032\\\@


 FROM WHENCE IT HAPPENS, THAT THEY WHICH TRUST TO BOOKS, DO AS THEY THAT CAST UP MANY LITTLE SUMMS INTO GREATER,
 WITHOUT CONSIDERING WETHER THOSE LITTLE SUMMES WERE RIGHTLY CAST UP OR NOT...
 AND AT LAST FINDING THE ERROUR VISIBLE, AND NOT MISTRUSTING THEIR FIRST GROUNDS,
 KNOW NOT WHICH WAY TO CLEERE THEMSELVES...
 BUT SPEND TIME IN FLUTTERING OVER THEIR BOOKES....
 AS BIRDS THAT ENTERING BY THE CHIMNEY, AND FINDING THEMSELVES INCLOSED IN A CHAMBER,
 FLUTTER AT THE FALSE LIGHT OF A GLASSE WINDOW,
 FOR WANT OF WIT TO CONSIDER WHICH WAY THEY CAME IN....
           LEVIATHAN
 Job cpu time:       0 days  2 hours 37 minutes 22.2 seconds.
 File lengths (MBytes):  RWF=  12602 Int=      0 D2E=      0 Chk=      6 Scr=      1
 Normal termination of Gaussian 09 at Wed Dec 18 23:21:48 2024.
