 Entering Gaussian System, Link 0=g09
 Input=b3lypD3PNAyang.gjf
 Output=b3lypD3PNAyang.log
 Initial command:
 /home/c612/g09E/g09/l1.exe "/mnt/ja_sm883/scratch/Gau-1823664.inp" -scrdir="/mnt/ja_sm883/scratch/"
 Default is to use a total of  18 processors:
                               18 via shared-memory
                                1 via Linda
 Entering Link 1 = /home/c612/g09E/g09/l1.exe PID=   1823666.
  
 Copyright (c) 1988,1990,1992,1993,1995,1998,2003,2009,2015,
            Gaussian, Inc.  All Rights Reserved.
  
 This is part of the Gaussian(R) 09 program.  It is based on
 the Gaussian(R) 03 system (copyright 2003, Gaussian, Inc.),
 the Gaussian(R) 98 system (copyright 1998, Gaussian, Inc.),
 the Gaussian(R) 94 system (copyright 1995, Gaussian, Inc.),
 the Gaussian 92(TM) system (copyright 1992, Gaussian, Inc.),
 the Gaussian 90(TM) system (copyright 1990, Gaussian, Inc.),
 the Gaussian 88(TM) system (copyright 1988, Gaussian, Inc.),
 the Gaussian 86(TM) system (copyright 1986, Carnegie Mellon
 University), and the Gaussian 82(TM) system (copyright 1983,
 Carnegie Mellon University). Gaussian is a federally registered
 trademark of Gaussian, Inc.
  
 This software contains proprietary and confidential information,
 including trade secrets, belonging to Gaussian, Inc.
  
 This software is provided under written license and may be
 used, copied, transmitted, or stored only in accord with that
 written license.
  
 The following legend is applicable only to US Government
 contracts under FAR:
  
                    RESTRICTED RIGHTS LEGEND
  
 Use, reproduction and disclosure by the US Government is
 subject to restrictions as set forth in subparagraphs (a)
 and (c) of the Commercial Computer Software - Restricted
 Rights clause in FAR 52.227-19.
  
 Gaussian, Inc.
 340 Quinnipiac St., Bldg. 40, Wallingford CT 06492
  
  
 ---------------------------------------------------------------
 Warning -- This program may not be used in any manner that
 competes with the business of Gaussian, Inc. or will provide
 assistance to any competitor of Gaussian, Inc.  The licensee
 of this program is prohibited from giving any competitor of
 Gaussian, Inc. access to this program.  By using this program,
 the user acknowledges that Gaussian, Inc. is engaged in the
 business of creating and licensing software in the field of
 computational chemistry and represents and warrants to the
 licensee that it is not a competitor of Gaussian, Inc. and that
 it will not use this program in any manner prohibited above.
 ---------------------------------------------------------------
  

 Cite this work as:
 Gaussian 09, Revision E.01,
 M. J. Frisch, G. W. Trucks, H. B. Schlegel, G. E. Scuseria, 
 M. A. Robb, J. R. Cheeseman, G. Scalmani, V. Barone, B. Mennucci, 
 G. A. Petersson, H. Nakatsuji, M. Caricato, X. Li, H. P. Hratchian, 
 A. F. Izmaylov, J. Bloino, G. Zheng, J. L. Sonnenberg, M. Hada, 
 M. Ehara, K. Toyota, R. Fukuda, J. Hasegawa, M. Ishida, T. Nakajima, 
 Y. Honda, O. Kitao, H. Nakai, T. Vreven, J. A. Montgomery, Jr., 
 J. E. Peralta, F. Ogliaro, M. Bearpark, J. J. Heyd, E. Brothers, 
 K. N. Kudin, V. N. Staroverov, T. Keith, R. Kobayashi, J. Normand, 
 K. Raghavachari, A. Rendell, J. C. Burant, S. S. Iyengar, J. Tomasi, 
 M. Cossi, N. Rega, J. M. Millam, M. Klene, J. E. Knox, J. B. Cross, 
 V. Bakken, C. Adamo, J. Jaramillo, R. Gomperts, R. E. Stratmann, 
 O. Yazyev, A. J. Austin, R. Cammi, C. Pomelli, J. W. Ochterski, 
 R. L. Martin, K. Morokuma, V. G. Zakrzewski, G. A. Voth, 
 P. Salvador, J. J. Dannenberg, S. Dapprich, A. D. Daniels, 
 O. Farkas, J. B. Foresman, J. V. Ortiz, J. Cioslowski, 
 and D. J. Fox, Gaussian, Inc., Wallingford CT, 2013.
 
 ******************************************
 Gaussian 09:  ES64L-G09RevE.01 30-Nov-2015
                17-Dec-2024 
 ******************************************
 %chk=b3lypD3PNAyang.chk
 ----------------------------------------------------
 # opt freq b3lyp/6-31+g(d,p) EmpiricalDispersion=GD3
 ----------------------------------------------------
 1/14=-1,18=20,19=15,26=3,38=1/1,3;
 2/9=110,12=2,17=6,18=5,40=1/2;
 3/5=1,6=6,7=111,11=2,16=1,25=1,30=1,71=1,74=-5,124=31/1,2,3;
 4//1;
 5/5=2,38=5/2;
 6/7=2,8=2,9=2,10=2,28=1/1;
 7//1,2,3,16;
 1/14=-1,18=20,19=15,26=3/3(2);
 2/9=110/2;
 99//99;
 2/9=110/2;
 3/5=1,6=6,7=111,11=2,16=1,25=1,30=1,71=1,74=-5,124=31/1,2,3;
 4/5=5,16=3,69=1/1;
 5/5=2,38=5/2;
 7//1,2,3,16;
 1/14=-1,18=20,19=15,26=3/3(-5);
 2/9=110/2;
 6/7=2,8=2,9=2,10=2,19=2,28=1/1;
 99/9=1/99;
 ----------
 [No Title]
 ----------
 Symbolic Z-matrix:
 Charge =  1 Multiplicity = 1
 C                    -0.05732   1.26042  -0.00002 
 C                     0.66742   0.03633  -0.00007 
 C                    -0.00651  -1.21605  -0.00004 
 C                    -1.37145  -1.23715  0. 
 C                    -2.11785  -0.01758   0.00003 
 C                    -1.42089   1.23142   0.00002 
 N                    -3.45088  -0.0439    0.00006 
 N                     2.03076   0.1071   -0.00011 
 O                     2.66654  -1.09534   0.00005 
 O                     2.70408   1.11458   0.00003 
 H                     0.48219   2.20135  -0.00003 
 H                     0.55649  -2.1417   -0.00007 
 H                    -1.89792  -2.18652   0. 
 H                    -1.98382   2.15968   0.00004 
 H                    -3.9962    0.80656   0.00008 
 H                    -3.96284  -0.91482   0.00007 
 H                     3.6175   -0.86525   0.00015 
 

 GradGradGradGradGradGradGradGradGradGradGradGradGradGradGradGradGradGrad
 Berny optimization.
 Initialization pass.
                           ----------------------------
                           !    Initial Parameters    !
                           ! (Angstroms and Degrees)  !
 --------------------------                            --------------------------
 ! Name  Definition              Value          Derivative Info.                !
 --------------------------------------------------------------------------------
 ! R1    R(1,2)                  1.4225         estimate D2E/DX2                !
 ! R2    R(1,6)                  1.3639         estimate D2E/DX2                !
 ! R3    R(1,11)                 1.0846         estimate D2E/DX2                !
 ! R4    R(2,3)                  1.4222         estimate D2E/DX2                !
 ! R5    R(2,8)                  1.3652         estimate D2E/DX2                !
 ! R6    R(3,4)                  1.3651         estimate D2E/DX2                !
 ! R7    R(3,12)                 1.0834         estimate D2E/DX2                !
 ! R8    R(4,5)                  1.4298         estimate D2E/DX2                !
 ! R9    R(4,13)                 1.0856         estimate D2E/DX2                !
 ! R10   R(5,6)                  1.4303         estimate D2E/DX2                !
 ! R11   R(5,7)                  1.3333         estimate D2E/DX2                !
 ! R12   R(6,14)                 1.0856         estimate D2E/DX2                !
 ! R13   R(7,15)                 1.0103         estimate D2E/DX2                !
 ! R14   R(7,16)                 1.0102         estimate D2E/DX2                !
 ! R15   R(8,9)                  1.3602         estimate D2E/DX2                !
 ! R16   R(8,10)                 1.2118         estimate D2E/DX2                !
 ! R17   R(9,17)                 0.9784         estimate D2E/DX2                !
 ! A1    A(2,1,6)              119.4098         estimate D2E/DX2                !
 ! A2    A(2,1,11)             119.543          estimate D2E/DX2                !
 ! A3    A(6,1,11)             121.0472         estimate D2E/DX2                !
 ! A4    A(1,2,3)              121.0867         estimate D2E/DX2                !
 ! A5    A(1,2,8)              117.6568         estimate D2E/DX2                !
 ! A6    A(3,2,8)              121.2565         estimate D2E/DX2                !
 ! A7    A(2,3,4)              119.171          estimate D2E/DX2                !
 ! A8    A(2,3,12)             120.4063         estimate D2E/DX2                !
 ! A9    A(4,3,12)             120.4227         estimate D2E/DX2                !
 ! A10   A(3,4,5)              120.582          estimate D2E/DX2                !
 ! A11   A(3,4,13)             119.8964         estimate D2E/DX2                !
 ! A12   A(5,4,13)             119.5216         estimate D2E/DX2                !
 ! A13   A(4,5,6)              119.3699         estimate D2E/DX2                !
 ! A14   A(4,5,7)              120.3369         estimate D2E/DX2                !
 ! A15   A(6,5,7)              120.2932         estimate D2E/DX2                !
 ! A16   A(1,6,5)              120.3806         estimate D2E/DX2                !
 ! A17   A(1,6,14)             120.0161         estimate D2E/DX2                !
 ! A18   A(5,6,14)             119.6033         estimate D2E/DX2                !
 ! A19   A(5,7,15)             121.5378         estimate D2E/DX2                !
 ! A20   A(5,7,16)             121.5796         estimate D2E/DX2                !
 ! A21   A(15,7,16)            116.8826         estimate D2E/DX2                !
 ! A22   A(2,8,9)              114.8957         estimate D2E/DX2                !
 ! A23   A(2,8,10)             126.7268         estimate D2E/DX2                !
 ! A24   A(9,8,10)             118.3775         estimate D2E/DX2                !
 ! A25   A(8,9,17)             104.265          estimate D2E/DX2                !
 ! D1    D(6,1,2,3)             -0.0016         estimate D2E/DX2                !
 ! D2    D(6,1,2,8)            179.9998         estimate D2E/DX2                !
 ! D3    D(11,1,2,3)           179.9994         estimate D2E/DX2                !
 ! D4    D(11,1,2,8)             0.0007         estimate D2E/DX2                !
 ! D5    D(2,1,6,5)              0.0007         estimate D2E/DX2                !
 ! D6    D(2,1,6,14)          -179.999          estimate D2E/DX2                !
 ! D7    D(11,1,6,5)           179.9998         estimate D2E/DX2                !
 ! D8    D(11,1,6,14)            0.0            estimate D2E/DX2                !
 ! D9    D(1,2,3,4)              0.0015         estimate D2E/DX2                !
 ! D10   D(1,2,3,12)          -179.9992         estimate D2E/DX2                !
 ! D11   D(8,2,3,4)           -179.9999         estimate D2E/DX2                !
 ! D12   D(8,2,3,12)            -0.0006         estimate D2E/DX2                !
 ! D13   D(1,2,8,9)            179.9904         estimate D2E/DX2                !
 ! D14   D(1,2,8,10)             0.0082         estimate D2E/DX2                !
 ! D15   D(3,2,8,9)             -0.0082         estimate D2E/DX2                !
 ! D16   D(3,2,8,10)          -179.9904         estimate D2E/DX2                !
 ! D17   D(2,3,4,5)             -0.0006         estimate D2E/DX2                !
 ! D18   D(2,3,4,13)           179.9992         estimate D2E/DX2                !
 ! D19   D(12,3,4,5)          -179.9999         estimate D2E/DX2                !
 ! D20   D(12,3,4,13)           -0.0001         estimate D2E/DX2                !
 ! D21   D(3,4,5,6)             -0.0002         estimate D2E/DX2                !
 ! D22   D(3,4,5,7)            179.9999         estimate D2E/DX2                !
 ! D23   D(13,4,5,6)           180.0            estimate D2E/DX2                !
 ! D24   D(13,4,5,7)             0.0001         estimate D2E/DX2                !
 ! D25   D(4,5,6,1)              0.0001         estimate D2E/DX2                !
 ! D26   D(4,5,6,14)           179.9999         estimate D2E/DX2                !
 ! D27   D(7,5,6,1)           -179.9999         estimate D2E/DX2                !
 ! D28   D(7,5,6,14)            -0.0002         estimate D2E/DX2                !
 ! D29   D(4,5,7,15)           180.0            estimate D2E/DX2                !
 ! D30   D(4,5,7,16)            -0.0001         estimate D2E/DX2                !
 ! D31   D(6,5,7,15)             0.0001         estimate D2E/DX2                !
 ! D32   D(6,5,7,16)           180.0            estimate D2E/DX2                !
 ! D33   D(2,8,9,17)          -179.9909         estimate D2E/DX2                !
 ! D34   D(10,8,9,17)           -0.0071         estimate D2E/DX2                !
 --------------------------------------------------------------------------------
 Trust Radius=3.00D-01 FncErr=1.00D-07 GrdErr=1.00D-06
 Number of steps in this run=     86 maximum allowed number of steps=    102.
 GradGradGradGradGradGradGradGradGradGradGradGradGradGradGradGradGradGrad

                          Input orientation:                          
 ---------------------------------------------------------------------
 Center     Atomic      Atomic             Coordinates (Angstroms)
 Number     Number       Type             X           Y           Z
 ---------------------------------------------------------------------
      1          6           0       -0.057318    1.260419   -0.000021
      2          6           0        0.667415    0.036333   -0.000068
      3          6           0       -0.006506   -1.216048   -0.000043
      4          6           0       -1.371446   -1.237151   -0.000004
      5          6           0       -2.117853   -0.017584    0.000025
      6          6           0       -1.420885    1.231421    0.000017
      7          7           0       -3.450875   -0.043897    0.000061
      8          7           0        2.030763    0.107099   -0.000109
      9          8           0        2.666538   -1.095343    0.000053
     10          8           0        2.704081    1.114584    0.000029
     11          1           0        0.482190    2.201352   -0.000031
     12          1           0        0.556485   -2.141698   -0.000066
     13          1           0       -1.897923   -2.186524    0.000002
     14          1           0       -1.983821    2.159680    0.000037
     15          1           0       -3.996204    0.806563    0.000082
     16          1           0       -3.962836   -0.914815    0.000067
     17          1           0        3.617496   -0.865246    0.000148
 ---------------------------------------------------------------------
                    Distance matrix (angstroms):
                    1          2          3          4          5
     1  C    0.000000
     2  C    1.422542   0.000000
     3  C    2.476988   1.422191   0.000000
     4  C    2.822196   2.403896   1.365103   0.000000
     5  C    2.424685   2.785790   2.427777   1.429849   0.000000
     6  C    1.363875   2.406082   2.826760   2.469067   1.430307
     7  N    3.635584   4.119071   3.638353   2.397474   1.333282
     8  N    2.385420   1.365183   2.429235   3.658146   4.150489
     9  O    3.601251   2.297212   2.675768   4.040473   4.904280
    10  O    2.765247   2.304481   3.574791   4.705378   4.953065
    11  H    1.084631   2.172928   3.452165   3.906311   3.418172
    12  H    3.457044   2.180854   1.083414   2.129583   3.415252
    13  H    3.907588   3.394415   2.125860   1.085581   2.180062
    14  H    2.126049   3.396712   3.912201   3.451589   2.181386
    15  H    3.964947   4.726796   4.473102   3.326578   2.051200
    16  H    4.470427   4.726934   3.967781   2.611360   2.051581
    17  H    4.245316   3.084773   3.640941   5.002785   5.797651
                    6          7          8          9         10
     6  C    0.000000
     7  N    2.397352   0.000000
     8  N    3.630148   5.483717   0.000000
     9  O    4.703282   6.207115   1.360175   0.000000
    10  O    4.126620   6.263031   1.211769   2.210246   0.000000
    11  H    2.135992   4.528813   2.604606   3.954690   2.473432
    12  H    3.909977   4.523240   2.688974   2.355246   3.900710
    13  H    3.451074   2.646226   4.549207   4.693078   5.663546
    14  H    1.085616   2.647263   4.508877   5.676356   4.802984
    15  H    2.610129   1.010280   6.067420   6.928880   6.707361
    16  H    3.326837   1.010249   6.080094   6.631832   6.968948
    17  H    5.457224   7.115932   1.860961   0.978400   2.180379
                   11         12         13         14         15
    11  H    0.000000
    12  H    4.343685   0.000000
    13  H    4.991833   2.454817   0.000000
    14  H    2.466363   4.995499   4.347053   0.000000
    15  H    4.690570   5.423949   3.655318   2.424997   0.000000
    16  H    5.428513   4.682895   2.425100   3.656367   1.721701
    17  H    4.385677   3.316492   5.671474   6.365919   7.795086
                   16         17
    16  H    0.000000
    17  H    7.580494   0.000000
 Stoichiometry    C6H7N2O2(1+)
 Framework group  C1[X(C6H7N2O2)]
 Deg. of freedom    45
 Full point group                 C1      NOp   1
 Largest Abelian subgroup         C1      NOp   1
 Largest concise Abelian subgroup C1      NOp   1
                         Standard orientation:                         
 ---------------------------------------------------------------------
 Center     Atomic      Atomic             Coordinates (Angstroms)
 Number     Number       Type             X           Y           Z
 ---------------------------------------------------------------------
      1          6           0       -0.057318    1.260419   -0.000021
      2          6           0        0.667415    0.036333   -0.000068
      3          6           0       -0.006506   -1.216048   -0.000043
      4          6           0       -1.371446   -1.237151   -0.000004
      5          6           0       -2.117853   -0.017584    0.000025
      6          6           0       -1.420885    1.231421    0.000017
      7          7           0       -3.450875   -0.043897    0.000061
      8          7           0        2.030763    0.107099   -0.000109
      9          8           0        2.666538   -1.095343    0.000053
     10          8           0        2.704081    1.114584    0.000029
     11          1           0        0.482190    2.201352   -0.000031
     12          1           0        0.556485   -2.141698   -0.000066
     13          1           0       -1.897923   -2.186524    0.000002
     14          1           0       -1.983821    2.159680    0.000037
     15          1           0       -3.996204    0.806563    0.000082
     16          1           0       -3.962836   -0.914815    0.000067
     17          1           0        3.617496   -0.865246    0.000148
 ---------------------------------------------------------------------
 Rotational constants (GHZ):      3.7744281      0.8229505      0.6756388
 Standard basis: 6-31+G(d,p) (6D, 7F)
 There are   225 symmetry adapted cartesian basis functions of A   symmetry.
 There are   225 symmetry adapted basis functions of A   symmetry.
   225 basis functions,   369 primitive gaussians,   225 cartesian basis functions
    36 alpha electrons       36 beta electrons
       nuclear repulsion energy       508.9631194315 Hartrees.
 NAtoms=   17 NActive=   17 NUniq=   17 SFac= 1.00D+00 NAtFMM=   60 NAOKFM=F Big=F
 Integral buffers will be    131072 words long.
 Raffenetti 2 integral format.
 Two-electron integral symmetry is turned on.
 Nuclear repulsion after empirical dispersion term =      508.9516007894 Hartrees.
 One-electron integrals computed using PRISM.
 NBasis=   225 RedAO= T EigKep=  3.35D-06  NBF=   225
 NBsUse=   225 1.00D-06 EigRej= -1.00D+00 NBFU=   225
 ExpMin= 4.38D-02 ExpMax= 5.48D+03 ExpMxC= 8.25D+02 IAcc=2 IRadAn=         4 AccDes= 0.00D+00
 Harris functional with IExCor=  402 and IRadAn=       4 diagonalized for initial guess.
 HarFok:  IExCor=  402 AccDes= 0.00D+00 IRadAn=         4 IDoV= 1 UseB2=F ITyADJ=14
 ICtDFT=  3500011 ScaDFX=  1.000000  1.000000  1.000000  1.000000
 FoFCou: FMM=F IPFlag=           0 FMFlag=      100000 FMFlg1=           0
         NFxFlg=           0 DoJE=T BraDBF=F KetDBF=T FulRan=T
         wScrn=  0.000000 ICntrl=     500 IOpCl=  0 I1Cent=   200000004 NGrid=           0
         NMat0=    1 NMatS0=      1 NMatT0=    0 NMatD0=    1 NMtDS0=    0 NMtDT0=    0
 Petite list used in FoFCou.
 Keep R1 ints in memory in canonical form, NReq=329175655.
 Requested convergence on RMS density matrix=1.00D-08 within 128 cycles.
 Requested convergence on MAX density matrix=1.00D-06.
 Requested convergence on             energy=1.00D-06.
 No special actions if energy rises.
 EnCoef did     3 forward-backward iterations
 SCF Done:  E(RB3LYP) =  -492.504798656     A.U. after   17 cycles
            NFock= 17  Conv=0.65D-08     -V/T= 2.0092

 **********************************************************************

            Population analysis using the SCF density.

 **********************************************************************

 Orbital symmetries:
       Occupied  (A) (A) (A) (A) (A) (A) (A) (A) (A) (A) (A) (A)
                 (A) (A) (A) (A) (A) (A) (A) (A) (A) (A) (A) (A)
                 (A) (A) (A) (A) (A) (A) (A) (A) (A) (A) (A) (A)
       Virtual   (A) (A) (A) (A) (A) (A) (A) (A) (A) (A) (A) (A)
                 (A) (A) (A) (A) (A) (A) (A) (A) (A) (A) (A) (A)
                 (A) (A) (A) (A) (A) (A) (A) (A) (A) (A) (A) (A)
                 (A) (A) (A) (A) (A) (A) (A) (A) (A) (A) (A) (A)
                 (A) (A) (A) (A) (A) (A) (A) (A) (A) (A) (A) (A)
                 (A) (A) (A) (A) (A) (A) (A) (A) (A) (A) (A) (A)
                 (A) (A) (A) (A) (A) (A) (A) (A) (A) (A) (A) (A)
                 (A) (A) (A) (A) (A) (A) (A) (A) (A) (A) (A) (A)
                 (A) (A) (A) (A) (A) (A) (A) (A) (A) (A) (A) (A)
                 (A) (A) (A) (A) (A) (A) (A) (A) (A) (A) (A) (A)
                 (A) (A) (A) (A) (A) (A) (A) (A) (A) (A) (A) (A)
                 (A) (A) (A) (A) (A) (A) (A) (A) (A) (A) (A) (A)
                 (A) (A) (A) (A) (A) (A) (A) (A) (A) (A) (A) (A)
                 (A) (A) (A) (A) (A) (A) (A) (A) (A) (A) (A) (A)
                 (A) (A) (A) (A) (A) (A) (A) (A) (A) (A) (A) (A)
                 (A) (A) (A) (A) (A) (A) (A) (A) (A)
 The electronic state is 1-A.
 Alpha  occ. eigenvalues --  -19.42196 -19.38626 -14.75796 -14.55836 -10.44833
 Alpha  occ. eigenvalues --  -10.43044 -10.39500 -10.39317 -10.38030 -10.38015
 Alpha  occ. eigenvalues --   -1.42096  -1.26018  -1.13595  -1.07927  -1.00247
 Alpha  occ. eigenvalues --   -0.94864  -0.89024  -0.82868  -0.80372  -0.75756
 Alpha  occ. eigenvalues --   -0.73751  -0.72131  -0.71997  -0.70931  -0.64900
 Alpha  occ. eigenvalues --   -0.62735  -0.61951  -0.61182  -0.59471  -0.58457
 Alpha  occ. eigenvalues --   -0.53659  -0.53475  -0.51419  -0.49930  -0.44968
 Alpha  occ. eigenvalues --   -0.40833
 Alpha virt. eigenvalues --   -0.29031  -0.18984  -0.16376  -0.13858  -0.13036
 Alpha virt. eigenvalues --   -0.10866  -0.10217  -0.09399  -0.07715  -0.07224
 Alpha virt. eigenvalues --   -0.07125  -0.05437  -0.05349  -0.04338  -0.03695
 Alpha virt. eigenvalues --   -0.03305  -0.01746  -0.01155  -0.00125   0.00259
 Alpha virt. eigenvalues --    0.00764   0.01327   0.01547   0.02586   0.03186
 Alpha virt. eigenvalues --    0.03748   0.04481   0.05573   0.05794   0.05808
 Alpha virt. eigenvalues --    0.06973   0.07407   0.08085   0.08581   0.09120
 Alpha virt. eigenvalues --    0.09333   0.09718   0.11263   0.11491   0.11848
 Alpha virt. eigenvalues --    0.12684   0.13521   0.14040   0.14848   0.14973
 Alpha virt. eigenvalues --    0.15847   0.17585   0.18174   0.18893   0.20115
 Alpha virt. eigenvalues --    0.20936   0.22284   0.24132   0.24591   0.26429
 Alpha virt. eigenvalues --    0.28386   0.29430   0.32632   0.37208   0.40473
 Alpha virt. eigenvalues --    0.43347   0.47760   0.48852   0.49351   0.52313
 Alpha virt. eigenvalues --    0.54171   0.55310   0.56933   0.58580   0.62128
 Alpha virt. eigenvalues --    0.63066   0.64886   0.67346   0.68388   0.71365
 Alpha virt. eigenvalues --    0.73040   0.73995   0.77020   0.78505   0.79491
 Alpha virt. eigenvalues --    0.81276   0.81695   0.84692   0.85355   0.88292
 Alpha virt. eigenvalues --    0.89528   0.89923   0.91704   0.93965   0.96385
 Alpha virt. eigenvalues --    0.99446   1.00237   1.01416   1.03536   1.04045
 Alpha virt. eigenvalues --    1.06394   1.09125   1.10075   1.11689   1.13009
 Alpha virt. eigenvalues --    1.14554   1.15403   1.16622   1.20180   1.20292
 Alpha virt. eigenvalues --    1.21313   1.21753   1.26042   1.28098   1.29497
 Alpha virt. eigenvalues --    1.33687   1.35175   1.38248   1.49010   1.52800
 Alpha virt. eigenvalues --    1.56780   1.58415   1.62886   1.64016   1.66392
 Alpha virt. eigenvalues --    1.66620   1.71929   1.73280   1.73656   1.75796
 Alpha virt. eigenvalues --    1.77901   1.78828   1.79791   1.79794   1.85854
 Alpha virt. eigenvalues --    1.88506   1.91575   1.93657   1.95042   1.97020
 Alpha virt. eigenvalues --    2.00283   2.01577   2.03449   2.13544   2.13657
 Alpha virt. eigenvalues --    2.20280   2.21331   2.22595   2.22670   2.23775
 Alpha virt. eigenvalues --    2.27584   2.28058   2.31224   2.32817   2.36977
 Alpha virt. eigenvalues --    2.38767   2.39653   2.41373   2.41606   2.42957
 Alpha virt. eigenvalues --    2.45177   2.50223   2.50323   2.53826   2.58875
 Alpha virt. eigenvalues --    2.59127   2.63465   2.66392   2.68067   2.80242
 Alpha virt. eigenvalues --    2.82766   2.86352   2.90698   2.93841   2.98530
 Alpha virt. eigenvalues --    3.02965   3.12032   3.17192   3.18027   3.24080
 Alpha virt. eigenvalues --    3.33082   3.35874   3.51194   3.66740   3.97034
 Alpha virt. eigenvalues --    4.04299   4.11539   4.12882   4.17176   4.29023
 Alpha virt. eigenvalues --    4.31078   4.35548   4.61615   4.68825
          Condensed to atoms (all electrons):
               1          2          3          4          5          6
     1  C    8.319491   0.923825  -2.454700  -0.972658  -0.101110  -0.203016
     2  C    0.923825  10.994473  -1.793052  -1.340026  -0.846537  -0.559433
     3  C   -2.454700  -1.793052  10.510096  -0.421130   0.187545  -0.967873
     4  C   -0.972658  -1.340026  -0.421130   9.195661   0.428262  -1.133130
     5  C   -0.101110  -0.846537   0.187545   0.428262   5.832174   0.190919
     6  C   -0.203016  -0.559433  -0.967873  -1.133130   0.190919   8.341839
     7  N    0.072459  -0.015299   0.068067  -0.046389   0.084550  -0.056023
     8  N    0.372841  -1.008787   0.085834  -0.001512   0.033272   0.076289
     9  O    0.014408  -0.303838   0.121414   0.062725  -0.004713   0.034043
    10  O   -0.211803  -0.219955   0.301872   0.005464   0.020031   0.012064
    11  H    0.074058   0.222684   0.074517  -0.005343  -0.036152   0.026705
    12  H    0.050106   0.269670  -0.000894   0.078827  -0.049194   0.008649
    13  H    0.001215   0.018435   0.124088   0.135206   0.038341   0.014897
    14  H    0.089935   0.014168  -0.011524   0.022010   0.036870   0.180554
    15  H    0.026094  -0.000460  -0.001559   0.041245  -0.011967  -0.066098
    16  H   -0.002378  -0.000460   0.024839  -0.065439  -0.010987   0.041769
    17  H    0.035802   0.023747  -0.047800  -0.002299  -0.001139   0.003615
               7          8          9         10         11         12
     1  C    0.072459   0.372841   0.014408  -0.211803   0.074058   0.050106
     2  C   -0.015299  -1.008787  -0.303838  -0.219955   0.222684   0.269670
     3  C    0.068067   0.085834   0.121414   0.301872   0.074517  -0.000894
     4  C   -0.046389  -0.001512   0.062725   0.005464  -0.005343   0.078827
     5  C    0.084550   0.033272  -0.004713   0.020031  -0.036152  -0.049194
     6  C   -0.056023   0.076289   0.034043   0.012064   0.026705   0.008649
     7  N    6.820740   0.000757  -0.000131  -0.000504  -0.000223  -0.000096
     8  N    0.000757   7.280679   0.162105   0.426363  -0.054545  -0.058573
     9  O   -0.000131   0.162105   7.811112  -0.106408  -0.001945   0.018235
    10  O   -0.000504   0.426363  -0.106408   7.700248   0.019901  -0.002366
    11  H   -0.000223  -0.054545  -0.001945   0.019901   0.488358  -0.000092
    12  H   -0.000096  -0.058573   0.018235  -0.002366  -0.000092   0.495168
    13  H   -0.018201  -0.000926   0.000094   0.000035   0.000011  -0.005049
    14  H   -0.017732  -0.000633   0.000080  -0.000064  -0.004688   0.000011
    15  H    0.330745  -0.000001  -0.000000   0.000001  -0.000009   0.000003
    16  H    0.330622   0.000007   0.000001  -0.000000   0.000003  -0.000009
    17  H    0.000004   0.031060   0.215282   0.012817   0.000005   0.000190
              13         14         15         16         17
     1  C    0.001215   0.089935   0.026094  -0.002378   0.035802
     2  C    0.018435   0.014168  -0.000460  -0.000460   0.023747
     3  C    0.124088  -0.011524  -0.001559   0.024839  -0.047800
     4  C    0.135206   0.022010   0.041245  -0.065439  -0.002299
     5  C    0.038341   0.036870  -0.011967  -0.010987  -0.001139
     6  C    0.014897   0.180554  -0.066098   0.041769   0.003615
     7  N   -0.018201  -0.017732   0.330745   0.330622   0.000004
     8  N   -0.000926  -0.000633  -0.000001   0.000007   0.031060
     9  O    0.000094   0.000080  -0.000000   0.000001   0.215282
    10  O    0.000035  -0.000064   0.000001  -0.000000   0.012817
    11  H    0.000011  -0.004688  -0.000009   0.000003   0.000005
    12  H   -0.005049   0.000011   0.000003  -0.000009   0.000190
    13  H    0.522337  -0.000102  -0.000047   0.004596   0.000000
    14  H   -0.000102   0.519706   0.004616  -0.000049  -0.000000
    15  H   -0.000047   0.004616   0.354854  -0.022589   0.000000
    16  H    0.004596  -0.000049  -0.022589   0.355181  -0.000000
    17  H    0.000000  -0.000000   0.000000  -0.000000   0.334251
 Mulliken charges:
               1
     1  C   -0.034568
     2  C   -0.379155
     3  C    0.200262
     4  C    0.018526
     5  C    0.209835
     6  C    0.054229
     7  N   -0.553346
     8  N   -0.344231
     9  O   -0.022464
    10  O    0.042303
    11  H    0.196755
    12  H    0.195413
    13  H    0.165070
    14  H    0.166841
    15  H    0.345172
    16  H    0.344894
    17  H    0.394465
 Sum of Mulliken charges =   1.00000
 Mulliken charges with hydrogens summed into heavy atoms:
               1
     1  C    0.162187
     2  C   -0.379155
     3  C    0.395675
     4  C    0.183596
     5  C    0.209835
     6  C    0.221070
     7  N    0.136720
     8  N   -0.344231
     9  O    0.372001
    10  O    0.042303
 Electronic spatial extent (au):  <R**2>=           1550.6688
 Charge=              1.0000 electrons
 Dipole moment (field-independent basis, Debye):
    X=             -3.6897    Y=             -1.1133    Z=              0.0001  Tot=              3.8540
 Quadrupole moment (field-independent basis, Debye-Ang):
   XX=             -8.6373   YY=            -44.9050   ZZ=            -58.5674
   XY=             -4.7548   XZ=             -0.0001   YZ=             -0.0001
 Traceless Quadrupole moment (field-independent basis, Debye-Ang):
   XX=             28.7327   YY=             -7.5351   ZZ=            -21.1975
   XY=             -4.7548   XZ=             -0.0001   YZ=             -0.0001
 Octapole moment (field-independent basis, Debye-Ang**2):
  XXX=            -42.2880  YYY=             -1.0152  ZZZ=              0.0004  XYY=            -12.9260
  XXY=            -21.7180  XXZ=              0.0056  XZZ=             11.1101  YZZ=              0.3203
  YYZ=              0.0005  XYZ=             -0.0011
 Hexadecapole moment (field-independent basis, Debye-Ang**3):
 XXXX=           -682.5567 YYYY=           -338.8479 ZZZZ=            -59.1954 XXXY=            -81.1860
 XXXZ=              0.0084 YYYX=             -3.5217 YYYZ=              0.0001 ZZZX=              0.0060
 ZZZY=             -0.0003 XXYY=           -247.6863 XXZZ=           -264.8751 YYZZ=            -81.9060
 XXYZ=             -0.0034 YYXZ=              0.0019 ZZXY=              0.4187
 N-N= 5.089516007894D+02 E-N=-2.152301944914D+03  KE= 4.880283302872D+02
 Calling FoFJK, ICntrl=      2127 FMM=F ISym2X=0 I1Cent= 0 IOpClX= 0 NMat=1 NMatS=1 NMatT=0.
 ***** Axes restored to original set *****
 -------------------------------------------------------------------
 Center     Atomic                   Forces (Hartrees/Bohr)
 Number     Number              X              Y              Z
 -------------------------------------------------------------------
      1        6           0.000061965    0.002895429   -0.000004515
      2        6          -0.000036160    0.000200817   -0.000006091
      3        6           0.000220540   -0.002991919   -0.000003911
      4        6          -0.000417264   -0.002542009    0.000000388
      5        6           0.001074349   -0.000031110   -0.000000336
      6        6          -0.000445339    0.002604233    0.000000325
      7        7          -0.002759096   -0.000045008    0.000000001
      8        7          -0.006550963   -0.000497881    0.000036780
      9        8           0.003579960   -0.006823768   -0.000009637
     10        8           0.005496029    0.007914559   -0.000013652
     11        1          -0.000250047   -0.000407548    0.000000159
     12        1          -0.000354976    0.000433779   -0.000000161
     13        1          -0.000013385    0.000254281    0.000000701
     14        1          -0.000006521   -0.000254851    0.000000853
     15        1          -0.000781661    0.000696811    0.000000040
     16        1          -0.000750928   -0.000735297    0.000000039
     17        1           0.001933498   -0.000670518   -0.000000983
 -------------------------------------------------------------------
 Cartesian Forces:  Max     0.007914559 RMS     0.002179531

 GradGradGradGradGradGradGradGradGradGradGradGradGradGradGradGradGradGrad
 Berny optimization.
 FormGI is forming the generalized inverse of G from B-inverse, IUseBI=4.
 GSVD:  received Info=                   1 from GESDD.
 Internal  Forces:  Max     0.009634646 RMS     0.001901016
 Search for a local minimum.
 Step number   1 out of a maximum of   86
 All quantities printed in internal units (Hartrees-Bohrs-Radians)
 Mixed Optimization -- RFO/linear search
 Second derivative matrix not updated -- first step.
 ITU=  0
     Eigenvalues ---    0.01727   0.01822   0.01848   0.01947   0.02012
     Eigenvalues ---    0.02055   0.02061   0.02152   0.02152   0.02156
     Eigenvalues ---    0.02278   0.02295   0.02574   0.02574   0.16000
     Eigenvalues ---    0.16000   0.16000   0.16000   0.16000   0.16000
     Eigenvalues ---    0.16000   0.22000   0.22950   0.24000   0.25000
     Eigenvalues ---    0.25000   0.25000   0.25000   0.35324   0.35328
     Eigenvalues ---    0.35441   0.35585   0.38330   0.39823   0.41618
     Eigenvalues ---    0.41716   0.45926   0.45931   0.49063   0.51697
     Eigenvalues ---    0.51913   0.52055   0.52912   0.58737   0.99125
 RFO step:  Lambda=-4.80265760D-04 EMin= 1.72716356D-02
 Linear search not attempted -- first point.
 Iteration  1 RMS(Cart)=  0.00842891 RMS(Int)=  0.00001054
 Iteration  2 RMS(Cart)=  0.00000924 RMS(Int)=  0.00000040
 Iteration  3 RMS(Cart)=  0.00000000 RMS(Int)=  0.00000040
 Variable       Old X    -DE/DX   Delta X   Delta X   Delta X     New X
                                 (Linear)    (Quad)   (Total)
    R1        2.68821   0.00336   0.00000   0.00805   0.00805   2.69627
    R2        2.57735   0.00203   0.00000   0.00388   0.00388   2.58123
    R3        2.04966  -0.00048   0.00000  -0.00135  -0.00135   2.04831
    R4        2.68755   0.00344   0.00000   0.00823   0.00823   2.69578
    R5        2.57982   0.00445   0.00000   0.00856   0.00856   2.58838
    R6        2.57967   0.00207   0.00000   0.00399   0.00399   2.58366
    R7        2.04736  -0.00056   0.00000  -0.00156  -0.00156   2.04580
    R8        2.70202   0.00267   0.00000   0.00643   0.00643   2.70845
    R9        2.05145  -0.00022   0.00000  -0.00061  -0.00061   2.05084
   R10        2.70289   0.00273   0.00000   0.00658   0.00658   2.70947
   R11        2.51954   0.00429   0.00000   0.00730   0.00730   2.52684
   R12        2.05152  -0.00021   0.00000  -0.00061  -0.00061   2.05091
   R13        1.90915   0.00101   0.00000   0.00219   0.00219   1.91135
   R14        1.90909   0.00102   0.00000   0.00221   0.00221   1.91130
   R15        2.57036   0.00920   0.00000   0.01737   0.01737   2.58773
   R16        2.28991   0.00963   0.00000   0.00971   0.00971   2.29963
   R17        1.84891   0.00172   0.00000   0.00333   0.00333   1.85224
    A1        2.08409   0.00034   0.00000   0.00157   0.00158   2.08567
    A2        2.08642  -0.00016   0.00000  -0.00069  -0.00069   2.08573
    A3        2.11267  -0.00019   0.00000  -0.00088  -0.00088   2.11179
    A4        2.11336  -0.00082   0.00000  -0.00313  -0.00313   2.11023
    A5        2.05350   0.00026   0.00000   0.00096   0.00096   2.05446
    A6        2.11633   0.00056   0.00000   0.00217   0.00217   2.11850
    A7        2.07993   0.00030   0.00000   0.00139   0.00139   2.08132
    A8        2.10149  -0.00007   0.00000  -0.00020  -0.00020   2.10128
    A9        2.10177  -0.00023   0.00000  -0.00119  -0.00119   2.10058
   A10        2.10455   0.00021   0.00000   0.00076   0.00076   2.10531
   A11        2.09259   0.00003   0.00000   0.00048   0.00048   2.09307
   A12        2.08605  -0.00025   0.00000  -0.00124  -0.00124   2.08481
   A13        2.08340  -0.00022   0.00000  -0.00121  -0.00121   2.08219
   A14        2.10027   0.00010   0.00000   0.00057   0.00057   2.10084
   A15        2.09951   0.00012   0.00000   0.00064   0.00064   2.10016
   A16        2.10104   0.00019   0.00000   0.00062   0.00062   2.10166
   A17        2.09468   0.00005   0.00000   0.00057   0.00057   2.09525
   A18        2.08747  -0.00024   0.00000  -0.00120  -0.00119   2.08628
   A19        2.12124   0.00019   0.00000   0.00115   0.00115   2.12239
   A20        2.12196   0.00017   0.00000   0.00105   0.00105   2.12302
   A21        2.03999  -0.00035   0.00000  -0.00221  -0.00221   2.03778
   A22        2.00531   0.00086   0.00000   0.00343   0.00343   2.00874
   A23        2.21180  -0.00023   0.00000  -0.00093  -0.00093   2.21087
   A24        2.06608  -0.00063   0.00000  -0.00250  -0.00250   2.06358
   A25        1.81977   0.00204   0.00000   0.01274   0.01274   1.83250
    D1       -0.00003   0.00000   0.00000   0.00008   0.00008   0.00005
    D2        3.14159   0.00000   0.00000   0.00001   0.00001  -3.14159
    D3        3.14158   0.00000   0.00000   0.00003   0.00003  -3.14157
    D4        0.00001  -0.00000   0.00000  -0.00004  -0.00004  -0.00002
    D5        0.00001  -0.00000   0.00000  -0.00004  -0.00004  -0.00002
    D6       -3.14158  -0.00000   0.00000  -0.00005  -0.00005   3.14156
    D7        3.14159   0.00000   0.00000   0.00001   0.00001  -3.14159
    D8        0.00000  -0.00000   0.00000  -0.00000  -0.00000  -0.00000
    D9        0.00003  -0.00000   0.00000  -0.00008  -0.00008  -0.00005
   D10       -3.14158  -0.00000   0.00000  -0.00004  -0.00004   3.14157
   D11       -3.14159  -0.00000   0.00000  -0.00001  -0.00001   3.14159
   D12       -0.00001   0.00000   0.00000   0.00003   0.00003   0.00002
   D13        3.14143   0.00001   0.00000   0.00051   0.00051  -3.14125
   D14        0.00014  -0.00001   0.00000  -0.00044  -0.00044  -0.00030
   D15       -0.00014   0.00001   0.00000   0.00044   0.00044   0.00029
   D16       -3.14143  -0.00001   0.00000  -0.00051  -0.00051   3.14125
   D17       -0.00001   0.00000   0.00000   0.00003   0.00003   0.00002
   D18        3.14158   0.00000   0.00000   0.00004   0.00004  -3.14157
   D19       -3.14159  -0.00000   0.00000  -0.00000  -0.00000   3.14159
   D20       -0.00000   0.00000   0.00000   0.00001   0.00001   0.00000
   D21       -0.00000   0.00000   0.00000   0.00001   0.00001   0.00000
   D22        3.14159   0.00000   0.00000   0.00001   0.00001  -3.14159
   D23        3.14159  -0.00000   0.00000   0.00000   0.00000  -3.14159
   D24        0.00000  -0.00000   0.00000  -0.00000  -0.00000  -0.00000
   D25        0.00000  -0.00000   0.00000  -0.00001  -0.00001  -0.00000
   D26        3.14159   0.00000   0.00000   0.00001   0.00001  -3.14159
   D27       -3.14159  -0.00000   0.00000  -0.00000  -0.00000   3.14159
   D28       -0.00000   0.00000   0.00000   0.00001   0.00001   0.00000
   D29        3.14159  -0.00000   0.00000   0.00000   0.00000  -3.14159
   D30       -0.00000   0.00000   0.00000   0.00000   0.00000  -0.00000
   D31        0.00000  -0.00000   0.00000  -0.00000  -0.00000  -0.00000
   D32        3.14159   0.00000   0.00000  -0.00000  -0.00000   3.14159
   D33       -3.14143  -0.00001   0.00000  -0.00049  -0.00049   3.14126
   D34       -0.00012   0.00001   0.00000   0.00037   0.00037   0.00025
         Item               Value     Threshold  Converged?
 Maximum Force            0.009635     0.000450     NO 
 RMS     Force            0.001901     0.000300     NO 
 Maximum Displacement     0.038823     0.001800     NO 
 RMS     Displacement     0.008431     0.001200     NO 
 Predicted change in Energy=-2.403765D-04
 GradGradGradGradGradGradGradGradGradGradGradGradGradGradGradGradGradGrad

                          Input orientation:                          
 ---------------------------------------------------------------------
 Center     Atomic      Atomic             Coordinates (Angstroms)
 Number     Number       Type             X           Y           Z
 ---------------------------------------------------------------------
      1          6           0       -0.058514    1.263651    0.000076
      2          6           0        0.670489    0.037144    0.000156
      3          6           0       -0.007278   -1.218111    0.000113
      4          6           0       -1.374329   -1.239206    0.000052
      5          6           0       -2.123400   -0.017281    0.000005
      6          6           0       -1.424129    1.234424    0.000016
      7          7           0       -3.460281   -0.043883   -0.000049
      8          7           0        2.038308    0.109173    0.000221
      9          8           0        2.683433   -1.098712   -0.000124
     10          8           0        2.712779    1.122068   -0.000072
     11          1           0        0.479683    2.204514    0.000090
     12          1           0        0.554158   -2.143741    0.000149
     13          1           0       -1.901134   -2.188028    0.000044
     14          1           0       -1.987557    2.162009   -0.000016
     15          1           0       -4.007354    0.806836   -0.000083
     16          1           0       -3.973614   -0.915349   -0.000058
     17          1           0        3.638040   -0.876362   -0.000342
 ---------------------------------------------------------------------
                    Distance matrix (angstroms):
                    1          2          3          4          5
     1  C    0.000000
     2  C    1.426802   0.000000
     3  C    2.482291   1.426546   0.000000
     4  C    2.827661   2.410468   1.367214   0.000000
     5  C    2.429926   2.794420   2.433098   1.433251   0.000000
     6  C    1.365928   2.412655   2.832384   2.474132   1.433788
     7  N    3.644402   4.131565   3.647197   2.404162   1.337146
     8  N    2.393634   1.369714   2.438463   3.669363   4.163629
     9  O    3.619258   2.311301   2.693359   4.060194   4.926980
    10  O    2.774907   2.312576   3.588196   4.720177   4.968576
    11  H    1.083918   2.175752   3.457093   3.911083   3.422340
    12  H    3.462035   2.183985   1.082590   2.130082   3.419233
    13  H    3.912715   3.400682   2.127776   1.085259   2.182097
    14  H    2.127970   3.402979   3.917489   3.456055   2.183520
    15  H    3.975175   4.740743   4.483416   3.334533   2.056320
    16  H    4.480631   4.740774   3.977875   2.619382   2.056652
    17  H    4.271319   3.104972   3.661303   5.025486   5.825137
                    6          7          8          9         10
     6  C    0.000000
     7  N    2.404160   0.000000
     8  N    3.640695   5.500719   0.000000
     9  O    4.723938   6.233610   1.369369   0.000000
    10  O    4.138434   6.282206   1.216910   2.220974   0.000000
    11  H    2.136720   4.536364   2.611468   3.970871   2.481614
    12  H    3.914795   4.530467   2.697837   2.371897   3.914736
    13  H    3.455534   2.651094   4.560300   4.712204   5.678463
    14  H    1.085295   2.652334   4.519041   5.696529   4.814004
    15  H    2.618374   1.011440   6.085784   6.956848   6.727523
    16  H    3.334877   1.011417   6.098594   6.659572   6.989916
    17  H    5.484613   7.146971   1.878942   0.980161   2.202234
                   11         12         13         14         15
    11  H    0.000000
    12  H    4.348892   0.000000
    13  H    4.996270   2.455692   0.000000
    14  H    2.467606   4.999980   4.350896   0.000000
    15  H    4.699681   5.432614   3.661335   2.432298   0.000000
    16  H    5.437407   4.691446   2.432053   3.662589   1.722516
    17  H    4.412145   3.334153   5.692357   6.393672   7.828487
                   16         17
    16  H    0.000000
    17  H    7.611754   0.000000
 Stoichiometry    C6H7N2O2(1+)
 Framework group  C1[X(C6H7N2O2)]
 Deg. of freedom    45
 Full point group                 C1      NOp   1
 Largest Abelian subgroup         C1      NOp   1
 Largest concise Abelian subgroup C1      NOp   1
                         Standard orientation:                         
 ---------------------------------------------------------------------
 Center     Atomic      Atomic             Coordinates (Angstroms)
 Number     Number       Type             X           Y           Z
 ---------------------------------------------------------------------
      1          6           0       -0.060175    1.262859    0.000049
      2          6           0        0.668910    0.036401    0.000129
      3          6           0       -0.008775   -1.218899    0.000086
      4          6           0       -1.375825   -1.240085    0.000026
      5          6           0       -2.124976   -0.018209   -0.000021
      6          6           0       -1.425788    1.233543   -0.000010
      7          7           0       -3.461856   -0.044899   -0.000075
      8          7           0        2.036724    0.108520    0.000195
      9          8           0        2.681928   -1.099322   -0.000151
     10          8           0        2.711128    1.121460   -0.000098
     11          1           0        0.477960    2.203758    0.000064
     12          1           0        0.552723   -2.144492    0.000122
     13          1           0       -1.902567   -2.188941    0.000017
     14          1           0       -1.989277    2.161090   -0.000042
     15          1           0       -4.008984    0.805784   -0.000109
     16          1           0       -3.975131   -0.916400   -0.000085
     17          1           0        3.636521   -0.876909   -0.000368
 ---------------------------------------------------------------------
 Rotational constants (GHZ):      3.7531346      0.8170931      0.6710083
 Standard basis: 6-31+G(d,p) (6D, 7F)
 There are   225 symmetry adapted cartesian basis functions of A   symmetry.
 There are   225 symmetry adapted basis functions of A   symmetry.
   225 basis functions,   369 primitive gaussians,   225 cartesian basis functions
    36 alpha electrons       36 beta electrons
       nuclear repulsion energy       507.3288187706 Hartrees.
 NAtoms=   17 NActive=   17 NUniq=   17 SFac= 1.00D+00 NAtFMM=   60 NAOKFM=F Big=F
 Integral buffers will be    131072 words long.
 Raffenetti 2 integral format.
 Two-electron integral symmetry is turned on.
 Nuclear repulsion after empirical dispersion term =      507.3172683375 Hartrees.
 One-electron integrals computed using PRISM.
 NBasis=   225 RedAO= T EigKep=  3.41D-06  NBF=   225
 NBsUse=   225 1.00D-06 EigRej= -1.00D+00 NBFU=   225
 Initial guess from the checkpoint file:  "b3lypD3PNAyang.chk"
 B after Tr=    -0.000000   -0.000000   -0.000000
         Rot=    1.000000   -0.000001    0.000002   -0.000219 Ang=  -0.03 deg.
 ExpMin= 4.38D-02 ExpMax= 5.48D+03 ExpMxC= 8.25D+02 IAcc=2 IRadAn=         4 AccDes= 0.00D+00
 Harris functional with IExCor=  402 and IRadAn=       4 diagonalized for initial guess.
 HarFok:  IExCor=  402 AccDes= 0.00D+00 IRadAn=         4 IDoV= 1 UseB2=F ITyADJ=14
 ICtDFT=  3500011 ScaDFX=  1.000000  1.000000  1.000000  1.000000
 FoFCou: FMM=F IPFlag=           0 FMFlag=      100000 FMFlg1=           0
         NFxFlg=           0 DoJE=T BraDBF=F KetDBF=T FulRan=T
         wScrn=  0.000000 ICntrl=     500 IOpCl=  0 I1Cent=   200000004 NGrid=           0
         NMat0=    1 NMatS0=      1 NMatT0=    0 NMatD0=    1 NMtDS0=    0 NMtDT0=    0
 Petite list used in FoFCou.
 Keep R1 ints in memory in canonical form, NReq=329175655.
 Requested convergence on RMS density matrix=1.00D-08 within 128 cycles.
 Requested convergence on MAX density matrix=1.00D-06.
 Requested convergence on             energy=1.00D-06.
 No special actions if energy rises.
 SCF Done:  E(RB3LYP) =  -492.505021667     A.U. after   12 cycles
            NFock= 12  Conv=0.28D-08     -V/T= 2.0094
 Calling FoFJK, ICntrl=      2127 FMM=F ISym2X=0 I1Cent= 0 IOpClX= 0 NMat=1 NMatS=1 NMatT=0.
 ***** Axes restored to original set *****
 -------------------------------------------------------------------
 Center     Atomic                   Forces (Hartrees/Bohr)
 Number     Number              X              Y              Z
 -------------------------------------------------------------------
      1        6          -0.000174169    0.000054826    0.000008964
      2        6           0.000780047   -0.000534378    0.000012046
      3        6          -0.000177355    0.000046660    0.000007768
      4        6           0.000199921    0.000074117   -0.000000951
      5        6           0.000139618   -0.000042067    0.000000958
      6        6           0.000240487   -0.000064768   -0.000000711
      7        7           0.000364590    0.000018652    0.000000006
      8        7          -0.001439392    0.001614570   -0.000077608
      9        8          -0.000279826   -0.003174035    0.000020223
     10        8           0.000441735    0.000991589    0.000029277
     11        1           0.000061228   -0.000001126   -0.000000264
     12        1           0.000188586   -0.000006606    0.000000352
     13        1           0.000003277    0.000034946   -0.000001350
     14        1           0.000012449   -0.000032540   -0.000001628
     15        1           0.000046094    0.000031516   -0.000000012
     16        1           0.000049413   -0.000030647   -0.000000017
     17        1          -0.000456704    0.001019290    0.000002946
 -------------------------------------------------------------------
 Cartesian Forces:  Max     0.003174035 RMS     0.000602874

 GradGradGradGradGradGradGradGradGradGradGradGradGradGradGradGradGradGrad
 Berny optimization.
 Using GEDIIS/GDIIS optimizer.
 FormGI is forming the generalized inverse of G from B-inverse, IUseBI=4.
 GSVD:  received Info=                   1 from GESDD.
 Internal  Forces:  Max     0.002032382 RMS     0.000452290
 Search for a local minimum.
 Step number   2 out of a maximum of   86
 All quantities printed in internal units (Hartrees-Bohrs-Radians)
 Mixed Optimization -- En-DIIS/RFO-DIIS
 Update second derivatives using D2CorX and points    1    2
 DE= -2.23D-04 DEPred=-2.40D-04 R= 9.28D-01
 TightC=F SS=  1.41D+00  RLast= 3.19D-02 DXNew= 5.0454D-01 9.5605D-02
 Trust test= 9.28D-01 RLast= 3.19D-02 DXMaxT set to 3.00D-01
 ITU=  1  0
 Use linear search instead of GDIIS.
     Eigenvalues ---    0.01727   0.01822   0.01848   0.01948   0.02012
     Eigenvalues ---    0.02056   0.02061   0.02152   0.02152   0.02156
     Eigenvalues ---    0.02278   0.02295   0.02574   0.02574   0.15970
     Eigenvalues ---    0.16000   0.16000   0.16000   0.16000   0.16000
     Eigenvalues ---    0.17267   0.22001   0.22961   0.24177   0.24997
     Eigenvalues ---    0.25000   0.25000   0.25501   0.35317   0.35327
     Eigenvalues ---    0.35444   0.35605   0.38330   0.39816   0.41679
     Eigenvalues ---    0.41920   0.45671   0.45928   0.47189   0.49074
     Eigenvalues ---    0.51714   0.52030   0.56045   0.61191   0.95058
 RFO step:  Lambda=-4.69131981D-05 EMin= 1.72714434D-02
 Quartic linear search produced a step of -0.06183.
 Iteration  1 RMS(Cart)=  0.00285143 RMS(Int)=  0.00000562
 Iteration  2 RMS(Cart)=  0.00000883 RMS(Int)=  0.00000010
 Iteration  3 RMS(Cart)=  0.00000000 RMS(Int)=  0.00000010
 Variable       Old X    -DE/DX   Delta X   Delta X   Delta X     New X
                                 (Linear)    (Quad)   (Total)
    R1        2.69627  -0.00025  -0.00050   0.00071   0.00021   2.69648
    R2        2.58123  -0.00053  -0.00024  -0.00033  -0.00057   2.58066
    R3        2.04831   0.00003   0.00008  -0.00014  -0.00005   2.04826
    R4        2.69578  -0.00036  -0.00051   0.00048  -0.00003   2.69575
    R5        2.58838  -0.00171  -0.00053  -0.00173  -0.00226   2.58613
    R6        2.58366  -0.00053  -0.00025  -0.00032  -0.00057   2.58309
    R7        2.04580   0.00010   0.00010   0.00003   0.00012   2.04592
    R8        2.70845  -0.00019  -0.00040   0.00059   0.00019   2.70864
    R9        2.05084  -0.00003   0.00004  -0.00018  -0.00014   2.05070
   R10        2.70947  -0.00014  -0.00041   0.00074   0.00034   2.70980
   R11        2.52684  -0.00046  -0.00045   0.00042  -0.00003   2.52681
   R12        2.05091  -0.00003   0.00004  -0.00019  -0.00015   2.05076
   R13        1.91135   0.00000  -0.00014   0.00035   0.00021   1.91156
   R14        1.91130   0.00000  -0.00014   0.00035   0.00022   1.91152
   R15        2.58773   0.00155  -0.00107   0.00551   0.00443   2.59217
   R16        2.29963   0.00107  -0.00060   0.00256   0.00196   2.30158
   R17        1.85224  -0.00021  -0.00021   0.00014  -0.00006   1.85217
    A1        2.08567  -0.00029  -0.00010  -0.00091  -0.00101   2.08466
    A2        2.08573   0.00009   0.00004   0.00015   0.00019   2.08592
    A3        2.11179   0.00020   0.00005   0.00076   0.00081   2.11260
    A4        2.11023   0.00050   0.00019   0.00141   0.00160   2.11184
    A5        2.05446  -0.00003  -0.00006   0.00003  -0.00003   2.05443
    A6        2.11850  -0.00047  -0.00013  -0.00144  -0.00157   2.11692
    A7        2.08132  -0.00021  -0.00009  -0.00063  -0.00071   2.08060
    A8        2.10128  -0.00006   0.00001  -0.00056  -0.00055   2.10074
    A9        2.10058   0.00027   0.00007   0.00119   0.00126   2.10184
   A10        2.10531  -0.00018  -0.00005  -0.00057  -0.00061   2.10469
   A11        2.09307   0.00010  -0.00003   0.00050   0.00047   2.09354
   A12        2.08481   0.00008   0.00008   0.00007   0.00014   2.08495
   A13        2.08219   0.00031   0.00007   0.00105   0.00113   2.08332
   A14        2.10084  -0.00015  -0.00004  -0.00051  -0.00054   2.10030
   A15        2.10016  -0.00016  -0.00004  -0.00054  -0.00058   2.09957
   A16        2.10166  -0.00013  -0.00004  -0.00036  -0.00040   2.10126
   A17        2.09525   0.00007  -0.00004   0.00036   0.00032   2.09558
   A18        2.08628   0.00006   0.00007   0.00000   0.00007   2.08635
   A19        2.12239  -0.00003  -0.00007  -0.00001  -0.00008   2.12231
   A20        2.12302  -0.00004  -0.00007  -0.00007  -0.00013   2.12288
   A21        2.03778   0.00007   0.00014   0.00008   0.00022   2.03800
   A22        2.00874  -0.00137  -0.00021  -0.00462  -0.00483   2.00390
   A23        2.21087   0.00048   0.00006   0.00165   0.00170   2.21257
   A24        2.06358   0.00090   0.00015   0.00297   0.00313   2.06671
   A25        1.83250  -0.00203  -0.00079  -0.00992  -0.01071   1.82179
    D1        0.00005  -0.00000  -0.00000  -0.00014  -0.00014  -0.00009
    D2       -3.14159  -0.00000  -0.00000  -0.00002  -0.00002   3.14158
    D3       -3.14157  -0.00000  -0.00000  -0.00006  -0.00006   3.14155
    D4       -0.00002   0.00000   0.00000   0.00006   0.00007   0.00004
    D5       -0.00002   0.00000   0.00000   0.00006   0.00007   0.00004
    D6        3.14156   0.00000   0.00000   0.00008   0.00009  -3.14154
    D7       -3.14159  -0.00000  -0.00000  -0.00002  -0.00002   3.14158
    D8       -0.00000   0.00000   0.00000   0.00000   0.00000   0.00000
    D9       -0.00005   0.00000   0.00000   0.00013   0.00014   0.00009
   D10        3.14157   0.00000   0.00000   0.00007   0.00008  -3.14154
   D11        3.14159   0.00000   0.00000   0.00001   0.00001  -3.14159
   D12        0.00002  -0.00000  -0.00000  -0.00005  -0.00006  -0.00004
   D13       -3.14125  -0.00002  -0.00003  -0.00090  -0.00093   3.14100
   D14       -0.00030   0.00002   0.00003   0.00078   0.00081   0.00051
   D15        0.00029  -0.00002  -0.00003  -0.00078  -0.00081  -0.00051
   D16        3.14125   0.00002   0.00003   0.00090   0.00093  -3.14100
   D17        0.00002  -0.00000  -0.00000  -0.00006  -0.00006  -0.00004
   D18       -3.14157  -0.00000  -0.00000  -0.00007  -0.00007   3.14155
   D19        3.14159   0.00000   0.00000   0.00000   0.00000  -3.14159
   D20        0.00000  -0.00000  -0.00000  -0.00001  -0.00001  -0.00001
   D21        0.00000  -0.00000  -0.00000  -0.00001  -0.00001  -0.00001
   D22       -3.14159  -0.00000  -0.00000  -0.00001  -0.00001   3.14159
   D23       -3.14159   0.00000  -0.00000   0.00000   0.00000  -3.14159
   D24       -0.00000   0.00000   0.00000   0.00000   0.00000   0.00000
   D25       -0.00000   0.00000   0.00000   0.00001   0.00001   0.00001
   D26       -3.14159  -0.00000  -0.00000  -0.00001  -0.00001   3.14159
   D27        3.14159   0.00000   0.00000   0.00001   0.00001  -3.14159
   D28        0.00000  -0.00000  -0.00000  -0.00001  -0.00001  -0.00001
   D29       -3.14159   0.00000  -0.00000  -0.00000  -0.00000  -3.14159
   D30       -0.00000   0.00000  -0.00000  -0.00000  -0.00000  -0.00000
   D31       -0.00000  -0.00000   0.00000   0.00000   0.00000   0.00000
   D32        3.14159  -0.00000   0.00000   0.00000   0.00000   3.14159
   D33        3.14126   0.00002   0.00003   0.00088   0.00091  -3.14101
   D34        0.00025  -0.00002  -0.00002  -0.00065  -0.00067  -0.00043
         Item               Value     Threshold  Converged?
 Maximum Force            0.002032     0.000450     NO 
 RMS     Force            0.000452     0.000300     NO 
 Maximum Displacement     0.014904     0.001800     NO 
 RMS     Displacement     0.002857     0.001200     NO 
 Predicted change in Energy=-2.437769D-05
 GradGradGradGradGradGradGradGradGradGradGradGradGradGradGradGradGradGrad

                          Input orientation:                          
 ---------------------------------------------------------------------
 Center     Atomic      Atomic             Coordinates (Angstroms)
 Number     Number       Type             X           Y           Z
 ---------------------------------------------------------------------
      1          6           0       -0.058341    1.265222   -0.000104
      2          6           0        0.670233    0.038330   -0.000259
      3          6           0       -0.006010   -1.217730   -0.000178
      4          6           0       -1.372750   -1.239497   -0.000054
      5          6           0       -2.121729   -0.017397    0.000043
      6          6           0       -1.423636    1.235169    0.000017
      7          7           0       -3.458584   -0.044567    0.000155
      8          7           0        2.036885    0.109797   -0.000389
      9          8           0        2.676820   -1.103498    0.000204
     10          8           0        2.714025    1.122158    0.000111
     11          1           0        0.480033    2.205952   -0.000134
     12          1           0        0.557083   -2.142429   -0.000251
     13          1           0       -1.899493   -2.188267   -0.000035
     14          1           0       -1.987891    2.162159    0.000084
     15          1           0       -4.006009    0.806060    0.000224
     16          1           0       -3.971488   -0.916420    0.000175
     17          1           0        3.630153   -0.875896    0.000569
 ---------------------------------------------------------------------
                    Distance matrix (angstroms):
                    1          2          3          4          5
     1  C    0.000000
     2  C    1.426915   0.000000
     3  C    2.483504   1.426531   0.000000
     4  C    2.828656   2.409693   1.366913   0.000000
     5  C    2.429544   2.792519   2.432502   1.433353   0.000000
     6  C    1.365626   2.411787   2.833086   2.475190   1.433965
     7  N    3.643790   4.129650   3.646447   2.403864   1.337131
     8  N    2.392693   1.368519   2.436340   3.666907   4.160559
     9  O    3.618279   2.308714   2.685261   4.051853   4.919928
    10  O    2.776055   2.313389   3.587989   4.720079   4.968209
    11  H    1.083890   2.175951   3.458011   3.912023   3.422345
    12  H    3.462779   2.183693   1.082655   2.130619   3.419327
    13  H    3.913621   3.400180   2.127726   1.085182   2.182215
    14  H    2.127829   3.402393   3.918099   3.456829   2.183661
    15  H    3.974282   4.738845   4.482824   3.334420   2.056354
    16  H    4.480210   4.738895   3.976909   2.618744   2.056660
    17  H    4.264901   3.097892   3.652196   5.016099   5.815598
                    6          7          8          9         10
     6  C    0.000000
     7  N    2.403901   0.000000
     8  N    3.638911   5.497637   0.000000
     9  O    4.720498   6.226116   1.371715   0.000000
    10  O    4.139204   6.281907   1.217946   2.225966   0.000000
    11  H    2.136908   4.536248   2.611064   3.972195   2.483009
    12  H    3.915536   4.530630   2.694873   2.360649   3.912790
    13  H    3.456349   2.650700   4.558088   4.703123   5.678332
    14  H    1.085216   2.651901   4.517855   5.694211   4.815560
    15  H    2.617782   1.011553   6.082874   6.950296   6.727464
    16  H    3.334799   1.011532   6.095382   6.650940   6.989412
    17  H    5.476987   7.137318   1.873525   0.980126   2.198069
                   11         12         13         14         15
    11  H    0.000000
    12  H    4.349064   0.000000
    13  H    4.997129   2.457003   0.000000
    14  H    2.468312   5.000637   4.351323   0.000000
    15  H    4.699390   5.432807   3.661065   2.431420   0.000000
    16  H    5.437393   4.691594   2.431206   3.662281   1.722825
    17  H    4.406932   3.323834   5.683248   6.386877   7.819204
                   16         17
    16  H    0.000000
    17  H    7.601750   0.000000
 Stoichiometry    C6H7N2O2(1+)
 Framework group  C1[X(C6H7N2O2)]
 Deg. of freedom    45
 Full point group                 C1      NOp   1
 Largest Abelian subgroup         C1      NOp   1
 Largest concise Abelian subgroup C1      NOp   1
                         Standard orientation:                         
 ---------------------------------------------------------------------
 Center     Atomic      Atomic             Coordinates (Angstroms)
 Number     Number       Type             X           Y           Z
 ---------------------------------------------------------------------
      1          6           0       -0.059921    1.264645   -0.000081
      2          6           0        0.668806    0.037843   -0.000236
      3          6           0       -0.007281   -1.218301   -0.000154
      4          6           0       -1.374018   -1.240239   -0.000031
      5          6           0       -2.123150   -0.018232    0.000066
      6          6           0       -1.425213    1.234421    0.000040
      7          7           0       -3.460001   -0.045569    0.000179
      8          7           0        2.035449    0.109481   -0.000366
      9          8           0        2.675535   -1.103734    0.000227
     10          8           0        2.712462    1.121926    0.000134
     11          1           0        0.478335    2.205442   -0.000111
     12          1           0        0.555927   -2.142930   -0.000228
     13          1           0       -1.900642   -2.189074   -0.000012
     14          1           0       -1.989583    2.161340    0.000107
     15          1           0       -4.007532    0.804990    0.000247
     16          1           0       -3.972797   -0.917485    0.000198
     17          1           0        3.628840   -0.876013    0.000592
 ---------------------------------------------------------------------
 Rotational constants (GHZ):      3.7462863      0.8183474      0.6716341
 Standard basis: 6-31+G(d,p) (6D, 7F)
 There are   225 symmetry adapted cartesian basis functions of A   symmetry.
 There are   225 symmetry adapted basis functions of A   symmetry.
   225 basis functions,   369 primitive gaussians,   225 cartesian basis functions
    36 alpha electrons       36 beta electrons
       nuclear repulsion energy       507.3863928844 Hartrees.
 NAtoms=   17 NActive=   17 NUniq=   17 SFac= 1.00D+00 NAtFMM=   60 NAOKFM=F Big=F
 Integral buffers will be    131072 words long.
 Raffenetti 2 integral format.
 Two-electron integral symmetry is turned on.
 Nuclear repulsion after empirical dispersion term =      507.3748454950 Hartrees.
 One-electron integrals computed using PRISM.
 NBasis=   225 RedAO= T EigKep=  3.41D-06  NBF=   225
 NBsUse=   225 1.00D-06 EigRej= -1.00D+00 NBFU=   225
 Initial guess from the checkpoint file:  "b3lypD3PNAyang.chk"
 B after Tr=     0.000000    0.000000    0.000000
         Rot=    1.000000    0.000002   -0.000005    0.000104 Ang=   0.01 deg.
 Keep R1 ints in memory in canonical form, NReq=329175655.
 Requested convergence on RMS density matrix=1.00D-08 within 128 cycles.
 Requested convergence on MAX density matrix=1.00D-06.
 Requested convergence on             energy=1.00D-06.
 No special actions if energy rises.
 SCF Done:  E(RB3LYP) =  -492.505043639     A.U. after   11 cycles
            NFock= 11  Conv=0.36D-08     -V/T= 2.0094
 Calling FoFJK, ICntrl=      2127 FMM=F ISym2X=0 I1Cent= 0 IOpClX= 0 NMat=1 NMatS=1 NMatT=0.
 ***** Axes restored to original set *****
 -------------------------------------------------------------------
 Center     Atomic                   Forces (Hartrees/Bohr)
 Number     Number              X              Y              Z
 -------------------------------------------------------------------
      1        6          -0.000238052   -0.000176847   -0.000015719
      2        6           0.000627699    0.000082376   -0.000020779
      3        6          -0.000299904    0.000089721   -0.000013555
      4        6           0.000119568    0.000168277    0.000001684
      5        6          -0.000135169    0.000000417   -0.000001753
      6        6           0.000108283   -0.000136774    0.000001262
      7        7           0.000334293    0.000014640   -0.000000040
      8        7          -0.001701090    0.001350584    0.000134553
      9        8           0.001057547   -0.000376794   -0.000035233
     10        8          -0.000041621   -0.000904140   -0.000050970
     11        1           0.000070623    0.000007234    0.000000444
     12        1          -0.000003397    0.000024177   -0.000000616
     13        1          -0.000033545    0.000000465    0.000002358
     14        1          -0.000041244   -0.000002504    0.000002873
     15        1           0.000071121   -0.000058055    0.000000035
     16        1           0.000068937    0.000062217    0.000000058
     17        1           0.000035950   -0.000144994   -0.000004602
 -------------------------------------------------------------------
 Cartesian Forces:  Max     0.001701090 RMS     0.000387502

 GradGradGradGradGradGradGradGradGradGradGradGradGradGradGradGradGradGrad
 Berny optimization.
 Using GEDIIS/GDIIS optimizer.
 FormGI is forming the generalized inverse of G from B-inverse, IUseBI=4.
 GSVD:  received Info=                   1 from GESDD.
 Internal  Forces:  Max     0.000970512 RMS     0.000230008
 Search for a local minimum.
 Step number   3 out of a maximum of   86
 All quantities printed in internal units (Hartrees-Bohrs-Radians)
 Mixed Optimization -- En-DIIS/RFO-DIIS
 Swapping is turned off.
 Update second derivatives using D2CorX and points    1    2    3
 DE= -2.20D-05 DEPred=-2.44D-05 R= 9.01D-01
 TightC=F SS=  1.41D+00  RLast= 1.40D-02 DXNew= 5.0454D-01 4.2080D-02
 Trust test= 9.01D-01 RLast= 1.40D-02 DXMaxT set to 3.00D-01
 ITU=  1  1  0
     Eigenvalues ---    0.01727   0.01822   0.01848   0.01948   0.02012
     Eigenvalues ---    0.02061   0.02067   0.02152   0.02152   0.02156
     Eigenvalues ---    0.02278   0.02295   0.02574   0.02574   0.15529
     Eigenvalues ---    0.16000   0.16000   0.16000   0.16000   0.16010
     Eigenvalues ---    0.16534   0.22005   0.22957   0.23307   0.24589
     Eigenvalues ---    0.25000   0.25000   0.33827   0.35301   0.35327
     Eigenvalues ---    0.35445   0.35664   0.38310   0.39572   0.40255
     Eigenvalues ---    0.41777   0.42958   0.45928   0.46112   0.49076
     Eigenvalues ---    0.51726   0.52056   0.55715   0.60457   1.02572
 En-DIIS/RFO-DIIS IScMMF=        0 using points:     3    2
 RFO step:  Lambda=-5.78490069D-06.
 DidBck=F Rises=F RFO-DIIS coefs:    0.90869    0.09131
 Iteration  1 RMS(Cart)=  0.00110292 RMS(Int)=  0.00000143
 Iteration  2 RMS(Cart)=  0.00000159 RMS(Int)=  0.00000041
 Iteration  3 RMS(Cart)=  0.00000000 RMS(Int)=  0.00000041
 Variable       Old X    -DE/DX   Delta X   Delta X   Delta X     New X
                                 (Linear)    (Quad)   (Total)
    R1        2.69648  -0.00014  -0.00002  -0.00016  -0.00018   2.69630
    R2        2.58066  -0.00025   0.00005  -0.00056  -0.00050   2.58015
    R3        2.04826   0.00004   0.00000   0.00008   0.00008   2.04834
    R4        2.69575  -0.00007   0.00000  -0.00007  -0.00006   2.69569
    R5        2.58613  -0.00065   0.00021  -0.00169  -0.00148   2.58464
    R6        2.58309  -0.00024   0.00005  -0.00055  -0.00049   2.58260
    R7        2.04592  -0.00002  -0.00001  -0.00004  -0.00005   2.04587
    R8        2.70864  -0.00023  -0.00002  -0.00040  -0.00042   2.70822
    R9        2.05070   0.00002   0.00001  -0.00001   0.00001   2.05071
   R10        2.70980  -0.00025  -0.00003  -0.00042  -0.00045   2.70935
   R11        2.52681  -0.00047   0.00000  -0.00067  -0.00067   2.52614
   R12        2.05076   0.00002   0.00001   0.00000   0.00002   2.05078
   R13        1.91156  -0.00009  -0.00002  -0.00009  -0.00011   1.91145
   R14        1.91152  -0.00009  -0.00002  -0.00009  -0.00011   1.91141
   R15        2.59217   0.00097  -0.00040   0.00307   0.00266   2.59483
   R16        2.30158  -0.00077  -0.00018  -0.00007  -0.00025   2.30134
   R17        1.85217   0.00000   0.00001   0.00002   0.00002   1.85219
    A1        2.08466   0.00004   0.00009  -0.00009   0.00001   2.08467
    A2        2.08592  -0.00008  -0.00002  -0.00037  -0.00039   2.08553
    A3        2.11260   0.00004  -0.00007   0.00046   0.00039   2.11299
    A4        2.11184  -0.00005  -0.00015   0.00028   0.00013   2.11196
    A5        2.05443  -0.00019   0.00000  -0.00070  -0.00070   2.05373
    A6        2.11692   0.00024   0.00014   0.00043   0.00057   2.11749
    A7        2.08060  -0.00001   0.00007  -0.00021  -0.00015   2.08046
    A8        2.10074  -0.00000   0.00005  -0.00020  -0.00015   2.10059
    A9        2.10184   0.00002  -0.00012   0.00041   0.00030   2.10214
   A10        2.10469  -0.00002   0.00006  -0.00024  -0.00018   2.10451
   A11        2.09354   0.00004  -0.00004   0.00034   0.00030   2.09384
   A12        2.08495  -0.00002  -0.00001  -0.00010  -0.00012   2.08484
   A13        2.08332   0.00009  -0.00010   0.00060   0.00049   2.08381
   A14        2.10030  -0.00004   0.00005  -0.00026  -0.00021   2.10009
   A15        2.09957  -0.00005   0.00005  -0.00033  -0.00028   2.09929
   A16        2.10126  -0.00005   0.00004  -0.00034  -0.00030   2.10096
   A17        2.09558   0.00006  -0.00003   0.00043   0.00040   2.09597
   A18        2.08635  -0.00001  -0.00001  -0.00009  -0.00010   2.08625
   A19        2.12231  -0.00002   0.00001  -0.00011  -0.00010   2.12220
   A20        2.12288  -0.00002   0.00001  -0.00013  -0.00012   2.12276
   A21        2.03800   0.00004  -0.00002   0.00024   0.00022   2.03822
   A22        2.00390   0.00071   0.00044   0.00125   0.00169   2.00560
   A23        2.21257   0.00018  -0.00016   0.00113   0.00097   2.21355
   A24        2.06671  -0.00089  -0.00029  -0.00238  -0.00267   2.06404
   A25        1.82179   0.00028   0.00098  -0.00132  -0.00034   1.82145
    D1       -0.00009   0.00001   0.00001   0.00021   0.00022   0.00013
    D2        3.14158   0.00000   0.00000   0.00002   0.00002  -3.14158
    D3        3.14155   0.00000   0.00001   0.00009   0.00010  -3.14154
    D4        0.00004  -0.00000  -0.00001  -0.00010  -0.00010  -0.00006
    D5        0.00004  -0.00000  -0.00001  -0.00010  -0.00010  -0.00006
    D6       -3.14154  -0.00000  -0.00001  -0.00013  -0.00014   3.14151
    D7        3.14158   0.00000   0.00000   0.00002   0.00002  -3.14158
    D8        0.00000  -0.00000  -0.00000  -0.00001  -0.00001  -0.00000
    D9        0.00009  -0.00001  -0.00001  -0.00021  -0.00022  -0.00013
   D10       -3.14154  -0.00000  -0.00001  -0.00011  -0.00012   3.14152
   D11       -3.14159  -0.00000  -0.00000  -0.00001  -0.00001   3.14159
   D12       -0.00004   0.00000   0.00001   0.00008   0.00009   0.00005
   D13        3.14100   0.00004   0.00009   0.00137   0.00146  -3.14073
   D14        0.00051  -0.00003  -0.00007  -0.00119  -0.00126  -0.00075
   D15       -0.00051   0.00003   0.00007   0.00118   0.00126   0.00075
   D16       -3.14100  -0.00004  -0.00009  -0.00138  -0.00146   3.14072
   D17       -0.00004   0.00000   0.00001   0.00009   0.00010   0.00006
   D18        3.14155   0.00000   0.00001   0.00011   0.00012  -3.14152
   D19       -3.14159  -0.00000  -0.00000  -0.00000  -0.00000   3.14159
   D20       -0.00001   0.00000   0.00000   0.00002   0.00002   0.00001
   D21       -0.00001   0.00000   0.00000   0.00002   0.00002   0.00001
   D22        3.14159   0.00000   0.00000   0.00002   0.00002  -3.14158
   D23       -3.14159  -0.00000  -0.00000  -0.00000  -0.00000   3.14159
   D24        0.00000  -0.00000  -0.00000  -0.00000  -0.00000  -0.00000
   D25        0.00001  -0.00000  -0.00000  -0.00001  -0.00001  -0.00001
   D26        3.14159   0.00000   0.00000   0.00001   0.00002  -3.14158
   D27       -3.14159  -0.00000  -0.00000  -0.00001  -0.00001   3.14158
   D28       -0.00001   0.00000   0.00000   0.00002   0.00002   0.00001
   D29       -3.14159  -0.00000   0.00000  -0.00000  -0.00000   3.14159
   D30       -0.00000  -0.00000   0.00000   0.00000   0.00000   0.00000
   D31        0.00000   0.00000  -0.00000  -0.00000  -0.00000  -0.00000
   D32        3.14159   0.00000  -0.00000   0.00000   0.00000  -3.14159
   D33       -3.14101  -0.00004  -0.00008  -0.00134  -0.00142   3.14075
   D34       -0.00043   0.00003   0.00006   0.00099   0.00105   0.00062
         Item               Value     Threshold  Converged?
 Maximum Force            0.000971     0.000450     NO 
 RMS     Force            0.000230     0.000300     YES
 Maximum Displacement     0.004584     0.001800     NO 
 RMS     Displacement     0.001103     0.001200     YES
 Predicted change in Energy=-4.483241D-06
 GradGradGradGradGradGradGradGradGradGradGradGradGradGradGradGradGradGrad

                          Input orientation:                          
 ---------------------------------------------------------------------
 Center     Atomic      Atomic             Coordinates (Angstroms)
 Number     Number       Type             X           Y           Z
 ---------------------------------------------------------------------
      1          6           0       -0.058531    1.264704    0.000177
      2          6           0        0.669677    0.037706    0.000391
      3          6           0       -0.006712   -1.218237    0.000277
      4          6           0       -1.373196   -1.239622    0.000112
      5          6           0       -2.121500   -0.017368   -0.000016
      6          6           0       -1.423567    1.235016    0.000016
      7          7           0       -3.458008   -0.044203   -0.000164
      8          7           0        2.035514    0.109736    0.000565
      9          8           0        2.678697   -1.103436   -0.000312
     10          8           0        2.713121    1.121626   -0.000175
     11          1           0        0.480476    2.205122    0.000216
     12          1           0        0.556387   -2.142902    0.000375
     13          1           0       -1.900487   -2.188092    0.000088
     14          1           0       -1.987949    2.161938   -0.000072
     15          1           0       -4.005104    0.806565   -0.000256
     16          1           0       -3.970992   -0.915939   -0.000189
     17          1           0        3.631475   -0.873470   -0.000855
 ---------------------------------------------------------------------
                    Distance matrix (angstroms):
                    1          2          3          4          5
     1  C    0.000000
     2  C    1.426818   0.000000
     3  C    2.483482   1.426498   0.000000
     4  C    2.828426   2.409336   1.366651   0.000000
     5  C    2.428899   2.791721   2.431957   1.433131   0.000000
     6  C    1.365359   2.411477   2.833007   2.475150   1.433728
     7  N    3.642758   4.128498   3.645518   2.403220   1.336778
     8  N    2.391438   1.367735   2.436021   3.666070   4.158957
     9  O    3.619461   2.310491   2.687862   4.054182   4.921528
    10  O    2.775342   2.313125   3.587820   4.719479   4.966978
    11  H    1.083934   2.175658   3.457851   3.911823   3.421950
    12  H    3.462644   2.183549   1.082630   2.130542   3.418915
    13  H    3.913387   3.399988   2.127675   1.085187   2.181946
    14  H    2.127836   3.402255   3.918020   3.456664   2.183393
    15  H    3.973077   4.737587   4.481848   3.333740   2.055926
    16  H    4.479125   4.737642   3.975789   2.617883   2.056223
    17  H    4.264731   3.098789   3.654487   5.018048   5.816325
                    6          7          8          9         10
     6  C    0.000000
     7  N    2.403196   0.000000
     8  N    3.637512   5.495679   0.000000
     9  O    4.721962   6.227450   1.373124   0.000000
    10  O    4.138242   6.280286   1.217815   2.225328   0.000000
    11  H    2.136934   4.535540   2.609365   3.972244   2.481666
    12  H    3.915424   4.529891   2.694845   2.363195   3.912626
    13  H    3.456171   2.649931   4.557643   4.705890   5.677993
    14  H    1.085224   2.651062   4.516612   5.695634   4.814801
    15  H    2.616851   1.011494   6.080678   6.951353   6.725609
    16  H    3.334064   1.011473   6.093449   6.652332   6.987778
    17  H    5.477149   7.137819   1.874510   0.980138   2.196311
                   11         12         13         14         15
    11  H    0.000000
    12  H    4.348686   0.000000
    13  H    4.996930   2.457290   0.000000
    14  H    2.468803   5.000529   4.350908   0.000000
    15  H    4.698553   5.431994   3.660244   2.430216   0.000000
    16  H    5.436598   4.690693   2.430096   3.661391   1.722842
    17  H    4.405283   3.326804   5.686021   6.386832   7.819199
                   16         17
    16  H    0.000000
    17  H    7.602586   0.000000
 Stoichiometry    C6H7N2O2(1+)
 Framework group  C1[X(C6H7N2O2)]
 Deg. of freedom    45
 Full point group                 C1      NOp   1
 Largest Abelian subgroup         C1      NOp   1
 Largest concise Abelian subgroup C1      NOp   1
                         Standard orientation:                         
 ---------------------------------------------------------------------
 Center     Atomic      Atomic             Coordinates (Angstroms)
 Number     Number       Type             X           Y           Z
 ---------------------------------------------------------------------
      1          6           0       -0.060181    1.264269    0.000122
      2          6           0        0.668327    0.037449    0.000337
[...]
 ! D22   D(3,4,5,7)           -179.9999         -DE/DX =    0.0                 !
 ! D23   D(13,4,5,6)          -180.0            -DE/DX =    0.0                 !
 ! D24   D(13,4,5,7)             0.0            -DE/DX =    0.0                 !
 ! D25   D(4,5,6,1)             -0.0001         -DE/DX =    0.0                 !
 ! D26   D(4,5,6,14)          -179.9999         -DE/DX =    0.0                 !
 ! D27   D(7,5,6,1)            179.9999         -DE/DX =    0.0                 !
 ! D28   D(7,5,6,14)             0.0001         -DE/DX =    0.0                 !
 ! D29   D(4,5,7,15)           180.0            -DE/DX =    0.0                 !
 ! D30   D(4,5,7,16)             0.0            -DE/DX =    0.0                 !
 ! D31   D(6,5,7,15)             0.0            -DE/DX =    0.0                 !
 ! D32   D(6,5,7,16)          -180.0            -DE/DX =    0.0                 !
 ! D33   D(2,8,9,17)           179.9928         -DE/DX =    0.0                 !
 ! D34   D(10,8,9,17)            0.0053         -DE/DX =    0.0                 !
 --------------------------------------------------------------------------------
 GradGradGradGradGradGradGradGradGradGradGradGradGradGradGradGradGradGrad

 1\1\ WCSS.PL-BEM-JP\Freq\RB3LYP\6-31+G(d,p)\C6H7N2O2(1+)\C612\17-Dec-2
 024\0\\#N Geom=AllCheck Guess=TCheck SCRF=Check GenChk RB3LYP/6-31+G(d
 ,p) Freq\\[No Title]\\1,1\C,-0.0587081988,1.2649428466,0.0000346846\C,
 0.6698744488,0.0380214632,0.0000626557\C,-0.0065601852,-1.2179274191,0
 .0000475085\C,-1.3729890184,-1.2394344965,0.0000285957\C,-2.1215258663
 ,-0.0173182711,0.0000135773\C,-1.4236920354,1.2351275453,0.0000163104\
 N,-3.4579019054,-0.0443467238,-0.0000027947\N,2.0352039988,0.109966491
 5,0.0000826975\O,2.6784199305,-1.1039300344,-0.0000508345\O,2.71323146
 44,1.1211575414,-0.0000299669\H,0.4803648647,2.2053507197,0.000039088\
 H,0.5568388717,-2.1424426057,0.0000591333\H,-1.9002502258,-2.187947302
 6,0.0000264995\H,-1.988278656,2.1619511994,0.0000063088\H,-4.005131524
 9,0.806289628,-0.0000134743\H,-3.9707776715,-0.9161037136,-0.000004842
 3\H,3.6311827088,-0.8742118684,-0.0001361466\\Version=ES64L-G09RevE.01
 \State=1-A\HF=-492.5050492\RMSD=6.295e-09\RMSF=3.255e-05\ZeroPoint=0.1
 324819\Thermal=0.1409338\Dipole=-1.5034071,-0.4307995,-0.0000313\Dipol
 eDeriv=0.8144415,0.0229304,0.0000025,-0.4488892,0.0353896,-0.0000004,0
 .0000043,0.000001,-0.015249,-1.7160819,-0.1284123,0.0000225,0.0336845,
 -0.0890621,-0.0000021,0.0000607,-0.0000143,0.0631053,0.8340091,0.06584
 69,0.0000013,0.4615829,0.0821893,-0.0000002,0.0000097,0.0000075,-0.001
 5901,-0.8234228,0.1107572,-0.000001,0.7062415,-0.030604,0.0000027,-0.0
 00027,-0.000002,-0.1458301,2.2834443,0.0615222,0.000011,0.0310215,0.40
 00146,-0.0000008,0.0000258,0.000002,0.2495626,-0.7752111,-0.1800156,0.
 0000006,-0.7122993,-0.0953776,-0.0000034,-0.0000195,-0.0000032,-0.1416
 408,-2.0497322,-0.0607396,-0.0000068,-0.0356725,-0.1911436,-0.0000013,
 -0.0000196,-0.0000022,-0.4584816,3.4329996,0.0644845,-0.000037,0.33873
 99,1.3635913,0.0000486,-0.0005151,0.0000269,0.2263764,-1.0965929,0.473
 5158,0.0000247,0.983916,-0.689095,-0.0000131,0.0002172,-0.0000801,-0.2
 476322,-1.4657836,-0.3180101,-0.000005,-1.2401196,-0.7427253,-0.000034
 2,0.0002766,0.000061,-0.1528128,0.0750981,-0.0147338,-0.0000003,0.0273
 989,0.109787,0.0000008,0.0000026,-0.0000007,0.1427294,0.0876184,0.0077
 76,-0.0000011,-0.0121832,0.1002022,0.,0.0000025,0.0000012,0.14303,0.03
 75984,-0.0332897,-0.0000006,-0.0165889,0.0465534,-0.0000008,0.0000053,
 -0.0000012,0.1508216,0.0344997,0.034339,-0.000001,0.0141784,0.0509266,
 0.0000018,0.0000071,0.0000019,0.1515846,0.3462906,-0.0593567,-0.000000
 4,-0.2187767,0.1956156,-0.0000003,0.0000014,-0.0000004,0.328365,0.3353
 206,0.0675158,-0.0000011,0.2234361,0.2128168,0.0000014,-0.0000003,0.00
 00017,0.3278687,0.6455042,-0.1141298,-0.0000082,-0.1356704,0.2409213,0
 .0000014,-0.0000317,0.0000008,0.3797929\Polar=196.6424118,5.3169934,88
 .484369,-0.0004743,-0.000112,45.0837973\PG=C01 [X(C6H7N2O2)]\NImag=0\\
 0.77132292,0.06147479,0.68683907,0.00000987,-0.00000275,0.13539542,-0.
 11801056,0.07213538,-0.00000063,0.64978841,0.04735385,-0.25566906,0.00
 000341,0.00915847,0.69422501,-0.00000318,0.00000277,-0.05635745,-0.000
 00224,-0.00000182,0.12223880,0.03145672,-0.00466786,0.00000083,-0.1148
 2464,-0.04371257,-0.00000271,0.76476905,0.00769607,-0.04531970,0.00000
 075,-0.06707353,-0.26432089,-0.00000105,-0.06029075,0.68957979,0.00000
 073,-0.00000020,0.00479869,0.00000025,-0.00000136,-0.05504839,0.000010
 00,-0.00000195,0.13557865,-0.02141040,0.01700673,-0.00000068,-0.043755
 59,-0.04226261,-0.00000027,-0.43061732,0.01419522,-0.00000586,0.771706
 52,0.00701429,-0.00698943,0.00000020,-0.01932241,0.01270396,-0.0000010
 8,-0.02900916,-0.12516583,-0.00000065,0.06147482,0.67293287,-0.0000003
 7,0.00000050,-0.00036134,-0.00000138,-0.00000078,0.00551184,-0.0000051
 8,0.00000056,-0.05428618,0.00000885,-0.00000080,0.12136754,-0.03757441
 ,-0.03058231,-0.00000004,0.02378386,0.00041029,-0.00000007,-0.04093748
 ,0.02788415,-0.00000046,-0.13512889,0.07195040,-0.00000116,0.77775523,
 -0.05206111,0.02422839,-0.00000130,0.00106377,-0.02778694,-0.00000010,
 0.05022993,0.02734857,0.00000104,0.03192825,-0.24871205,0.00000063,0.0
 0203619,0.64966933,0.00000032,-0.00000094,-0.00086286,0.00000058,0.000
 00004,-0.00741187,-0.00000024,0.00000077,-0.00086675,-0.00000164,0.000
 00178,-0.06807892,0.00000792,-0.00000215,0.16921775,-0.43497979,-0.025
 32490,-0.00000578,-0.04633936,0.04032883,-0.00000062,-0.02052471,-0.01
 743864,-0.00000043,0.03902894,-0.00011392,0.00000066,-0.13051947,-0.02
 685668,-0.00000133,0.77944596,0.01676613,-0.12501993,0.00000122,0.0170
 6876,0.01597947,0.00000109,-0.00783780,-0.00805484,-0.00000013,0.00302
 394,-0.03371834,0.00000014,-0.06688519,-0.25236641,-0.00000006,-0.0586
 1979,0.66747383,-0.00000539,-0.00000002,-0.05359192,-0.00000161,0.0000
 0056,0.00478197,-0.00000026,-0.00000044,-0.00039571,0.00000065,0.00000
 023,0.00504884,-0.00000049,0.00000109,-0.06800197,0.00000925,-0.000003
 96,0.12138461,0.01672711,-0.00417097,0.00000009,-0.02399109,0.00031450
 ,0.00000033,0.01684001,0.00497743,0.00000009,-0.05296409,0.02120997,-0
 .00000102,-0.42473593,-0.00565879,-0.00000480,-0.05024045,-0.02317438,
 -0.00000074,0.84955458,0.00362329,-0.00956210,0.00000022,-0.00048866,0
 .00202382,0.00000006,-0.00279686,-0.00947399,-0.00000011,0.04691879,0.
 00462431,0.00000076,-0.00561449,-0.14188006,0.00000034,-0.04901850,0.0
 0181856,-0.00000070,-0.00033956,0.86415413,0.,0.00000010,0.00358016,-0
 .00000026,0.,-0.00064590,0.00000005,0.00000001,0.00363767,-0.00000087,
 0.00000022,0.00974352,-0.00000468,0.00000035,-0.04572903,-0.00000038,-
 0.00000016,0.00972519,0.00000992,-0.00000390,0.04505087,-0.06566222,0.
 03284907,-0.00000272,-0.26106815,-0.01100044,-0.00000438,-0.05384412,-
 0.03156167,-0.00000353,0.02157417,-0.01366744,0.00000098,-0.02625346,-
 0.00048012,-0.00000059,0.02112215,0.01443909,0.00000087,0.02461906,0.0
 0041228,0.00000030,0.83246133,0.03044216,0.01314923,0.00000035,0.00779
 548,-0.12964439,0.00000002,-0.03718437,0.00902647,-0.00000167,-0.00257
 015,-0.00960428,-0.00000006,-0.00265562,-0.00528950,-0.00000004,0.0059
 4263,-0.00559638,0.00000059,0.00250952,0.00063869,0.00000001,0.1526454
 8,0.70506562,0.00000119,-0.00000092,-0.00511831,0.00000537,0.00000044,
 -0.06145142,0.00000114,0.00000082,-0.00954571,-0.00000037,0.00000142,0
 .00531215,0.00000243,0.00000067,-0.00164866,-0.00000069,-0.00000171,0.
 00497685,-0.00000267,-0.00000021,-0.00021196,-0.00004302,-0.00002121,0
 .18504328,-0.00048623,-0.00935584,0.00000099,-0.03479753,0.05077753,0.
 00000620,-0.00277971,0.00303619,0.00000024,-0.00201975,0.00197787,-0.0
 0000013,0.00532707,0.00363875,0.00000016,-0.00502826,-0.00031097,-0.00
 000044,-0.00513153,-0.00083021,-0.00000007,-0.17883532,0.04778356,0.00
 001040,0.62717566,-0.00865541,0.00538928,-0.00000092,0.03025384,-0.000
 43364,-0.00000359,-0.00768377,-0.00567571,0.00000027,0.00408537,-0.002
 37871,0.00000030,-0.00640323,-0.00185810,-0.00000013,0.00425543,0.0046
 9382,0.00000016,0.00632005,0.00071263,0.00000007,-0.00491165,-0.155859
 70,0.00000218,0.06588426,0.33252009,-0.00000065,0.00000090,0.00451436,
 0.00000037,-0.00000221,0.00794292,-0.00000006,-0.00000053,0.00051265,0
 .00000034,-0.00000045,-0.00068513,-0.00000107,-0.00000062,0.00007594,0
 .00000055,0.00000066,0.00018170,0.00000115,0.00000018,0.00008924,0.000
 01260,-0.00001283,-0.04725985,-0.00005187,0.00000239,0.02111816,0.0048
 4340,-0.00715697,-0.00000029,-0.05163156,-0.05318314,0.00000660,0.0031
 6648,0.01157950,0.00000175,-0.00737992,0.00247824,-0.00000049,0.008602
 15,-0.00372481,0.00000030,-0.00369365,-0.00401059,-0.00000009,-0.00832
 816,0.00062556,-0.00000014,-0.28187755,-0.21062598,0.00002305,0.039872
 63,0.00680341,-0.00000126,0.29660584,0.01436814,-0.00918079,-0.0000001
 1,-0.05092077,-0.00718071,0.00000414,0.00875275,0.00693694,0.00000158,
 -0.00585648,0.00621668,-0.00000037,0.00939723,-0.00156859,0.00000018,-
 0.00550901,-0.00350402,-0.00000039,-0.00891261,0.00056894,-0.00000010,
 -0.20734874,-0.42785596,0.00002501,-0.01530004,-0.09480504,0.00000328,
 0.26565245,0.52795766,-0.00000105,0.00000089,-0.00092630,0.00000050,0.
 00000180,0.01416556,-0.00000058,-0.00000097,0.00922596,0.00000045,-0.0
 0000071,-0.00078838,-0.00000145,0.00000004,0.00023722,0.00000062,0.000
 00078,-0.00059391,0.00000150,-0.00000002,0.00007639,0.00003090,0.00003
 481,-0.06764563,-0.00000206,-0.00000407,0.01930642,-0.00002823,-0.0000
 3386,0.03068498,-0.12814924,-0.12625230,-0.00000103,0.01138733,0.01514
 257,0.00000022,-0.00228369,0.00329796,-0.00000005,-0.00057310,0.000376
 69,0.,-0.00478553,0.00124820,-0.00000035,-0.00977584,-0.02637295,-0.00
 000022,-0.00029822,-0.00147008,0.00000004,0.00275706,0.00263419,-0.000
 00040,0.00011938,-0.00075301,0.00000007,-0.00426241,-0.00066403,0.0000
 0032,0.13485671,-0.12510140,-0.28205228,-0.00000081,-0.01216612,-0.017
 30524,-0.00000026,0.00380318,-0.00199406,0.00000018,0.00009838,0.00058
 870,-0.00000001,0.00146944,0.00011803,0.00000010,0.00248181,0.00684032
 ,0.00000007,0.00034793,0.00053327,0.,-0.00301242,-0.00342341,0.0000003
 8,0.00007587,0.00033838,-0.00000003,0.00026823,0.00294957,-0.00000029,
 0.13224393,0.29319100,-0.00000129,-0.00000066,-0.04044625,0.00000084,0
 .00000020,0.00383844,-0.00000027,0.00000011,0.00309917,-0.00000001,-0.
 00000008,-0.00114156,-0.00000028,0.00000001,0.01046368,-0.00000009,-0.
 00000046,0.00649835,0.00000005,-0.00000002,-0.00057864,-0.00000039,-0.
 00000002,-0.00223201,0.,0.,-0.00032554,0.00000013,0.00000013,0.0002378
 5,0.00000125,0.00000076,0.02613261,-0.00205271,-0.00340834,-0.00000004
 ,0.01133708,-0.01446993,0.00000041,-0.13613105,0.13196418,-0.00000218,
 -0.01073175,0.02602622,-0.00000044,-0.00489165,-0.00140387,-0.00000028
 ,-0.00047976,-0.00033016,0.,-0.00022947,0.00146592,0.00000002,0.003517
 54,-0.00106916,-0.00000055,-0.00643991,-0.00080933,0.00000057,-0.00045
 949,0.00037477,0.00000017,0.00066990,-0.00071363,0.,0.14556520,-0.0038
 7310,-0.00214305,-0.00000016,0.01341327,-0.01669990,0.00000043,0.13037
 984,-0.27684461,0.00000282,-0.00295310,0.00742595,-0.00000012,-0.00168
 373,0.00005187,-0.00000003,-0.00008095,0.00061384,0.,-0.00028389,0.000
 54931,0.,0.00270317,-0.00225044,-0.00000044,0.00018413,0.00118875,0.00
 000012,-0.00051551,0.00018016,0.00000013,0.00076528,-0.00061616,0.0000
 0003,-0.13781412,0.28687595,-0.00000021,-0.00000007,0.00326047,0.00000
 075,0.00000003,0.00308192,-0.00000239,0.00000237,-0.03988627,-0.000000
 07,0.00000045,0.00656854,-0.00000030,0.00000016,0.01031394,-0.00000005
 ,0.00000005,-0.00110107,0.00000007,0.,-0.00055283,-0.00000043,-0.00000
 007,-0.00236856,0.00000036,-0.00000005,0.00089016,0.00000006,0.0000000
 5,0.00002491,-0.00000003,0.,0.00108072,0.00000222,-0.00000286,0.025599
 83,-0.00064848,0.00048571,-0.00000004,-0.00428759,0.00197562,-0.000000
 31,-0.01214575,-0.02852570,-0.00000033,-0.12495850,-0.12093556,-0.0000
 0040,0.01029657,0.01681521,0.00000006,-0.00210447,0.00303509,-0.000000
 04,0.00199247,0.00072480,0.00000003,-0.00011699,-0.00195755,0.00000010
 ,-0.00007232,-0.00000898,0.,-0.00067598,0.00011587,0.00000002,0.000056
 89,-0.00008474,0.,0.00060200,-0.00016553,0.00000009,0.13204242,0.00091
 033,-0.00001080,0.00000003,0.00139717,0.00145195,0.00000009,0.00163839
 ,0.00490893,0.00000007,-0.12144259,-0.27960313,-0.00000063,-0.01450562
 ,-0.01822594,-0.00000017,0.00362396,-0.00210616,0.00000006,-0.00091967
 ,0.00149561,-0.00000001,-0.00005952,0.00042072,0.00000007,-0.00003710,
 -0.00003984,0.,0.00034474,0.00018153,-0.00000006,-0.00006425,0.0000163
 3,0.,0.00009831,0.00086790,-0.00000006,0.12782623,0.29180193,-0.000000
 05,0.00000004,-0.00066589,-0.00000066,-0.00000018,0.00822994,-0.000000
 13,-0.00000044,0.00366647,-0.00000036,-0.00000048,-0.03497017,-0.00000
 003,0.00000038,0.00312654,-0.00000012,0.00000011,0.00392266,0.00000014
 ,0.,-0.00202173,0.00000043,0.00000013,0.00212203,0.00000004,-0.0000000
 3,0.00007093,-0.00000019,-0.00000017,-0.00131434,0.,0.,-0.00043403,0.0
 0000012,0.00000001,-0.00565919,0.00000084,0.00000060,0.02375838,-0.013
 07345,0.02781630,-0.00000061,-0.00414308,-0.00215635,-0.00000030,-0.00
 060749,-0.00050412,-0.00000003,-0.00182552,-0.00303615,0.,0.01031899,-
 0.01555443,0.00000021,-0.13493951,0.12671624,-0.00000151,0.00202066,-0
 .00069998,0.00000004,-0.00015125,0.00162882,0.00000012,-0.00081188,-0.
 00010425,0.00000003,0.00001715,0.00010164,-0.00000003,0.00065904,0.000
 13154,0.00000009,0.00004799,0.00008262,0.,0.00065156,-0.00072264,0.,0.
 14254303,-0.00227580,0.00599190,-0.00000011,-0.00165489,0.00132443,-0.
 00000008,-0.00091582,-0.00006220,-0.00000003,-0.00361528,-0.00233721,0
 .,0.01564122,-0.01819710,0.00000037,0.12716297,-0.26968006,0.00000270,
 0.00095124,0.00147659,-0.00000002,0.00017024,0.00047794,-0.00000006,-0
 .00038465,0.00018254,0.00000005,0.00001068,-0.00010309,0.00000001,-0.0
 0010332,0.00084020,0.,0.00006004,0.00001839,0.,0.00077667,-0.00075796,
 0.00000002,-0.13391379,0.28129080,-0.00000012,0.00000037,0.00369313,-0
 .00000065,0.00000023,0.00846434,-0.00000006,-0.00000006,-0.00063972,-0
 .00000007,-0.00000006,0.00391926,-0.00000020,-0.00000017,0.00312018,-0
 .00000140,0.00000249,-0.03518039,0.00000013,-0.00000003,-0.00199612,0.
 00000027,0.00000008,0.00181253,-0.00000005,0.00000003,-0.00087458,0.00
 000004,0.00000001,0.00012813,0.00000015,-0.00000006,-0.00572359,0.,0.,
 -0.00047697,0.,0.,-0.00001387,0.00000203,-0.00000284,0.02384412,-0.000
 47150,0.00002479,-0.00000002,0.00124203,-0.00000733,-0.00000006,-0.000
 45960,0.00166872,-0.00000004,-0.00362721,-0.00362411,-0.00000010,-0.01
 527254,0.03134512,-0.00000031,0.00165085,0.00194240,0.00000008,-0.1806
 1090,0.17039862,-0.00000290,-0.00146192,-0.00032687,0.00000032,0.00048
 520,-0.00054400,-0.00000012,0.00055728,0.00062994,-0.00000014,0.000054
 30,-0.00006498,0.,-0.00036351,-0.00011865,0.,0.00003781,0.00018709,0.,
 -0.00075405,-0.00172685,-0.00000002,0.18414316,0.00156381,-0.00093147,
 0.00000003,-0.00230630,0.00017151,0.00000009,0.00128007,0.00071843,0.0
 0000003,-0.00353057,0.00195142,-0.00000007,0.00175280,0.00813733,-0.00
 000004,-0.00406675,0.00126280,-0.00000009,0.16909765,-0.35229705,0.000
 00376,0.00287741,0.00046904,-0.00000050,-0.00054155,0.00077115,0.00000
 018,-0.00113888,-0.00139152,0.00000026,-0.00009492,0.00004645,0.,-0.00
 006560,-0.00003040,0.,-0.00016082,0.00019610,0.,-0.00011809,-0.0007120
 8,0.,-0.18285980,0.35516153,0.00000005,-0.00000005,-0.00061646,0.00000
 004,0.00000011,0.00020142,-0.00000016,-0.00000009,0.00163350,0.0000000
 7,-0.00000009,0.00641350,-0.00000015,0.00000037,-0.00219318,-0.0000000
 3,-0.00000001,-0.00384226,-0.00000289,0.00000379,-0.01001757,-0.000000
 06,-0.00000004,-0.00008792,0.,0.,0.00009982,0.00000003,0.00000001,0.00
 000655,-0.00000002,0.,0.00041207,0.00000003,0.,-0.00091929,0.,0.000000
 02,-0.00046002,-0.00000003,0.,0.00063726,0.00000300,-0.00000389,0.0102
 7150,-0.00034605,-0.00171664,-0.00000002,0.00115681,-0.00001591,-0.000
 00003,-0.00045471,-0.00000694,-0.00000002,0.00154881,-0.00192271,0.000
 00010,-0.01396415,-0.03230253,0.,-0.00388993,0.00338767,-0.00000013,-0
 .16722221,-0.16298651,-0.00000113,-0.00137524,-0.00019544,0.00000026,0
 .00030090,-0.00036383,-0.00000008,0.00069052,0.00079219,-0.00000015,-0
 .00035882,0.00010738,0.,0.00004751,0.00006022,-0.00000001,-0.00071183,
 0.00174913,-0.00000003,0.00003902,-0.00019305,0.,0.01501995,0.01806273
 ,0.00000011,0.16967707,-0.00129429,0.00062005,-0.00000001,0.00234290,0
 .00007209,-0.00000010,-0.00155141,-0.00095777,-0.00000003,0.00405415,0
 .00129967,0.00000005,-0.00260390,0.00676608,-0.00000005,0.00328182,0.0
 0220998,0.00000010,-0.16170863,-0.36550919,-0.00000033,-0.00293219,-0.
 00048240,0.00000052,0.00069352,-0.00091478,-0.00000020,0.00105122,0.00
 126724,-0.00000026,0.00006531,-0.00003696,-0.00000001,0.00007496,0.000
 03777,0.,0.00009169,-0.00061968,0.,0.00015890,0.00019691,0.,-0.0169406
 9,-0.01344956,-0.00000014,0.17548130,0.36943429,-0.00000016,0.00000008
 ,0.00157091,0.00000003,-0.00000012,0.00033344,0.00000006,0.00000006,-0
 .00065895,-0.00000005,-0.00000004,-0.00382288,-0.00000016,-0.00000048,
 -0.00217006,0.00000006,0.00000015,0.00645538,-0.00000112,-0.00000036,-
 0.01002268,-0.00000002,0.00000002,-0.00000444,0.,0.,-0.00013310,-0.000
 00002,0.,-0.00000457,0.00000004,0.,-0.00094588,-0.00000002,0.,0.000404
 54,-0.00000003,0.00000001,0.00064240,0.,-0.00000002,-0.00045310,0.0000
 0028,0.00000026,-0.00148689,0.00000111,0.00000044,0.01022492,-0.001485
 09,0.00084337,0.00000012,0.00415363,0.00134663,0.00000041,-0.00062199,
 -0.00089806,-0.00000013,0.00113361,-0.00087703,0.00000009,-0.00202036,
 -0.00026310,-0.00000002,0.00126730,0.00116250,0.00000007,0.00199817,0.
 00007558,0.00000001,-0.03540510,0.00520330,0.00000330,-0.43687841,-0.0
 8736490,0.00003944,0.00395328,-0.00567329,-0.00000078,-0.00007377,0.00
 011561,0.,-0.00000792,-0.00009997,-0.00000005,0.00004218,-0.00002393,0
 .,0.00000881,0.00001039,-0.00000005,-0.00016934,0.00024882,0.,-0.00015
 766,-0.00026466,0.,0.46426268,0.00204826,0.00066068,-0.00000003,-0.000
 69636,-0.00891148,-0.00000063,-0.00043379,-0.00064954,0.00000014,-0.00
 055486,0.00076543,-0.00000008,0.00039235,-0.00043493,0.00000002,-0.000
 04832,-0.00084649,0.00000005,-0.00055978,0.00012652,0.,0.06887746,0.01
 075875,-0.00000646,-0.14729131,-0.08383113,0.00000912,-0.00845815,-0.0
 0066900,0.00000151,0.00000073,-0.00003413,-0.00000002,0.00001974,0.000
 77467,0.,-0.00000801,0.00002253,0.,0.00017371,0.00004999,0.,0.00001662
 ,-0.00007367,0.,0.00006295,0.00006628,0.,0.08645874,0.08222551,0.00000
 032,-0.00000005,0.00213364,-0.00000131,-0.00000037,0.00212446,-0.00000
 003,0.00000009,-0.00082508,-0.00000012,0.00000014,0.00024936,0.0000002
 0,0.00000007,0.00040806,-0.00000022,-0.00000020,-0.00026831,-0.0000002
 2,0.,-0.00012658,0.00000880,-0.00000008,-0.00169237,0.00003625,0.00000
 339,-0.00552409,-0.00000125,0.00000059,-0.00282083,0.,0.,0.00006462,-0
 .00000002,0.00000007,-0.00026084,0.,0.,-0.00000011,0.00000001,0.,-0.00
 026060,0.,-0.00000003,-0.00005202,0.00000001,0.00000003,0.00007095,-0.
 00004240,-0.00000363,0.00677973\\0.00000940,-0.00000425,-0.00000342,0.
 00002123,0.00001617,-0.00000449,0.00002250,0.00001241,-0.00000296,-0.0
 0000572,0.00000922,0.00000036,0.00001769,0.00000570,-0.00000039,-0.000
 01407,-0.00001000,0.00000027,-0.00000227,-0.00000117,0.,-0.00018301,-0
 .00007637,0.00002936,0.00002957,-0.00001117,-0.00000777,0.00007551,0.0
 0006501,-0.00001109,0.00000391,-0.00000340,0.00000010,0.00001180,0.000
 00041,-0.00000013,-0.00000316,0.00000175,0.00000051,-0.00000606,-0.000
 00295,0.00000063,0.00000767,-0.00000619,0.,0.00000734,0.00000485,0.000
 00001,0.00000768,-0.00000003,-0.00000101\\\@


 SUCCESS IS NEVER CERTAIN,
 FAILURE IS NEVER FINAL.
 Job cpu time:       0 days  0 hours 11 minutes 16.4 seconds.
 File lengths (MBytes):  RWF=     93 Int=      0 D2E=      0 Chk=      5 Scr=      1
 Normal termination of Gaussian 09 at Tue Dec 17 19:44:33 2024.
