 Entering Gaussian System, Link 0=g09
 Input=b3lypD3PNA.gjf
 Output=b3lypD3PNA.log
 Initial command:
 /home/c612/g09E/g09/l1.exe "/mnt/ja_sm883/scratch/Gau-1819069.inp" -scrdir="/mnt/ja_sm883/scratch/"
 Default is to use a total of  18 processors:
                               18 via shared-memory
                                1 via Linda
 Entering Link 1 = /home/c612/g09E/g09/l1.exe PID=   1819071.
  
 Copyright (c) 1988,1990,1992,1993,1995,1998,2003,2009,2015,
            Gaussian, Inc.  All Rights Reserved.
  
 This is part of the Gaussian(R) 09 program.  It is based on
 the Gaussian(R) 03 system (copyright 2003, Gaussian, Inc.),
 the Gaussian(R) 98 system (copyright 1998, Gaussian, Inc.),
 the Gaussian(R) 94 system (copyright 1995, Gaussian, Inc.),
 the Gaussian 92(TM) system (copyright 1992, Gaussian, Inc.),
 the Gaussian 90(TM) system (copyright 1990, Gaussian, Inc.),
 the Gaussian 88(TM) system (copyright 1988, Gaussian, Inc.),
 the Gaussian 86(TM) system (copyright 1986, Carnegie Mellon
 University), and the Gaussian 82(TM) system (copyright 1983,
 Carnegie Mellon University). Gaussian is a federally registered
 trademark of Gaussian, Inc.
  
 This software contains proprietary and confidential information,
 including trade secrets, belonging to Gaussian, Inc.
  
 This software is provided under written license and may be
 used, copied, transmitted, or stored only in accord with that
 written license.
  
 The following legend is applicable only to US Government
 contracts under FAR:
  
                    RESTRICTED RIGHTS LEGEND
  
 Use, reproduction and disclosure by the US Government is
 subject to restrictions as set forth in subparagraphs (a)
 and (c) of the Commercial Computer Software - Restricted
 Rights clause in FAR 52.227-19.
  
 Gaussian, Inc.
 340 Quinnipiac St., Bldg. 40, Wallingford CT 06492
  
  
 ---------------------------------------------------------------
 Warning -- This program may not be used in any manner that
 competes with the business of Gaussian, Inc. or will provide
 assistance to any competitor of Gaussian, Inc.  The licensee
 of this program is prohibited from giving any competitor of
 Gaussian, Inc. access to this program.  By using this program,
 the user acknowledges that Gaussian, Inc. is engaged in the
 business of creating and licensing software in the field of
 computational chemistry and represents and warrants to the
 licensee that it is not a competitor of Gaussian, Inc. and that
 it will not use this program in any manner prohibited above.
 ---------------------------------------------------------------
  

 Cite this work as:
 Gaussian 09, Revision E.01,
 M. J. Frisch, G. W. Trucks, H. B. Schlegel, G. E. Scuseria, 
 M. A. Robb, J. R. Cheeseman, G. Scalmani, V. Barone, B. Mennucci, 
 G. A. Petersson, H. Nakatsuji, M. Caricato, X. Li, H. P. Hratchian, 
 A. F. Izmaylov, J. Bloino, G. Zheng, J. L. Sonnenberg, M. Hada, 
 M. Ehara, K. Toyota, R. Fukuda, J. Hasegawa, M. Ishida, T. Nakajima, 
 Y. Honda, O. Kitao, H. Nakai, T. Vreven, J. A. Montgomery, Jr., 
 J. E. Peralta, F. Ogliaro, M. Bearpark, J. J. Heyd, E. Brothers, 
 K. N. Kudin, V. N. Staroverov, T. Keith, R. Kobayashi, J. Normand, 
 K. Raghavachari, A. Rendell, J. C. Burant, S. S. Iyengar, J. Tomasi, 
 M. Cossi, N. Rega, J. M. Millam, M. Klene, J. E. Knox, J. B. Cross, 
 V. Bakken, C. Adamo, J. Jaramillo, R. Gomperts, R. E. Stratmann, 
 O. Yazyev, A. J. Austin, R. Cammi, C. Pomelli, J. W. Ochterski, 
 R. L. Martin, K. Morokuma, V. G. Zakrzewski, G. A. Voth, 
 P. Salvador, J. J. Dannenberg, S. Dapprich, A. D. Daniels, 
 O. Farkas, J. B. Foresman, J. V. Ortiz, J. Cioslowski, 
 and D. J. Fox, Gaussian, Inc., Wallingford CT, 2013.
 
 ******************************************
 Gaussian 09:  ES64L-G09RevE.01 30-Nov-2015
                17-Dec-2024 
 ******************************************
 %chk=b3lypD3PNA.chk
 ----------------------------------------------------
 # opt freq b3lyp/6-31+g(d,p) EmpiricalDispersion=GD3
 ----------------------------------------------------
 1/14=-1,18=20,19=15,26=3,38=1/1,3;
 2/9=110,12=2,17=6,18=5,40=1/2;
 3/5=1,6=6,7=111,11=2,16=1,25=1,30=1,71=1,74=-5,124=31/1,2,3;
 4//1;
 5/5=2,38=5/2;
 6/7=2,8=2,9=2,10=2,28=1/1;
 7//1,2,3,16;
 1/14=-1,18=20,19=15,26=3/3(2);
 2/9=110/2;
 99//99;
 2/9=110/2;
 3/5=1,6=6,7=111,11=2,16=1,25=1,30=1,71=1,74=-5,124=31/1,2,3;
 4/5=5,16=3,69=1/1;
 5/5=2,38=5/2;
 7//1,2,3,16;
 1/14=-1,18=20,19=15,26=3/3(-5);
 2/9=110/2;
 6/7=2,8=2,9=2,10=2,19=2,28=1/1;
 99/9=1/99;
 ----------
 [No Title]
 ----------
 Symbolic Z-matrix:
 Charge =  0 Multiplicity = 1
 C                    -0.02265   1.21427  -0.00009 
 C                    -0.71135   0.       -0.00008 
 C                    -0.02265  -1.21427  -0.00002 
 C                     1.36059  -1.21428   0.00003 
 C                     2.07997   0.        0.00002 
 C                     1.36059   1.21428  -0.00004 
 N                     3.44517   0.        0.00007 
 N                    -2.16111   0.       -0.00014 
 O                    -2.73864  -1.08697   0.00014 
 O                    -2.73864   1.08698   0.00007 
 H                    -0.58253   2.14253  -0.00014 
 H                    -0.58253  -2.14253  -0.00002 
 H                     1.89882  -2.15832   0.00008 
 H                     1.89882   2.15832  -0.00005 
 H                     3.96512   0.86023   0.00005 
 H                     3.96512  -0.86023   0.0001 
 

 GradGradGradGradGradGradGradGradGradGradGradGradGradGradGradGradGradGrad
 Berny optimization.
 Initialization pass.
                           ----------------------------
                           !    Initial Parameters    !
                           ! (Angstroms and Degrees)  !
 --------------------------                            --------------------------
 ! Name  Definition              Value          Derivative Info.                !
 --------------------------------------------------------------------------------
 ! R1    R(1,2)                  1.396          estimate D2E/DX2                !
 ! R2    R(1,6)                  1.3832         estimate D2E/DX2                !
 ! R3    R(1,11)                 1.084          estimate D2E/DX2                !
 ! R4    R(2,3)                  1.396          estimate D2E/DX2                !
 ! R5    R(2,8)                  1.4498         estimate D2E/DX2                !
 ! R6    R(3,4)                  1.3832         estimate D2E/DX2                !
 ! R7    R(3,12)                 1.084          estimate D2E/DX2                !
 ! R8    R(4,5)                  1.4114         estimate D2E/DX2                !
 ! R9    R(4,13)                 1.0867         estimate D2E/DX2                !
 ! R10   R(5,6)                  1.4114         estimate D2E/DX2                !
 ! R11   R(5,7)                  1.3652         estimate D2E/DX2                !
 ! R12   R(6,14)                 1.0867         estimate D2E/DX2                !
 ! R13   R(7,15)                 1.0052         estimate D2E/DX2                !
 ! R14   R(7,16)                 1.0052         estimate D2E/DX2                !
 ! R15   R(8,9)                  1.2309         estimate D2E/DX2                !
 ! R16   R(8,10)                 1.2309         estimate D2E/DX2                !
 ! A1    A(2,1,6)              119.5611         estimate D2E/DX2                !
 ! A2    A(2,1,11)             119.3425         estimate D2E/DX2                !
 ! A3    A(6,1,11)             121.0964         estimate D2E/DX2                !
 ! A4    A(1,2,3)              120.8784         estimate D2E/DX2                !
 ! A5    A(1,2,8)              119.5608         estimate D2E/DX2                !
 ! A6    A(3,2,8)              119.5608         estimate D2E/DX2                !
 ! A7    A(2,3,4)              119.5611         estimate D2E/DX2                !
 ! A8    A(2,3,12)             119.3426         estimate D2E/DX2                !
 ! A9    A(4,3,12)             121.0964         estimate D2E/DX2                !
 ! A10   A(3,4,5)              120.6437         estimate D2E/DX2                !
 ! A11   A(3,4,13)             119.6893         estimate D2E/DX2                !
 ! A12   A(5,4,13)             119.667          estimate D2E/DX2                !
 ! A13   A(4,5,6)              118.7121         estimate D2E/DX2                !
 ! A14   A(4,5,7)              120.6439         estimate D2E/DX2                !
 ! A15   A(6,5,7)              120.644          estimate D2E/DX2                !
 ! A16   A(1,6,5)              120.6437         estimate D2E/DX2                !
 ! A17   A(1,6,14)             119.6892         estimate D2E/DX2                !
 ! A18   A(5,6,14)             119.667          estimate D2E/DX2                !
 ! A19   A(5,7,15)             121.1503         estimate D2E/DX2                !
 ! A20   A(5,7,16)             121.1503         estimate D2E/DX2                !
 ! A21   A(15,7,16)            117.6995         estimate D2E/DX2                !
 ! A22   A(2,8,9)              117.9828         estimate D2E/DX2                !
 ! A23   A(2,8,10)             117.9827         estimate D2E/DX2                !
 ! A24   A(9,8,10)             124.0346         estimate D2E/DX2                !
 ! D1    D(6,1,2,3)              0.0            estimate D2E/DX2                !
 ! D2    D(6,1,2,8)           -179.9999         estimate D2E/DX2                !
 ! D3    D(11,1,2,3)           179.9999         estimate D2E/DX2                !
 ! D4    D(11,1,2,8)             0.0001         estimate D2E/DX2                !
 ! D5    D(2,1,6,5)              0.0            estimate D2E/DX2                !
 ! D6    D(2,1,6,14)           180.0            estimate D2E/DX2                !
 ! D7    D(11,1,6,5)          -179.9999         estimate D2E/DX2                !
 ! D8    D(11,1,6,14)            0.0            estimate D2E/DX2                !
 ! D9    D(1,2,3,4)              0.0            estimate D2E/DX2                !
 ! D10   D(1,2,3,12)           180.0            estimate D2E/DX2                !
 ! D11   D(8,2,3,4)            179.9999         estimate D2E/DX2                !
 ! D12   D(8,2,3,12)            -0.0001         estimate D2E/DX2                !
 ! D13   D(1,2,8,9)           -179.9862         estimate D2E/DX2                !
 ! D14   D(1,2,8,10)            -0.0138         estimate D2E/DX2                !
 ! D15   D(3,2,8,9)              0.0139         estimate D2E/DX2                !
 ! D16   D(3,2,8,10)           179.9863         estimate D2E/DX2                !
 ! D17   D(2,3,4,5)             -0.0001         estimate D2E/DX2                !
 ! D18   D(2,3,4,13)           179.9999         estimate D2E/DX2                !
 ! D19   D(12,3,4,5)           180.0            estimate D2E/DX2                !
 ! D20   D(12,3,4,13)            0.0            estimate D2E/DX2                !
 ! D21   D(3,4,5,6)              0.0001         estimate D2E/DX2                !
 ! D22   D(3,4,5,7)            179.9998         estimate D2E/DX2                !
 ! D23   D(13,4,5,6)          -179.9999         estimate D2E/DX2                !
 ! D24   D(13,4,5,7)            -0.0002         estimate D2E/DX2                !
 ! D25   D(4,5,6,1)              0.0            estimate D2E/DX2                !
 ! D26   D(4,5,6,14)           180.0            estimate D2E/DX2                !
 ! D27   D(7,5,6,1)           -179.9998         estimate D2E/DX2                !
 ! D28   D(7,5,6,14)             0.0002         estimate D2E/DX2                !
 ! D29   D(4,5,7,15)           179.9988         estimate D2E/DX2                !
 ! D30   D(4,5,7,16)             0.0013         estimate D2E/DX2                !
 ! D31   D(6,5,7,15)            -0.0014         estimate D2E/DX2                !
 ! D32   D(6,5,7,16)          -179.999          estimate D2E/DX2                !
 --------------------------------------------------------------------------------
 Trust Radius=3.00D-01 FncErr=1.00D-07 GrdErr=1.00D-06
 Number of steps in this run=     82 maximum allowed number of steps=    100.
 GradGradGradGradGradGradGradGradGradGradGradGradGradGradGradGradGradGrad

                          Input orientation:                          
 ---------------------------------------------------------------------
 Center     Atomic      Atomic             Coordinates (Angstroms)
 Number     Number       Type             X           Y           Z
 ---------------------------------------------------------------------
      1          6           0       -0.022648    1.214272   -0.000093
      2          6           0       -0.711353    0.000000   -0.000083
      3          6           0       -0.022648   -1.214273   -0.000023
      4          6           0        1.360591   -1.214279    0.000028
      5          6           0        2.079971    0.000000    0.000018
      6          6           0        1.360590    1.214278   -0.000043
      7          7           0        3.445165    0.000000    0.000072
      8          7           0       -2.161106    0.000000   -0.000138
      9          8           0       -2.738641   -1.086974    0.000135
     10          8           0       -2.738639    1.086975    0.000069
     11          1           0       -0.582534    2.142528   -0.000141
     12          1           0       -0.582533   -2.142529   -0.000016
     13          1           0        1.898821   -2.158317    0.000076
     14          1           0        1.898820    2.158317   -0.000051
     15          1           0        3.965121    0.860234    0.000048
     16          1           0        3.965121   -0.860233    0.000100
 ---------------------------------------------------------------------
                    Distance matrix (angstroms):
                    1          2          3          4          5
     1  C    0.000000
     2  C    1.395984   0.000000
     3  C    2.428545   1.395985   0.000000
     4  C    2.794854   2.401546   1.383239   0.000000
     5  C    2.428057   2.791324   2.428058   1.411376   0.000000
     6  C    1.383238   2.401545   2.794854   2.428557   1.411375
     7  N    3.674260   4.156518   3.674260   2.412452   1.365194
     8  N    2.459158   1.449753   2.459159   3.725161   4.241077
     9  O    3.559825   2.300306   2.718975   4.101208   4.939690
    10  O    2.718973   2.300305   3.559824   4.701006   4.939688
    11  H    1.084035   2.146397   3.403173   3.878645   3.417508
    12  H    3.403173   2.146398   1.084034   2.153457   3.417508
    13  H    3.881546   3.386937   2.140855   1.086692   2.165906
    14  H    2.140855   3.386936   3.881546   3.415274   2.165906
    15  H    4.003454   4.754936   4.495095   3.329742   2.072147
    16  H    4.495094   4.754935   4.003454   2.628483   2.072147
                    6          7          8          9         10
     6  C    0.000000
     7  N    2.412452   0.000000
     8  N    3.725160   5.606271   0.000000
     9  O    4.701006   6.278612   1.230877   0.000000
    10  O    4.101205   6.278610   1.230877   2.173949   0.000000
    11  H    2.153457   4.562103   2.661262   3.883102   2.400621
    12  H    3.878644   4.562103   2.661263   2.400625   3.883103
    13  H    3.415273   2.655092   4.597971   4.759604   5.660208
    14  H    1.086693   2.655092   4.597970   5.660208   4.759601
    15  H    2.628484   1.005165   6.186328   6.980834   6.707593
    16  H    3.329741   1.005164   6.186328   6.707595   6.980832
                   11         12         13         14         15
    11  H    0.000000
    12  H    4.285057   0.000000
    13  H    4.965319   2.481404   0.000000
    14  H    2.481404   4.965319   4.316634   0.000000
    15  H    4.724981   5.449564   3.658039   2.440209   0.000000
    16  H    5.449563   4.724980   2.440209   3.658038   1.720467
                   16
    16  H    0.000000
 Stoichiometry    C6H6N2O2
 Framework group  C1[X(C6H6N2O2)]
 Deg. of freedom    42
 Full point group                 C1      NOp   1
 Largest Abelian subgroup         C1      NOp   1
 Largest concise Abelian subgroup C1      NOp   1
                         Standard orientation:                         
 ---------------------------------------------------------------------
 Center     Atomic      Atomic             Coordinates (Angstroms)
 Number     Number       Type             X           Y           Z
 ---------------------------------------------------------------------
      1          6           0       -0.022648   -1.214272    0.000093
      2          6           0       -0.711353    0.000000    0.000083
      3          6           0       -0.022648    1.214273    0.000023
      4          6           0        1.360591    1.214279   -0.000028
      5          6           0        2.079971   -0.000000   -0.000018
      6          6           0        1.360590   -1.214278    0.000043
      7          7           0        3.445165   -0.000000   -0.000072
      8          7           0       -2.161106    0.000000    0.000138
      9          8           0       -2.738641    1.086974   -0.000135
     10          8           0       -2.738639   -1.086975   -0.000069
     11          1           0       -0.582534   -2.142528    0.000141
     12          1           0       -0.582533    2.142529    0.000016
     13          1           0        1.898821    2.158317   -0.000076
     14          1           0        1.898820   -2.158317    0.000051
     15          1           0        3.965121   -0.860234   -0.000048
     16          1           0        3.965121    0.860233   -0.000100
 ---------------------------------------------------------------------
 Rotational constants (GHZ):      3.9266588      0.8246873      0.6815470
 Standard basis: 6-31+G(d,p) (6D, 7F)
 There are   220 symmetry adapted cartesian basis functions of A   symmetry.
 There are   220 symmetry adapted basis functions of A   symmetry.
   220 basis functions,   362 primitive gaussians,   220 cartesian basis functions
    36 alpha electrons       36 beta electrons
       nuclear repulsion energy       495.7061428626 Hartrees.
 NAtoms=   16 NActive=   16 NUniq=   16 SFac= 1.00D+00 NAtFMM=   60 NAOKFM=F Big=F
 Integral buffers will be    131072 words long.
 Raffenetti 2 integral format.
 Two-electron integral symmetry is turned on.
 Nuclear repulsion after empirical dispersion term =      495.6952656860 Hartrees.
 One-electron integrals computed using PRISM.
 NBasis=   220 RedAO= T EigKep=  3.22D-06  NBF=   220
 NBsUse=   220 1.00D-06 EigRej= -1.00D+00 NBFU=   220
 ExpMin= 4.38D-02 ExpMax= 5.48D+03 ExpMxC= 8.25D+02 IAcc=2 IRadAn=         4 AccDes= 0.00D+00
 Harris functional with IExCor=  402 and IRadAn=       4 diagonalized for initial guess.
 HarFok:  IExCor=  402 AccDes= 0.00D+00 IRadAn=         4 IDoV= 1 UseB2=F ITyADJ=14
 ICtDFT=  3500011 ScaDFX=  1.000000  1.000000  1.000000  1.000000
 FoFCou: FMM=F IPFlag=           0 FMFlag=      100000 FMFlg1=           0
         NFxFlg=           0 DoJE=T BraDBF=F KetDBF=T FulRan=T
         wScrn=  0.000000 ICntrl=     500 IOpCl=  0 I1Cent=   200000004 NGrid=           0
         NMat0=    1 NMatS0=      1 NMatT0=    0 NMatD0=    1 NMtDS0=    0 NMtDT0=    0
 Petite list used in FoFCou.
 Keep R1 ints in memory in canonical form, NReq=301066375.
 Requested convergence on RMS density matrix=1.00D-08 within 128 cycles.
 Requested convergence on MAX density matrix=1.00D-06.
 Requested convergence on             energy=1.00D-06.
 No special actions if energy rises.
 SCF Done:  E(RB3LYP) =  -492.156166943     A.U. after   14 cycles
            NFock= 14  Conv=0.52D-08     -V/T= 2.0092

 **********************************************************************

            Population analysis using the SCF density.

 **********************************************************************

 Orbital symmetries:
       Occupied  (A) (A) (A) (A) (A) (A) (A) (A) (A) (A) (A) (A)
                 (A) (A) (A) (A) (A) (A) (A) (A) (A) (A) (A) (A)
                 (A) (A) (A) (A) (A) (A) (A) (A) (A) (A) (A) (A)
       Virtual   (A) (A) (A) (A) (A) (A) (A) (A) (A) (A) (A) (A)
                 (A) (A) (A) (A) (A) (A) (A) (A) (A) (A) (A) (A)
                 (A) (A) (A) (A) (A) (A) (A) (A) (A) (A) (A) (A)
                 (A) (A) (A) (A) (A) (A) (A) (A) (A) (A) (A) (A)
                 (A) (A) (A) (A) (A) (A) (A) (A) (A) (A) (A) (A)
                 (A) (A) (A) (A) (A) (A) (A) (A) (A) (A) (A) (A)
                 (A) (A) (A) (A) (A) (A) (A) (A) (A) (A) (A) (A)
                 (A) (A) (A) (A) (A) (A) (A) (A) (A) (A) (A) (A)
                 (A) (A) (A) (A) (A) (A) (A) (A) (A) (A) (A) (A)
                 (A) (A) (A) (A) (A) (A) (A) (A) (A) (A) (A) (A)
                 (A) (A) (A) (A) (A) (A) (A) (A) (A) (A) (A) (A)
                 (A) (A) (A) (A) (A) (A) (A) (A) (A) (A) (A) (A)
                 (A) (A) (A) (A) (A) (A) (A) (A) (A) (A) (A) (A)
                 (A) (A) (A) (A) (A) (A) (A) (A) (A) (A) (A) (A)
                 (A) (A) (A) (A) (A) (A) (A) (A) (A) (A) (A) (A)
                 (A) (A) (A) (A)
 The electronic state is 1-A.
 Alpha  occ. eigenvalues --  -19.17910 -19.17909 -14.56865 -14.38684 -10.27338
 Alpha  occ. eigenvalues --  -10.24542 -10.22446 -10.22445 -10.21731 -10.21731
 Alpha  occ. eigenvalues --   -1.22368  -1.04919  -0.96337  -0.88473  -0.79974
 Alpha  occ. eigenvalues --   -0.78035  -0.70016  -0.65020  -0.60710  -0.56666
 Alpha  occ. eigenvalues --   -0.55845  -0.54348  -0.52962  -0.50685  -0.47081
 Alpha  occ. eigenvalues --   -0.46302  -0.45181  -0.42804  -0.41934  -0.37424
 Alpha  occ. eigenvalues --   -0.34737  -0.30885  -0.30824  -0.28849  -0.28378
 Alpha  occ. eigenvalues --   -0.23833
 Alpha virt. eigenvalues --   -0.08698  -0.03561  -0.01990   0.00261   0.00692
 Alpha virt. eigenvalues --    0.01094   0.03548   0.04146   0.05649   0.06027
 Alpha virt. eigenvalues --    0.07330   0.08085   0.08361   0.08893   0.10434
 Alpha virt. eigenvalues --    0.11902   0.12726   0.12834   0.13383   0.13489
 Alpha virt. eigenvalues --    0.13656   0.15629   0.15984   0.16094   0.16565
 Alpha virt. eigenvalues --    0.17375   0.17684   0.19044   0.19550   0.19655
 Alpha virt. eigenvalues --    0.20001   0.21390   0.21570   0.22582   0.22825
 Alpha virt. eigenvalues --    0.23168   0.24205   0.25108   0.25766   0.26179
 Alpha virt. eigenvalues --    0.26919   0.27058   0.27835   0.29991   0.30398
 Alpha virt. eigenvalues --    0.31319   0.32806   0.33055   0.34374   0.36305
 Alpha virt. eigenvalues --    0.36493   0.38961   0.39672   0.40959   0.41840
 Alpha virt. eigenvalues --    0.43446   0.46118   0.53320   0.57824   0.59930
 Alpha virt. eigenvalues --    0.63425   0.64237   0.65045   0.69059   0.69466
 Alpha virt. eigenvalues --    0.70439   0.72211   0.74195   0.76956   0.77434
 Alpha virt. eigenvalues --    0.80379   0.82947   0.83581   0.86850   0.89182
 Alpha virt. eigenvalues --    0.89596   0.92321   0.92840   0.94986   0.98470
 Alpha virt. eigenvalues --    0.98515   1.01646   1.03077   1.06255   1.06354
 Alpha virt. eigenvalues --    1.08078   1.09411   1.15142   1.16519   1.18655
 Alpha virt. eigenvalues --    1.18846   1.20237   1.20871   1.22848   1.24357
 Alpha virt. eigenvalues --    1.26935   1.30436   1.30646   1.32239   1.34127
 Alpha virt. eigenvalues --    1.34963   1.36477   1.37092   1.37349   1.41740
 Alpha virt. eigenvalues --    1.42848   1.43852   1.44775   1.46221   1.52558
 Alpha virt. eigenvalues --    1.61692   1.68315   1.71451   1.74656   1.79772
 Alpha virt. eigenvalues --    1.81092   1.81171   1.83591   1.85111   1.87013
 Alpha virt. eigenvalues --    1.91216   1.91656   1.91879   1.95464   1.95504
 Alpha virt. eigenvalues --    1.95969   1.96467   2.02472   2.06730   2.07613
 Alpha virt. eigenvalues --    2.12166   2.12564   2.12883   2.16994   2.18373
 Alpha virt. eigenvalues --    2.21534   2.22205   2.29142   2.36373   2.37622
 Alpha virt. eigenvalues --    2.38091   2.40884   2.41869   2.42443   2.47783
 Alpha virt. eigenvalues --    2.51036   2.52279   2.53526   2.55289   2.56672
 Alpha virt. eigenvalues --    2.58184   2.59717   2.66191   2.69125   2.72442
 Alpha virt. eigenvalues --    2.72789   2.78498   2.81496   2.82605   2.84044
 Alpha virt. eigenvalues --    2.98508   3.02115   3.03605   3.06345   3.10885
 Alpha virt. eigenvalues --    3.11732   3.19183   3.27059   3.33310   3.33904
 Alpha virt. eigenvalues --    3.40804   3.51557   3.64868   3.82798   4.12375
 Alpha virt. eigenvalues --    4.20911   4.27878   4.27922   4.32652   4.46938
 Alpha virt. eigenvalues --    4.48577   4.52117   4.80606   4.84912
          Condensed to atoms (all electrons):
               1          2          3          4          5          6
     1  C    9.518458   0.079436  -3.008439  -0.413616  -0.227834  -0.476244
     2  C    0.079436   9.264025   0.079457  -0.951761  -0.377045  -0.951766
     3  C   -3.008439   0.079457   9.518429  -0.476232  -0.227835  -0.413619
     4  C   -0.413616  -0.951761  -0.476232   9.806057   0.262278  -2.460447
     5  C   -0.227834  -0.377045  -0.227835   0.262278   6.070990   0.262265
     6  C   -0.476244  -0.951766  -0.413619  -2.460447   0.262265   9.806091
     7  N    0.040048  -0.013425   0.040048  -0.027921  -0.008751  -0.027921
     8  N    0.231568  -0.895713   0.231566   0.028540  -0.021722   0.028539
     9  O    0.159670  -0.304832  -0.094217   0.157275   0.015453  -0.019331
    10  O   -0.094217  -0.304833   0.159669  -0.019330   0.015453   0.157277
    11  H    0.015655   0.286120   0.120337  -0.012709  -0.036977  -0.024201
    12  H    0.120338   0.286119   0.015656  -0.024202  -0.036976  -0.012709
    13  H   -0.017919   0.006929   0.101155   0.131543   0.054783   0.044601
    14  H    0.101156   0.006929  -0.017918   0.044601   0.054783   0.131542
    15  H    0.027345  -0.001740  -0.000658   0.076518   0.009892  -0.120921
    16  H   -0.000658  -0.001740   0.027345  -0.120921   0.009891   0.076518
               7          8          9         10         11         12
     1  C    0.040048   0.231568   0.159670  -0.094217   0.015655   0.120338
     2  C   -0.013425  -0.895713  -0.304832  -0.304833   0.286120   0.286119
     3  C    0.040048   0.231566  -0.094217   0.159669   0.120337   0.015656
     4  C   -0.027921   0.028540   0.157275  -0.019330  -0.012709  -0.024202
     5  C   -0.008751  -0.021722   0.015453   0.015453  -0.036977  -0.036976
     6  C   -0.027921   0.028539  -0.019331   0.157277  -0.024201  -0.012709
     7  N    7.026969   0.000939  -0.000273  -0.000273  -0.000455  -0.000455
     8  N    0.000939   7.039559   0.364451   0.364450  -0.053190  -0.053190
     9  O   -0.000273   0.364451   7.864797  -0.090783  -0.002989   0.020749
    10  O   -0.000273   0.364450  -0.090783   7.864797   0.020749  -0.002989
    11  H   -0.000455  -0.053190  -0.002989   0.020749   0.526364  -0.000150
    12  H   -0.000455  -0.053190   0.020749  -0.002989  -0.000150   0.526365
    13  H   -0.021401  -0.000395   0.000034   0.000063   0.000013  -0.005339
    14  H   -0.021401  -0.000395   0.000063   0.000034  -0.005339   0.000013
    15  H    0.331786   0.000010   0.000000   0.000001  -0.000009   0.000003
    16  H    0.331786   0.000010   0.000001   0.000000   0.000003  -0.000009
              13         14         15         16
     1  C   -0.017919   0.101156   0.027345  -0.000658
     2  C    0.006929   0.006929  -0.001740  -0.001740
     3  C    0.101155  -0.017918  -0.000658   0.027345
     4  C    0.131543   0.044601   0.076518  -0.120921
     5  C    0.054783   0.054783   0.009892   0.009891
     6  C    0.044601   0.131542  -0.120921   0.076518
     7  N   -0.021401  -0.021401   0.331786   0.331786
     8  N   -0.000395  -0.000395   0.000010   0.000010
     9  O    0.000034   0.000063   0.000000   0.000001
    10  O    0.000063   0.000034   0.000001   0.000000
    11  H    0.000013  -0.005339  -0.000009   0.000003
    12  H   -0.005339   0.000013   0.000003  -0.000009
    13  H    0.581729  -0.000152  -0.000071   0.005341
    14  H   -0.000152   0.581729   0.005341  -0.000071
    15  H   -0.000071   0.005341   0.393408  -0.029089
    16  H    0.005341  -0.000071  -0.029089   0.393407
 Mulliken charges:
               1
     1  C   -0.054745
     2  C   -0.206161
     3  C   -0.054743
     4  C    0.000328
     5  C    0.181353
     6  C    0.000329
     7  N   -0.649298
     8  N   -0.265025
     9  O   -0.070068
    10  O   -0.070068
    11  H    0.166777
    12  H    0.166777
    13  H    0.119085
    14  H    0.119085
    15  H    0.308186
    16  H    0.308186
 Sum of Mulliken charges =  -0.00000
 Mulliken charges with hydrogens summed into heavy atoms:
               1
     1  C    0.112032
     2  C   -0.206161
     3  C    0.112034
     4  C    0.119413
     5  C    0.181353
     6  C    0.119414
     7  N   -0.032925
     8  N   -0.265025
     9  O   -0.070068
    10  O   -0.070068
 Electronic spatial extent (au):  <R**2>=           1557.6949
 Charge=             -0.0000 electrons
 Dipole moment (field-independent basis, Debye):
    X=              7.8934    Y=              0.0000    Z=              0.0004  Tot=              7.8934
 Quadrupole moment (field-independent basis, Debye-Ang):
   XX=            -56.9671   YY=            -53.3228   ZZ=            -60.7155
   XY=             -0.0000   XZ=             -0.0017   YZ=             -0.0002
 Traceless Quadrupole moment (field-independent basis, Debye-Ang):
   XX=              0.0347   YY=              3.6790   ZZ=             -3.7137
   XY=             -0.0000   XZ=             -0.0017   YZ=             -0.0002
 Octapole moment (field-independent basis, Debye-Ang**2):
  XXX=            110.1618  YYY=              0.0000  ZZZ=             -0.0008  XYY=             16.8620
  XXY=             -0.0000  XXZ=              0.0024  XZZ=            -13.2773  YZZ=             -0.0000
  YYZ=             -0.0003  XYZ=             -0.0009
 Hexadecapole moment (field-independent basis, Debye-Ang**3):
 XXXX=          -1371.9242 YYYY=           -370.7301 ZZZZ=            -66.6831 XXXY=             -0.0000
 XXXZ=             -0.0145 YYYX=             -0.0000 YYYZ=              0.0034 ZZZX=              0.0030
 ZZZY=              0.0055 XXYY=           -301.6861 XXZZ=           -279.9439 YYZZ=            -85.0578
 XXYZ=              0.0006 YYXZ=             -0.0002 ZZXY=              0.0000
 N-N= 4.956952656860D+02 E-N=-2.138256841447D+03  KE= 4.876689235610D+02
 Calling FoFJK, ICntrl=      2127 FMM=F ISym2X=0 I1Cent= 0 IOpClX= 0 NMat=1 NMatS=1 NMatT=0.
 ***** Axes restored to original set *****
 -------------------------------------------------------------------
 Center     Atomic                   Forces (Hartrees/Bohr)
 Number     Number              X              Y              Z
 -------------------------------------------------------------------
      1        6          -0.000801648    0.002870403   -0.000003365
      2        6           0.000662367   -0.000000852   -0.000017645
      3        6          -0.000800806   -0.002869617   -0.000002990
      4        6           0.001032843   -0.002330999    0.000000858
      5        6          -0.001951810   -0.000000357   -0.000000285
      6        6           0.001034069    0.002331877    0.000000781
      7        7           0.003382334    0.000000786    0.000000224
      8        7           0.004653408    0.000000092    0.000072764
      9        8          -0.004976441   -0.007515026   -0.000025194
     10        8          -0.004976769    0.007515108   -0.000025647
     11        1           0.000531184   -0.000430605   -0.000000075
     12        1           0.000530898    0.000430363   -0.000000160
     13        1           0.000046721    0.000195721    0.000000372
     14        1           0.000046464   -0.000196216    0.000000409
     15        1           0.000793405    0.000743337   -0.000000045
     16        1           0.000793781   -0.000744017   -0.000000004
 -------------------------------------------------------------------
 Cartesian Forces:  Max     0.007515108 RMS     0.002207855

 GradGradGradGradGradGradGradGradGradGradGradGradGradGradGradGradGradGrad
 Berny optimization.
 FormGI is forming the generalized inverse of G from B-inverse, IUseBI=4.
 Internal  Forces:  Max     0.008971631 RMS     0.001941181
 Search for a local minimum.
 Step number   1 out of a maximum of   82
 All quantities printed in internal units (Hartrees-Bohrs-Radians)
 Mixed Optimization -- RFO/linear search
 Second derivative matrix not updated -- first step.
 ITU=  0
     Eigenvalues ---    0.01034   0.01034   0.01805   0.01968   0.02043
     Eigenvalues ---    0.02099   0.02130   0.02152   0.02152   0.02182
     Eigenvalues ---    0.02192   0.02236   0.02242   0.16000   0.16000
     Eigenvalues ---    0.16000   0.16000   0.16000   0.16000   0.22000
     Eigenvalues ---    0.22969   0.24000   0.25000   0.25000   0.25000
     Eigenvalues ---    0.25000   0.35198   0.35198   0.35511   0.35511
     Eigenvalues ---    0.38277   0.41007   0.41966   0.45111   0.45347
     Eigenvalues ---    0.46792   0.46792   0.47048   0.48515   0.51911
     Eigenvalues ---    0.90722   0.90722
 RFO step:  Lambda=-4.34693213D-04 EMin= 1.03364348D-02
 Linear search not attempted -- first point.
 Iteration  1 RMS(Cart)=  0.00788526 RMS(Int)=  0.00000482
 Iteration  2 RMS(Cart)=  0.00000667 RMS(Int)=  0.00000103
 Iteration  3 RMS(Cart)=  0.00000000 RMS(Int)=  0.00000103
 Variable       Old X    -DE/DX   Delta X   Delta X   Delta X     New X
                                 (Linear)    (Quad)   (Total)
    R1        2.63803   0.00345   0.00000   0.00755   0.00755   2.64558
    R2        2.61394   0.00259   0.00000   0.00533   0.00533   2.61927
    R3        2.04853  -0.00064   0.00000  -0.00181  -0.00181   2.04672
    R4        2.63803   0.00345   0.00000   0.00755   0.00755   2.64558
    R5        2.73964   0.00530   0.00000   0.01383   0.01383   2.75347
    R6        2.61394   0.00259   0.00000   0.00533   0.00533   2.61927
    R7        2.04853  -0.00064   0.00000  -0.00181  -0.00181   2.04672
    R8        2.66711   0.00242   0.00000   0.00542   0.00542   2.67253
    R9        2.05355  -0.00015   0.00000  -0.00042  -0.00042   2.05313
   R10        2.66711   0.00242   0.00000   0.00542   0.00542   2.67253
   R11        2.57984   0.00497   0.00000   0.00957   0.00957   2.58941
   R12        2.05355  -0.00015   0.00000  -0.00042  -0.00042   2.05313
   R13        1.89949   0.00105   0.00000   0.00223   0.00223   1.90172
   R14        1.89949   0.00105   0.00000   0.00224   0.00224   1.90172
   R15        2.32602   0.00897   0.00000   0.00988   0.00988   2.33591
   R16        2.32602   0.00897   0.00000   0.00988   0.00988   2.33591
    A1        2.08673   0.00037   0.00000   0.00179   0.00179   2.08853
    A2        2.08292   0.00005   0.00000   0.00059   0.00059   2.08351
    A3        2.11353  -0.00042   0.00000  -0.00238  -0.00238   2.11115
    A4        2.10973  -0.00104   0.00000  -0.00384  -0.00384   2.10589
    A5        2.08673   0.00052   0.00000   0.00192   0.00192   2.08865
    A6        2.08673   0.00052   0.00000   0.00192   0.00192   2.08865
    A7        2.08673   0.00037   0.00000   0.00179   0.00179   2.08853
    A8        2.08292   0.00005   0.00000   0.00059   0.00059   2.08351
    A9        2.11353  -0.00042   0.00000  -0.00238  -0.00238   2.11115
   A10        2.10563   0.00026   0.00000   0.00081   0.00081   2.10644
   A11        2.08897   0.00001   0.00000   0.00047   0.00047   2.08945
   A12        2.08858  -0.00027   0.00000  -0.00129  -0.00129   2.08730
   A13        2.07192  -0.00021   0.00000  -0.00137  -0.00137   2.07055
   A14        2.10563   0.00011   0.00000   0.00068   0.00069   2.10632
   A15        2.10563   0.00011   0.00000   0.00068   0.00068   2.10632
   A16        2.10563   0.00026   0.00000   0.00081   0.00081   2.10644
   A17        2.08897   0.00001   0.00000   0.00047   0.00047   2.08945
   A18        2.08858  -0.00027   0.00000  -0.00129  -0.00129   2.08730
   A19        2.11447   0.00019   0.00000   0.00116   0.00116   2.11563
   A20        2.11447   0.00019   0.00000   0.00116   0.00116   2.11563
   A21        2.05424  -0.00037   0.00000  -0.00232  -0.00232   2.05192
   A22        2.05919   0.00067   0.00000   0.00269   0.00268   2.06187
   A23        2.05919   0.00067   0.00000   0.00269   0.00269   2.06187
   A24        2.16481  -0.00135   0.00000  -0.00538  -0.00538   2.15943
    D1        0.00000  -0.00000   0.00000  -0.00006  -0.00006  -0.00006
    D2       -3.14159  -0.00000   0.00000  -0.00003  -0.00003   3.14157
    D3        3.14159  -0.00000   0.00000  -0.00003  -0.00003   3.14157
    D4        0.00000   0.00000   0.00000   0.00001   0.00001   0.00001
    D5       -0.00000   0.00000   0.00000   0.00003   0.00003   0.00003
    D6        3.14159   0.00000   0.00000   0.00003   0.00003  -3.14156
    D7       -3.14159  -0.00000   0.00000  -0.00001  -0.00001   3.14159
    D8        0.00000  -0.00000   0.00000  -0.00000  -0.00000  -0.00000
    D9        0.00000   0.00000   0.00000   0.00006   0.00006   0.00006
   D10        3.14159   0.00000   0.00000   0.00003   0.00003  -3.14157
   D11        3.14159   0.00000   0.00000   0.00003   0.00003  -3.14157
   D12       -0.00000  -0.00000   0.00000  -0.00001  -0.00001  -0.00001
   D13       -3.14135  -0.00003   0.00000  -0.00262  -0.00262   3.13921
   D14       -0.00024   0.00003   0.00000   0.00259   0.00259   0.00235
   D15        0.00024  -0.00003   0.00000  -0.00259  -0.00259  -0.00235
   D16        3.14135   0.00003   0.00000   0.00262   0.00262  -3.13921
   D17       -0.00000  -0.00000   0.00000  -0.00003  -0.00003  -0.00003
   D18        3.14159  -0.00000   0.00000  -0.00003  -0.00003   3.14156
   D19        3.14159   0.00000   0.00000   0.00001   0.00001  -3.14159
   D20       -0.00000   0.00000   0.00000   0.00000   0.00000   0.00000
   D21        0.00000  -0.00000   0.00000  -0.00000  -0.00000  -0.00000
   D22        3.14159  -0.00000   0.00000  -0.00000  -0.00000   3.14159
   D23       -3.14159   0.00000   0.00000  -0.00000  -0.00000  -3.14159
   D24       -0.00000   0.00000   0.00000   0.00000   0.00000  -0.00000
   D25       -0.00000   0.00000   0.00000   0.00000   0.00000   0.00000
   D26        3.14159  -0.00000   0.00000   0.00000   0.00000   3.14159
   D27       -3.14159   0.00000   0.00000   0.00000   0.00000  -3.14159
   D28        0.00000  -0.00000   0.00000  -0.00000  -0.00000   0.00000
   D29        3.14157  -0.00000   0.00000  -0.00000  -0.00000   3.14157
   D30        0.00002   0.00000   0.00000  -0.00000  -0.00000   0.00002
   D31       -0.00003  -0.00000   0.00000   0.00000   0.00000  -0.00002
   D32       -3.14157   0.00000   0.00000   0.00000   0.00000  -3.14157
         Item               Value     Threshold  Converged?
 Maximum Force            0.008972     0.000450     NO 
 RMS     Force            0.001941     0.000300     NO 
 Maximum Displacement     0.032947     0.001800     NO 
 RMS     Displacement     0.007888     0.001200     NO 
 Predicted change in Energy=-2.175308D-04
 GradGradGradGradGradGradGradGradGradGradGradGradGradGradGradGradGradGrad

                          Input orientation:                          
 ---------------------------------------------------------------------
 Center     Atomic      Atomic             Coordinates (Angstroms)
 Number     Number       Type             X           Y           Z
 ---------------------------------------------------------------------
      1          6           0       -0.023071    1.216422    0.000414
      2          6           0       -0.716083    0.000000    0.000637
      3          6           0       -0.023071   -1.216422    0.000486
      4          6           0        1.362989   -1.216251    0.000184
      5          6           0        2.084665    0.000000   -0.000007
      6          6           0        1.362989    1.216251    0.000113
      7          7           0        3.454920   -0.000000   -0.000298
      8          7           0       -2.173154   -0.000000    0.000984
      9          8           0       -2.756072   -1.090030   -0.001423
     10          8           0       -2.756074    1.090028   -0.001490
     11          1           0       -0.580135    2.145258    0.000512
     12          1           0       -0.580135   -2.145258    0.000637
     13          1           0        1.901677   -2.159774    0.000096
     14          1           0        1.901677    2.159774   -0.000030
     15          1           0        3.976489    0.860640   -0.000455
     16          1           0        3.976489   -0.860640   -0.000403
 ---------------------------------------------------------------------
                    Distance matrix (angstroms):
                    1          2          3          4          5
     1  C    0.000000
     2  C    1.399981   0.000000
     3  C    2.432844   1.399981   0.000000
     4  C    2.799832   2.408694   1.386060   0.000000
     5  C    2.433563   2.800748   2.433563   1.414243   0.000000
     6  C    1.386060   2.408694   2.799832   2.432502   1.414243
     7  N    3.684576   4.171003   3.684576   2.419802   1.370256
     8  N    2.470333   1.457072   2.470332   3.739462   4.257819
     9  O    3.576174   2.312947   2.735923   4.120995   4.961945
    10  O    2.735925   2.312948   3.576174   4.720763   4.961946
    11  H    1.083078   2.149561   3.407523   3.882715   3.421007
    12  H    3.407523   2.149561   1.083078   2.153784   3.421007
    13  H    3.886303   3.393713   2.143494   1.086471   2.167512
    14  H    2.143494   3.393713   3.886303   3.418732   2.167512
    15  H    4.015353   4.770842   4.506735   3.338242   2.078389
    16  H    4.506735   4.770842   4.015353   2.637582   2.078389
                    6          7          8          9         10
     6  C    0.000000
     7  N    2.419802   0.000000
     8  N    3.739462   5.628075   0.000000
     9  O    4.720763   6.305917   1.236108   0.000000
    10  O    4.120997   6.305919   1.236108   2.180058   0.000000
    11  H    2.153784   4.569880   2.672049   3.898947   2.418310
    12  H    3.882715   4.569880   2.672048   2.418308   3.898947
    13  H    3.418732   2.660298   4.611819   4.779015   5.679424
    14  H    1.086471   2.660298   4.611819   5.679424   4.779017
    15  H    2.637582   1.006348   6.209574   7.009457   6.736469
    16  H    3.338242   1.006348   6.209574   6.736468   7.009458
                   11         12         13         14         15
    11  H    0.000000
    12  H    4.290516   0.000000
    13  H    4.969174   2.481855   0.000000
    14  H    2.481855   4.969174   4.319548   0.000000
    15  H    4.734244   5.458777   3.664389   2.447977   0.000000
    16  H    5.458777   4.734244   2.447977   3.664389   1.721281
                   16
    16  H    0.000000
 Stoichiometry    C6H6N2O2
 Framework group  C1[X(C6H6N2O2)]
 Deg. of freedom    42
 Full point group                 C1      NOp   1
 Largest Abelian subgroup         C1      NOp   1
 Largest concise Abelian subgroup C1      NOp   1
                         Standard orientation:                         
 ---------------------------------------------------------------------
 Center     Atomic      Atomic             Coordinates (Angstroms)
 Number     Number       Type             X           Y           Z
 ---------------------------------------------------------------------
      1          6           0       -0.019762   -1.216422   -0.000514
      2          6           0       -0.712774   -0.000000   -0.000736
      3          6           0       -0.019762    1.216422   -0.000585
      4          6           0        1.366298    1.216251   -0.000284
      5          6           0        2.087973    0.000000   -0.000093
      6          6           0        1.366298   -1.216251   -0.000213
      7          7           0        3.458229    0.000000    0.000199
      8          7           0       -2.169846   -0.000000   -0.001084
      9          8           0       -2.752764    1.090029    0.001323
     10          8           0       -2.752765   -1.090028    0.001390
     11          1           0       -0.576826   -2.145258   -0.000611
     12          1           0       -0.576827    2.145258   -0.000737
     13          1           0        1.904986    2.159774   -0.000196
     14          1           0        1.904986   -2.159774   -0.000070
     15          1           0        3.979798   -0.860640    0.000355
     16          1           0        3.979797    0.860641    0.000303
 ---------------------------------------------------------------------
 Rotational constants (GHZ):      3.9117382      0.8175760      0.6762384
 Standard basis: 6-31+G(d,p) (6D, 7F)
 There are   220 symmetry adapted cartesian basis functions of A   symmetry.
 There are   220 symmetry adapted basis functions of A   symmetry.
   220 basis functions,   362 primitive gaussians,   220 cartesian basis functions
    36 alpha electrons       36 beta electrons
       nuclear repulsion energy       494.0576436074 Hartrees.
 NAtoms=   16 NActive=   16 NUniq=   16 SFac= 1.00D+00 NAtFMM=   60 NAOKFM=F Big=F
 Integral buffers will be    131072 words long.
 Raffenetti 2 integral format.
 Two-electron integral symmetry is turned on.
 Nuclear repulsion after empirical dispersion term =      494.0467379942 Hartrees.
 One-electron integrals computed using PRISM.
 NBasis=   220 RedAO= T EigKep=  3.29D-06  NBF=   220
 NBsUse=   220 1.00D-06 EigRej= -1.00D+00 NBFU=   220
 Initial guess from the checkpoint file:  "b3lypD3PNA.chk"
 B after Tr=     0.000000    0.000000    0.000000
         Rot=    1.000000    0.000000   -0.000056    0.000000 Ang=   0.01 deg.
 ExpMin= 4.38D-02 ExpMax= 5.48D+03 ExpMxC= 8.25D+02 IAcc=2 IRadAn=         4 AccDes= 0.00D+00
 Harris functional with IExCor=  402 and IRadAn=       4 diagonalized for initial guess.
 HarFok:  IExCor=  402 AccDes= 0.00D+00 IRadAn=         4 IDoV= 1 UseB2=F ITyADJ=14
 ICtDFT=  3500011 ScaDFX=  1.000000  1.000000  1.000000  1.000000
 FoFCou: FMM=F IPFlag=           0 FMFlag=      100000 FMFlg1=           0
         NFxFlg=           0 DoJE=T BraDBF=F KetDBF=T FulRan=T
         wScrn=  0.000000 ICntrl=     500 IOpCl=  0 I1Cent=   200000004 NGrid=           0
         NMat0=    1 NMatS0=      1 NMatT0=    0 NMatD0=    1 NMtDS0=    0 NMtDT0=    0
 Petite list used in FoFCou.
 Keep R1 ints in memory in canonical form, NReq=301066375.
 Requested convergence on RMS density matrix=1.00D-08 within 128 cycles.
 Requested convergence on MAX density matrix=1.00D-06.
 Requested convergence on             energy=1.00D-06.
 No special actions if energy rises.
 SCF Done:  E(RB3LYP) =  -492.156366197     A.U. after   12 cycles
            NFock= 12  Conv=0.77D-08     -V/T= 2.0094
 Calling FoFJK, ICntrl=      2127 FMM=F ISym2X=0 I1Cent= 0 IOpClX= 0 NMat=1 NMatS=1 NMatT=0.
 ***** Axes restored to original set *****
 -------------------------------------------------------------------
 Center     Atomic                   Forces (Hartrees/Bohr)
 Number     Number              X              Y              Z
 -------------------------------------------------------------------
      1        6          -0.000375615   -0.000272352    0.000034679
      2        6           0.000559627   -0.000000030    0.000161378
      3        6          -0.000375468    0.000272345    0.000034615
      4        6           0.000100817    0.000172966   -0.000009303
      5        6          -0.000819618   -0.000000091    0.000004208
      6        6           0.000100847   -0.000172884   -0.000009319
      7        7           0.000050803    0.000000003    0.000000672
      8        7           0.000907334    0.000000022   -0.000729975
      9        8           0.000116571   -0.001279039    0.000260066
     10        8           0.000116723    0.001279022    0.000259987
     11        1          -0.000038446    0.000095991    0.000001112
     12        1          -0.000038444   -0.000095961    0.000001124
     13        1          -0.000072674    0.000034415   -0.000004314
     14        1          -0.000072705   -0.000034420   -0.000004312
     15        1          -0.000079866    0.000000204   -0.000000312
     16        1          -0.000079887   -0.000000192   -0.000000306
 -------------------------------------------------------------------
 Cartesian Forces:  Max     0.001279039 RMS     0.000364127

 GradGradGradGradGradGradGradGradGradGradGradGradGradGradGradGradGradGrad
 Berny optimization.
 Using GEDIIS/GDIIS optimizer.
 FormGI is forming the generalized inverse of G from B-inverse, IUseBI=4.
 Internal  Forces:  Max     0.001140678 RMS     0.000347194
 Search for a local minimum.
 Step number   2 out of a maximum of   82
 All quantities printed in internal units (Hartrees-Bohrs-Radians)
 Mixed Optimization -- En-DIIS/RFO-DIIS
 Update second derivatives using D2CorX and points    1    2
 DE= -1.99D-04 DEPred=-2.18D-04 R= 9.16D-01
 TightC=F SS=  1.41D+00  RLast= 2.92D-02 DXNew= 5.0454D-01 8.7559D-02
 Trust test= 9.16D-01 RLast= 2.92D-02 DXMaxT set to 3.00D-01
 ITU=  1  0
 Use linear search instead of GDIIS.
     Eigenvalues ---    0.01034   0.01045   0.01804   0.01968   0.02044
     Eigenvalues ---    0.02099   0.02130   0.02152   0.02152   0.02182
     Eigenvalues ---    0.02192   0.02236   0.02242   0.15985   0.16000
     Eigenvalues ---    0.16000   0.16000   0.16000   0.16021   0.22000
     Eigenvalues ---    0.22991   0.24241   0.25000   0.25000   0.25000
     Eigenvalues ---    0.25790   0.35186   0.35198   0.35511   0.35537
     Eigenvalues ---    0.39987   0.41006   0.41969   0.45111   0.46676
     Eigenvalues ---    0.46792   0.47052   0.47256   0.50281   0.52964
     Eigenvalues ---    0.80762   0.90722
 RFO step:  Lambda=-4.15035476D-05 EMin= 1.03364348D-02
 Quartic linear search produced a step of -0.07278.
 Iteration  1 RMS(Cart)=  0.00619148 RMS(Int)=  0.00012044
 Iteration  2 RMS(Cart)=  0.00010569 RMS(Int)=  0.00007282
 Iteration  3 RMS(Cart)=  0.00000002 RMS(Int)=  0.00007282
 Variable       Old X    -DE/DX   Delta X   Delta X   Delta X     New X
                                 (Linear)    (Quad)   (Total)
    R1        2.64558  -0.00065  -0.00055  -0.00007  -0.00062   2.64496
    R2        2.61927  -0.00044  -0.00039   0.00006  -0.00033   2.61894
    R3        2.04672   0.00010   0.00013  -0.00003   0.00010   2.04682
    R4        2.64558  -0.00065  -0.00055  -0.00007  -0.00062   2.64496
    R5        2.75347  -0.00114  -0.00101  -0.00046  -0.00146   2.75200
    R6        2.61927  -0.00044  -0.00039   0.00006  -0.00033   2.61894
    R7        2.04672   0.00010   0.00013  -0.00003   0.00010   2.04682
    R8        2.67253  -0.00034  -0.00039   0.00021  -0.00018   2.67235
    R9        2.05313  -0.00007   0.00003  -0.00024  -0.00021   2.05292
   R10        2.67253  -0.00034  -0.00039   0.00021  -0.00018   2.67235
   R11        2.58941  -0.00011  -0.00070   0.00140   0.00071   2.59012
   R12        2.05313  -0.00007   0.00003  -0.00024  -0.00021   2.05292
   R13        1.90172  -0.00004  -0.00016   0.00029   0.00013   1.90185
   R14        1.90172  -0.00004  -0.00016   0.00029   0.00013   1.90185
   R15        2.33591   0.00107  -0.00072   0.00275   0.00203   2.33794
   R16        2.33591   0.00107  -0.00072   0.00275   0.00203   2.33794
    A1        2.08853  -0.00034  -0.00013  -0.00109  -0.00122   2.08731
    A2        2.08351   0.00019  -0.00004   0.00089   0.00084   2.08435
    A3        2.11115   0.00015   0.00017   0.00020   0.00038   2.11153
    A4        2.10589   0.00072   0.00028   0.00203   0.00231   2.10820
    A5        2.08865  -0.00036  -0.00014  -0.00102  -0.00116   2.08749
    A6        2.08865  -0.00036  -0.00014  -0.00101  -0.00115   2.08749
    A7        2.08853  -0.00034  -0.00013  -0.00109  -0.00122   2.08731
    A8        2.08351   0.00019  -0.00004   0.00089   0.00084   2.08435
    A9        2.11115   0.00015   0.00017   0.00020   0.00038   2.11153
   A10        2.10644  -0.00020  -0.00006  -0.00058  -0.00064   2.10580
   A11        2.08945   0.00005  -0.00003   0.00016   0.00013   2.08957
   A12        2.08730   0.00015   0.00009   0.00042   0.00051   2.08781
   A13        2.07055   0.00037   0.00010   0.00131   0.00141   2.07196
   A14        2.10632  -0.00018  -0.00005  -0.00066  -0.00071   2.10561
   A15        2.10632  -0.00018  -0.00005  -0.00066  -0.00071   2.10561
   A16        2.10644  -0.00020  -0.00006  -0.00058  -0.00064   2.10580
   A17        2.08945   0.00005  -0.00003   0.00016   0.00013   2.08957
   A18        2.08730   0.00015   0.00009   0.00042   0.00051   2.08781
   A19        2.11563  -0.00004  -0.00008  -0.00006  -0.00014   2.11549
   A20        2.11563  -0.00004  -0.00008  -0.00006  -0.00014   2.11549
   A21        2.05192   0.00009   0.00017   0.00012   0.00029   2.05221
   A22        2.06187  -0.00055  -0.00020  -0.00152  -0.00207   2.05980
   A23        2.06187  -0.00055  -0.00020  -0.00152  -0.00207   2.05980
   A24        2.15943   0.00110   0.00039   0.00325   0.00329   2.16272
    D1       -0.00006   0.00001   0.00000   0.00059   0.00060   0.00054
    D2        3.14157   0.00001   0.00000   0.00025   0.00026  -3.14136
    D3        3.14157   0.00001   0.00000   0.00026   0.00026  -3.14136
    D4        0.00001  -0.00000  -0.00000  -0.00008  -0.00008  -0.00007
    D5        0.00003  -0.00001  -0.00000  -0.00028  -0.00028  -0.00025
    D6       -3.14156  -0.00001  -0.00000  -0.00032  -0.00032   3.14131
    D7        3.14159   0.00000   0.00000   0.00006   0.00006  -3.14154
    D8       -0.00000   0.00000   0.00000   0.00002   0.00002   0.00002
    D9        0.00006  -0.00001  -0.00000  -0.00059  -0.00060  -0.00054
   D10       -3.14157  -0.00001  -0.00000  -0.00026  -0.00026   3.14136
   D11       -3.14157  -0.00001  -0.00000  -0.00025  -0.00026   3.14136
   D12       -0.00001   0.00000   0.00000   0.00008   0.00008   0.00007
   D13        3.13921   0.00027   0.00019   0.02387   0.02406  -3.11992
   D14        0.00235  -0.00027  -0.00019  -0.02354  -0.02372  -0.02137
   D15       -0.00235   0.00027   0.00019   0.02354   0.02372   0.02137
   D16       -3.13921  -0.00027  -0.00019  -0.02387  -0.02406   3.11992
   D17       -0.00003   0.00001   0.00000   0.00028   0.00028   0.00025
   D18        3.14156   0.00001   0.00000   0.00032   0.00032  -3.14131
   D19       -3.14159  -0.00000  -0.00000  -0.00006  -0.00006   3.14154
   D20        0.00000  -0.00000  -0.00000  -0.00002  -0.00002  -0.00002
   D21       -0.00000   0.00000   0.00000   0.00003   0.00003   0.00002
   D22        3.14159   0.00000   0.00000   0.00003   0.00003  -3.14157
   D23       -3.14159  -0.00000   0.00000  -0.00001  -0.00001   3.14158
   D24       -0.00000  -0.00000  -0.00000  -0.00001  -0.00001  -0.00001
   D25        0.00000  -0.00000  -0.00000  -0.00003  -0.00003  -0.00002
   D26        3.14159   0.00000  -0.00000   0.00001   0.00001  -3.14158
   D27       -3.14159  -0.00000  -0.00000  -0.00003  -0.00003   3.14157
   D28        0.00000   0.00000   0.00000   0.00001   0.00001   0.00001
   D29        3.14157  -0.00000   0.00000  -0.00001  -0.00001   3.14156
   D30        0.00002   0.00000   0.00000   0.00001   0.00001   0.00004
   D31       -0.00002  -0.00000  -0.00000  -0.00001  -0.00001  -0.00004
   D32       -3.14157   0.00000  -0.00000   0.00001   0.00001  -3.14156
         Item               Value     Threshold  Converged?
 Maximum Force            0.001141     0.000450     NO 
 RMS     Force            0.000347     0.000300     NO 
 Maximum Displacement     0.026965     0.001800     NO 
 RMS     Displacement     0.006218     0.001200     NO 
 Predicted change in Energy=-2.182808D-05
 GradGradGradGradGradGradGradGradGradGradGradGradGradGradGradGradGradGrad

                          Input orientation:                          
 ---------------------------------------------------------------------
 Center     Atomic      Atomic             Coordinates (Angstroms)
 Number     Number       Type             X           Y           Z
 ---------------------------------------------------------------------
      1          6           0       -0.023540    1.216937   -0.004228
      2          6           0       -0.714983   -0.000000   -0.005977
      3          6           0       -0.023540   -1.216938   -0.004157
      4          6           0        1.362341   -1.216677   -0.001231
      5          6           0        2.083108    0.000000    0.000241
      6          6           0        1.362341    1.216677   -0.001302
      7          7           0        3.453735    0.000000    0.003109
      8          7           0       -2.171276   -0.000000   -0.009345
      9          8           0       -2.752491   -1.091935    0.012847
     10          8           0       -2.752491    1.091935    0.012780
     11          1           0       -0.580920    2.145643   -0.005473
     12          1           0       -0.580919   -2.145644   -0.005347
     13          1           0        1.901153   -2.159998   -0.000085
     14          1           0        1.901153    2.159998   -0.000212
     15          1           0        3.975213    0.860774    0.004144
     16          1           0        3.975213   -0.860774    0.004196
 ---------------------------------------------------------------------
                    Distance matrix (angstroms):
                    1          2          3          4          5
     1  C    0.000000
     2  C    1.399655   0.000000
     3  C    2.433875   1.399655   0.000000
     4  C    2.800563   2.407406   1.385885   0.000000
     5  C    2.432884   2.798098   2.432884   1.414146   0.000000
     6  C    1.385885   2.407406   2.800563   2.433353   1.414146
     7  N    3.684078   4.168728   3.684078   2.419555   1.370630
     8  N    2.468549   1.456297   2.468549   3.737221   4.254395
     9  O    3.574682   2.311733   2.731865   4.116747   4.957368
    10  O    2.731865   2.311733   3.574682   4.718234   4.957368
    11  H    1.083129   2.149828   3.408464   3.883488   3.420652
    12  H    3.408464   2.149828   1.083129   2.153894   3.420652
    13  H    3.886921   3.392609   2.143321   1.086359   2.167649
    14  H    2.143321   3.392609   3.886921   3.419394   2.167649
    15  H    4.014592   4.768540   4.506327   3.338103   2.078704
    16  H    4.506327   4.768540   4.014592   2.637005   2.078704
                    6          7          8          9         10
     6  C    0.000000
     7  N    2.419555   0.000000
     8  N    3.737221   5.625025   0.000000
     9  O    4.718234   6.301560   1.237184   0.000000
    10  O    4.116746   6.301559   1.237184   2.183870   0.000000
    11  H    2.153894   4.569715   2.670774   3.898457   2.413784
    12  H    3.883488   4.569715   2.670775   2.413785   3.898458
    13  H    3.419394   2.660096   4.609811   4.774655   5.677292
    14  H    1.086359   2.660096   4.609811   5.677292   4.774655
    15  H    2.637005   1.006416   6.206484   7.005366   6.731679
    16  H    3.338103   1.006416   6.206484   6.731680   7.005365
                   11         12         13         14         15
    11  H    0.000000
    12  H    4.291288   0.000000
    13  H    4.969836   2.482120   0.000000
    14  H    2.482120   4.969836   4.319997   0.000000
    15  H    4.733849   5.458661   3.664261   2.447392   0.000000
    16  H    5.458661   4.733849   2.447392   3.664261   1.721548
                   16
    16  H    0.000000
 Stoichiometry    C6H6N2O2
 Framework group  C1[X(C6H6N2O2)]
 Deg. of freedom    42
 Full point group                 C1      NOp   1
 Largest Abelian subgroup         C1      NOp   1
 Largest concise Abelian subgroup C1      NOp   1
                         Standard orientation:                         
 ---------------------------------------------------------------------
 Center     Atomic      Atomic             Coordinates (Angstroms)
 Number     Number       Type             X           Y           Z
 ---------------------------------------------------------------------
      1          6           0       -0.020794   -1.216937    0.005026
      2          6           0       -0.712235    0.000000    0.007439
      3          6           0       -0.020794    1.216938    0.005027
      4          6           0        1.365084    1.216677    0.000840
      5          6           0        2.085849   -0.000000   -0.001324
      6          6           0        1.365084   -1.216677    0.000839
      7          7           0        3.456473   -0.000000   -0.005439
      8          7           0       -2.168525    0.000000    0.012132
      9          8           0       -2.749759    1.091935   -0.009498
     10          8           0       -2.749759   -1.091935   -0.009496
     11          1           0       -0.578172   -2.145644    0.006750
     12          1           0       -0.578172    2.145644    0.006752
     13          1           0        1.903895    2.159998   -0.000768
     14          1           0        1.903895   -2.159998   -0.000770
     15          1           0        3.977950   -0.860774   -0.006973
     16          1           0        3.977950    0.860774   -0.006975
 ---------------------------------------------------------------------
 Rotational constants (GHZ):      3.9056753      0.8189012      0.6769751
 Standard basis: 6-31+G(d,p) (6D, 7F)
 There are   220 symmetry adapted cartesian basis functions of A   symmetry.
 There are   220 symmetry adapted basis functions of A   symmetry.
   220 basis functions,   362 primitive gaussians,   220 cartesian basis functions
    36 alpha electrons       36 beta electrons
       nuclear repulsion energy       494.1400019608 Hartrees.
 NAtoms=   16 NActive=   16 NUniq=   16 SFac= 1.00D+00 NAtFMM=   60 NAOKFM=F Big=F
 Integral buffers will be    131072 words long.
 Raffenetti 2 integral format.
 Two-electron integral symmetry is turned on.
 Nuclear repulsion after empirical dispersion term =      494.1290989802 Hartrees.
 One-electron integrals computed using PRISM.
 NBasis=   220 RedAO= T EigKep=  3.29D-06  NBF=   220
 NBsUse=   220 1.00D-06 EigRej= -1.00D+00 NBFU=   220
 Initial guess from the checkpoint file:  "b3lypD3PNA.chk"
 B after Tr=    -0.000000   -0.000000   -0.000000
         Rot=    1.000000   -0.000015    0.000057   -0.000000 Ang=  -0.01 deg.
 ExpMin= 4.38D-02 ExpMax= 5.48D+03 ExpMxC= 8.25D+02 IAcc=2 IRadAn=         4 AccDes= 0.00D+00
 Harris functional with IExCor=  402 and IRadAn=       4 diagonalized for initial guess.
 HarFok:  IExCor=  402 AccDes= 0.00D+00 IRadAn=         4 IDoV= 1 UseB2=F ITyADJ=14
 ICtDFT=  3500011 ScaDFX=  1.000000  1.000000  1.000000  1.000000
 FoFCou: FMM=F IPFlag=           0 FMFlag=      100000 FMFlg1=           0
         NFxFlg=           0 DoJE=T BraDBF=F KetDBF=T FulRan=T
         wScrn=  0.000000 ICntrl=     500 IOpCl=  0 I1Cent=   200000004 NGrid=           0
         NMat0=    1 NMatS0=      1 NMatT0=    0 NMatD0=    1 NMtDS0=    0 NMtDT0=    0
 Petite list used in FoFCou.
 Keep R1 ints in memory in canonical form, NReq=301066375.
 Requested convergence on RMS density matrix=1.00D-08 within 128 cycles.
 Requested convergence on MAX density matrix=1.00D-06.
 Requested convergence on             energy=1.00D-06.
 No special actions if energy rises.
 SCF Done:  E(RB3LYP) =  -492.156269278     A.U. after   12 cycles
            NFock= 12  Conv=0.55D-08     -V/T= 2.0094
 Calling FoFJK, ICntrl=      2127 FMM=F ISym2X=0 I1Cent= 0 IOpClX= 0 NMat=1 NMatS=1 NMatT=0.
 ***** Axes restored to original set *****
 -------------------------------------------------------------------
 Center     Atomic                   Forces (Hartrees/Bohr)
 Number     Number              X              Y              Z
 -------------------------------------------------------------------
      1        6          -0.000007780   -0.000232576   -0.000316025
      2        6           0.000015758   -0.000000020   -0.001476974
      3        6          -0.000007860    0.000232529   -0.000316013
      4        6           0.000058744    0.000231901    0.000084672
      5        6          -0.000133444    0.000000004   -0.000039276
      6        6           0.000058638   -0.000231953    0.000084653
      7        7          -0.000113837   -0.000000068   -0.000004228
      8        7           0.000630369    0.000000227    0.006671039
      9        8          -0.000144004    0.000489691   -0.002375977
     10        8          -0.000144023   -0.000489860   -0.002375934
     11        1          -0.000023444   -0.000005969   -0.000010178
     12        1          -0.000023445    0.000005984   -0.000010181
     13        1           0.000010993    0.000006713    0.000039812
     14        1           0.000011010   -0.000006665    0.000039826
     15        1          -0.000093818   -0.000073286    0.000002405
     16        1          -0.000093855    0.000073349    0.000002378
 -------------------------------------------------------------------
 Cartesian Forces:  Max     0.006671039 RMS     0.001112390

 GradGradGradGradGradGradGradGradGradGradGradGradGradGradGradGradGradGrad
 Berny optimization.
 Using GEDIIS/GDIIS optimizer.
 FormGI is forming the generalized inverse of G from B-inverse, IUseBI=4.
 Internal  Forces:  Max     0.002482233 RMS     0.000597139
 Search for a local minimum.
 Step number   3 out of a maximum of   82
 All quantities printed in internal units (Hartrees-Bohrs-Radians)
 Mixed Optimization -- En-DIIS/RFO-DIIS
 Swapping is turned off.
 Update second derivatives using D2CorX and points    1    2    3
 DE=  9.69D-05 DEPred=-2.18D-05 R=-4.44D+00
 Trust test=-4.44D+00 RLast= 4.83D-02 DXMaxT set to 1.50D-01
 ITU= -1  1  0
     Eigenvalues ---    0.01034   0.01805   0.01968   0.02043   0.02099
     Eigenvalues ---    0.02130   0.02152   0.02152   0.02179   0.02192
     Eigenvalues ---    0.02236   0.02242   0.09961   0.15303   0.16000
     Eigenvalues ---    0.16000   0.16000   0.16004   0.16015   0.18490
     Eigenvalues ---    0.22000   0.22993   0.24923   0.25000   0.25000
     Eigenvalues ---    0.25000   0.31210   0.35198   0.35321   0.35511
     Eigenvalues ---    0.35631   0.40207   0.41158   0.41976   0.45113
     Eigenvalues ---    0.46703   0.46792   0.47051   0.47498   0.50298
     Eigenvalues ---    0.64342   0.90722
 En-DIIS/RFO-DIIS IScMMF=        0 using points:     3    2
 RFO step:  Lambda=-7.38321890D-05.
 DidBck=T Rises=F RFO-DIIS coefs:    0.15545    0.84455
 Iteration  1 RMS(Cart)=  0.00559233 RMS(Int)=  0.00008198
 Iteration  2 RMS(Cart)=  0.00008998 RMS(Int)=  0.00000109
 Iteration  3 RMS(Cart)=  0.00000001 RMS(Int)=  0.00000109
 Variable       Old X    -DE/DX   Delta X   Delta X   Delta X     New X
                                 (Linear)    (Quad)   (Total)
    R1        2.64496  -0.00029   0.00052  -0.00057  -0.00005   2.64492
    R2        2.61894  -0.00015   0.00028  -0.00027   0.00000   2.61895
    R3        2.04682   0.00001  -0.00008   0.00007  -0.00002   2.04680
    R4        2.64496  -0.00029   0.00052  -0.00057  -0.00005   2.64492
    R5        2.75200  -0.00035   0.00124  -0.00136  -0.00012   2.75188
    R6        2.61894  -0.00015   0.00028  -0.00028   0.00000   2.61895
    R7        2.04682   0.00001  -0.00008   0.00007  -0.00002   2.04680
    R8        2.67235  -0.00032   0.00015  -0.00016  -0.00001   2.67234
    R9        2.05292  -0.00000   0.00018  -0.00023  -0.00005   2.05287
   R10        2.67235  -0.00032   0.00015  -0.00016  -0.00001   2.67234
   R11        2.59012  -0.00030  -0.00060   0.00088   0.00028   2.59039
   R12        2.05292  -0.00000   0.00018  -0.00023  -0.00005   2.05287
   R13        1.90185  -0.00011  -0.00011   0.00015   0.00005   1.90190
   R14        1.90185  -0.00011  -0.00011   0.00015   0.00005   1.90190
   R15        2.33794  -0.00041  -0.00172   0.00229   0.00057   2.33851
   R16        2.33794  -0.00041  -0.00172   0.00229   0.00057   2.33851
    A1        2.08731  -0.00003   0.00103  -0.00126  -0.00023   2.08707
    A2        2.08435  -0.00001  -0.00071   0.00089   0.00018   2.08453
    A3        2.11153   0.00004  -0.00032   0.00037   0.00005   2.11158
    A4        2.10820   0.00006  -0.00195   0.00238   0.00043   2.10863
    A5        2.08749  -0.00003   0.00098  -0.00119  -0.00022   2.08728
    A6        2.08749  -0.00003   0.00097  -0.00119  -0.00022   2.08728
    A7        2.08731  -0.00003   0.00103  -0.00126  -0.00023   2.08707
    A8        2.08435  -0.00001  -0.00071   0.00089   0.00018   2.08453
    A9        2.11153   0.00004  -0.00032   0.00037   0.00005   2.11158
   A10        2.10580  -0.00004   0.00054  -0.00068  -0.00014   2.10566
   A11        2.08957   0.00003  -0.00011   0.00016   0.00006   2.08963
   A12        2.08781   0.00001  -0.00043   0.00051   0.00008   2.08789
   A13        2.07196   0.00008  -0.00119   0.00150   0.00031   2.07226
   A14        2.10561  -0.00004   0.00060  -0.00075  -0.00015   2.10546
   A15        2.10561  -0.00004   0.00060  -0.00075  -0.00015   2.10546
   A16        2.10580  -0.00004   0.00054  -0.00068  -0.00014   2.10566
   A17        2.08957   0.00003  -0.00011   0.00016   0.00006   2.08963
   A18        2.08781   0.00001  -0.00043   0.00051   0.00008   2.08789
   A19        2.11549  -0.00003   0.00012  -0.00015  -0.00002   2.11547
   A20        2.11549  -0.00003   0.00012  -0.00015  -0.00002   2.11547
   A21        2.05221   0.00005  -0.00024   0.00029   0.00005   2.05225
   A22        2.05980   0.00037   0.00175  -0.00164   0.00011   2.05991
   A23        2.05980   0.00037   0.00175  -0.00164   0.00011   2.05991
   A24        2.16272  -0.00054  -0.00278   0.00343   0.00065   2.16337
    D1        0.00054  -0.00012  -0.00051  -0.00005  -0.00056  -0.00002
    D2       -3.14136  -0.00006  -0.00022  -0.00002  -0.00024   3.14159
    D3       -3.14136  -0.00005  -0.00022  -0.00002  -0.00024   3.14158
    D4       -0.00007   0.00001   0.00007   0.00001   0.00008   0.00000
    D5       -0.00025   0.00006   0.00024   0.00002   0.00026   0.00001
    D6        3.14131   0.00007   0.00027   0.00003   0.00030  -3.14158
    D7       -3.14154  -0.00001  -0.00005  -0.00001  -0.00006   3.14159
    D8        0.00002  -0.00001  -0.00002  -0.00000  -0.00002   0.00000
    D9       -0.00054   0.00012   0.00050   0.00005   0.00056   0.00002
   D10        3.14136   0.00005   0.00022   0.00002   0.00024  -3.14158
   D11        3.14136   0.00006   0.00022   0.00002   0.00024  -3.14159
   D12        0.00007  -0.00001  -0.00007  -0.00001  -0.00008  -0.00000
   D13       -3.11992  -0.00248  -0.02032  -0.00203  -0.02234   3.14092
   D14       -0.02137   0.00242   0.02003   0.00200   0.02203   0.00066
   D15        0.02137  -0.00242  -0.02003  -0.00200  -0.02203  -0.00066
   D16        3.11992   0.00248   0.02032   0.00203   0.02234  -3.14092
   D17        0.00025  -0.00006  -0.00024  -0.00002  -0.00026  -0.00001
   D18       -3.14131  -0.00007  -0.00027  -0.00003  -0.00030   3.14158
   D19        3.14154   0.00001   0.00005   0.00001   0.00006  -3.14159
   D20       -0.00002   0.00001   0.00002   0.00000   0.00002  -0.00000
   D21        0.00002  -0.00000  -0.00002  -0.00000  -0.00002  -0.00000
   D22       -3.14157  -0.00001  -0.00002  -0.00001  -0.00003   3.14159
   D23        3.14158   0.00001   0.00001   0.00000   0.00001  -3.14159
   D24       -0.00001   0.00000   0.00001  -0.00000   0.00001  -0.00000
   D25       -0.00002   0.00000   0.00002   0.00000   0.00002   0.00000
   D26       -3.14158  -0.00001  -0.00001  -0.00000  -0.00001   3.14159
   D27        3.14157   0.00001   0.00002   0.00001   0.00003  -3.14159
   D28        0.00001  -0.00000  -0.00001   0.00000  -0.00001   0.00000
   D29        3.14156   0.00000   0.00001   0.00000   0.00001   3.14157
   D30        0.00004  -0.00000  -0.00001   0.00000  -0.00001   0.00003
   D31       -0.00004   0.00000   0.00001  -0.00000   0.00001  -0.00003
   D32       -3.14156  -0.00000  -0.00001  -0.00000  -0.00001  -3.14157
         Item               Value     Threshold  Converged?
 Maximum Force            0.002482     0.000450     NO 
 RMS     Force            0.000597     0.000300     NO 
 Maximum Displacement     0.025054     0.001800     NO 
 RMS     Displacement     0.005594     0.001200     NO 
 Predicted change in Energy=-1.085925D-04
 GradGradGradGradGradGradGradGradGradGradGradGradGradGradGradGradGradGrad

                          Input orientation:                          
 ---------------------------------------------------------------------
 Center     Atomic      Atomic             Coordinates (Angstroms)
 Number     Number       Type             X           Y           Z
 ---------------------------------------------------------------------
      1          6           0       -0.023581    1.217065    0.000084
      2          6           0       -0.714751   -0.000000    0.000166
      3          6           0       -0.023581   -1.217065    0.000155
      4          6           0        1.362306   -1.216783    0.000083
      5          6           0        2.082885    0.000000    0.000011
      6          6           0        1.362306    1.216783    0.000012
      7          7           0        3.453662    0.000000   -0.000052
      8          7           0       -2.170981   -0.000000    0.000248
      9          8           0       -2.752405   -1.092393   -0.000411
     10          8           0       -2.752404    1.092393   -0.000478
     11          1           0       -0.580989    2.145745    0.000086
     12          1           0       -0.580989   -2.145746    0.000211
     13          1           0        1.901175   -2.160040    0.000084
     14          1           0        1.901174    2.160040   -0.000042
     15          1           0        3.975134    0.860807   -0.000124
     16          1           0        3.975134   -0.860807   -0.000073
 ---------------------------------------------------------------------
                    Distance matrix (angstroms):
                    1          2          3          4          5
     1  C    0.000000
     2  C    1.399630   0.000000
     3  C    2.434130   1.399630   0.000000
     4  C    2.800767   2.407224   1.385887   0.000000
     5  C    2.432786   2.797636   2.432786   1.414141   0.000000
     6  C    1.385887   2.407224   2.800767   2.433565   1.414141
     7  N    3.684083   4.168413   3.684083   2.419572   1.370777
     8  N    2.468314   1.456231   2.468315   3.736935   4.253867
     9  O    3.574923   2.312003   2.731671   4.116591   4.957152
    10  O    2.731670   2.312002   3.574923   4.718383   4.957151
    11  H    1.083121   2.149911   3.408694   3.883682   3.420592
    12  H    3.408694   2.149911   1.083121   2.153919   3.420592
    13  H    3.887097   3.392468   2.143335   1.086330   2.167670
    14  H    2.143335   3.392468   3.887097   3.419548   2.167670
    15  H    4.014554   4.768229   4.506359   3.338150   2.078845
    16  H    4.506359   4.768229   4.014554   2.636966   2.078845
                    6          7          8          9         10
     6  C    0.000000
     7  N    2.419572   0.000000
     8  N    3.736935   5.624644   0.000000
     9  O    4.718383   6.301475   1.237488   0.000000
    10  O    4.116590   6.301475   1.237488   2.184786   0.000000
    11  H    2.153919   4.569752   2.670636   3.898793   2.413420
    12  H    3.883683   4.569752   2.670637   2.413421   3.898793
    13  H    3.419548   2.660074   4.609580   4.774481   5.677510
    14  H    1.086330   2.660073   4.609580   5.677510   4.774480
    15  H    2.636966   1.006440   6.206104   7.005339   6.731523
    16  H    3.338150   1.006440   6.206104   6.731524   7.005338
                   11         12         13         14         15
    11  H    0.000000
    12  H    4.291491   0.000000
    13  H    4.970002   2.482205   0.000000
    14  H    2.482205   4.970002   4.320080   0.000000
    15  H    4.733849   5.458719   3.664263   2.447308   0.000000
    16  H    5.458719   4.733849   2.447308   3.664263   1.721614
                   16
    16  H    0.000000
 Stoichiometry    C6H6N2O2
 Framework group  C1[X(C6H6N2O2)]
 Deg. of freedom    42
 Full point group                 C1      NOp   1
 Largest Abelian subgroup         C1      NOp   1
 Largest concise Abelian subgroup C1      NOp   1
                         Standard orientation:                         
 ---------------------------------------------------------------------
 Center     Atomic      Atomic             Coordinates (Angstroms)
 Number     Number       Type             X           Y           Z
 ---------------------------------------------------------------------
      1          6           0       -0.020865   -1.217065   -0.000119
      2          6           0       -0.712035    0.000000   -0.000202
      3          6           0       -0.020865    1.217065   -0.000190
      4          6           0        1.365022    1.216783   -0.000118
      5          6           0        2.085601    0.000000   -0.000046
      6          6           0        1.365022   -1.216783   -0.000047
      7          7           0        3.456378   -0.000000    0.000017
      8          7           0       -2.168265    0.000000   -0.000284
      9          8           0       -2.749689    1.092393    0.000376
     10          8           0       -2.749688   -1.092393    0.000443
     11          1           0       -0.578273   -2.145745   -0.000121
     12          1           0       -0.578273    2.145746   -0.000247
     13          1           0        1.903891    2.160040   -0.000119
     14          1           0        1.903890   -2.160040    0.000007
     15          1           0        3.977850   -0.860807    0.000089
     16          1           0        3.977850    0.860807    0.000037
 ---------------------------------------------------------------------
 Rotational constants (GHZ):      3.9044638      0.8189878      0.6769855
 Standard basis: 6-31+G(d,p) (6D, 7F)
 There are   220 symmetry adapted cartesian basis functions of A   symmetry.
 There are   220 symmetry adapted basis functions of A   symmetry.
   220 basis functions,   362 primitive gaussians,   220 cartesian basis functions
    36 alpha electrons       36 beta electrons
       nuclear repulsion energy       494.1241501425 Hartrees.
 NAtoms=   16 NActive=   16 NUniq=   16 SFac= 1.00D+00 NAtFMM=   60 NAOKFM=F Big=F
 Integral buffers will be    131072 words long.
 Raffenetti 2 integral format.
 Two-electron integral symmetry is turned on.
 Nuclear repulsion after empirical dispersion term =      494.1132469319 Hartrees.
 One-electron integrals computed using PRISM.
 NBasis=   220 RedAO= T EigKep=  3.29D-06  NBF=   220
 NBsUse=   220 1.00D-06 EigRej= -1.00D+00 NBFU=   220
 Initial guess from the checkpoint file:  "b3lypD3PNA.chk"
 B after Tr=     0.000000   -0.000000    0.000000
         Rot=    1.000000    0.000015   -0.000021   -0.000000 Ang=   0.00 deg.
 ExpMin= 4.38D-02 ExpMax= 5.48D+03 ExpMxC= 8.25D+02 IAcc=2 IRadAn=         4 AccDes= 0.00D+00
 Harris functional with IExCor=  402 and IRadAn=       4 diagonalized for initial guess.
 HarFok:  IExCor=  402 AccDes= 0.00D+00 IRadAn=         4 IDoV= 1 UseB2=F ITyADJ=14
 ICtDFT=  3500011 ScaDFX=  1.000000  1.000000  1.000000  1.000000
 FoFCou: FMM=F IPFlag=           0 FMFlag=      100000 FMFlg1=           0
         NFxFlg=           0 DoJE=T BraDBF=F KetDBF=T FulRan=T
         wScrn=  0.000000 ICntrl=     500 IOpCl=  0 I1Cent=   200000004 NGrid=           0
         NMat0=    1 NMatS0=      1 NMatT0=    0 NMatD0=    1 NMtDS0=    0 NMtDT0=    0
 Petite list used in FoFCou.
 Keep R1 ints in memory in canonical form, NReq=301066375.
 Requested convergence on RMS density matrix=1.00D-08 within 128 cycles.
 Requested convergence on MAX density matrix=1.00D-06.
 Requested convergence on             energy=1.00D-06.
 No special actions if energy rises.
 SCF Done:  E(RB3LYP) =  -492.156373701     A.U. after   12 cycles
            NFock= 12  Conv=0.31D-08     -V/T= 2.0095
[...]
 ! A20   A(5,7,16)             121.2002         -DE/DX =    0.0                 !
 ! A21   A(15,7,16)            117.5995         -DE/DX =    0.0                 !
 ! A22   A(2,8,9)              118.0771         -DE/DX =    0.0                 !
 ! A23   A(2,8,10)             118.0771         -DE/DX =    0.0                 !
 ! A24   A(9,8,10)             123.8459         -DE/DX =    0.0                 !
 ! D1    D(6,1,2,3)              0.0            -DE/DX =    0.0                 !
 ! D2    D(6,1,2,8)           -179.9999         -DE/DX =    0.0                 !
 ! D3    D(11,1,2,3)           179.9999         -DE/DX =    0.0                 !
 ! D4    D(11,1,2,8)             0.0            -DE/DX =    0.0                 !
 ! D5    D(2,1,6,5)              0.0            -DE/DX =    0.0                 !
 ! D6    D(2,1,6,14)          -180.0            -DE/DX =    0.0                 !
 ! D7    D(11,1,6,5)          -180.0            -DE/DX =    0.0                 !
 ! D8    D(11,1,6,14)            0.0001         -DE/DX =    0.0                 !
 ! D9    D(1,2,3,4)              0.0            -DE/DX =    0.0                 !
 ! D10   D(1,2,3,12)          -180.0            -DE/DX =    0.0                 !
 ! D11   D(8,2,3,4)            179.9999         -DE/DX =    0.0                 !
 ! D12   D(8,2,3,12)            -0.0001         -DE/DX =    0.0                 !
 ! D13   D(1,2,8,9)           -180.0004         -DE/DX =    0.0                 !
 ! D14   D(1,2,8,10)             0.0005         -DE/DX =    0.0                 !
 ! D15   D(3,2,8,9)             -0.0003         -DE/DX =    0.0                 !
 ! D16   D(3,2,8,10)          -179.9994         -DE/DX =    0.0                 !
 ! D17   D(2,3,4,5)              0.0            -DE/DX =    0.0                 !
 ! D18   D(2,3,4,13)           180.0            -DE/DX =    0.0                 !
 ! D19   D(12,3,4,5)           180.0            -DE/DX =    0.0                 !
 ! D20   D(12,3,4,13)           -0.0001         -DE/DX =    0.0                 !
 ! D21   D(3,4,5,6)              0.0            -DE/DX =    0.0                 !
 ! D22   D(3,4,5,7)            179.9998         -DE/DX =    0.0                 !
 ! D23   D(13,4,5,6)          -180.0            -DE/DX =    0.0                 !
 ! D24   D(13,4,5,7)            -0.0002         -DE/DX =    0.0                 !
 ! D25   D(4,5,6,1)              0.0            -DE/DX =    0.0                 !
 ! D26   D(4,5,6,14)           180.0            -DE/DX =    0.0                 !
 ! D27   D(7,5,6,1)           -179.9998         -DE/DX =    0.0                 !
 ! D28   D(7,5,6,14)             0.0002         -DE/DX =    0.0                 !
 ! D29   D(4,5,7,15)           179.9985         -DE/DX =    0.0                 !
 ! D30   D(4,5,7,16)             0.0016         -DE/DX =    0.0                 !
 ! D31   D(6,5,7,15)            -0.0018         -DE/DX =    0.0                 !
 ! D32   D(6,5,7,16)          -179.9986         -DE/DX =    0.0                 !
 --------------------------------------------------------------------------------
 GradGradGradGradGradGradGradGradGradGradGradGradGradGradGradGradGradGrad

 1\1\ WCSS.PL-BEM-JP\Freq\RB3LYP\6-31+G(d,p)\C6H6N2O2\C612\17-Dec-2024\
 0\\#N Geom=AllCheck Guess=TCheck SCRF=Check GenChk RB3LYP/6-31+G(d,p) 
 Freq\\[No Title]\\0,1\C,-0.0233483267,1.2167649591,-0.0000436894\C,-0.
 7144702039,-0.0000001174,-0.0000166064\C,-0.0233482074,-1.2167651488,0
 .0000273477\C,1.3623771594,-1.2165052265,0.0000449486\C,2.0827903288,-
 0.0000000063,0.0000189785\C,1.3623770558,1.2165051722,-0.0000260265\N,
 3.4531310467,0.0000000481,0.0000413633\N,-2.1702283752,-0.0000001752,-
 0.0000366384\O,-2.7524010578,-1.0913641117,-0.000019313\O,-2.752401140
 1,1.0913637088,-0.0000861137\H,-0.580932672,2.1453730538,-0.0000785362
 \H,-0.5809324534,-2.1453733081,0.0000468541\H,1.9013144659,-2.15975634
 51,0.0000797505\H,1.9013142686,2.1597563331,-0.0000464135\H,3.97442802
 33,0.8607554746,0.0000000258\H,3.9744280879,-0.8607553237,0.0000520687
 \\Version=ES64L-G09RevE.01\State=1-A\HF=-492.1563766\RMSD=8.686e-10\RM
 SF=2.833e-05\ZeroPoint=0.1189132\Thermal=0.1268823\Dipole=3.1222345,0.
 0000001,0.0000222\DipoleDeriv=0.5795311,0.0994695,0.0000057,0.3149928,
 0.0741803,0.0000008,-0.0000004,-0.0000027,-0.0438911,-1.2067069,0.,-0.
 0000179,0.,-0.1764538,0.0000054,-0.0000138,0.0000053,0.0014485,0.57953
 11,-0.0994694,0.0000113,-0.3149927,0.0741802,-0.0000076,0.0000185,-0.0
 000045,-0.0438911,-0.6616914,-0.0282185,-0.0000061,-0.5829313,0.026663
 3,-0.0000158,0.0000134,-0.0000076,-0.2003849,2.10208,0.,0.000032,0.,0.
 12474,0.0000008,0.0000354,0.0000007,0.1448673,-0.6616914,0.0282184,-0.
 0000078,0.5829312,0.0266633,0.0000025,-0.0000214,-0.0000059,-0.2003849
 ,-1.9008897,0.,-0.0000272,0.,-0.1431306,-0.0000135,-0.0000655,-0.00001
 36,-0.5932975,2.6104159,0.,0.0000345,0.,1.5328389,-0.0000403,0.0000385
 ,-0.0000401,0.2297154,-1.0201406,-0.3691569,0.0000009,-0.5519913,-0.92
 59085,0.000014,0.0000012,0.0000103,-0.2598541,-1.0201407,0.3691569,-0.
 0000218,0.5519913,-0.9259084,0.0000269,-0.0000323,0.0000306,-0.259854,
 0.1023708,0.0392514,-0.0000015,0.0209943,0.0514176,0.0000028,-0.000001
 ,0.0000033,0.1380285,0.1023708,-0.0392514,0.0000008,-0.0209943,0.05141
 76,0.0000022,0.,0.000002,0.1380285,-0.012634,0.0800227,-0.0000044,0.07
 68795,-0.039666,0.0000063,-0.0000048,0.0000064,0.14491,-0.012634,-0.08
 00227,0.0000003,-0.0768795,-0.039666,0.0000045,0.,0.0000046,0.14491,0.
 2101146,0.0442361,-0.0000008,0.089599,0.1443161,0.0000093,0.0000139,0.
 0000101,0.3298247,0.2101146,-0.0442361,0.0000019,-0.089599,0.1443161,0
 .0000017,0.0000183,0.000001,0.3298247\Polar=158.0531299,0.0000026,99.6
 825184,0.0015308,-0.0014487,50.7242008\PG=C01 [X(C6H6N2O2)]\NImag=1\\0
 .71876154,-0.04283517,0.72022230,0.00000875,-0.00001782,0.13530671,-0.
 14314925,-0.10188634,0.00000193,0.55693018,-0.05136521,-0.28515797,0.0
 0000612,0.00000001,0.74081829,0.00000047,0.00000545,-0.05639882,0.0000
 0612,-0.00001825,0.11933048,0.04945304,0.01930385,0.00000002,-0.143149
 26,0.05136521,-0.00000253,0.71876156,-0.01930384,-0.05522642,0.0000015
 3,0.10188633,-0.28515792,0.00000792,0.04283519,0.72022226,0.00000113,0
 .00000194,0.00473472,-0.00000404,0.00000725,-0.05639883,0.00000622,-0.
 00001629,0.13530671,-0.03829039,-0.02705886,0.00000034,-0.03905251,0.0
 6649074,-0.00000250,-0.37103873,-0.02855186,-0.00000313,0.72635166,-0.
 01703829,-0.01479985,0.00000017,0.01952572,0.02666685,-0.00000041,0.03
 043634,-0.12639393,0.00000245,-0.04272200,0.68717830,0.00000007,0.0000
 0010,-0.00122617,-0.00000107,0.00000014,0.00496377,-0.00000500,0.00000
 174,-0.05412498,0.00000917,-0.00001702,0.11848374,-0.03334912,0.029868
 42,-0.00000129,0.01690272,0.,0.00000027,-0.03334911,-0.02986842,0.0000
 0046,-0.15263902,-0.09245374,0.00000170,0.72947255,0.07209376,0.037905
 65,-0.00000023,0.,-0.06454749,0.00000178,-0.07209377,0.03790564,-0.000
 00201,-0.03361172,-0.26414635,0.00000524,0.00000002,0.67643855,-0.0000
 0260,-0.00000074,-0.00025888,0.00000043,0.00000176,-0.00409033,0.00000
 158,-0.00000149,-0.00025888,-0.00000006,0.00000464,-0.06706795,0.00000
 701,-0.00001509,0.16179039,-0.37103870,0.02855184,-0.00000483,-0.03905
 250,-0.06649075,0.00000136,-0.03829039,0.02705886,-0.00000125,0.051533
 28,0.01277767,0.00000019,-0.15263902,0.03361172,-0.00000204,0.72635160
 ,-0.03043637,-0.12639393,0.00000174,-0.01952572,0.02666684,-0.00000087
 ,0.01703829,-0.01479985,0.00000062,-0.01277766,-0.04201624,0.00000121,
 0.09245373,-0.26414631,0.00000689,0.04272204,0.68717831,-0.00000320,0.
 00000244,-0.05412498,0.00000009,-0.00000141,0.00496377,-0.00000094,0.0
 0000070,-0.00122617,0.00000091,0.00000155,0.00599981,-0.00000370,0.000
 00627,-0.06706795,0.00000667,-0.00001611,0.11848374,0.01135463,0.00168
 991,0.00000007,-0.01835429,0.,-0.00000020,0.01135463,-0.00168991,0.000
 00018,-0.04479618,-0.01809211,-0.00000031,-0.35121230,0.,-0.00000540,-
 0.04479618,0.01809211,-0.00000138,0.77675891,-0.00613209,-0.01025064,0
 .00000041,0.,0.00694532,-0.00000023,0.00613209,-0.01025064,0.00000042,
 -0.04887893,0.00188090,-0.00000053,0.,-0.13069653,0.00000283,0.0488789
 2,0.00188091,0.00000098,-0.00000003,0.87456845,0.00000058,0.00000041,0
 .00400592,-0.00000074,-0.00000022,-0.00090747,0.00000025,0.00000042,0.
 00400592,0.00000045,-0.00000040,0.00959887,-0.00000204,0.00000286,-0.0
 3604692,-0.00000240,0.00000084,0.00959887,-0.00000286,-0.00002621,0.00
 725050,-0.04357773,-0.02230455,0.00000018,-0.12786897,0.,-0.00000038,-
 0.04357773,0.02230454,-0.00000114,0.01502951,0.00923611,-0.00000026,-0
 .01798231,0.,-0.00000032,0.01502951,-0.00923611,0.00000029,0.01716755,
 0.,0.00000069,0.64385711,-0.02583646,0.01381897,-0.00000090,0.,-0.1120
 3921,0.00000122,0.02583646,0.01381897,-0.00000030,0.00484646,-0.007191
 41,0.00000047,0.,-0.00492540,0.00000008,-0.00484646,-0.00719141,0.0000
 0040,0.,0.00020966,-0.00000002,-0.00000002,0.91812792,0.00000021,-0.00
 000100,-0.00655150,-0.00000115,0.00000118,-0.06993581,-0.00000128,-0.0
 0000019,-0.00655150,-0.00000003,0.00000054,0.00761130,-0.00000026,0.00
 000009,-0.00197726,0.00000027,0.00000033,0.00761130,0.00000025,-0.0000
 0002,-0.00043587,0.00000897,-0.00002111,0.22487626,-0.00222480,0.00788
 426,-0.00000037,-0.04062496,-0.04963243,0.00000024,-0.00159411,-0.0031
 0204,0.00000004,-0.00197883,-0.00246746,0.00000006,0.00469122,-0.00201
 251,0.00000014,-0.00459175,-0.00002307,-0.00000001,-0.00476768,0.00032
 995,-0.00000019,-0.22995039,-0.17079572,0.00000173,0.24018002,0.001936
 62,0.00382512,0.00000002,-0.04027443,-0.01087148,0.,0.01142652,-0.0085
 3649,0.00000049,-0.00449149,-0.00025487,-0.00000004,0.00481526,0.00003
 976,0.00000011,-0.00272594,0.00271291,-0.00000013,-0.00424305,0.000530
 39,-0.00000020,-0.16309879,-0.40371094,0.00000603,0.20757411,0.5268439
 4,-0.00000019,0.00000018,0.00456284,0.00000038,-0.00000006,0.01708802,
 -0.00000036,0.00000021,0.00175121,0.00000009,-0.00000004,-0.00064648,-
 0.00000006,-0.00000001,0.00038227,0.00000003,-0.00000013,-0.00108066,0
 .00000004,0.,0.00003956,0.00000111,0.00000534,-0.07493299,-0.00000170,
 -0.00001006,0.02777026,-0.00159411,0.00310204,-0.00000017,-0.04062496,
 0.04963242,-0.00000277,-0.00222480,-0.00788426,0.00000008,-0.00459175,
 0.00002307,0.,0.00469122,0.00201251,0.00000002,-0.00197883,0.00246746,
 -0.00000008,-0.00476768,-0.00032995,-0.00000017,-0.22995042,0.17079574
 ,-0.00000884,0.04611340,-0.01260831,0.00000079,0.24018006,-0.01142652,
 -0.00853650,0.00000011,0.04027443,-0.01087148,0.00000175,-0.00193662,0
 .00382512,0.00000003,0.00272594,0.00271291,-0.00000010,-0.00481526,0.0
 0003976,-0.00000008,0.00449149,-0.00025487,0.00000002,0.00424305,0.000
 53039,0.00000017,0.16309882,-0.40371094,0.00001408,0.01260833,-0.11477
 275,0.00000472,-0.20757414,0.52684393,0.00000033,0.00000040,0.00175121
 ,-0.00000209,0.00000178,0.01708802,-0.00000009,-0.00000014,0.00456284,
 -0.00000013,-0.00000010,-0.00108066,0.00000023,0.00000003,0.00038227,-
 0.00000018,0.00000003,-0.00064647,-0.00000022,-0.00000002,0.00003956,-
 0.00000901,0.00001475,-0.07493299,0.00000003,0.00000387,0.02563053,0.0
 0001116,-0.00002044,0.02777026,-0.13087597,0.12800732,-0.00000497,0.01
 283795,-0.01245181,0.00000045,-0.00186232,-0.00344119,0.00000002,-0.00
 073101,-0.00059893,0.00000002,-0.00467852,-0.00130027,-0.00000014,-0.0
 0998199,0.02577680,-0.00000096,-0.00026878,0.00134360,-0.00000002,0.00
 102740,-0.00109969,0.00000011,0.00036833,0.00130597,-0.00000004,-0.004
 81873,-0.00046907,-0.00000007,0.13780119,0.12617506,-0.27597859,0.0000
 0867,0.01489025,-0.01827918,0.00000086,-0.00402540,-0.00302456,0.00000
 018,-0.00066606,0.00043857,-0.00000005,-0.00155516,0.00115616,0.000000
 19,-0.00267125,0.00613575,-0.00000008,-0.00007213,0.00026569,0.,0.0029
 4963,-0.00380055,0.00000005,-0.00015041,0.00113926,-0.00000003,0.00031
 955,0.00313626,-0.00000010,-0.13619489,0.28885695,-0.00000494,0.000008
 73,-0.03935007,-0.00000037,0.00000052,0.00485984,0.00000003,0.00000018
 ,0.00468000,0.00000003,-0.00000005,-0.00095951,-0.00000012,0.00000019,
 0.00835490,-0.00000010,0.00000026,0.00454823,0.,0.,-0.00005634,0.00000
 002,-0.00000001,-0.00389702,0.,0.,0.00033242,-0.00000010,-0.00000012,-
 0.00009168,0.00000550,-0.00000955,0.02662414,-0.00186232,0.00344119,-0
 .00000019,0.01283795,0.01245181,-0.00000026,-0.13087595,-0.12800730,0.
 00000253,-0.00998199,-0.02577681,0.00000056,-0.00467852,0.00130027,-0.
 00000021,-0.00073101,0.00059893,-0.00000001,-0.00026878,-0.00134360,0.
 00000006,0.00102740,0.00109969,0.00000004,-0.00481873,0.00046907,-0.00
 000009,0.00036833,-0.00130597,0.00000004,0.00073031,0.00086195,-0.0000
 0002,0.13780116,0.00402540,-0.00302456,0.00000027,-0.01489024,-0.01827
 918,0.00000048,-0.12617505,-0.27597861,0.00000517,0.00267125,0.0061357
 5,-0.00000001,0.00155516,0.00115616,0.00000023,0.00066606,0.00043857,-
 0.00000003,0.00007213,0.00026569,-0.00000001,-0.00294963,-0.00380055,-
 0.00000006,-0.00031955,0.00313626,-0.00000008,0.00015041,0.00113926,-0
 .00000003,-0.00086195,-0.00086347,0.00000003,0.13619487,0.28885698,-0.
 00000020,0.00000027,0.00468000,0.00000047,0.00000088,0.00485984,0.0000
 0249,0.00000510,-0.03935007,-0.00000026,-0.00000036,0.00454823,-0.0000
 0021,0.00000023,0.00835490,-0.00000001,-0.00000003,-0.00095951,-0.0000
 0001,-0.00000002,-0.00005634,0.00000019,0.00000001,-0.00389702,-0.0000
 0005,-0.00000013,-0.00009168,-0.00000001,-0.00000003,0.00033242,0.0000
 0003,0.00000005,0.00061846,-0.00000251,-0.00000577,0.02662414,-0.00086
 865,-0.00068732,0.00000001,-0.00453579,-0.00216381,-0.00000007,-0.0122
 0401,0.02906611,-0.00000104,-0.12531011,0.11889157,-0.00000471,0.00945
 047,-0.01476216,0.00000051,-0.00132723,-0.00296323,0.,0.00210989,-0.00
 094908,0.00000007,0.00043119,0.00187511,-0.00000006,-0.00018592,-0.000
 22799,0.,-0.00096868,0.00021476,-0.00000002,0.00003115,0.00008640,0.,0
 .00080041,-0.00016732,0.00000008,0.13244876,-0.00111623,-0.00004682,-0
 .00000003,-0.00074143,0.00198699,0.00000015,-0.00159971,0.00394461,-0.
 00000007,0.11877200,-0.27086369,0.00000856,0.01718666,-0.01872612,0.00
 000088,-0.00405152,-0.00273722,0.00000017,0.00071739,0.00148229,-0.000
 00014,-0.00051425,0.00019002,0.00000003,0.00018303,0.00004450,0.,0.000
 03123,-0.00002033,-0.00000002,0.00006081,-0.00000128,-0.00000002,0.000
 13061,0.00079576,-0.00000016,-0.12781288,0.28539612,0.00000003,-0.0000
 0002,-0.00057067,-0.00000013,0.00000012,0.00713061,-0.00000011,0.00000
 029,0.00213190,-0.00000477,0.00000859,-0.03225263,-0.00000043,0.000000
 45,0.00353956,0.00000004,0.00000018,0.00486895,0.00000002,-0.00000008,
 -0.00261796,0.,0.00000007,0.00158112,0.,0.,-0.00006748,0.,-0.00000002,
 -0.00069610,0.,-0.00000002,-0.00061908,0.00000007,-0.00000016,-0.00476
 326,0.00000519,-0.00000940,0.02253433,-0.01220401,-0.02906612,0.000000
 66,-0.00453579,0.00216381,-0.00000020,-0.00086865,0.00068732,-0.000000
 03,-0.00132723,0.00296323,-0.00000017,0.00945047,0.01476217,-0.0000003
 6,-0.12531009,-0.11889157,0.00000226,0.00210989,0.00094908,0.,0.000431
 19,-0.00187511,0.00000005,-0.00096868,-0.00021476,0.,-0.00018592,0.000
 22799,-0.00000001,0.00080041,0.00016732,0.00000007,0.00003115,-0.00008
 640,0.00000001,0.00058249,0.00076816,-0.00000001,0.13244874,0.00159971
 ,0.00394460,-0.00000003,0.00074143,0.00198699,0.00000015,0.00111623,-0
 .00004682,0.,0.00405152,-0.00273722,0.00000028,-0.01718666,-0.01872611
 ,0.00000043,-0.11877200,-0.27086373,0.00000539,-0.00071739,0.00148228,
 -0.00000011,0.00051425,0.00019002,0.00000005,-0.00003123,-0.00002033,-
 0.00000002,-0.00018303,0.00004450,0.,-0.00013061,0.00079576,-0.0000001
 6,-0.00006081,-0.00000128,-0.00000002,-0.00076816,-0.00102403,0.000000
 02,0.12781287,0.28539615,-0.00000022,-0.00000041,0.00213190,-0.0000001
 7,0.00000018,0.00713061,-0.00000003,0.,-0.00057067,-0.00000020,0.00000
 026,0.00486895,0.00000059,0.00000085,0.00353956,0.00000221,0.00000537,
 -0.03225263,0.00000006,-0.00000016,-0.00261796,-0.00000004,0.00000001,
 0.00158112,0.,-0.00000002,-0.00069610,0.,0.,-0.00006748,0.00000008,-0.
 00000016,-0.00476326,0.00000001,-0.00000002,-0.00061908,0.00000003,0.0
 0000004,-0.00008469,-0.00000231,-0.00000596,0.02253432,-0.00056133,0.0
 0002511,-0.00000004,0.00071975,0.00034979,0.,0.00002716,-0.00196442,0.
 ,-0.00487592,0.00338904,-0.00000016,-0.01206537,-0.03190688,0.00000170
 ,0.00169922,-0.00190658,0.00000002,-0.17581179,-0.17371090,0.00000844,
 -0.00054665,-0.00002399,0.,0.00022061,0.00029670,0.,0.00013225,-0.0000
 6050,0.,0.00001762,0.00000771,0.,-0.00039703,0.00012257,0.,0.00011765,
 -0.00021393,0.00000002,-0.00057162,0.00179994,-0.00000003,0.17803457,-
 0.00104706,-0.00064981,-0.00000008,0.00152153,0.00006632,0.00000002,-0
 .00070669,0.00034845,0.00000004,0.00247260,0.00188779,0.00000014,-0.00
 071878,0.00563631,-0.00000043,0.00327194,0.00150248,-0.00000009,-0.171
 89065,-0.36942208,0.00001661,-0.00153829,0.00000742,0.,0.00035638,0.00
 035705,0.,0.00040163,-0.00046233,0.00000002,0.00007998,0.00000451,0.,0
 .00002609,0.00001874,-0.00000002,0.00016188,0.00024877,-0.00000002,-0.
 00020611,-0.00066955,0.00000008,0.18580594,0.37498381,-0.00000001,0.,-
 0.00082449,0.00000012,-0.00000004,0.00015815,-0.00000017,0.00000002,0.
 00213231,-0.00000016,0.00000019,0.00312625,-0.00000109,-0.00000124,-0.
 00478783,0.00000006,-0.00000020,-0.00184255,0.00001014,0.00001886,0.00
 409984,-0.00000011,0.,-0.00007456,0.00000003,0.00000003,-0.00002143,0.
 00000003,-0.00000003,-0.00002029,0.,0.,0.00012940,-0.00000001,-0.00000
 001,-0.00041044,0.,-0.00000002,-0.00070159,0.00000003,0.00000003,0.000
 58699,-0.00000900,-0.00001722,0.00241026,0.00002716,0.00196442,-0.0000
 0010,0.00071975,-0.00034979,0.00000002,-0.00056133,-0.00002511,-0.0000
 0003,0.00169922,0.00190658,-0.00000009,-0.01206538,0.03190688,-0.00000
 024,-0.00487592,-0.00338904,0.00000004,-0.17581182,0.17371094,-0.00000
 212,-0.00054665,0.00002399,0.,0.00013225,0.00006050,0.,0.00022061,-0.0
 0029671,0.00000001,-0.00039703,-0.00012257,0.,0.00001762,-0.00000771,0
 .,-0.00057162,-0.00179994,0.00000008,0.00011765,0.00021393,0.,0.013860
 89,-0.01799039,0.00000013,0.17803461,0.00070669,0.00034846,0.00000007,
 -0.00152153,0.00006632,-0.00000002,0.00104706,-0.00064981,0.00000007,-
 0.00327194,0.00150248,-0.00000011,0.00071878,0.00563632,-0.00000021,-0
 .00247260,0.00188779,-0.00000006,0.17189069,-0.36942209,0.00000601,0.0
 0153829,0.00000742,0.,-0.00040163,-0.00046233,0.,-0.00035638,0.0003570
 5,-0.00000001,-0.00002609,0.00001874,-0.00000001,-0.00007998,0.0000045
 1,0.,0.00020611,-0.00066955,0.,-0.00016188,0.00024877,-0.00000004,0.01
 799039,-0.01385788,-0.00000037,-0.18580598,0.37498381,-0.00000020,0.00
 000008,0.00213231,0.00000020,0.00000004,0.00015815,-0.00000007,0.,-0.0
 0082449,0.00000025,0.,-0.00184255,-0.00000106,0.00000059,-0.00478783,-
 0.00000001,-0.00000012,0.00312625,-0.00000037,0.00000377,0.00409984,-0
 .00000019,0.,-0.00007456,0.00000005,0.00000005,-0.00002029,0.00000005,
 -0.00000005,-0.00002143,0.,-0.00000001,-0.00041044,0.,0.,0.00012940,0.
 ,0.00000004,0.00058699,0.00000002,-0.00000003,-0.00070159,-0.00000096,
 0.00000096,-0.00396003,0.00000229,-0.00000532,0.00241025\\0.00000447,-
 0.00001202,-0.00000010,0.00013235,0.00000001,-0.00000043,0.00000449,0.
 00001201,-0.00000010,-0.00002164,-0.00000834,0.00000001,0.00002770,-0.
 00000001,0.00000004,-0.00002163,0.00000836,0.,-0.00003521,-0.00000001,
 -0.00000021,-0.00012857,0.,0.00000225,0.00000557,-0.00001072,-0.000000
 81,0.00000558,0.00001072,-0.00000081,0.00000850,0.00001027,-0.00000001
 ,0.00000850,-0.00001027,0.,-0.00000556,-0.00000240,0.00000001,-0.00000
 557,0.00000239,0.00000001,0.00001051,0.00000728,0.00000009,0.00001050,
 -0.00000727,0.00000008\\\@


 A MATHEMATICIAN IS A MACHINE FOR TURNING COFFEE INTO THEOREMS.
     -- QUOTED BY PAUL ERDOS
 Job cpu time:       0 days  0 hours  9 minutes 22.0 seconds.
 File lengths (MBytes):  RWF=     85 Int=      0 D2E=      0 Chk=      5 Scr=      1
 Normal termination of Gaussian 09 at Tue Dec 17 19:30:15 2024.
