 Entering Gaussian System, Link 0=g09
 Input=B3PW91D3PNAyang.gjf
 Output=B3PW91D3PNAyang.log
 Initial command:
 /home/c612/g09E/g09/l1.exe "/mnt/ja_sm883/scratch/Gau-1957210.inp" -scrdir="/mnt/ja_sm883/scratch/"
 Default is to use a total of  18 processors:
                               18 via shared-memory
                                1 via Linda
 Entering Link 1 = /home/c612/g09E/g09/l1.exe PID=   1957212.
  
 Copyright (c) 1988,1990,1992,1993,1995,1998,2003,2009,2015,
            Gaussian, Inc.  All Rights Reserved.
  
 This is part of the Gaussian(R) 09 program.  It is based on
 the Gaussian(R) 03 system (copyright 2003, Gaussian, Inc.),
 the Gaussian(R) 98 system (copyright 1998, Gaussian, Inc.),
 the Gaussian(R) 94 system (copyright 1995, Gaussian, Inc.),
 the Gaussian 92(TM) system (copyright 1992, Gaussian, Inc.),
 the Gaussian 90(TM) system (copyright 1990, Gaussian, Inc.),
 the Gaussian 88(TM) system (copyright 1988, Gaussian, Inc.),
 the Gaussian 86(TM) system (copyright 1986, Carnegie Mellon
 University), and the Gaussian 82(TM) system (copyright 1983,
 Carnegie Mellon University). Gaussian is a federally registered
 trademark of Gaussian, Inc.
  
 This software contains proprietary and confidential information,
 including trade secrets, belonging to Gaussian, Inc.
  
 This software is provided under written license and may be
 used, copied, transmitted, or stored only in accord with that
 written license.
  
 The following legend is applicable only to US Government
 contracts under FAR:
  
                    RESTRICTED RIGHTS LEGEND
  
 Use, reproduction and disclosure by the US Government is
 subject to restrictions as set forth in subparagraphs (a)
 and (c) of the Commercial Computer Software - Restricted
 Rights clause in FAR 52.227-19.
  
 Gaussian, Inc.
 340 Quinnipiac St., Bldg. 40, Wallingford CT 06492
  
  
 ---------------------------------------------------------------
 Warning -- This program may not be used in any manner that
 competes with the business of Gaussian, Inc. or will provide
 assistance to any competitor of Gaussian, Inc.  The licensee
 of this program is prohibited from giving any competitor of
 Gaussian, Inc. access to this program.  By using this program,
 the user acknowledges that Gaussian, Inc. is engaged in the
 business of creating and licensing software in the field of
 computational chemistry and represents and warrants to the
 licensee that it is not a competitor of Gaussian, Inc. and that
 it will not use this program in any manner prohibited above.
 ---------------------------------------------------------------
  

 Cite this work as:
 Gaussian 09, Revision E.01,
 M. J. Frisch, G. W. Trucks, H. B. Schlegel, G. E. Scuseria, 
 M. A. Robb, J. R. Cheeseman, G. Scalmani, V. Barone, B. Mennucci, 
 G. A. Petersson, H. Nakatsuji, M. Caricato, X. Li, H. P. Hratchian, 
 A. F. Izmaylov, J. Bloino, G. Zheng, J. L. Sonnenberg, M. Hada, 
 M. Ehara, K. Toyota, R. Fukuda, J. Hasegawa, M. Ishida, T. Nakajima, 
 Y. Honda, O. Kitao, H. Nakai, T. Vreven, J. A. Montgomery, Jr., 
 J. E. Peralta, F. Ogliaro, M. Bearpark, J. J. Heyd, E. Brothers, 
 K. N. Kudin, V. N. Staroverov, T. Keith, R. Kobayashi, J. Normand, 
 K. Raghavachari, A. Rendell, J. C. Burant, S. S. Iyengar, J. Tomasi, 
 M. Cossi, N. Rega, J. M. Millam, M. Klene, J. E. Knox, J. B. Cross, 
 V. Bakken, C. Adamo, J. Jaramillo, R. Gomperts, R. E. Stratmann, 
 O. Yazyev, A. J. Austin, R. Cammi, C. Pomelli, J. W. Ochterski, 
 R. L. Martin, K. Morokuma, V. G. Zakrzewski, G. A. Voth, 
 P. Salvador, J. J. Dannenberg, S. Dapprich, A. D. Daniels, 
 O. Farkas, J. B. Foresman, J. V. Ortiz, J. Cioslowski, 
 and D. J. Fox, Gaussian, Inc., Wallingford CT, 2013.
 
 ******************************************
 Gaussian 09:  ES64L-G09RevE.01 30-Nov-2015
                19-Dec-2024 
 ******************************************
 %chk=B3PW91D3PNAyang.chk
 -----------------------------------------------------
 # opt freq b3pw91/6-31+g(d,p) EmpiricalDispersion=GD3
 -----------------------------------------------------
 1/14=-1,18=20,19=15,26=3,38=1/1,3;
 2/9=110,12=2,17=6,18=5,40=1/2;
 3/5=1,6=6,7=111,11=2,16=1,25=1,30=1,71=1,74=-6,124=31/1,2,3;
 4//1;
 5/5=2,38=5/2;
 6/7=2,8=2,9=2,10=2,28=1/1;
 7//1,2,3,16;
 1/14=-1,18=20,19=15,26=3/3(2);
 2/9=110/2;
 99//99;
 2/9=110/2;
 3/5=1,6=6,7=111,11=2,16=1,25=1,30=1,71=1,74=-6,124=31/1,2,3;
 4/5=5,16=3,69=1/1;
 5/5=2,38=5/2;
 7//1,2,3,16;
 1/14=-1,18=20,19=15,26=3/3(-5);
 2/9=110/2;
 6/7=2,8=2,9=2,10=2,19=2,28=1/1;
 99/9=1/99;
 ----------
 [No Title]
 ----------
 Symbolic Z-matrix:
 Charge =  1 Multiplicity = 1
 C                    -0.05732   1.26042  -0.00002 
 C                     0.66742   0.03633  -0.00007 
 C                    -0.00651  -1.21605  -0.00004 
 C                    -1.37145  -1.23715  0. 
 C                    -2.11785  -0.01758   0.00003 
 C                    -1.42089   1.23142   0.00002 
 N                    -3.45088  -0.0439    0.00006 
 N                     2.03076   0.1071   -0.00011 
 O                     2.66654  -1.09534   0.00005 
 O                     2.70408   1.11458   0.00003 
 H                     0.48219   2.20135  -0.00003 
 H                     0.55649  -2.1417   -0.00007 
 H                    -1.89792  -2.18652   0. 
 H                    -1.98382   2.15968   0.00004 
 H                    -3.9962    0.80656   0.00008 
 H                    -3.96284  -0.91482   0.00007 
 H                     3.6175   -0.86525   0.00015 
 

 GradGradGradGradGradGradGradGradGradGradGradGradGradGradGradGradGradGrad
 Berny optimization.
 Initialization pass.
                           ----------------------------
                           !    Initial Parameters    !
                           ! (Angstroms and Degrees)  !
 --------------------------                            --------------------------
 ! Name  Definition              Value          Derivative Info.                !
 --------------------------------------------------------------------------------
 ! R1    R(1,2)                  1.4225         estimate D2E/DX2                !
 ! R2    R(1,6)                  1.3639         estimate D2E/DX2                !
 ! R3    R(1,11)                 1.0846         estimate D2E/DX2                !
 ! R4    R(2,3)                  1.4222         estimate D2E/DX2                !
 ! R5    R(2,8)                  1.3652         estimate D2E/DX2                !
 ! R6    R(3,4)                  1.3651         estimate D2E/DX2                !
 ! R7    R(3,12)                 1.0834         estimate D2E/DX2                !
 ! R8    R(4,5)                  1.4298         estimate D2E/DX2                !
 ! R9    R(4,13)                 1.0856         estimate D2E/DX2                !
 ! R10   R(5,6)                  1.4303         estimate D2E/DX2                !
 ! R11   R(5,7)                  1.3333         estimate D2E/DX2                !
 ! R12   R(6,14)                 1.0856         estimate D2E/DX2                !
 ! R13   R(7,15)                 1.0103         estimate D2E/DX2                !
 ! R14   R(7,16)                 1.0102         estimate D2E/DX2                !
 ! R15   R(8,9)                  1.3602         estimate D2E/DX2                !
 ! R16   R(8,10)                 1.2118         estimate D2E/DX2                !
 ! R17   R(9,17)                 0.9784         estimate D2E/DX2                !
 ! A1    A(2,1,6)              119.4098         estimate D2E/DX2                !
 ! A2    A(2,1,11)             119.543          estimate D2E/DX2                !
 ! A3    A(6,1,11)             121.0472         estimate D2E/DX2                !
 ! A4    A(1,2,3)              121.0867         estimate D2E/DX2                !
 ! A5    A(1,2,8)              117.6568         estimate D2E/DX2                !
 ! A6    A(3,2,8)              121.2565         estimate D2E/DX2                !
 ! A7    A(2,3,4)              119.171          estimate D2E/DX2                !
 ! A8    A(2,3,12)             120.4063         estimate D2E/DX2                !
 ! A9    A(4,3,12)             120.4227         estimate D2E/DX2                !
 ! A10   A(3,4,5)              120.582          estimate D2E/DX2                !
 ! A11   A(3,4,13)             119.8964         estimate D2E/DX2                !
 ! A12   A(5,4,13)             119.5216         estimate D2E/DX2                !
 ! A13   A(4,5,6)              119.3699         estimate D2E/DX2                !
 ! A14   A(4,5,7)              120.3369         estimate D2E/DX2                !
 ! A15   A(6,5,7)              120.2932         estimate D2E/DX2                !
 ! A16   A(1,6,5)              120.3806         estimate D2E/DX2                !
 ! A17   A(1,6,14)             120.0161         estimate D2E/DX2                !
 ! A18   A(5,6,14)             119.6033         estimate D2E/DX2                !
 ! A19   A(5,7,15)             121.5378         estimate D2E/DX2                !
 ! A20   A(5,7,16)             121.5796         estimate D2E/DX2                !
 ! A21   A(15,7,16)            116.8826         estimate D2E/DX2                !
 ! A22   A(2,8,9)              114.8957         estimate D2E/DX2                !
 ! A23   A(2,8,10)             126.7268         estimate D2E/DX2                !
 ! A24   A(9,8,10)             118.3775         estimate D2E/DX2                !
 ! A25   A(8,9,17)             104.265          estimate D2E/DX2                !
 ! D1    D(6,1,2,3)             -0.0016         estimate D2E/DX2                !
 ! D2    D(6,1,2,8)            179.9998         estimate D2E/DX2                !
 ! D3    D(11,1,2,3)           179.9994         estimate D2E/DX2                !
 ! D4    D(11,1,2,8)             0.0007         estimate D2E/DX2                !
 ! D5    D(2,1,6,5)              0.0007         estimate D2E/DX2                !
 ! D6    D(2,1,6,14)          -179.999          estimate D2E/DX2                !
 ! D7    D(11,1,6,5)           179.9998         estimate D2E/DX2                !
 ! D8    D(11,1,6,14)            0.0            estimate D2E/DX2                !
 ! D9    D(1,2,3,4)              0.0015         estimate D2E/DX2                !
 ! D10   D(1,2,3,12)          -179.9992         estimate D2E/DX2                !
 ! D11   D(8,2,3,4)           -179.9999         estimate D2E/DX2                !
 ! D12   D(8,2,3,12)            -0.0006         estimate D2E/DX2                !
 ! D13   D(1,2,8,9)            179.9904         estimate D2E/DX2                !
 ! D14   D(1,2,8,10)             0.0082         estimate D2E/DX2                !
 ! D15   D(3,2,8,9)             -0.0082         estimate D2E/DX2                !
 ! D16   D(3,2,8,10)          -179.9904         estimate D2E/DX2                !
 ! D17   D(2,3,4,5)             -0.0006         estimate D2E/DX2                !
 ! D18   D(2,3,4,13)           179.9992         estimate D2E/DX2                !
 ! D19   D(12,3,4,5)          -179.9999         estimate D2E/DX2                !
 ! D20   D(12,3,4,13)           -0.0001         estimate D2E/DX2                !
 ! D21   D(3,4,5,6)             -0.0002         estimate D2E/DX2                !
 ! D22   D(3,4,5,7)            179.9999         estimate D2E/DX2                !
 ! D23   D(13,4,5,6)           180.0            estimate D2E/DX2                !
 ! D24   D(13,4,5,7)             0.0001         estimate D2E/DX2                !
 ! D25   D(4,5,6,1)              0.0001         estimate D2E/DX2                !
 ! D26   D(4,5,6,14)           179.9999         estimate D2E/DX2                !
 ! D27   D(7,5,6,1)           -179.9999         estimate D2E/DX2                !
 ! D28   D(7,5,6,14)            -0.0002         estimate D2E/DX2                !
 ! D29   D(4,5,7,15)           180.0            estimate D2E/DX2                !
 ! D30   D(4,5,7,16)            -0.0001         estimate D2E/DX2                !
 ! D31   D(6,5,7,15)             0.0001         estimate D2E/DX2                !
 ! D32   D(6,5,7,16)           180.0            estimate D2E/DX2                !
 ! D33   D(2,8,9,17)          -179.9909         estimate D2E/DX2                !
 ! D34   D(10,8,9,17)           -0.0071         estimate D2E/DX2                !
 --------------------------------------------------------------------------------
 Trust Radius=3.00D-01 FncErr=1.00D-07 GrdErr=1.00D-06
 Number of steps in this run=     86 maximum allowed number of steps=    102.
 GradGradGradGradGradGradGradGradGradGradGradGradGradGradGradGradGradGrad

                          Input orientation:                          
 ---------------------------------------------------------------------
 Center     Atomic      Atomic             Coordinates (Angstroms)
 Number     Number       Type             X           Y           Z
 ---------------------------------------------------------------------
      1          6           0       -0.057318    1.260419   -0.000021
      2          6           0        0.667415    0.036333   -0.000068
      3          6           0       -0.006506   -1.216048   -0.000043
      4          6           0       -1.371446   -1.237151   -0.000004
      5          6           0       -2.117853   -0.017584    0.000025
      6          6           0       -1.420885    1.231421    0.000017
      7          7           0       -3.450875   -0.043897    0.000061
      8          7           0        2.030763    0.107099   -0.000109
      9          8           0        2.666538   -1.095343    0.000053
     10          8           0        2.704081    1.114584    0.000029
     11          1           0        0.482190    2.201352   -0.000031
     12          1           0        0.556485   -2.141698   -0.000066
     13          1           0       -1.897923   -2.186524    0.000002
     14          1           0       -1.983821    2.159680    0.000037
     15          1           0       -3.996204    0.806563    0.000082
     16          1           0       -3.962836   -0.914815    0.000067
     17          1           0        3.617496   -0.865246    0.000148
 ---------------------------------------------------------------------
                    Distance matrix (angstroms):
                    1          2          3          4          5
     1  C    0.000000
     2  C    1.422542   0.000000
     3  C    2.476988   1.422191   0.000000
     4  C    2.822196   2.403896   1.365103   0.000000
     5  C    2.424685   2.785790   2.427777   1.429849   0.000000
     6  C    1.363875   2.406082   2.826760   2.469067   1.430307
     7  N    3.635584   4.119071   3.638353   2.397474   1.333282
     8  N    2.385420   1.365183   2.429235   3.658146   4.150489
     9  O    3.601251   2.297212   2.675768   4.040473   4.904280
    10  O    2.765247   2.304481   3.574791   4.705378   4.953065
    11  H    1.084631   2.172928   3.452165   3.906311   3.418172
    12  H    3.457044   2.180854   1.083414   2.129583   3.415252
    13  H    3.907588   3.394415   2.125860   1.085581   2.180062
    14  H    2.126049   3.396712   3.912201   3.451589   2.181386
    15  H    3.964947   4.726796   4.473102   3.326578   2.051200
    16  H    4.470427   4.726934   3.967781   2.611360   2.051581
    17  H    4.245316   3.084773   3.640941   5.002785   5.797651
                    6          7          8          9         10
     6  C    0.000000
     7  N    2.397352   0.000000
     8  N    3.630148   5.483717   0.000000
     9  O    4.703282   6.207115   1.360175   0.000000
    10  O    4.126620   6.263031   1.211769   2.210246   0.000000
    11  H    2.135992   4.528813   2.604606   3.954690   2.473432
    12  H    3.909977   4.523240   2.688974   2.355246   3.900710
    13  H    3.451074   2.646226   4.549207   4.693078   5.663546
    14  H    1.085616   2.647263   4.508877   5.676356   4.802984
    15  H    2.610129   1.010280   6.067420   6.928880   6.707361
    16  H    3.326837   1.010249   6.080094   6.631832   6.968948
    17  H    5.457224   7.115932   1.860961   0.978400   2.180379
                   11         12         13         14         15
    11  H    0.000000
    12  H    4.343685   0.000000
    13  H    4.991833   2.454817   0.000000
    14  H    2.466363   4.995499   4.347053   0.000000
    15  H    4.690570   5.423949   3.655318   2.424997   0.000000
    16  H    5.428513   4.682895   2.425100   3.656367   1.721701
    17  H    4.385677   3.316492   5.671474   6.365919   7.795086
                   16         17
    16  H    0.000000
    17  H    7.580494   0.000000
 Stoichiometry    C6H7N2O2(1+)
 Framework group  C1[X(C6H7N2O2)]
 Deg. of freedom    45
 Full point group                 C1      NOp   1
 Largest Abelian subgroup         C1      NOp   1
 Largest concise Abelian subgroup C1      NOp   1
                         Standard orientation:                         
 ---------------------------------------------------------------------
 Center     Atomic      Atomic             Coordinates (Angstroms)
 Number     Number       Type             X           Y           Z
 ---------------------------------------------------------------------
      1          6           0       -0.057318    1.260419   -0.000021
      2          6           0        0.667415    0.036333   -0.000068
      3          6           0       -0.006506   -1.216048   -0.000043
      4          6           0       -1.371446   -1.237151   -0.000004
      5          6           0       -2.117853   -0.017584    0.000025
      6          6           0       -1.420885    1.231421    0.000017
      7          7           0       -3.450875   -0.043897    0.000061
      8          7           0        2.030763    0.107099   -0.000109
      9          8           0        2.666538   -1.095343    0.000053
     10          8           0        2.704081    1.114584    0.000029
     11          1           0        0.482190    2.201352   -0.000031
     12          1           0        0.556485   -2.141698   -0.000066
     13          1           0       -1.897923   -2.186524    0.000002
     14          1           0       -1.983821    2.159680    0.000037
     15          1           0       -3.996204    0.806563    0.000082
     16          1           0       -3.962836   -0.914815    0.000067
     17          1           0        3.617496   -0.865246    0.000148
 ---------------------------------------------------------------------
 Rotational constants (GHZ):      3.7744281      0.8229505      0.6756388
 Standard basis: 6-31+G(d,p) (6D, 7F)
 There are   225 symmetry adapted cartesian basis functions of A   symmetry.
 There are   225 symmetry adapted basis functions of A   symmetry.
   225 basis functions,   369 primitive gaussians,   225 cartesian basis functions
    36 alpha electrons       36 beta electrons
       nuclear repulsion energy       508.9631194315 Hartrees.
 NAtoms=   17 NActive=   17 NUniq=   17 SFac= 1.00D+00 NAtFMM=   60 NAOKFM=F Big=F
 Integral buffers will be    131072 words long.
 Raffenetti 2 integral format.
 Two-electron integral symmetry is turned on.
 Nuclear repulsion after empirical dispersion term =      508.9501330501 Hartrees.
 One-electron integrals computed using PRISM.
 NBasis=   225 RedAO= T EigKep=  3.35D-06  NBF=   225
 NBsUse=   225 1.00D-06 EigRej= -1.00D+00 NBFU=   225
 ExpMin= 4.38D-02 ExpMax= 5.48D+03 ExpMxC= 8.25D+02 IAcc=2 IRadAn=         4 AccDes= 0.00D+00
 Harris functional with IExCor=  408 and IRadAn=       4 diagonalized for initial guess.
 HarFok:  IExCor=  408 AccDes= 0.00D+00 IRadAn=         4 IDoV= 1 UseB2=F ITyADJ=14
 ICtDFT=  3500011 ScaDFX=  1.000000  1.000000  1.000000  1.000000
 FoFCou: FMM=F IPFlag=           0 FMFlag=      100000 FMFlg1=           0
         NFxFlg=           0 DoJE=T BraDBF=F KetDBF=T FulRan=T
         wScrn=  0.000000 ICntrl=     500 IOpCl=  0 I1Cent=   200000004 NGrid=           0
         NMat0=    1 NMatS0=      1 NMatT0=    0 NMatD0=    1 NMtDS0=    0 NMtDT0=    0
 Petite list used in FoFCou.
 Keep R1 ints in memory in canonical form, NReq=329175655.
 Requested convergence on RMS density matrix=1.00D-08 within 128 cycles.
 Requested convergence on MAX density matrix=1.00D-06.
 Requested convergence on             energy=1.00D-06.
 No special actions if energy rises.
 EnCoef did     3 forward-backward iterations
 SCF Done:  E(RB3PW91) =  -492.317281827     A.U. after   17 cycles
            NFock= 17  Conv=0.63D-08     -V/T= 2.0092

 **********************************************************************

            Population analysis using the SCF density.

 **********************************************************************

 Orbital symmetries:
       Occupied  (A) (A) (A) (A) (A) (A) (A) (A) (A) (A) (A) (A)
                 (A) (A) (A) (A) (A) (A) (A) (A) (A) (A) (A) (A)
                 (A) (A) (A) (A) (A) (A) (A) (A) (A) (A) (A) (A)
       Virtual   (A) (A) (A) (A) (A) (A) (A) (A) (A) (A) (A) (A)
                 (A) (A) (A) (A) (A) (A) (A) (A) (A) (A) (A) (A)
                 (A) (A) (A) (A) (A) (A) (A) (A) (A) (A) (A) (A)
                 (A) (A) (A) (A) (A) (A) (A) (A) (A) (A) (A) (A)
                 (A) (A) (A) (A) (A) (A) (A) (A) (A) (A) (A) (A)
                 (A) (A) (A) (A) (A) (A) (A) (A) (A) (A) (A) (A)
                 (A) (A) (A) (A) (A) (A) (A) (A) (A) (A) (A) (A)
                 (A) (A) (A) (A) (A) (A) (A) (A) (A) (A) (A) (A)
                 (A) (A) (A) (A) (A) (A) (A) (A) (A) (A) (A) (A)
                 (A) (A) (A) (A) (A) (A) (A) (A) (A) (A) (A) (A)
                 (A) (A) (A) (A) (A) (A) (A) (A) (A) (A) (A) (A)
                 (A) (A) (A) (A) (A) (A) (A) (A) (A) (A) (A) (A)
                 (A) (A) (A) (A) (A) (A) (A) (A) (A) (A) (A) (A)
                 (A) (A) (A) (A) (A) (A) (A) (A) (A) (A) (A) (A)
                 (A) (A) (A) (A) (A) (A) (A) (A) (A) (A) (A) (A)
                 (A) (A) (A) (A) (A) (A) (A) (A) (A)
 The electronic state is 1-A.
 Alpha  occ. eigenvalues --  -19.41159 -19.37546 -14.74826 -14.54754 -10.43560
 Alpha  occ. eigenvalues --  -10.41794 -10.38262 -10.38080 -10.36776 -10.36757
 Alpha  occ. eigenvalues --   -1.42628  -1.26448  -1.13962  -1.08309  -1.00587
 Alpha  occ. eigenvalues --   -0.95161  -0.89295  -0.83126  -0.80596  -0.75957
 Alpha  occ. eigenvalues --   -0.73993  -0.72285  -0.72239  -0.71075  -0.65011
 Alpha  occ. eigenvalues --   -0.62781  -0.61967  -0.61189  -0.59423  -0.58681
 Alpha  occ. eigenvalues --   -0.53760  -0.53363  -0.51615  -0.49996  -0.45178
 Alpha  occ. eigenvalues --   -0.40965
 Alpha virt. eigenvalues --   -0.29089  -0.19031  -0.16376  -0.12680  -0.11864
 Alpha virt. eigenvalues --   -0.09771  -0.09185  -0.08349  -0.06708  -0.06450
 Alpha virt. eigenvalues --   -0.05853  -0.04527  -0.04299  -0.03305  -0.02461
 Alpha virt. eigenvalues --   -0.02213  -0.00867  -0.00366   0.00746   0.01330
 Alpha virt. eigenvalues --    0.01922   0.02384   0.02463   0.03222   0.03583
 Alpha virt. eigenvalues --    0.05020   0.05393   0.06232   0.06694   0.06806
 Alpha virt. eigenvalues --    0.07616   0.08139   0.08573   0.09092   0.10059
 Alpha virt. eigenvalues --    0.10349   0.10417   0.12304   0.12746   0.12749
 Alpha virt. eigenvalues --    0.13389   0.14439   0.14581   0.15354   0.15743
 Alpha virt. eigenvalues --    0.16532   0.18785   0.19011   0.19645   0.20621
 Alpha virt. eigenvalues --    0.21738   0.22593   0.24640   0.25195   0.27545
 Alpha virt. eigenvalues --    0.28820   0.30207   0.33434   0.38195   0.40775
 Alpha virt. eigenvalues --    0.43851   0.48418   0.49281   0.49682   0.52880
 Alpha virt. eigenvalues --    0.54841   0.56087   0.57669   0.59265   0.62677
 Alpha virt. eigenvalues --    0.63709   0.65630   0.68025   0.69056   0.71958
 Alpha virt. eigenvalues --    0.73654   0.74805   0.77628   0.79477   0.80210
 Alpha virt. eigenvalues --    0.81905   0.82566   0.85385   0.86071   0.88818
 Alpha virt. eigenvalues --    0.89889   0.90116   0.92175   0.94495   0.96645
 Alpha virt. eigenvalues --    0.99798   1.00525   1.01528   1.02862   1.04374
 Alpha virt. eigenvalues --    1.06899   1.09464   1.09647   1.12155   1.12420
 Alpha virt. eigenvalues --    1.14989   1.15785   1.15940   1.19494   1.19626
 Alpha virt. eigenvalues --    1.20972   1.21680   1.26387   1.27347   1.29966
 Alpha virt. eigenvalues --    1.33688   1.35326   1.37547   1.49173   1.52692
 Alpha virt. eigenvalues --    1.56124   1.58194   1.62714   1.63775   1.65825
 Alpha virt. eigenvalues --    1.66468   1.71826   1.72815   1.73645   1.75593
 Alpha virt. eigenvalues --    1.77753   1.78677   1.79298   1.79498   1.85509
 Alpha virt. eigenvalues --    1.88227   1.91271   1.93066   1.94874   1.96579
 Alpha virt. eigenvalues --    1.99982   2.00924   2.02850   2.12893   2.13409
 Alpha virt. eigenvalues --    2.20028   2.20663   2.21971   2.22332   2.23568
 Alpha virt. eigenvalues --    2.27346   2.27391   2.30538   2.32590   2.36868
 Alpha virt. eigenvalues --    2.38110   2.39475   2.40693   2.41431   2.42330
 Alpha virt. eigenvalues --    2.44881   2.49568   2.50149   2.53160   2.58217
 Alpha virt. eigenvalues --    2.59019   2.63179   2.66252   2.67815   2.80072
 Alpha virt. eigenvalues --    2.82468   2.86174   2.90314   2.93548   2.98339
 Alpha virt. eigenvalues --    3.02749   3.12288   3.17344   3.17907   3.24229
 Alpha virt. eigenvalues --    3.33262   3.36102   3.51233   3.66802   3.97462
 Alpha virt. eigenvalues --    4.04770   4.12350   4.13760   4.17918   4.29690
 Alpha virt. eigenvalues --    4.31731   4.36108   4.62173   4.69365
          Condensed to atoms (all electrons):
               1          2          3          4          5          6
     1  C   10.037953   0.430889  -2.677596  -1.648446   0.324024  -1.021285
     2  C    0.430889  12.675914  -2.460612  -1.338772  -1.215521  -0.398991
     3  C   -2.677596  -2.460612  12.102227  -1.194871   0.606807  -1.377711
     4  C   -1.648446  -1.338772  -1.194871  10.248781   0.098253  -0.451618
     5  C    0.324024  -1.215521   0.606807   0.098253   6.107549  -0.134964
     6  C   -1.021285  -0.398991  -1.377711  -0.451618  -0.134964   9.002655
     7  N    0.080964  -0.032463   0.072006  -0.068473   0.150177  -0.082716
     8  N    0.409604  -1.140578   0.078332   0.028746   0.043440   0.093389
     9  O    0.036948  -0.313011   0.111642   0.068623  -0.006698   0.034541
    10  O   -0.277914  -0.202199   0.347384   0.011224   0.015706   0.033145
    11  H   -0.015006   0.292303   0.067731   0.004235  -0.048066   0.064205
    12  H    0.039565   0.338180  -0.085325   0.116536  -0.062887   0.018262
    13  H    0.009023   0.004561   0.149930   0.059530   0.110102   0.007570
    14  H    0.120690   0.002524  -0.000181   0.012152   0.107906   0.097490
    15  H    0.021842   0.000413  -0.003112   0.050305  -0.007941  -0.072482
    16  H   -0.003543   0.000156   0.021282  -0.072769  -0.006221   0.050199
    17  H    0.042015   0.031852  -0.061148  -0.004243  -0.001272   0.004085
               7          8          9         10         11         12
     1  C    0.080964   0.409604   0.036948  -0.277914  -0.015006   0.039565
     2  C   -0.032463  -1.140578  -0.313011  -0.202199   0.292303   0.338180
     3  C    0.072006   0.078332   0.111642   0.347384   0.067731  -0.085325
     4  C   -0.068473   0.028746   0.068623   0.011224   0.004235   0.116536
     5  C    0.150177   0.043440  -0.006698   0.015706  -0.048066  -0.062887
     6  C   -0.082716   0.093389   0.034541   0.033145   0.064205   0.018262
     7  N    6.790820   0.001000  -0.000125  -0.000477  -0.000188  -0.000048
     8  N    0.001000   7.221774   0.185530   0.431412  -0.059700  -0.060671
     9  O   -0.000125   0.185530   7.772655  -0.094460  -0.002372   0.019532
    10  O   -0.000477   0.431412  -0.094460   7.668660   0.022209  -0.002674
    11  H   -0.000188  -0.059700  -0.002372   0.022209   0.458102  -0.000082
    12  H   -0.000048  -0.060671   0.019532  -0.002674  -0.000082   0.463843
    13  H   -0.019788  -0.001071   0.000090   0.000024   0.000010  -0.004372
    14  H   -0.019278  -0.000992   0.000060  -0.000023  -0.004044   0.000010
    15  H    0.330491  -0.000006   0.000000   0.000001  -0.000008   0.000003
    16  H    0.330394   0.000000   0.000001   0.000000   0.000002  -0.000008
    17  H    0.000005   0.035559   0.215829   0.009983   0.000004   0.000170
              13         14         15         16         17
     1  C    0.009023   0.120690   0.021842  -0.003543   0.042015
     2  C    0.004561   0.002524   0.000413   0.000156   0.031852
     3  C    0.149930  -0.000181  -0.003112   0.021282  -0.061148
     4  C    0.059530   0.012152   0.050305  -0.072769  -0.004243
     5  C    0.110102   0.107906  -0.007941  -0.006221  -0.001272
     6  C    0.007570   0.097490  -0.072482   0.050199   0.004085
     7  N   -0.019788  -0.019278   0.330491   0.330394   0.000005
     8  N   -0.001071  -0.000992  -0.000006   0.000000   0.035559
     9  O    0.000090   0.000060   0.000000   0.000001   0.215829
    10  O    0.000024  -0.000023   0.000001   0.000000   0.009983
    11  H    0.000010  -0.004044  -0.000008   0.000002   0.000004
    12  H   -0.004372   0.000010   0.000003  -0.000008   0.000170
    13  H    0.489364  -0.000091  -0.000052   0.004272  -0.000000
    14  H   -0.000091   0.487029   0.004283  -0.000054  -0.000000
    15  H   -0.000052   0.004283   0.339302  -0.019699   0.000000
    16  H    0.004272  -0.000054  -0.019699   0.339604  -0.000000
    17  H   -0.000000  -0.000000   0.000000  -0.000000   0.328873
 Mulliken charges:
               1
     1  C    0.090273
     2  C   -0.674644
     3  C    0.303217
     4  C    0.080807
     5  C   -0.080396
     6  C    0.134226
     7  N   -0.532301
     8  N   -0.265770
     9  O   -0.028786
    10  O    0.037997
    11  H    0.220664
    12  H    0.219967
    13  H    0.190898
    14  H    0.192518
    15  H    0.356660
    16  H    0.356381
    17  H    0.398288
 Sum of Mulliken charges =   1.00000
 Mulliken charges with hydrogens summed into heavy atoms:
               1
     1  C    0.310937
     2  C   -0.674644
     3  C    0.523184
     4  C    0.271705
     5  C   -0.080396
     6  C    0.326744
     7  N    0.180741
     8  N   -0.265770
     9  O    0.369502
    10  O    0.037997
 Electronic spatial extent (au):  <R**2>=           1549.0658
 Charge=              1.0000 electrons
 Dipole moment (field-independent basis, Debye):
    X=             -3.6279    Y=             -1.1097    Z=              0.0001  Tot=              3.7938
 Quadrupole moment (field-independent basis, Debye-Ang):
   XX=             -7.5049   YY=            -44.1004   ZZ=            -58.3482
   XY=             -4.7293   XZ=             -0.0001   YZ=             -0.0001
 Traceless Quadrupole moment (field-independent basis, Debye-Ang):
   XX=             29.1463   YY=             -7.4492   ZZ=            -21.6970
   XY=             -4.7293   XZ=             -0.0001   YZ=             -0.0001
 Octapole moment (field-independent basis, Debye-Ang**2):
  XXX=            -42.7279  YYY=             -1.0082  ZZZ=              0.0004  XYY=            -13.0858
  XXY=            -21.6424  XXZ=              0.0057  XZZ=             11.1104  YZZ=              0.3133
  YYZ=              0.0005  XYZ=             -0.0011
 Hexadecapole moment (field-independent basis, Debye-Ang**3):
 XXXX=           -657.6682 YYYY=           -331.1045 ZZZZ=            -57.3752 XXXY=            -80.8919
 XXXZ=              0.0084 YYYX=             -3.4312 YYYZ=              0.0001 ZZZX=              0.0060
 ZZZY=             -0.0003 XXYY=           -242.2106 XXZZ=           -262.6467 YYZZ=            -80.7707
 XXYZ=             -0.0034 YYXZ=              0.0019 ZZXY=              0.4185
 N-N= 5.089501330501D+02 E-N=-2.152216818574D+03  KE= 4.878479241588D+02
 Calling FoFJK, ICntrl=      2127 FMM=F ISym2X=0 I1Cent= 0 IOpClX= 0 NMat=1 NMatS=1 NMatT=0.
 ***** Axes restored to original set *****
 -------------------------------------------------------------------
 Center     Atomic                   Forces (Hartrees/Bohr)
 Number     Number              X              Y              Z
 -------------------------------------------------------------------
      1        6          -0.000290683    0.000137875   -0.000004525
      2        6          -0.000036171   -0.000038347   -0.000006097
      3        6          -0.000290212   -0.000173119   -0.000003857
      4        6           0.000296651   -0.000230388    0.000000368
      5        6          -0.000070815   -0.000013427   -0.000000296
      6        6           0.000277109    0.000247578    0.000000274
      7        7           0.000066115    0.000000386   -0.000000078
      8        7          -0.000031114    0.000290058    0.000039219
      9        8           0.000561116   -0.000067794   -0.000010550
     10        8          -0.000128609    0.000310712   -0.000014840
     11        1          -0.000017407   -0.000006061    0.000000143
     12        1          -0.000114307    0.000009068   -0.000000184
     13        1           0.000043783    0.000004095    0.000000707
     14        1           0.000049445   -0.000004940    0.000000860
     15        1          -0.000114087   -0.000073859    0.000000015
     16        1          -0.000113814    0.000063017    0.000000029
     17        1          -0.000087001   -0.000454852   -0.000001191
 -------------------------------------------------------------------
 Cartesian Forces:  Max     0.000561116 RMS     0.000159443

 GradGradGradGradGradGradGradGradGradGradGradGradGradGradGradGradGradGrad
 Berny optimization.
 FormGI is forming the generalized inverse of G from B-inverse, IUseBI=4.
 GSVD:  received Info=                   1 from GESDD.
 Internal  Forces:  Max     0.000786016 RMS     0.000161116
 Search for a local minimum.
 Step number   1 out of a maximum of   86
 All quantities printed in internal units (Hartrees-Bohrs-Radians)
 Mixed Optimization -- En-DIIS/RFO-DIIS
 Second derivative matrix not updated -- first step.
 ITU=  0
     Eigenvalues ---    0.01727   0.01822   0.01848   0.01947   0.02012
     Eigenvalues ---    0.02055   0.02061   0.02152   0.02152   0.02156
     Eigenvalues ---    0.02278   0.02295   0.02574   0.02574   0.16000
     Eigenvalues ---    0.16000   0.16000   0.16000   0.16000   0.16000
     Eigenvalues ---    0.16000   0.22000   0.22950   0.24000   0.25000
     Eigenvalues ---    0.25000   0.25000   0.25000   0.35324   0.35328
     Eigenvalues ---    0.35441   0.35585   0.38330   0.39823   0.41618
     Eigenvalues ---    0.41716   0.45926   0.45931   0.49063   0.51697
     Eigenvalues ---    0.51913   0.52055   0.52912   0.58737   0.99125
 RFO step:  Lambda=-7.47231468D-06 EMin= 1.72716356D-02
 Linear search not attempted -- first point.
 Iteration  1 RMS(Cart)=  0.00124075 RMS(Int)=  0.00000199
 Iteration  2 RMS(Cart)=  0.00000197 RMS(Int)=  0.00000010
 Iteration  3 RMS(Cart)=  0.00000000 RMS(Int)=  0.00000010
 Variable       Old X    -DE/DX   Delta X   Delta X   Delta X     New X
                                 (Linear)    (Quad)   (Total)
    R1        2.68821   0.00018   0.00000   0.00043   0.00043   2.68864
    R2        2.57735  -0.00022   0.00000  -0.00043  -0.00043   2.57692
    R3        2.04966  -0.00001   0.00000  -0.00004  -0.00004   2.04962
    R4        2.68755   0.00026   0.00000   0.00062   0.00062   2.68817
    R5        2.57982   0.00032   0.00000   0.00061   0.00061   2.58043
    R6        2.57967  -0.00021   0.00000  -0.00040  -0.00040   2.57927
    R7        2.04736  -0.00007   0.00000  -0.00019  -0.00019   2.04717
    R8        2.70202   0.00023   0.00000   0.00058   0.00058   2.70260
    R9        2.05145  -0.00003   0.00000  -0.00007  -0.00007   2.05138
   R10        2.70289   0.00024   0.00000   0.00057   0.00057   2.70346
   R11        2.51954   0.00016   0.00000   0.00028   0.00028   2.51981
   R12        2.05152  -0.00003   0.00000  -0.00008  -0.00008   2.05143
   R13        1.90915   0.00000   0.00000   0.00000   0.00000   1.90916
   R14        1.90909   0.00000   0.00000   0.00000   0.00000   1.90910
   R15        2.57036   0.00069   0.00000   0.00130   0.00130   2.57166
   R16        2.28991   0.00019   0.00000   0.00019   0.00019   2.29010
   R17        1.84891  -0.00019   0.00000  -0.00037  -0.00037   1.84853
    A1        2.08409   0.00006   0.00000   0.00026   0.00026   2.08435
    A2        2.08642  -0.00002   0.00000  -0.00007  -0.00007   2.08635
    A3        2.11267  -0.00004   0.00000  -0.00019  -0.00019   2.11248
    A4        2.11336  -0.00006   0.00000  -0.00024  -0.00024   2.11312
    A5        2.05350  -0.00018   0.00000  -0.00071  -0.00071   2.05279
    A6        2.11633   0.00024   0.00000   0.00095   0.00095   2.11727
    A7        2.07993   0.00002   0.00000   0.00009   0.00009   2.08001
    A8        2.10149   0.00009   0.00000   0.00057   0.00057   2.10205
    A9        2.10177  -0.00011   0.00000  -0.00065  -0.00065   2.10112
   A10        2.10455   0.00001   0.00000   0.00005   0.00005   2.10460
   A11        2.09259  -0.00004   0.00000  -0.00024  -0.00024   2.09234
   A12        2.08605   0.00003   0.00000   0.00019   0.00019   2.08624
   A13        2.08340  -0.00002   0.00000  -0.00009  -0.00009   2.08331
   A14        2.10027   0.00001   0.00000   0.00005   0.00005   2.10033
   A15        2.09951   0.00001   0.00000   0.00004   0.00004   2.09955
   A16        2.10104  -0.00001   0.00000  -0.00007  -0.00007   2.10097
   A17        2.09468  -0.00004   0.00000  -0.00024  -0.00024   2.09444
   A18        2.08747   0.00005   0.00000   0.00030   0.00030   2.08777
   A19        2.12124   0.00009   0.00000   0.00053   0.00053   2.12177
   A20        2.12196   0.00008   0.00000   0.00052   0.00052   2.12249
   A21        2.03999  -0.00017   0.00000  -0.00106  -0.00106   2.03893
   A22        2.00531  -0.00002   0.00000  -0.00008  -0.00008   2.00522
   A23        2.21180  -0.00031   0.00000  -0.00123  -0.00123   2.21057
   A24        2.06608   0.00033   0.00000   0.00131   0.00131   2.06739
   A25        1.81977   0.00079   0.00000   0.00491   0.00491   1.82468
    D1       -0.00003   0.00000   0.00000   0.00008   0.00008   0.00005
    D2        3.14159   0.00000   0.00000   0.00001   0.00001  -3.14158
    D3        3.14158   0.00000   0.00000   0.00003   0.00003  -3.14157
    D4        0.00001  -0.00000   0.00000  -0.00004  -0.00004  -0.00002
    D5        0.00001  -0.00000   0.00000  -0.00004  -0.00004  -0.00002
    D6       -3.14158  -0.00000   0.00000  -0.00005  -0.00005   3.14156
    D7        3.14159   0.00000   0.00000   0.00001   0.00001  -3.14159
    D8        0.00000  -0.00000   0.00000  -0.00000  -0.00000  -0.00000
    D9        0.00003  -0.00000   0.00000  -0.00008  -0.00008  -0.00005
   D10       -3.14158  -0.00000   0.00000  -0.00004  -0.00004   3.14156
   D11       -3.14159  -0.00000   0.00000  -0.00001  -0.00001   3.14159
   D12       -0.00001   0.00000   0.00000   0.00003   0.00003   0.00002
   D13        3.14143   0.00001   0.00000   0.00052   0.00052  -3.14124
   D14        0.00014  -0.00001   0.00000  -0.00045  -0.00045  -0.00031
   D15       -0.00014   0.00001   0.00000   0.00045   0.00045   0.00031
   D16       -3.14143  -0.00001   0.00000  -0.00052  -0.00052   3.14124
   D17       -0.00001   0.00000   0.00000   0.00003   0.00003   0.00002
   D18        3.14158   0.00000   0.00000   0.00004   0.00004  -3.14157
   D19       -3.14159  -0.00000   0.00000  -0.00000  -0.00000   3.14159
   D20       -0.00000   0.00000   0.00000   0.00001   0.00001   0.00000
   D21       -0.00000   0.00000   0.00000   0.00001   0.00001   0.00000
   D22        3.14159   0.00000   0.00000   0.00001   0.00001  -3.14159
   D23        3.14159  -0.00000   0.00000  -0.00000  -0.00000   3.14159
   D24        0.00000  -0.00000   0.00000  -0.00000  -0.00000  -0.00000
   D25        0.00000  -0.00000   0.00000  -0.00001  -0.00001  -0.00000
   D26        3.14159   0.00000   0.00000   0.00001   0.00001  -3.14159
   D27       -3.14159  -0.00000   0.00000  -0.00000  -0.00000   3.14159
   D28       -0.00000   0.00000   0.00000   0.00001   0.00001   0.00000
   D29        3.14159  -0.00000   0.00000   0.00000   0.00000  -3.14159
   D30       -0.00000   0.00000   0.00000   0.00000   0.00000  -0.00000
   D31        0.00000  -0.00000   0.00000  -0.00000  -0.00000  -0.00000
   D32        3.14159   0.00000   0.00000  -0.00000  -0.00000   3.14159
   D33       -3.14143  -0.00001   0.00000  -0.00050  -0.00050   3.14125
   D34       -0.00012   0.00001   0.00000   0.00038   0.00038   0.00026
         Item               Value     Threshold  Converged?
 Maximum Force            0.000786     0.000450     NO 
 RMS     Force            0.000161     0.000300     YES
 Maximum Displacement     0.006098     0.001800     NO 
 RMS     Displacement     0.001240     0.001200     NO 
 Predicted change in Energy=-3.736159D-06
 GradGradGradGradGradGradGradGradGradGradGradGradGradGradGradGradGradGrad

                          Input orientation:                          
 ---------------------------------------------------------------------
 Center     Atomic      Atomic             Coordinates (Angstroms)
 Number     Number       Type             X           Y           Z
 ---------------------------------------------------------------------
      1          6           0       -0.057443    1.260392    0.000077
      2          6           0        0.667522    0.036178    0.000159
      3          6           0       -0.006737   -1.216396    0.000115
      4          6           0       -1.371466   -1.237415    0.000053
      5          6           0       -2.118022   -0.017581    0.000005
      6          6           0       -1.420785    1.231622    0.000016
      7          7           0       -3.451192   -0.043818   -0.000051
      8          7           0        2.031135    0.108057    0.000228
      9          8           0        2.668098   -1.094535   -0.000128
     10          8           0        2.702460    1.116990   -0.000073
     11          1           0        0.482028    2.201323    0.000092
     12          1           0        0.555545   -2.142360    0.000153
     13          1           0       -1.897750   -2.186852    0.000045
     14          1           0       -1.983326    2.160068   -0.000017
     15          1           0       -3.996926    0.806384   -0.000086
     16          1           0       -3.963660   -0.914439   -0.000060
     17          1           0        3.619820   -0.868473   -0.000350
 ---------------------------------------------------------------------
                    Distance matrix (angstroms):
                    1          2          3          4          5
     1  C    0.000000
     2  C    1.422770   0.000000
     3  C    2.477306   1.422521   0.000000
     4  C    2.822356   2.404061   1.364891   0.000000
     5  C    2.424707   2.786063   2.427897   1.430154   0.000000
     6  C    1.363645   2.406265   2.827069   2.469529   1.430611
     7  N    3.635724   4.119490   3.638572   2.397901   1.333427
     8  N    2.385379   1.365506   2.430452   3.658960   4.151059
     9  O    3.601980   2.298003   2.677609   4.042090   4.905790
    10  O    2.763626   2.304155   3.575533   4.705326   4.952202
    11  H    1.084610   2.173076   3.452490   3.906450   3.418157
    12  H    3.457524   2.181414   1.083314   2.128919   3.415061
    13  H    3.907713   3.394478   2.125492   1.085544   2.180425
    14  H    2.125663   3.396749   3.912469   3.452139   2.181811
    15  H    3.965558   4.727609   4.473617   3.327184   2.051633
    16  H    4.470841   4.727739   3.968427   2.612237   2.052007
    17  H    4.249039   3.087792   3.643208   5.004903   5.800590
                    6          7          8          9         10
     6  C    0.000000
     7  N    2.397769   0.000000
     8  N    3.630172   5.484430   0.000000
     9  O    4.704250   6.208841   1.360864   0.000000
    10  O    4.124838   6.262180   1.211867   2.211792   0.000000
    11  H    2.135654   4.528893   2.604130   3.954944   2.471052
    12  H    3.910195   4.523031   2.691048   2.358139   3.902897
    13  H    3.451588   2.646842   4.550027   4.694691   5.663683
    14  H    1.085571   2.647970   4.508508   5.676988   4.800479
    15  H    2.611002   1.010282   6.068375   6.930804   6.706583
    16  H    3.327430   1.010250   6.081370   6.634203   6.968777
    17  H    5.460595   7.118937   1.864814   0.978202   2.187146
                   11         12         13         14         15
    11  H    0.000000
    12  H    4.344304   0.000000
    13  H    4.991935   2.453698   0.000000
    14  H    2.465699   4.995673   4.347762   0.000000
    15  H    4.691149   5.424028   3.655954   2.426324   0.000000
    16  H    5.428822   4.683054   2.426317   3.657091   1.721145
    17  H    4.389690   3.318519   5.672892   6.369247   7.798716
                   16         17
    16  H    0.000000
    17  H    7.583619   0.000000
 Stoichiometry    C6H7N2O2(1+)
 Framework group  C1[X(C6H7N2O2)]
 Deg. of freedom    45
 Full point group                 C1      NOp   1
 Largest Abelian subgroup         C1      NOp   1
 Largest concise Abelian subgroup C1      NOp   1
                         Standard orientation:                         
 ---------------------------------------------------------------------
 Center     Atomic      Atomic             Coordinates (Angstroms)
 Number     Number       Type             X           Y           Z
 ---------------------------------------------------------------------
      1          6           0       -0.057211    1.260048    0.000050
      2          6           0        0.667552    0.035715    0.000133
      3          6           0       -0.006913   -1.216747    0.000088
      4          6           0       -1.371646   -1.237541    0.000026
      5          6           0       -2.118001   -0.017585   -0.000022
      6          6           0       -1.420557    1.231503   -0.000011
      7          7           0       -3.451174   -0.043602   -0.000078
      8          7           0        2.031177    0.107369    0.000201
      9          8           0        2.667942   -1.095328   -0.000155
     10          8           0        2.702669    1.116191   -0.000100
     11          1           0        0.482415    2.200890    0.000066
     12          1           0        0.555216   -2.142804    0.000126
     13          1           0       -1.898087   -2.186892    0.000018
     14          1           0       -1.982945    2.160042   -0.000044
     15          1           0       -3.996769    0.806690   -0.000113
     16          1           0       -3.963786   -0.914138   -0.000087
     17          1           0        3.619701   -0.869422   -0.000377
 ---------------------------------------------------------------------
 Rotational constants (GHZ):      3.7718390      0.8228439      0.6754840
 Standard basis: 6-31+G(d,p) (6D, 7F)
 There are   225 symmetry adapted cartesian basis functions of A   symmetry.
 There are   225 symmetry adapted basis functions of A   symmetry.
   225 basis functions,   369 primitive gaussians,   225 cartesian basis functions
    36 alpha electrons       36 beta electrons
       nuclear repulsion energy       508.8827532391 Hartrees.
 NAtoms=   17 NActive=   17 NUniq=   17 SFac= 1.00D+00 NAtFMM=   60 NAOKFM=F Big=F
 Integral buffers will be    131072 words long.
 Raffenetti 2 integral format.
 Two-electron integral symmetry is turned on.
 Nuclear repulsion after empirical dispersion term =      508.8697599760 Hartrees.
 One-electron integrals computed using PRISM.
 NBasis=   225 RedAO= T EigKep=  3.35D-06  NBF=   225
 NBsUse=   225 1.00D-06 EigRej= -1.00D+00 NBFU=   225
 Initial guess from the checkpoint file:  "B3PW91D3PNAyang.chk"
 B after Tr=    -0.000000    0.000000    0.000000
         Rot=    1.000000   -0.000001    0.000002   -0.000031 Ang=  -0.00 deg.
 Keep R1 ints in memory in canonical form, NReq=329175655.
 Requested convergence on RMS density matrix=1.00D-08 within 128 cycles.
 Requested convergence on MAX density matrix=1.00D-06.
 Requested convergence on             energy=1.00D-06.
 No special actions if energy rises.
 SCF Done:  E(RB3PW91) =  -492.317284602     A.U. after   10 cycles
            NFock= 10  Conv=0.63D-08     -V/T= 2.0092
 Calling FoFJK, ICntrl=      2127 FMM=F ISym2X=0 I1Cent= 0 IOpClX= 0 NMat=1 NMatS=1 NMatT=0.
 ***** Axes restored to original set *****
 -------------------------------------------------------------------
 Center     Atomic                   Forces (Hartrees/Bohr)
 Number     Number              X              Y              Z
 -------------------------------------------------------------------
      1        6          -0.000031256   -0.000006146    0.000009246
      2        6           0.000027981   -0.000185145    0.000013538
      3        6           0.000023328    0.000066869    0.000007965
      4        6          -0.000002322    0.000006453   -0.000000974
      5        6          -0.000080739   -0.000003959    0.000000961
      6        6          -0.000006921    0.000003683   -0.000000755
      7        7           0.000135745   -0.000001538    0.000000000
      8        7           0.000308955    0.000282953   -0.000083702
      9        8          -0.000130567   -0.000135561    0.000022415
     10        8          -0.000047350   -0.000141895    0.000031568
     11        1          -0.000006156   -0.000005188   -0.000000239
     12        1           0.000017143   -0.000004109    0.000000418
     13        1          -0.000004770    0.000004092   -0.000001422
     14        1          -0.000007785   -0.000006784   -0.000001707
     15        1          -0.000028333   -0.000009036   -0.000000013
     16        1          -0.000027789    0.000001372   -0.000000024
     17        1          -0.000139164    0.000133939    0.000002725
 -------------------------------------------------------------------
 Cartesian Forces:  Max     0.000308955 RMS     0.000082583

 GradGradGradGradGradGradGradGradGradGradGradGradGradGradGradGradGradGrad
 Berny optimization.
 Using GEDIIS/GDIIS optimizer.
 FormGI is forming the generalized inverse of G from B-inverse, IUseBI=4.
 GSVD:  received Info=                   1 from GESDD.
 Internal  Forces:  Max     0.000293958 RMS     0.000058186
 Search for a local minimum.
 Step number   2 out of a maximum of   86
 All quantities printed in internal units (Hartrees-Bohrs-Radians)
 Mixed Optimization -- En-DIIS/RFO-DIIS
 Swapping is turned off.
 Update second derivatives using D2CorX and points    1    2
 DE= -2.77D-06 DEPred=-3.74D-06 R= 7.43D-01
 TightC=F SS=  1.41D+00  RLast= 6.08D-03 DXNew= 5.0454D-01 1.8233D-02
 Trust test= 7.43D-01 RLast= 6.08D-03 DXMaxT set to 3.00D-01
 ITU=  1  0
     Eigenvalues ---    0.01727   0.01822   0.01848   0.01947   0.02012
     Eigenvalues ---    0.02061   0.02077   0.02152   0.02152   0.02156
     Eigenvalues ---    0.02278   0.02295   0.02574   0.02574   0.15519
     Eigenvalues ---    0.16000   0.16000   0.16000   0.16000   0.16000
     Eigenvalues ---    0.18435   0.21982   0.22863   0.23490   0.24107
     Eigenvalues ---    0.25000   0.25000   0.28639   0.35321   0.35327
     Eigenvalues ---    0.35438   0.35603   0.38318   0.39834   0.41381
     Eigenvalues ---    0.42017   0.45926   0.45932   0.49065   0.50631
     Eigenvalues ---    0.51936   0.52095   0.54335   0.59223   0.99982
 En-DIIS/RFO-DIIS IScMMF=        0 using points:     2    1
 RFO step:  Lambda=-4.45145428D-07.
 DidBck=F Rises=F RFO-DIIS coefs:    0.80188    0.19812
 Iteration  1 RMS(Cart)=  0.00047361 RMS(Int)=  0.00000022
 Iteration  2 RMS(Cart)=  0.00000030 RMS(Int)=  0.00000006
 Variable       Old X    -DE/DX   Delta X   Delta X   Delta X     New X
                                 (Linear)    (Quad)   (Total)
    R1        2.68864   0.00002  -0.00009   0.00016   0.00007   2.68872
    R2        2.57692   0.00001   0.00009  -0.00010  -0.00001   2.57690
    R3        2.04962  -0.00001   0.00001  -0.00003  -0.00002   2.04960
    R4        2.68817  -0.00006  -0.00012   0.00004  -0.00008   2.68810
    R5        2.58043  -0.00000  -0.00012   0.00016   0.00004   2.58047
    R6        2.57927   0.00001   0.00008  -0.00009  -0.00001   2.57926
    R7        2.04717   0.00001   0.00004  -0.00002   0.00002   2.04718
    R8        2.70260  -0.00001  -0.00011   0.00013   0.00001   2.70261
    R9        2.05138  -0.00000   0.00001  -0.00002  -0.00001   2.05137
   R10        2.70346  -0.00001  -0.00011   0.00013   0.00001   2.70347
   R11        2.51981  -0.00008  -0.00005  -0.00004  -0.00009   2.51972
   R12        2.05143  -0.00000   0.00002  -0.00003  -0.00001   2.05142
   R13        1.90916   0.00001  -0.00000   0.00002   0.00002   1.90917
   R14        1.90910   0.00001  -0.00000   0.00002   0.00002   1.90911
   R15        2.57166  -0.00012  -0.00026   0.00016  -0.00010   2.57156
   R16        2.29010  -0.00015  -0.00004  -0.00007  -0.00011   2.28999
   R17        1.84853  -0.00011   0.00007  -0.00026  -0.00019   1.84835
    A1        2.08435   0.00001  -0.00005   0.00012   0.00007   2.08442
    A2        2.08635  -0.00001   0.00001  -0.00004  -0.00003   2.08633
    A3        2.11248  -0.00001   0.00004  -0.00008  -0.00004   2.11244
    A4        2.11312  -0.00002   0.00005  -0.00013  -0.00008   2.11304
    A5        2.05279   0.00006   0.00014   0.00001   0.00015   2.05293
    A6        2.11727  -0.00004  -0.00019   0.00013  -0.00006   2.11721
    A7        2.08001   0.00002  -0.00002   0.00007   0.00005   2.08006
    A8        2.10205  -0.00002  -0.00011   0.00007  -0.00004   2.10201
    A9        2.10112   0.00000   0.00013  -0.00014  -0.00001   2.10111
   A10        2.10460   0.00001  -0.00001   0.00003   0.00002   2.10462
   A11        2.09234   0.00001   0.00005  -0.00003   0.00002   2.09236
   A12        2.08624  -0.00001  -0.00004  -0.00000  -0.00004   2.08620
   A13        2.08331  -0.00001   0.00002  -0.00005  -0.00004   2.08327
   A14        2.10033   0.00000  -0.00001   0.00002   0.00001   2.10034
   A15        2.09955   0.00001  -0.00001   0.00003   0.00002   2.09957
   A16        2.10097  -0.00001   0.00001  -0.00003  -0.00002   2.10095
   A17        2.09444   0.00001   0.00005  -0.00001   0.00003   2.09447
   A18        2.08777  -0.00000  -0.00006   0.00005  -0.00001   2.08776
   A19        2.12177   0.00002  -0.00011   0.00022   0.00012   2.12189
   A20        2.12249   0.00002  -0.00010   0.00023   0.00012   2.12261
   A21        2.03893  -0.00003   0.00021  -0.00045  -0.00024   2.03869
   A22        2.00522  -0.00025   0.00002  -0.00084  -0.00082   2.00441
   A23        2.21057   0.00017   0.00024   0.00024   0.00048   2.21105
   A24        2.06739   0.00008  -0.00026   0.00060   0.00034   2.06773
   A25        1.82468  -0.00029  -0.00097  -0.00018  -0.00116   1.82352
    D1        0.00005  -0.00000  -0.00002  -0.00011  -0.00013  -0.00007
    D2       -3.14158  -0.00000  -0.00000  -0.00001  -0.00002   3.14158
    D3       -3.14157  -0.00000  -0.00001  -0.00005  -0.00005   3.14156
    D4       -0.00002   0.00000   0.00001   0.00005   0.00005   0.00003
    D5       -0.00002   0.00000   0.00001   0.00005   0.00006   0.00003
    D6        3.14156   0.00000   0.00001   0.00007   0.00008  -3.14155
    D7       -3.14159  -0.00000  -0.00000  -0.00001  -0.00001   3.14158
    D8       -0.00000   0.00000   0.00000   0.00000   0.00000   0.00000
    D9       -0.00005   0.00000   0.00002   0.00011   0.00012   0.00007
   D10        3.14156   0.00000   0.00001   0.00006   0.00007  -3.14155
   D11        3.14159   0.00000   0.00000   0.00001   0.00001  -3.14159
   D12        0.00002  -0.00000  -0.00001  -0.00004  -0.00005  -0.00003
   D13       -3.14124  -0.00002  -0.00010  -0.00074  -0.00085   3.14110
   D14       -0.00031   0.00002   0.00009   0.00065   0.00074   0.00043
   D15        0.00031  -0.00002  -0.00009  -0.00065  -0.00074  -0.00043
   D16        3.14124   0.00002   0.00010   0.00075   0.00085  -3.14110
   D17        0.00002  -0.00000  -0.00001  -0.00005  -0.00005  -0.00003
   D18       -3.14157  -0.00000  -0.00001  -0.00006  -0.00007   3.14155
   D19        3.14159   0.00000   0.00000   0.00000   0.00000  -3.14159
   D20        0.00000  -0.00000  -0.00000  -0.00001  -0.00001  -0.00001
   D21        0.00000  -0.00000  -0.00000  -0.00001  -0.00001  -0.00001
   D22       -3.14159  -0.00000  -0.00000  -0.00001  -0.00001   3.14159
   D23        3.14159   0.00000   0.00000   0.00000   0.00000  -3.14159
   D24       -0.00000   0.00000   0.00000   0.00000   0.00000   0.00000
   D25       -0.00000   0.00000   0.00000   0.00001   0.00001   0.00000
   D26       -3.14159  -0.00000  -0.00000  -0.00001  -0.00001   3.14159
   D27        3.14159   0.00000   0.00000   0.00001   0.00001  -3.14159
   D28        0.00000  -0.00000  -0.00000  -0.00001  -0.00001  -0.00001
   D29       -3.14159   0.00000  -0.00000  -0.00000  -0.00000  -3.14159
   D30       -0.00000   0.00000  -0.00000  -0.00000  -0.00000  -0.00000
   D31       -0.00000  -0.00000   0.00000   0.00000   0.00000   0.00000
   D32        3.14159  -0.00000   0.00000  -0.00000  -0.00000   3.14159
   D33        3.14125   0.00002   0.00010   0.00073   0.00083  -3.14111
   D34        0.00026  -0.00002  -0.00008  -0.00055  -0.00062  -0.00037
         Item               Value     Threshold  Converged?
 Maximum Force            0.000294     0.000450     YES
 RMS     Force            0.000058     0.000300     YES
 Maximum Displacement     0.001976     0.001800     NO 
 RMS     Displacement     0.000474     0.001200     YES
 Predicted change in Energy=-4.234208D-07
 GradGradGradGradGradGradGradGradGradGradGradGradGradGradGradGradGradGrad

                          Input orientation:                          
 ---------------------------------------------------------------------
 Center     Atomic      Atomic             Coordinates (Angstroms)
 Number     Number       Type             X           Y           Z
 ---------------------------------------------------------------------
      1          6           0       -0.057464    1.260515   -0.000086
      2          6           0        0.667665    0.036353   -0.000213
      3          6           0       -0.006532   -1.216206   -0.000146
      4          6           0       -1.371256   -1.237343   -0.000042
      5          6           0       -2.117947   -0.017585    0.000038
      6          6           0       -1.420798    1.231674    0.000017
      7          7           0       -3.451066   -0.043946    0.000133
      8          7           0        2.031299    0.108195   -0.000325
      9          8           0        2.667219   -1.094891    0.000169
     10          8           0        2.703107    1.116739    0.000094
     11          1           0        0.481915    2.201486   -0.000111
     12          1           0        0.555822   -2.142135   -0.000208
     13          1           0       -1.897475   -2.186812   -0.000026
     14          1           0       -1.983415    2.160069    0.000073
     15          1           0       -3.996984    0.806149    0.000191
     16          1           0       -3.963563   -0.914561    0.000150
     17          1           0        3.618774   -0.868556    0.000471
 ---------------------------------------------------------------------
                    Distance matrix (angstroms):
                    1          2          3          4          5
     1  C    0.000000
     2  C    1.422808   0.000000
     3  C    2.477244   1.422479   0.000000
     4  C    2.822294   2.404059   1.364888   0.000000
     5  C    2.424692   2.786134   2.427914   1.430160   0.000000
     6  C    1.363639   2.406339   2.827059   2.469514   1.430617
     7  N    3.635678   4.119514   3.638544   2.397875   1.333379
     8  N    2.385534   1.365526   2.430390   3.658942   4.151153
     9  O    3.601643   2.297375   2.676502   4.040987   4.904937
    10  O    2.764313   2.304399   3.575581   4.705543   4.952702
    11  H    1.084600   2.173086   3.452420   3.906378   3.418123
    12  H    3.457477   2.181358   1.083322   2.128915   3.415078
    13  H    3.907646   3.394467   2.125497   1.085540   2.180402
    14  H    2.125672   3.396820   3.912454   3.452122   2.181805
    15  H    3.965636   4.727741   4.473659   3.327207   2.051662
    16  H    4.470857   4.727844   3.968511   2.612325   2.052039
    17  H    4.248255   3.086731   3.641937   5.003639   5.799494
                    6          7          8          9         10
     6  C    0.000000
     7  N    2.397748   0.000000
     8  N    3.630314   5.484476   0.000000
     9  O    4.703699   6.207890   1.360812   0.000000
    10  O    4.125506   6.262670   1.211811   2.211921   0.000000
    11  H    2.135616   4.528831   2.604315   3.954953   2.471916
    12  H    3.910194   4.523002   2.690915   2.356846   3.902704
    13  H    3.451560   2.646794   4.549980   4.693477   5.663815
    14  H    1.085567   2.647958   4.508671   5.676545   4.801252
    15  H    2.611093   1.010292   6.068554   6.930048   6.707286
    16  H    3.327459   1.010259   6.081481   6.633234   6.969266
    17  H    5.459693   7.117768   1.863899   0.978102   2.186285
                   11         12         13         14         15
    11  H    0.000000
    12  H    4.344250   0.000000
    13  H    4.991859   2.453703   0.000000
    14  H    2.465678   4.995666   4.347730   0.000000
    15  H    4.691216   5.424060   3.655921   2.426430   0.000000
    16  H    5.428815   4.683138   2.426385   3.657094   1.721035
    17  H    4.389196   3.317180   5.671578   6.368445   7.797719
                   16         17
    16  H    0.000000
    17  H    7.582477   0.000000
 Stoichiometry    C6H7N2O2(1+)
 Framework group  C1[X(C6H7N2O2)]
 Deg. of freedom    45
 Full point group                 C1      NOp   1
 Largest Abelian subgroup         C1      NOp   1
 Largest concise Abelian subgroup C1      NOp   1
                         Standard orientation:                         
 ---------------------------------------------------------------------
 Center     Atomic      Atomic             Coordinates (Angstroms)
 Number     Number       Type             X           Y           Z
 ---------------------------------------------------------------------
      1          6           0       -0.057263    1.260187   -0.000068
      2          6           0        0.667653    0.035900   -0.000196
      3          6           0       -0.006762   -1.216542   -0.000129
      4          6           0       -1.371490   -1.237441   -0.000024
      5          6           0       -2.117968   -0.017553    0.000056
      6          6           0       -1.420601    1.231584    0.000034
      7          7           0       -3.451092   -0.043682    0.000151
      8          7           0        2.031300    0.107504   -0.000307
      9          8           0        2.667010   -1.095693    0.000187
     10          8           0        2.703283    1.115931    0.000112
     11          1           0        0.482281    2.201065   -0.000094
     12          1           0        0.555431   -2.142569   -0.000190
     13          1           0       -1.897874   -2.186818   -0.000008
     14          1           0       -1.983056    2.160077    0.000090
     15          1           0       -3.996862    0.806508    0.000209
     16          1           0       -3.963741   -0.914208    0.000168
     17          1           0        3.618605   -0.869524    0.000489
 ---------------------------------------------------------------------
 Rotational constants (GHZ):      3.7718007      0.8228960      0.6755179
 Standard basis: 6-31+G(d,p) (6D, 7F)
 There are   225 symmetry adapted cartesian basis functions of A   symmetry.
 There are   225 symmetry adapted basis functions of A   symmetry.
   225 basis functions,   369 primitive gaussians,   225 cartesian basis functions
    36 alpha electrons       36 beta electrons
       nuclear repulsion energy       508.8936551660 Hartrees.
 NAtoms=   17 NActive=   17 NUniq=   17 SFac= 1.00D+00 NAtFMM=   60 NAOKFM=F Big=F
 Integral buffers will be    131072 words long.
 Raffenetti 2 integral format.
 Two-electron integral symmetry is turned on.
 Nuclear repulsion after empirical dispersion term =      508.8806627111 Hartrees.
 One-electron integrals computed using PRISM.
 NBasis=   225 RedAO= T EigKep=  3.35D-06  NBF=   225
 NBsUse=   225 1.00D-06 EigRej= -1.00D+00 NBFU=   225
 Initial guess from the checkpoint file:  "B3PW91D3PNAyang.chk"
 B after Tr=     0.000000   -0.000000    0.000000
         Rot=    1.000000    0.000002   -0.000004    0.000025 Ang=   0.00 deg.
 Keep R1 ints in memory in canonical form, NReq=329175655.
 Requested convergence on RMS density matrix=1.00D-08 within 128 cycles.
 Requested convergence on MAX density matrix=1.00D-06.
 Requested convergence on             energy=1.00D-06.
 No special actions if energy rises.
 SCF Done:  E(RB3PW91) =  -492.317284928     A.U. after    9 cycles
            NFock=  9  Conv=0.58D-08     -V/T= 2.0092
 Calling FoFJK, ICntrl=      2127 FMM=F ISym2X=0 I1Cent= 0 IOpClX= 0 NMat=1 NMatS=1 NMatT=0.
 ***** Axes restored to original set *****
 -------------------------------------------------------------------
 Center     Atomic                   Forces (Hartrees/Bohr)
 Number     Number              X              Y              Z
 -------------------------------------------------------------------
      1        6           0.000000487   -0.000023179   -0.000012989
      2        6          -0.000001747   -0.000020335   -0.000019120
      3        6           0.000010219    0.000024607   -0.000011183
      4        6          -0.000009235    0.000011917    0.000001405
      5        6          -0.000034313   -0.000000340   -0.000001450
      6        6          -0.000011441   -0.000002873    0.000001094
      7        7           0.000056813   -0.000002983   -0.000000020
      8        7          -0.000026776    0.000146640    0.000117981
      9        8           0.000057100   -0.000007637   -0.000031644
     10        8          -0.000029378   -0.000124919   -0.000044502
     11        1           0.000002529    0.000004090    0.000000309
     12        1          -0.000001759   -0.000000590   -0.000000605
     13        1          -0.000002627   -0.000000367    0.000001992
     14        1          -0.000007529   -0.000003144    0.000002398
     15        1          -0.000008117   -0.000002629    0.000000033
     16        1          -0.000006955   -0.000004036    0.000000057
     17        1           0.000012730    0.000005779   -0.000003753
 -------------------------------------------------------------------
 Cartesian Forces:  Max     0.000146640 RMS     0.000036103

 GradGradGradGradGradGradGradGradGradGradGradGradGradGradGradGradGradGrad
 Berny optimization.
 Using GEDIIS/GDIIS optimizer.
 FormGI is forming the generalized inverse of G from B-inverse, IUseBI=4.
 GSVD:  received Info=                   1 from GESDD.
 Internal  Forces:  Max     0.000122087 RMS     0.000022461
 Search for a local minimum.
 Step number   3 out of a maximum of   86
 All quantities printed in internal units (Hartrees-Bohrs-Radians)
 Mixed Optimization -- En-DIIS/RFO-DIIS
 Swapping is turned off.
 Update second derivatives using D2CorX and points    1    2    3
 DE= -3.26D-07 DEPred=-4.23D-07 R= 7.69D-01
 Trust test= 7.69D-01 RLast= 2.50D-03 DXMaxT set to 3.00D-01
 ITU=  0  1  0
     Eigenvalues ---    0.01727   0.01822   0.01848   0.01948   0.02012
     Eigenvalues ---    0.02061   0.02151   0.02152   0.02156   0.02278
     Eigenvalues ---    0.02295   0.02574   0.02574   0.02763   0.15006
     Eigenvalues ---    0.16000   0.16000   0.16000   0.16000   0.16014
     Eigenvalues ---    0.18062   0.21712   0.22522   0.23369   0.24396
     Eigenvalues ---    0.25000   0.25483   0.31133   0.35321   0.35327
     Eigenvalues ---    0.35455   0.35614   0.38345   0.39819   0.41410
     Eigenvalues ---    0.41858   0.45904   0.45929   0.49037   0.50085
     Eigenvalues ---    0.51980   0.52096   0.55847   0.58716   0.98258
 En-DIIS/RFO-DIIS IScMMF=        0 using points:     3    2    1
 RFO step:  Lambda=-6.96238489D-08.
 DidBck=T Rises=F RFO-DIIS coefs:    0.67059    0.24798    0.08143
 Iteration  1 RMS(Cart)=  0.00030895 RMS(Int)=  0.00000013
 Iteration  2 RMS(Cart)=  0.00000017 RMS(Int)=  0.00000006
 Variable       Old X    -DE/DX   Delta X   Delta X   Delta X     New X
                                 (Linear)    (Quad)   (Total)
    R1        2.68872  -0.00001  -0.00006   0.00007   0.00001   2.68873
    R2        2.57690   0.00001   0.00004  -0.00003   0.00001   2.57691
    R3        2.04960   0.00001   0.00001  -0.00000   0.00001   2.04960
    R4        2.68810  -0.00001  -0.00002  -0.00001  -0.00004   2.68806
    R5        2.58047   0.00001  -0.00006   0.00009   0.00003   2.58050
    R6        2.57926   0.00001   0.00003  -0.00002   0.00001   2.57928
    R7        2.04718  -0.00000   0.00001  -0.00001   0.00000   2.04718
    R8        2.70261  -0.00001  -0.00005   0.00004  -0.00002   2.70260
    R9        2.05137   0.00000   0.00001  -0.00001   0.00000   2.05137
   R10        2.70347  -0.00002  -0.00005   0.00003  -0.00002   2.70345
   R11        2.51972  -0.00004   0.00001  -0.00007  -0.00007   2.51966
   R12        2.05142   0.00000   0.00001  -0.00001   0.00000   2.05142
   R13        1.90917   0.00000  -0.00001   0.00002   0.00001   1.90918
   R14        1.90911   0.00000  -0.00001   0.00002   0.00001   1.90912
   R15        2.57156   0.00004  -0.00007   0.00011   0.00004   2.57160
   R16        2.28999  -0.00012   0.00002  -0.00013  -0.00011   2.28989
   R17        1.84835   0.00001   0.00009  -0.00012  -0.00003   1.84832
    A1        2.08442   0.00001  -0.00004   0.00010   0.00006   2.08448
    A2        2.08633  -0.00001   0.00001  -0.00005  -0.00004   2.08629
    A3        2.11244  -0.00000   0.00003  -0.00005  -0.00002   2.11242
    A4        2.11304  -0.00001   0.00005  -0.00011  -0.00006   2.11298
    A5        2.05293  -0.00002   0.00001  -0.00004  -0.00003   2.05291
    A6        2.11721   0.00003  -0.00006   0.00015   0.00009   2.11730
    A7        2.08006   0.00000  -0.00002   0.00004   0.00002   2.08008
    A8        2.10201   0.00000  -0.00003   0.00004   0.00001   2.10202
    A9        2.10111  -0.00001   0.00006  -0.00009  -0.00003   2.10108
   A10        2.10462   0.00001  -0.00001   0.00004   0.00002   2.10465
   A11        2.09236   0.00000   0.00001  -0.00000   0.00001   2.09238
   A12        2.08620  -0.00001  -0.00000  -0.00003  -0.00004   2.08616
   A13        2.08327  -0.00000   0.00002  -0.00004  -0.00002   2.08325
   A14        2.10034   0.00000  -0.00001   0.00002   0.00001   2.10035
   A15        2.09957   0.00000  -0.00001   0.00002   0.00001   2.09958
   A16        2.10095  -0.00000   0.00001  -0.00003  -0.00002   2.10093
   A17        2.09447   0.00001   0.00001   0.00003   0.00004   2.09451
   A18        2.08776  -0.00000  -0.00002   0.00000  -0.00002   2.08775
   A19        2.12189   0.00000  -0.00008   0.00013   0.00004   2.12193
   A20        2.12261   0.00000  -0.00008   0.00013   0.00005   2.12266
   A21        2.03869  -0.00001   0.00016  -0.00026  -0.00009   2.03860
   A22        2.00441   0.00006   0.00028  -0.00028  -0.00001   2.00440
   A23        2.21105   0.00002  -0.00006   0.00022   0.00016   2.21121
   A24        2.06773  -0.00008  -0.00022   0.00007  -0.00015   2.06757
   A25        1.82352   0.00000  -0.00002  -0.00018  -0.00020   1.82333
    D1       -0.00007   0.00000   0.00003   0.00010   0.00013   0.00006
    D2        3.14158   0.00000   0.00000   0.00001   0.00002  -3.14158
    D3        3.14156   0.00000   0.00001   0.00004   0.00006  -3.14157
    D4        0.00003  -0.00000  -0.00002  -0.00004  -0.00006  -0.00003
    D5        0.00003  -0.00000  -0.00002  -0.00005  -0.00006  -0.00003
    D6       -3.14155  -0.00000  -0.00002  -0.00006  -0.00008   3.14156
    D7        3.14158   0.00000   0.00000   0.00001   0.00001  -3.14159
    D8        0.00000  -0.00000  -0.00000  -0.00000  -0.00000  -0.00000
    D9        0.00007  -0.00000  -0.00003  -0.00010  -0.00013  -0.00006
   D10       -3.14155  -0.00000  -0.00002  -0.00005  -0.00007   3.14156
   D11       -3.14159  -0.00000  -0.00000  -0.00001  -0.00001   3.14159
   D12       -0.00003   0.00000   0.00001   0.00004   0.00005   0.00002
   D13        3.14110   0.00003   0.00024   0.00066   0.00090  -3.14119
   D14        0.00043  -0.00003  -0.00021  -0.00058  -0.00079  -0.00035
   D15       -0.00043   0.00003   0.00021   0.00058   0.00078   0.00035
   D16       -3.14110  -0.00003  -0.00024  -0.00067  -0.00090   3.14119
   D17       -0.00003   0.00000   0.00002   0.00004   0.00006   0.00003
   D18        3.14155   0.00000   0.00002   0.00005   0.00007  -3.14156
   D19       -3.14159  -0.00000  -0.00000  -0.00000  -0.00000   3.14159
   D20       -0.00001   0.00000   0.00000   0.00001   0.00001   0.00000
   D21       -0.00001   0.00000   0.00000   0.00001   0.00001   0.00001
   D22        3.14159   0.00000   0.00000   0.00001   0.00001  -3.14159
   D23       -3.14159  -0.00000  -0.00000  -0.00000  -0.00000   3.14159
   D24        0.00000  -0.00000  -0.00000  -0.00000  -0.00000  -0.00000
   D25        0.00000  -0.00000  -0.00000  -0.00001  -0.00001  -0.00000
   D26        3.14159   0.00000   0.00000   0.00001   0.00001  -3.14159
   D27       -3.14159  -0.00000  -0.00000  -0.00001  -0.00001   3.14159
   D28       -0.00001   0.00000   0.00000   0.00001   0.00001   0.00000
   D29       -3.14159  -0.00000   0.00000  -0.00000  -0.00000   3.14159
   D30       -0.00000  -0.00000   0.00000   0.00000   0.00000   0.00000
   D31        0.00000   0.00000  -0.00000  -0.00000  -0.00000  -0.00000
   D32        3.14159   0.00000   0.00000   0.00000   0.00000  -3.14159
   D33       -3.14111  -0.00003  -0.00023  -0.00065  -0.00088   3.14120
   D34       -0.00037   0.00002   0.00017   0.00049   0.00066   0.00030
         Item               Value     Threshold  Converged?
 Maximum Force            0.000122     0.000450     YES
 RMS     Force            0.000022     0.000300     YES
 Maximum Displacement     0.001652     0.001800     YES
 RMS     Displacement     0.000309     0.001200     YES
 Predicted change in Energy=-1.013673D-07
 Optimization completed.
    -- Stationary point found.
                           ----------------------------
                           !   Optimized Parameters   !
                           ! (Angstroms and Degrees)  !
 --------------------------                            --------------------------
 ! Name  Definition              Value          Derivative Info.                !
 --------------------------------------------------------------------------------
 ! R1    R(1,2)                  1.4228         -DE/DX =    0.0                 !
 ! R2    R(1,6)                  1.3636         -DE/DX =    0.0                 !
 ! R3    R(1,11)                 1.0846         -DE/DX =    0.0                 !
 ! R4    R(2,3)                  1.4225         -DE/DX =    0.0                 !
 ! R5    R(2,8)                  1.3655         -DE/DX =    0.0                 !
 ! R6    R(3,4)                  1.3649         -DE/DX =    0.0                 !
 ! R7    R(3,12)                 1.0833         -DE/DX =    0.0                 !
 ! R8    R(4,5)                  1.4302         -DE/DX =    0.0                 !
 ! R9    R(4,13)                 1.0855         -DE/DX =    0.0                 !
 ! R10   R(5,6)                  1.4306         -DE/DX =    0.0                 !
 ! R11   R(5,7)                  1.3334         -DE/DX =    0.0                 !
 ! R12   R(6,14)                 1.0856         -DE/DX =    0.0                 !
 ! R13   R(7,15)                 1.0103         -DE/DX =    0.0                 !
 ! R14   R(7,16)                 1.0103         -DE/DX =    0.0                 !
 ! R15   R(8,9)                  1.3608         -DE/DX =    0.0                 !
 ! R16   R(8,10)                 1.2118         -DE/DX =   -0.0001              !
 ! R17   R(9,17)                 0.9781         -DE/DX =    0.0                 !
 ! A1    A(2,1,6)              119.4284         -DE/DX =    0.0                 !
 ! A2    A(2,1,11)             119.5377         -DE/DX =    0.0                 !
 ! A3    A(6,1,11)             121.0339         -DE/DX =    0.0                 !
 ! A4    A(1,2,3)              121.0681         -DE/DX =    0.0                 !
 ! A5    A(1,2,8)              117.6245         -DE/DX =    0.0                 !
 ! A6    A(3,2,8)              121.3074         -DE/DX =    0.0                 !
 ! A7    A(2,3,4)              119.1789         -DE/DX =    0.0                 !
 ! A8    A(2,3,12)             120.4364         -DE/DX =    0.0                 !
 ! A9    A(4,3,12)             120.3847         -DE/DX =    0.0                 !
 ! A10   A(3,4,5)              120.5861         -DE/DX =    0.0                 !
 ! A11   A(3,4,13)             119.8836         -DE/DX =    0.0                 !
 ! A12   A(5,4,13)             119.5303         -DE/DX =    0.0                 !
 ! A13   A(4,5,6)              119.3628         -DE/DX =    0.0                 !
 ! A14   A(4,5,7)              120.3406         -DE/DX =    0.0                 !
 ! A15   A(6,5,7)              120.2966         -DE/DX =    0.0                 !
 ! A16   A(1,6,5)              120.3756         -DE/DX =    0.0                 !
 ! A17   A(1,6,14)             120.0044         -DE/DX =    0.0                 !
 ! A18   A(5,6,14)             119.62           -DE/DX =    0.0                 !
 ! A19   A(5,7,15)             121.5751         -DE/DX =    0.0                 !
 ! A20   A(5,7,16)             121.6165         -DE/DX =    0.0                 !
 ! A21   A(15,7,16)            116.8084         -DE/DX =    0.0                 !
 ! A22   A(2,8,9)              114.844          -DE/DX =    0.0001              !
 ! A23   A(2,8,10)             126.684          -DE/DX =    0.0                 !
 ! A24   A(9,8,10)             118.472          -DE/DX =   -0.0001              !
 ! A25   A(8,9,17)             104.4802         -DE/DX =    0.0                 !
 ! D1    D(6,1,2,3)             -0.0042         -DE/DX =    0.0                 !
 ! D2    D(6,1,2,8)           -180.0005         -DE/DX =    0.0                 !
 ! D3    D(11,1,2,3)          -180.0018         -DE/DX =    0.0                 !
 ! D4    D(11,1,2,8)             0.0019         -DE/DX =    0.0                 !
 ! D5    D(2,1,6,5)              0.002          -DE/DX =    0.0                 !
 ! D6    D(2,1,6,14)           180.0025         -DE/DX =    0.0                 !
 ! D7    D(11,1,6,5)          -180.0005         -DE/DX =    0.0                 !
 ! D8    D(11,1,6,14)            0.0001         -DE/DX =    0.0                 !
 ! D9    D(1,2,3,4)              0.0041         -DE/DX =    0.0                 !
 ! D10   D(1,2,3,12)           180.0022         -DE/DX =    0.0                 !
 ! D11   D(8,2,3,4)            180.0003         -DE/DX =    0.0                 !
 ! D12   D(8,2,3,12)            -0.0015         -DE/DX =    0.0                 !
 ! D13   D(1,2,8,9)           -180.0284         -DE/DX =    0.0                 !
 ! D14   D(1,2,8,10)             0.0248         -DE/DX =    0.0                 !
 ! D15   D(3,2,8,9)             -0.0248         -DE/DX =    0.0                 !
 ! D16   D(3,2,8,10)           180.0285         -DE/DX =    0.0                 !
 ! D17   D(2,3,4,5)             -0.0018         -DE/DX =    0.0                 !
 ! D18   D(2,3,4,13)          -180.0022         -DE/DX =    0.0                 !
 ! D19   D(12,3,4,5)           180.0001         -DE/DX =    0.0                 !
 ! D20   D(12,3,4,13)           -0.0003         -DE/DX =    0.0                 !
 ! D21   D(3,4,5,6)             -0.0004         -DE/DX =    0.0                 !
[...]
 ! D29   D(4,5,7,15)           180.0            -DE/DX =    0.0                 !
 ! D30   D(4,5,7,16)            -0.0001         -DE/DX =    0.0                 !
 ! D31   D(6,5,7,15)             0.0            -DE/DX =    0.0                 !
 ! D32   D(6,5,7,16)          -180.0            -DE/DX =    0.0                 !
 ! D33   D(2,8,9,17)          -179.9723         -DE/DX =    0.0                 !
 ! D34   D(10,8,9,17)           -0.0209         -DE/DX =    0.0                 !
 --------------------------------------------------------------------------------
 GradGradGradGradGradGradGradGradGradGradGradGradGradGradGradGradGradGrad

 1\1\ WCSS.PL-BEM-JP\Freq\RB3PW91\6-31+G(d,p)\C6H7N2O2(1+)\C612\19-Dec-
 2024\0\\#N Geom=AllCheck Guess=TCheck SCRF=Check GenChk RB3PW91/6-31+G
 (d,p) Freq\\[No Title]\\1,1\C,-0.0574641529,1.2605146396,-0.0000860094
 \C,0.667664885,0.0363534576,-0.0002134458\C,-0.0065322897,-1.216205969
 7,-0.0001463823\C,-1.3712562116,-1.2373429056,-0.0000420447\C,-2.11794
 73328,-0.0175848102,0.000038429\C,-1.4207978783,1.2316738966,0.0000165
 075\N,-3.4510660312,-0.0439461127,0.0001334544\N,2.0312993661,0.108195
 0484,-0.0003248146\O,2.667219356,-1.0948908187,0.0001693309\O,2.703106
 8657,1.1167389658,0.0000943415\H,0.4819154575,2.2014862494,-0.00011122
 17\H,0.5558217782,-2.1421353245,-0.0002081359\H,-1.8974746212,-2.18681
 15983,-0.0000259477\H,-1.9834145902,2.160068811,0.0000725819\H,-3.9969
 844932,0.8061491915,0.0001910701\H,-3.963563162,-0.9145613623,0.000150
 1024\H,3.6187740546,-0.8685563578,0.0004711846\\Version=ES64L-G09RevE.
 01\State=1-A\HF=-492.3172849\RMSD=5.772e-09\RMSF=3.611e-05\ZeroPoint=0
 .1331556\Thermal=0.1415899\Dipole=-1.4263591,-0.4387168,0.0001564\Dipo
 leDeriv=0.8126353,0.0155766,-0.0000268,-0.45014,0.0319391,0.0000093,-0
 .0000262,-0.000002,-0.0233753,-1.7302135,-0.1230742,-0.0000271,0.02859
 34,-0.093211,0.0000102,-0.0001728,0.0000523,0.0576078,0.8275593,0.0713
 72,-0.0000142,0.4631829,0.0792186,-0.0000041,-0.0000642,-0.0000319,-0.
 0109809,-0.8214552,0.1033162,0.0000147,0.7019102,-0.0338333,-0.000038,
 0.000126,0.0000066,-0.1509482,2.2599185,0.0604663,-0.0000946,0.0295726
 ,0.3883661,0.0000163,-0.000149,-0.0000021,0.2467543,-0.7757621,-0.1717
 407,0.0000077,-0.7082887,-0.096668,0.0000388,0.0000893,0.000018,-0.147
 1523,-2.0407063,-0.059813,0.0000706,-0.0342044,-0.1978789,0.0000084,0.
 0001065,0.0000072,-0.46195,3.4615391,0.0578026,0.0000647,0.3181412,1.3
 751796,-0.0002093,0.0018815,-0.0001025,0.2325675,-1.1156029,0.4764768,
 -0.0000872,1.0027761,-0.699569,0.0000351,-0.0008173,0.000302,-0.240251
 2,-1.4642544,-0.3189639,0.0000437,-1.2295128,-0.7389596,0.0001611,-0.0
 010293,-0.0002314,-0.1498957,0.0774912,-0.0165474,0.000004,0.0265006,0
 .1133837,-0.0000013,-0.0000149,0.0000008,0.1470813,0.0901157,0.0096211
 ,0.0000067,-0.0110766,0.1034312,-0.000002,-0.0000094,-0.0000046,0.1474
 304,0.0404148,-0.0327645,0.0000022,-0.0144881,0.05093,-0.0000047,-0.00
 00159,0.0000051,0.1550264,0.0375617,0.0335721,0.0000081,0.0122767,0.05
 50386,-0.0000096,-0.0000235,-0.0000107,0.1558104,0.3488257,-0.0605171,
 -0.0000042,-0.2197503,0.200428,0.000008,-0.0000066,0.0000022,0.3311845
 ,0.338122,0.0685179,-0.0000004,0.2241122,0.2175072,-0.0000179,0.000005
 9,-0.0000059,0.3307345,0.6538108,-0.1133008,0.0000321,-0.139605,0.2446
 978,-0.0000003,0.0001198,-0.0000031,0.3803565\Polar=193.4712173,5.2378
 554,87.3280898,-0.0016307,0.0010656,44.1217711\PG=C01 [X(C6H7N2O2)]\NI
 mag=0\\0.78222095,0.05674986,0.69514506,-0.00005362,0.00001206,0.13440
 617,-0.12018065,0.07843622,0.00000492,0.66417611,0.05279195,-0.2643236
 8,-0.00001571,0.00891143,0.71183301,0.00001458,-0.00001438,-0.05522812
 ,-0.00000452,0.00000903,0.12075619,0.03163105,-0.00497369,-0.00000392,
 -0.11665600,-0.04888294,0.00001193,0.77481719,0.00797539,-0.04542682,-
 0.00000324,-0.07308120,-0.27317709,0.00000570,-0.05566604,0.69841278,-
 0.00000353,0.00000122,0.00439125,0.00000001,0.00000586,-0.05417125,-0.
 00005419,0.00001034,0.13489017,-0.02186828,0.01748252,0.00000349,-0.04
 356613,-0.04237740,0.00000214,-0.44031867,0.01437106,0.00003145,0.7829
 2969,0.00722480,-0.00693196,-0.00000110,-0.01894564,0.01307114,0.00000
 437,-0.02949597,-0.12348400,0.00000324,0.05784587,0.68048500,0.0000020
 2,-0.00000254,-0.00022594,0.00000651,0.00000405,0.00535981,0.00002927,
 -0.00000271,-0.05396787,-0.00004964,0.00000441,0.12065652,-0.03722785,
 -0.03017936,0.00000065,0.02393632,0.00045185,-0.00000068,-0.04048079,0
 .02752098,0.00000310,-0.13732441,0.07749718,0.00000650,0.79512295,-0.0
 5206285,0.02480576,0.00000626,0.00104898,-0.02896233,0.00000034,0.0502
 2229,0.02782943,-0.00000497,0.03660227,-0.25563620,-0.00000441,0.00218
 919,0.66255595,-0.00000070,0.00000465,-0.00123005,-0.00000327,-0.00000
 025,-0.00737958,0.00000188,-0.00000382,-0.00111217,0.00000816,-0.00000
 960,-0.06734502,-0.00004610,0.00001031,0.16827633,-0.44460974,-0.02556
 759,0.00003199,-0.04606924,0.04040989,0.00000370,-0.02093655,-0.017950
 56,0.00000177,0.03938179,-0.00022547,-0.00000332,-0.13240109,-0.031519
 67,0.00000653,0.79021103,0.01717960,-0.12336558,-0.00000521,0.01675162
 ,0.01626724,-0.00000437,-0.00808313,-0.00799892,0.00000047,0.00311423,
 -0.03349344,-0.00000070,-0.07241092,-0.25980636,0.00000116,-0.05497732
 ,0.67570427,0.00003054,0.00000043,-0.05301458,0.00000754,-0.00000316,0
 .00447476,0.00000142,0.00000232,-0.00025134,-0.00000316,-0.00000116,0.
 00458617,0.00000300,-0.00000417,-0.06718089,-0.00005199,0.00001891,0.1
 2045851,0.01677072,-0.00431678,-0.00000052,-0.02416435,0.00029236,-0.0
 0000077,0.01681844,0.00509263,-0.00000051,-0.05269059,0.02070369,0.000
 00546,-0.43875659,-0.00583362,0.00002860,-0.05010286,-0.02262879,0.000
 00416,0.86578603,0.00359478,-0.00967436,-0.00000097,-0.00048446,0.0021
 4726,-0.00000023,-0.00277072,-0.00958239,0.00000048,0.04697885,0.00446
 066,-0.00000411,-0.00580315,-0.14145942,-0.00000153,-0.04902427,0.0017
 4028,0.00000383,-0.00008442,0.87370630,-0.00000031,-0.00000028,0.00371
 607,0.00000150,0.00000008,-0.00069014,-0.00000040,-0.00000037,0.003775
 71,0.00000477,-0.00000127,0.00960826,0.00002826,-0.00000150,-0.0456411
 6,0.00000253,0.00000106,0.00960892,-0.00005880,0.00001858,0.04512284,-
 0.06534495,0.03270538,0.00001162,-0.26922640,-0.01119054,0.00002261,-0
 .05353460,-0.03142452,0.00001534,0.02168752,-0.01373191,-0.00000462,-0
 .02632448,-0.00043932,0.00000335,0.02116228,0.01449450,-0.00000416,0.0
 2494719,0.00040755,-0.00000150,0.85949320,0.03032846,0.01312066,-0.000
 00205,0.00699858,-0.12903713,-0.00000076,-0.03677101,0.00904814,0.0000
 0787,-0.00276987,-0.00961078,0.00000008,-0.00248328,-0.00533714,0.0000
 0054,0.00600562,-0.00582649,-0.00000268,0.00238321,0.00061839,0.,0.157
 95608,0.74922495,-0.00000328,0.00000324,-0.00566531,-0.00001677,-0.000
 00145,-0.06273318,-0.00000352,-0.00000275,-0.01001147,0.00000094,-0.00
 000480,0.00546286,-0.00000840,-0.00000273,-0.00167799,0.00000233,0.000
 00589,0.00516870,0.00000941,0.00000079,-0.00025291,0.00015954,0.000082
 08,0.19252145,-0.00059765,-0.00956578,-0.00000410,-0.03645060,0.052020
 67,-0.00002354,-0.00242404,0.00354355,-0.00000051,-0.00211659,0.002027
 78,0.00000055,0.00550009,0.00367524,-0.00000064,-0.00518701,-0.0003170
 5,0.00000192,-0.00531258,-0.00084920,0.00000049,-0.18648040,0.05697532
 ,-0.00003953,0.64244013,-0.00864147,0.00554859,0.00000356,0.03110415,-
 0.00108129,0.00001375,-0.00793077,-0.00579800,-0.00000098,0.00418195,-
 0.00242971,-0.00000125,-0.00647564,-0.00183109,0.00000049,0.00432297,0
 .00474376,-0.00000065,0.00645195,0.00072418,-0.00000043,0.00240731,-0.
 17429276,-0.00000332,0.05682994,0.35415391,0.00000266,-0.00000359,0.00
 454218,-0.00000010,0.00000757,0.00855830,0.00000042,0.00000255,0.00047
 087,-0.00000090,0.00000142,-0.00062189,0.00000377,0.00000230,0.0000409
 8,-0.00000184,-0.00000236,0.00018245,-0.00000435,-0.00000073,0.0000831
 1,-0.00004893,0.00005428,-0.05008000,0.00018932,-0.00001692,0.02240758
 ,0.00495890,-0.00752959,0.00000095,-0.05207296,-0.05426869,-0.00002439
 ,0.00294100,0.01169552,-0.00000660,-0.00743819,0.00237939,0.00000212,0
 .00857555,-0.00374104,-0.00000143,-0.00368471,-0.00400470,0.00000045,-
 0.00837548,0.00063460,0.00000072,-0.29327965,-0.22512978,-0.00008906,0
 .04086750,0.00789923,0.00000381,0.30785382,0.01452431,-0.00918196,0.00
 000010,-0.05103305,-0.00784044,-0.00001505,0.00860537,0.00708308,-0.00
 000647,-0.00582686,0.00613022,0.00000168,0.00925356,-0.00156797,-0.000
 00097,-0.00549368,-0.00344344,0.00000172,-0.00887902,0.00058873,0.0000
 0051,-0.22064184,-0.45375186,-0.00010051,-0.01657634,-0.09794447,-0.00
 001318,0.28071098,0.55742811,0.00000408,-0.00000338,-0.00088479,0.0000
 0010,-0.00000616,0.01480772,0.00000225,0.00000348,0.00934700,-0.000001
 64,0.00000252,-0.00083894,0.00000528,0.00000003,0.00024371,-0.00000241
 ,-0.00000284,-0.00060803,-0.00000548,0.00000008,0.00007610,-0.00012005
 ,-0.00013940,-0.07053282,0.00000704,0.00001632,0.02054027,0.00010877,0
 .00013444,0.03182006,-0.12799874,-0.12714014,0.00000535,0.01118022,0.0
 1494359,-0.00000091,-0.00225206,0.00335923,0.00000038,-0.00059539,0.00
 039544,-0.00000005,-0.00484205,0.00120353,0.00000171,-0.00947322,-0.02
 616179,0.00000109,-0.00031736,-0.00148470,-0.00000016,0.00291341,0.002
 77868,0.00000140,0.00013670,-0.00087783,-0.00000027,-0.00433198,-0.000
 78673,-0.00000115,0.13465278,-0.12646148,-0.28359564,0.00000514,-0.012
 31277,-0.01683923,0.00000112,0.00378007,-0.00209457,-0.00000066,0.0001
 4256,0.00059684,0.00000001,0.00145956,0.00014722,-0.00000044,0.0028525
 9,0.00671417,-0.00000045,0.00036118,0.00052704,0.00000006,-0.00303662,
 -0.00354446,-0.00000138,0.00005227,0.00035336,0.00000004,0.00041631,0.
 00291415,0.00000114,0.13322099,0.29462592,0.00000637,0.00000447,-0.040
 16573,-0.00000362,-0.00000099,0.00370155,0.00000122,-0.00000072,0.0032
 1750,-0.00000019,0.00000038,-0.00122990,0.00000158,-0.00000002,0.01050
 481,0.00000057,0.00000231,0.00645209,-0.00000018,0.00000013,-0.0005967
 0,0.00000179,0.00000008,-0.00226479,0.00000008,0.00000001,-0.00031710,
 -0.00000043,-0.00000055,0.00026107,-0.00000666,-0.00000490,0.02598207,
 -0.00202369,-0.00345592,0.00000025,0.01107785,-0.01437523,-0.00000183,
 -0.13562872,0.13267696,0.00001126,-0.01040087,0.02587362,0.00000216,-0
 .00496520,-0.00136582,0.00000145,-0.00049578,-0.00034193,-0.00000002,-
 0.00023749,0.00148591,-0.00000005,0.00363122,-0.00113433,0.00000206,-0
 .00622317,-0.00078732,-0.00000210,-0.00045470,0.00043739,-0.00000064,0
 .00067008,-0.00071973,0.00000006,0.14480125,-0.00385449,-0.00223918,0.
 00000068,0.01348922,-0.01620190,-0.00000193,0.13161803,-0.27867519,-0.
 00001539,-0.00329166,0.00723549,0.00000067,-0.00166842,0.00007971,0.00
 000003,-0.00012087,0.00061871,0.00000011,-0.00029250,0.00054088,-0.000
 00005,0.00276816,-0.00234771,0.00000163,-0.00007965,0.00120534,-0.0000
 0039,-0.00050011,0.00019870,-0.00000050,0.00077625,-0.00062084,-0.0000
 0020,-0.13857468,0.28855179,0.00000091,0.00000035,0.00338214,-0.000003
 04,0.00000005,0.00294144,0.00001205,-0.00001334,-0.03956157,0.00000059
 ,-0.00000231,0.00651724,0.00000154,-0.00000071,0.01036626,0.00000019,-
 0.00000019,-0.00119739,-0.00000028,-0.00000003,-0.00056924,0.00000163,
 0.00000032,-0.00241916,-0.00000121,0.00000019,0.00094972,-0.00000024,-
 0.00000022,0.00003633,0.00000013,0.00000004,0.00107166,-0.00001196,0.0
 0001556,0.02539549,-0.00064224,0.00050401,0.00000013,-0.00438769,0.001
 92823,0.00000150,-0.01182221,-0.02830599,0.00000153,-0.12491165,-0.122
 09852,0.00000309,0.01024841,0.01679683,-0.00000031,-0.00209888,0.00307
 677,0.00000030,0.00201220,0.00073532,-0.00000022,-0.00008373,-0.001977
 41,-0.00000029,-0.00007453,-0.00000506,-0.00000002,-0.00071335,0.00009
 957,-0.00000013,0.00005235,-0.00008328,-0.00000002,0.00053146,-0.00020
 684,-0.00000051,0.13195359,0.00094282,0.00000677,-0.00000014,0.0014123
 3,0.00145848,-0.00000049,0.00201116,0.00477928,-0.00000029,-0.12279745
 ,-0.28207201,0.00000424,-0.01467831,-0.01767108,0.00000103,0.00361252,
 -0.00220417,-0.00000033,-0.00087341,0.00151601,0.00000004,-0.00010104,
 0.00042531,-0.00000023,-0.00003146,-0.00005454,-0.00000001,0.00036329,
 0.00020015,0.00000021,-0.00006291,0.00001109,0.,0.00013713,0.00085455,
 0.00000027,0.12887506,0.29398529,0.00000022,-0.00000021,-0.00074219,0.
 00000291,0.00000061,0.00829030,0.00000079,0.00000247,0.00360591,0.0000
 0304,0.00000356,-0.03481843,-0.00000018,-0.00000192,0.00309575,0.00000
 067,-0.00000053,0.00400694,-0.00000062,-0.00000004,-0.00203558,-0.0000
 0174,-0.00000053,0.00218045,-0.00000021,0.00000013,0.00006649,0.000000
 74,0.00000069,-0.00134560,-0.00000003,0.,-0.00043114,-0.00000061,0.,-0
 .00566821,-0.00000520,-0.00000415,0.02362496,-0.01271067,0.02764474,0.
 00000282,-0.00424833,-0.00211246,0.00000151,-0.00059908,-0.00052324,0.
 00000012,-0.00182364,-0.00307074,0.00000015,0.01026528,-0.01559028,-0.
 00000105,-0.13473081,0.12785214,0.00000879,0.00204003,-0.00071086,-0.0
 0000021,-0.00012384,0.00166402,-0.00000036,-0.00084269,-0.00009743,-0.
 00000015,0.00001512,0.00009828,0.00000012,0.00059194,0.00016895,-0.000
 00046,0.00004531,0.00008265,-0.00000002,0.00064791,-0.00073281,-0.0000
 0005,0.14226367,-0.00261335,0.00581737,0.00000051,-0.00166686,0.001334
 96,0.00000030,-0.00094519,-0.00004527,0.00000007,-0.00360026,-0.002427
 56,0.00000010,0.01575965,-0.01764236,-0.00000192,0.12850544,-0.2723518
 3,-0.00001458,0.00090681,0.00149492,0.00000005,0.00020907,0.00049796,0
 .00000029,-0.00039674,0.00019207,-0.00000017,-0.00000328,-0.00012174,-
 0.00000009,-0.00014394,0.00082561,-0.00000003,0.00005947,0.00001375,0.
 00000003,0.00078547,-0.00076242,-0.00000008,-0.13493127,0.28370868,0.0
 0000077,-0.00000214,0.00362734,0.00000290,-0.00000091,0.00853254,0.000
 00027,0.00000035,-0.00071757,0.00000046,0.00000021,0.00401043,0.000000
 62,0.00000095,0.00309093,0.00000845,-0.00001374,-0.03503797,-0.0000005
 9,0.00000016,-0.00201358,-0.00000111,-0.00000045,0.00184959,0.00000013
 ,-0.00000008,-0.00088611,-0.00000016,-0.00000003,0.00013016,-0.0000007
 3,0.00000025,-0.00573034,-0.00000005,0.,-0.00047593,-0.00000001,0.0000
 0001,-0.00005756,-0.00001127,0.00001540,0.02371848,-0.00047434,0.00004
 598,0.00000001,0.00128451,-0.00001563,0.00000014,-0.00047747,0.0016640
 0,0.00000025,-0.00371259,-0.00353145,0.00000060,-0.01527600,0.03132402
 ,0.00000168,0.00170219,0.00197348,-0.00000046,-0.18183760,0.17333274,0
 .00001612,-0.00151613,-0.00031932,-0.00000115,0.00050663,-0.00056703,0
 .00000043,0.00056830,0.00063834,0.00000051,0.00005912,-0.00006581,0.00
 000005,-0.00036964,-0.00011699,-0.00000002,0.00001488,0.00016159,-0.00
 000003,-0.00081155,-0.00176836,0.00000010,0.18560230,0.00160659,-0.000
 98313,-0.00000013,-0.00237522,0.00017146,-0.00000023,0.00132452,0.0007
 3612,-0.00000022,-0.00350917,0.00194823,0.00000036,0.00158486,0.008128
 63,0.00000013,-0.00403912,0.00136326,0.00000049,0.17186339,-0.35714492
 ,-0.00002024,0.00296327,0.00045906,0.00000181,-0.00056711,0.00080276,-
 0.00000063,-0.00115967,-0.00141405,-0.00000099,-0.00009924,0.00004991,
 -0.00000004,-0.00006768,-0.00003170,-0.00000003,-0.00016562,0.00020553
 ,0.00000001,-0.00007909,-0.00079069,0.,-0.18569331,0.35971931,-0.00000
 019,0.00000018,-0.00064176,-0.00000019,-0.00000047,0.00021148,0.000000
 70,0.00000033,0.00162108,-0.00000007,0.00000041,0.00648270,0.00000090,
 -0.00000210,-0.00224235,-0.00000004,0.00000003,-0.00388705,0.00001612,
 -0.00002043,-0.01003443,0.00000029,0.00000013,-0.00009381,-0.00000006,
 0.00000003,0.00011213,-0.00000014,-0.00000007,0.00000532,0.00000009,0.
 ,0.00042772,-0.00000014,0.00000001,-0.00092554,-0.00000003,-0.00000007
 ,-0.00045856,0.00000014,0.00000004,0.00068157,-0.00001668,0.00002108,0
 .01028428,-0.00036715,-0.00171320,0.00000011,0.00119850,-0.00000419,0.
 00000007,-0.00045269,-0.00002713,0.00000006,0.00160567,-0.00195472,-0.
 00000054,-0.01400598,-0.03225242,0.00000019,-0.00396249,0.00330069,0.0
 0000079,-0.16861712,-0.16603084,0.00000749,-0.00142907,-0.00019066,-0.
 00000093,0.00031448,-0.00037968,0.00000029,0.00070575,0.00080736,0.000
 00054,-0.00036272,0.00010579,-0.00000004,0.00005133,0.00006020,0.00000
 005,-0.00076997,0.00178863,0.00000018,0.00001561,-0.00016940,-0.000000
 04,0.01491157,0.01815578,-0.00000075,0.17132722,-0.00134466,0.00063894
 ,0.00000009,0.00241318,0.00007697,0.00000029,-0.00158798,-0.00100829,0
 .00000011,0.00401920,0.00139871,-0.00000026,-0.00241879,0.00679634,0.0
 0000036,0.00326902,0.00219805,-0.00000046,-0.16457272,-0.37032882,0.00
 000376,-0.00302025,-0.00047243,-0.00000190,0.00072483,-0.00095345,0.00
 000079,0.00106826,0.00128360,0.00000093,0.00006835,-0.00003865,0.00000
 003,0.00007777,0.00004120,0.00000002,0.00005376,-0.00070234,-0.0000000
 3,0.00016240,0.00020801,0.00000001,-0.01708066,-0.01314264,0.00000090,
 0.17844005,0.37393430,0.00000067,-0.00000037,0.00156914,-0.00000012,0.
 00000040,0.00034132,-0.00000031,-0.00000013,-0.00068079,0.00000026,0.0
 0000021,-0.00386968,0.00000084,0.00000257,-0.00222177,0.00000013,-0.00
 000068,0.00651700,0.00000746,0.00000396,-0.01003388,-0.00000010,-0.000
 00010,-0.00000437,-0.00000002,0.00000002,-0.00013890,0.00000009,0.0000
 0001,-0.00000130,-0.00000018,-0.00000001,-0.00095269,0.00000006,0.0000
 0004,0.00041973,0.00000016,-0.00000006,0.00068669,-0.00000004,0.000000
 13,-0.00045273,-0.00000153,-0.00000148,-0.00148697,-0.00000744,-0.0000
 0450,0.01023666,-0.00153569,0.00087336,-0.00000014,0.00416883,0.001477
 10,-0.00000154,-0.00062481,-0.00092064,0.00000005,0.00116233,-0.000893
 34,-0.00000027,-0.00204417,-0.00025734,-0.00000007,0.00129507,0.001182
 60,-0.00000022,0.00203740,0.00007287,-0.00000022,-0.03649157,0.0056856
 8,-0.00001239,-0.44405627,-0.08743527,-0.00014205,0.00386507,-0.005937
 65,0.00000280,-0.00008307,0.00011944,-0.00000012,-0.00000925,-0.000088
 28,0.00000018,0.00004344,-0.00002714,0.00000010,0.00000572,0.00001274,
 0.00000027,-0.00017418,0.00025681,0.00000004,-0.00016296,-0.00027175,0
 .00000007,0.47260413,0.00205974,0.00063915,0.00000014,-0.00066651,-0.0
 0889741,0.00000255,-0.00045398,-0.00059827,-0.00000066,-0.00056586,0.0
 0075937,0.00000037,0.00040105,-0.00042909,-0.00000017,-0.00005950,-0.0
 0085951,-0.00000017,-0.00057395,0.00012526,0.00000002,0.06967470,0.010
 82628,0.00002333,-0.14746627,-0.08333866,-0.00003097,-0.00883071,-0.00
 056081,-0.00000581,0.00001123,-0.00003192,0.00000004,0.00007440,0.0007
 7639,0.,-0.00001230,0.00002411,0.,0.00017500,0.00004855,0.,0.00001841,
 -0.00007715,0.,0.00006374,0.00007048,0.,0.08615080,0.08152325,-0.00000
 119,0.00000027,0.00216418,0.00000523,0.00000144,0.00222686,0.00000013,
 -0.00000047,-0.00084547,0.00000031,-0.00000048,0.00023369,-0.00000070,
 -0.00000023,0.00041220,0.00000075,0.00000078,-0.00027829,0.00000089,0.
 00000006,-0.00012339,-0.00003397,0.00000059,-0.00144723,-0.00012972,-0
 .00001088,-0.00591007,0.00000480,-0.00000211,-0.00305628,0.,0.00000005
 ,0.00006993,0.00000009,-0.00000029,-0.00026299,0.00000002,-0.00000002,
 -0.00000023,-0.00000004,-0.00000004,-0.00026924,-0.00000005,0.00000011
 ,-0.00005580,-0.00000006,-0.00000014,0.00007255,0.00015351,0.00001136,
 0.00706959\\-0.00000051,0.00002317,0.00001299,0.00000173,0.00002036,0.
 00001912,-0.00001011,-0.00002458,0.00001118,0.00000921,-0.00001198,-0.
 00000140,0.00003430,0.00000045,0.00000145,0.00001146,0.00000288,-0.000
 00109,-0.00005683,0.00000298,0.00000002,0.00002675,-0.00014667,-0.0001
 1798,-0.00005709,0.00000763,0.00003164,0.00002939,0.00012494,0.0000445
 0,-0.00000253,-0.00000410,-0.00000031,0.00000175,0.00000058,0.00000061
 ,0.00000261,0.00000034,-0.00000199,0.00000753,0.00000313,-0.00000240,0
 .00000811,0.00000264,-0.00000003,0.00000695,0.00000402,-0.00000006,-0.
 00001273,-0.00000578,0.00000375\\\@


 Mondays are the potholes in the road of life.
                                -- Tom Wilson
 Job cpu time:       0 days  0 hours 10 minutes 51.3 seconds.
 File lengths (MBytes):  RWF=     93 Int=      0 D2E=      0 Chk=      5 Scr=      1
 Normal termination of Gaussian 09 at Thu Dec 19 11:03:57 2024.
