 Entering Gaussian System, Link 0=g09
 Input=camb3lypD3PNA.gjf
 Output=camb3lypD3PNA.log
 Initial command:
 /home/c612/g09E/g09/l1.exe "/mnt/ja_sm883/scratch/Gau-1820535.inp" -scrdir="/mnt/ja_sm883/scratch/"
 Default is to use a total of  18 processors:
                               18 via shared-memory
                                1 via Linda
 Entering Link 1 = /home/c612/g09E/g09/l1.exe PID=   1820537.
  
 Copyright (c) 1988,1990,1992,1993,1995,1998,2003,2009,2015,
            Gaussian, Inc.  All Rights Reserved.
  
 This is part of the Gaussian(R) 09 program.  It is based on
 the Gaussian(R) 03 system (copyright 2003, Gaussian, Inc.),
 the Gaussian(R) 98 system (copyright 1998, Gaussian, Inc.),
 the Gaussian(R) 94 system (copyright 1995, Gaussian, Inc.),
 the Gaussian 92(TM) system (copyright 1992, Gaussian, Inc.),
 the Gaussian 90(TM) system (copyright 1990, Gaussian, Inc.),
 the Gaussian 88(TM) system (copyright 1988, Gaussian, Inc.),
 the Gaussian 86(TM) system (copyright 1986, Carnegie Mellon
 University), and the Gaussian 82(TM) system (copyright 1983,
 Carnegie Mellon University). Gaussian is a federally registered
 trademark of Gaussian, Inc.
  
 This software contains proprietary and confidential information,
 including trade secrets, belonging to Gaussian, Inc.
  
 This software is provided under written license and may be
 used, copied, transmitted, or stored only in accord with that
 written license.
  
 The following legend is applicable only to US Government
 contracts under FAR:
  
                    RESTRICTED RIGHTS LEGEND
  
 Use, reproduction and disclosure by the US Government is
 subject to restrictions as set forth in subparagraphs (a)
 and (c) of the Commercial Computer Software - Restricted
 Rights clause in FAR 52.227-19.
  
 Gaussian, Inc.
 340 Quinnipiac St., Bldg. 40, Wallingford CT 06492
  
  
 ---------------------------------------------------------------
 Warning -- This program may not be used in any manner that
 competes with the business of Gaussian, Inc. or will provide
 assistance to any competitor of Gaussian, Inc.  The licensee
 of this program is prohibited from giving any competitor of
 Gaussian, Inc. access to this program.  By using this program,
 the user acknowledges that Gaussian, Inc. is engaged in the
 business of creating and licensing software in the field of
 computational chemistry and represents and warrants to the
 licensee that it is not a competitor of Gaussian, Inc. and that
 it will not use this program in any manner prohibited above.
 ---------------------------------------------------------------
  

 Cite this work as:
 Gaussian 09, Revision E.01,
 M. J. Frisch, G. W. Trucks, H. B. Schlegel, G. E. Scuseria, 
 M. A. Robb, J. R. Cheeseman, G. Scalmani, V. Barone, B. Mennucci, 
 G. A. Petersson, H. Nakatsuji, M. Caricato, X. Li, H. P. Hratchian, 
 A. F. Izmaylov, J. Bloino, G. Zheng, J. L. Sonnenberg, M. Hada, 
 M. Ehara, K. Toyota, R. Fukuda, J. Hasegawa, M. Ishida, T. Nakajima, 
 Y. Honda, O. Kitao, H. Nakai, T. Vreven, J. A. Montgomery, Jr., 
 J. E. Peralta, F. Ogliaro, M. Bearpark, J. J. Heyd, E. Brothers, 
 K. N. Kudin, V. N. Staroverov, T. Keith, R. Kobayashi, J. Normand, 
 K. Raghavachari, A. Rendell, J. C. Burant, S. S. Iyengar, J. Tomasi, 
 M. Cossi, N. Rega, J. M. Millam, M. Klene, J. E. Knox, J. B. Cross, 
 V. Bakken, C. Adamo, J. Jaramillo, R. Gomperts, R. E. Stratmann, 
 O. Yazyev, A. J. Austin, R. Cammi, C. Pomelli, J. W. Ochterski, 
 R. L. Martin, K. Morokuma, V. G. Zakrzewski, G. A. Voth, 
 P. Salvador, J. J. Dannenberg, S. Dapprich, A. D. Daniels, 
 O. Farkas, J. B. Foresman, J. V. Ortiz, J. Cioslowski, 
 and D. J. Fox, Gaussian, Inc., Wallingford CT, 2013.
 
 ******************************************
 Gaussian 09:  ES64L-G09RevE.01 30-Nov-2015
                17-Dec-2024 
 ******************************************
 %chk=camb3lypD3PNA.chk
 --------------------------------------------------------
 # opt freq cam-b3lyp/6-31+g(d,p) empiricaldispersion=gd3
 --------------------------------------------------------
 1/14=-1,18=20,19=15,26=3,38=1/1,3;
 2/9=110,12=2,17=6,18=5,40=1/2;
 3/5=1,6=6,7=111,11=2,16=1,25=1,30=1,71=1,74=-40,124=31/1,2,3;
 4//1;
 5/5=2,38=5/2;
 6/7=2,8=2,9=2,10=2,28=1/1;
 7//1,2,3,16;
 1/14=-1,18=20,19=15,26=3/3(2);
 2/9=110/2;
 99//99;
 2/9=110/2;
 3/5=1,6=6,7=111,11=2,16=1,25=1,30=1,71=1,74=-40,124=31/1,2,3;
 4/5=5,16=3,69=1/1;
 5/5=2,38=5/2;
 7//1,2,3,16;
 1/14=-1,18=20,19=15,26=3/3(-5);
 2/9=110/2;
 6/7=2,8=2,9=2,10=2,19=2,28=1/1;
 99/9=1/99;
 ----------
 [No Title]
 ----------
 Symbolic Z-matrix:
 Charge =  0 Multiplicity = 1
 C                    -0.02265   1.21427  -0.00009 
 C                    -0.71135   0.       -0.00008 
 C                    -0.02265  -1.21427  -0.00002 
 C                     1.36059  -1.21428   0.00003 
 C                     2.07997   0.        0.00002 
 C                     1.36059   1.21428  -0.00004 
 N                     3.44517   0.        0.00007 
 N                    -2.16111   0.       -0.00014 
 O                    -2.73864  -1.08697   0.00014 
 O                    -2.73864   1.08698   0.00007 
 H                    -0.58253   2.14253  -0.00014 
 H                    -0.58253  -2.14253  -0.00002 
 H                     1.89882  -2.15832   0.00008 
 H                     1.89882   2.15832  -0.00005 
 H                     3.96512   0.86023   0.00005 
 H                     3.96512  -0.86023   0.0001 
 

 GradGradGradGradGradGradGradGradGradGradGradGradGradGradGradGradGradGrad
 Berny optimization.
 Initialization pass.
                           ----------------------------
                           !    Initial Parameters    !
                           ! (Angstroms and Degrees)  !
 --------------------------                            --------------------------
 ! Name  Definition              Value          Derivative Info.                !
 --------------------------------------------------------------------------------
 ! R1    R(1,2)                  1.396          estimate D2E/DX2                !
 ! R2    R(1,6)                  1.3832         estimate D2E/DX2                !
 ! R3    R(1,11)                 1.084          estimate D2E/DX2                !
 ! R4    R(2,3)                  1.396          estimate D2E/DX2                !
 ! R5    R(2,8)                  1.4498         estimate D2E/DX2                !
 ! R6    R(3,4)                  1.3832         estimate D2E/DX2                !
 ! R7    R(3,12)                 1.084          estimate D2E/DX2                !
 ! R8    R(4,5)                  1.4114         estimate D2E/DX2                !
 ! R9    R(4,13)                 1.0867         estimate D2E/DX2                !
 ! R10   R(5,6)                  1.4114         estimate D2E/DX2                !
 ! R11   R(5,7)                  1.3652         estimate D2E/DX2                !
 ! R12   R(6,14)                 1.0867         estimate D2E/DX2                !
 ! R13   R(7,15)                 1.0052         estimate D2E/DX2                !
 ! R14   R(7,16)                 1.0052         estimate D2E/DX2                !
 ! R15   R(8,9)                  1.2309         estimate D2E/DX2                !
 ! R16   R(8,10)                 1.2309         estimate D2E/DX2                !
 ! A1    A(2,1,6)              119.5611         estimate D2E/DX2                !
 ! A2    A(2,1,11)             119.3425         estimate D2E/DX2                !
 ! A3    A(6,1,11)             121.0964         estimate D2E/DX2                !
 ! A4    A(1,2,3)              120.8784         estimate D2E/DX2                !
 ! A5    A(1,2,8)              119.5608         estimate D2E/DX2                !
 ! A6    A(3,2,8)              119.5608         estimate D2E/DX2                !
 ! A7    A(2,3,4)              119.5611         estimate D2E/DX2                !
 ! A8    A(2,3,12)             119.3426         estimate D2E/DX2                !
 ! A9    A(4,3,12)             121.0964         estimate D2E/DX2                !
 ! A10   A(3,4,5)              120.6437         estimate D2E/DX2                !
 ! A11   A(3,4,13)             119.6893         estimate D2E/DX2                !
 ! A12   A(5,4,13)             119.667          estimate D2E/DX2                !
 ! A13   A(4,5,6)              118.7121         estimate D2E/DX2                !
 ! A14   A(4,5,7)              120.6439         estimate D2E/DX2                !
 ! A15   A(6,5,7)              120.644          estimate D2E/DX2                !
 ! A16   A(1,6,5)              120.6437         estimate D2E/DX2                !
 ! A17   A(1,6,14)             119.6892         estimate D2E/DX2                !
 ! A18   A(5,6,14)             119.667          estimate D2E/DX2                !
 ! A19   A(5,7,15)             121.1503         estimate D2E/DX2                !
 ! A20   A(5,7,16)             121.1503         estimate D2E/DX2                !
 ! A21   A(15,7,16)            117.6995         estimate D2E/DX2                !
 ! A22   A(2,8,9)              117.9828         estimate D2E/DX2                !
 ! A23   A(2,8,10)             117.9827         estimate D2E/DX2                !
 ! A24   A(9,8,10)             124.0346         estimate D2E/DX2                !
 ! D1    D(6,1,2,3)              0.0            estimate D2E/DX2                !
 ! D2    D(6,1,2,8)           -179.9999         estimate D2E/DX2                !
 ! D3    D(11,1,2,3)           179.9999         estimate D2E/DX2                !
 ! D4    D(11,1,2,8)             0.0001         estimate D2E/DX2                !
 ! D5    D(2,1,6,5)              0.0            estimate D2E/DX2                !
 ! D6    D(2,1,6,14)           180.0            estimate D2E/DX2                !
 ! D7    D(11,1,6,5)          -179.9999         estimate D2E/DX2                !
 ! D8    D(11,1,6,14)            0.0            estimate D2E/DX2                !
 ! D9    D(1,2,3,4)              0.0            estimate D2E/DX2                !
 ! D10   D(1,2,3,12)           180.0            estimate D2E/DX2                !
 ! D11   D(8,2,3,4)            179.9999         estimate D2E/DX2                !
 ! D12   D(8,2,3,12)            -0.0001         estimate D2E/DX2                !
 ! D13   D(1,2,8,9)           -179.9862         estimate D2E/DX2                !
 ! D14   D(1,2,8,10)            -0.0138         estimate D2E/DX2                !
 ! D15   D(3,2,8,9)              0.0139         estimate D2E/DX2                !
 ! D16   D(3,2,8,10)           179.9863         estimate D2E/DX2                !
 ! D17   D(2,3,4,5)             -0.0001         estimate D2E/DX2                !
 ! D18   D(2,3,4,13)           179.9999         estimate D2E/DX2                !
 ! D19   D(12,3,4,5)           180.0            estimate D2E/DX2                !
 ! D20   D(12,3,4,13)            0.0            estimate D2E/DX2                !
 ! D21   D(3,4,5,6)              0.0001         estimate D2E/DX2                !
 ! D22   D(3,4,5,7)            179.9998         estimate D2E/DX2                !
 ! D23   D(13,4,5,6)          -179.9999         estimate D2E/DX2                !
 ! D24   D(13,4,5,7)            -0.0002         estimate D2E/DX2                !
 ! D25   D(4,5,6,1)              0.0            estimate D2E/DX2                !
 ! D26   D(4,5,6,14)           180.0            estimate D2E/DX2                !
 ! D27   D(7,5,6,1)           -179.9998         estimate D2E/DX2                !
 ! D28   D(7,5,6,14)             0.0002         estimate D2E/DX2                !
 ! D29   D(4,5,7,15)           179.9988         estimate D2E/DX2                !
 ! D30   D(4,5,7,16)             0.0013         estimate D2E/DX2                !
 ! D31   D(6,5,7,15)            -0.0014         estimate D2E/DX2                !
 ! D32   D(6,5,7,16)          -179.999          estimate D2E/DX2                !
 --------------------------------------------------------------------------------
 Trust Radius=3.00D-01 FncErr=1.00D-07 GrdErr=1.00D-06
 Number of steps in this run=     82 maximum allowed number of steps=    100.
 GradGradGradGradGradGradGradGradGradGradGradGradGradGradGradGradGradGrad

                          Input orientation:                          
 ---------------------------------------------------------------------
 Center     Atomic      Atomic             Coordinates (Angstroms)
 Number     Number       Type             X           Y           Z
 ---------------------------------------------------------------------
      1          6           0       -0.022648    1.214272   -0.000093
      2          6           0       -0.711353    0.000000   -0.000083
      3          6           0       -0.022648   -1.214273   -0.000023
      4          6           0        1.360591   -1.214279    0.000028
      5          6           0        2.079971    0.000000    0.000018
      6          6           0        1.360590    1.214278   -0.000043
      7          7           0        3.445165    0.000000    0.000072
      8          7           0       -2.161106    0.000000   -0.000138
      9          8           0       -2.738641   -1.086974    0.000135
     10          8           0       -2.738639    1.086975    0.000069
     11          1           0       -0.582534    2.142528   -0.000141
     12          1           0       -0.582533   -2.142529   -0.000016
     13          1           0        1.898821   -2.158317    0.000076
     14          1           0        1.898820    2.158317   -0.000051
     15          1           0        3.965121    0.860234    0.000048
     16          1           0        3.965121   -0.860233    0.000100
 ---------------------------------------------------------------------
                    Distance matrix (angstroms):
                    1          2          3          4          5
     1  C    0.000000
     2  C    1.395984   0.000000
     3  C    2.428545   1.395985   0.000000
     4  C    2.794854   2.401546   1.383239   0.000000
     5  C    2.428057   2.791324   2.428058   1.411376   0.000000
     6  C    1.383238   2.401545   2.794854   2.428557   1.411375
     7  N    3.674260   4.156518   3.674260   2.412452   1.365194
     8  N    2.459158   1.449753   2.459159   3.725161   4.241077
     9  O    3.559825   2.300306   2.718975   4.101208   4.939690
    10  O    2.718973   2.300305   3.559824   4.701006   4.939688
    11  H    1.084035   2.146397   3.403173   3.878645   3.417508
    12  H    3.403173   2.146398   1.084034   2.153457   3.417508
    13  H    3.881546   3.386937   2.140855   1.086692   2.165906
    14  H    2.140855   3.386936   3.881546   3.415274   2.165906
    15  H    4.003454   4.754936   4.495095   3.329742   2.072147
    16  H    4.495094   4.754935   4.003454   2.628483   2.072147
                    6          7          8          9         10
     6  C    0.000000
     7  N    2.412452   0.000000
     8  N    3.725160   5.606271   0.000000
     9  O    4.701006   6.278612   1.230877   0.000000
    10  O    4.101205   6.278610   1.230877   2.173949   0.000000
    11  H    2.153457   4.562103   2.661262   3.883102   2.400621
    12  H    3.878644   4.562103   2.661263   2.400625   3.883103
    13  H    3.415273   2.655092   4.597971   4.759604   5.660208
    14  H    1.086693   2.655092   4.597970   5.660208   4.759601
    15  H    2.628484   1.005165   6.186328   6.980834   6.707593
    16  H    3.329741   1.005164   6.186328   6.707595   6.980832
                   11         12         13         14         15
    11  H    0.000000
    12  H    4.285057   0.000000
    13  H    4.965319   2.481404   0.000000
    14  H    2.481404   4.965319   4.316634   0.000000
    15  H    4.724981   5.449564   3.658039   2.440209   0.000000
    16  H    5.449563   4.724980   2.440209   3.658038   1.720467
                   16
    16  H    0.000000
 Stoichiometry    C6H6N2O2
 Framework group  C1[X(C6H6N2O2)]
 Deg. of freedom    42
 Full point group                 C1      NOp   1
 Largest Abelian subgroup         C1      NOp   1
 Largest concise Abelian subgroup C1      NOp   1
                         Standard orientation:                         
 ---------------------------------------------------------------------
 Center     Atomic      Atomic             Coordinates (Angstroms)
 Number     Number       Type             X           Y           Z
 ---------------------------------------------------------------------
      1          6           0       -0.022648   -1.214272    0.000093
      2          6           0       -0.711353    0.000000    0.000083
      3          6           0       -0.022648    1.214273    0.000023
      4          6           0        1.360591    1.214279   -0.000028
      5          6           0        2.079971   -0.000000   -0.000018
      6          6           0        1.360590   -1.214278    0.000043
      7          7           0        3.445165   -0.000000   -0.000072
      8          7           0       -2.161106    0.000000    0.000138
      9          8           0       -2.738641    1.086974   -0.000135
     10          8           0       -2.738639   -1.086975   -0.000069
     11          1           0       -0.582534   -2.142528    0.000141
     12          1           0       -0.582533    2.142529    0.000016
     13          1           0        1.898821    2.158317   -0.000076
     14          1           0        1.898820   -2.158317    0.000051
     15          1           0        3.965121   -0.860234   -0.000048
     16          1           0        3.965121    0.860233   -0.000100
 ---------------------------------------------------------------------
 Rotational constants (GHZ):      3.9266588      0.8246873      0.6815470
 Standard basis: 6-31+G(d,p) (6D, 7F)
 There are   220 symmetry adapted cartesian basis functions of A   symmetry.
 There are   220 symmetry adapted basis functions of A   symmetry.
   220 basis functions,   362 primitive gaussians,   220 cartesian basis functions
    36 alpha electrons       36 beta electrons
       nuclear repulsion energy       495.7061428626 Hartrees.
 NAtoms=   16 NActive=   16 NUniq=   16 SFac= 1.00D+00 NAtFMM=   60 NAOKFM=F Big=F
 Integral buffers will be    131072 words long.
 Raffenetti 2 integral format.
 Two-electron integral symmetry is turned on.
 Nuclear repulsion after empirical dispersion term =      495.6986560630 Hartrees.
 One-electron integrals computed using PRISM.
 NBasis=   220 RedAO= T EigKep=  3.22D-06  NBF=   220
 NBsUse=   220 1.00D-06 EigRej= -1.00D+00 NBFU=   220
 ExpMin= 4.38D-02 ExpMax= 5.48D+03 ExpMxC= 8.25D+02 IAcc=2 IRadAn=         4 AccDes= 0.00D+00
 Harris functional with IExCor=20419 and IRadAn=       4 diagonalized for initial guess.
 HarFok:  IExCor=20419 AccDes= 0.00D+00 IRadAn=         4 IDoV= 1 UseB2=F ITyADJ=14
 ICtDFT=  3500011 ScaDFX=  1.000000  1.000000  1.000000  1.000000
 FoFCou: FMM=F IPFlag=           0 FMFlag=      100000 FMFlg1=           0
         NFxFlg=           0 DoJE=T BraDBF=F KetDBF=T FulRan=T
         wScrn=  0.000000 ICntrl=     500 IOpCl=  0 I1Cent=   200000004 NGrid=           0
         NMat0=    1 NMatS0=      1 NMatT0=    0 NMatD0=    1 NMtDS0=    0 NMtDT0=    0
 Petite list used in FoFCou.
 Keep R1 ints in memory in canonical form, NReq=596566580.
 Requested convergence on RMS density matrix=1.00D-08 within 128 cycles.
 Requested convergence on MAX density matrix=1.00D-06.
 Requested convergence on             energy=1.00D-06.
 No special actions if energy rises.
 SCF Done:  E(RCAM-B3LYP) =  -491.922106038     A.U. after   15 cycles
            NFock= 15  Conv=0.94D-08     -V/T= 2.0091

 **********************************************************************

            Population analysis using the SCF density.

 **********************************************************************

 Orbital symmetries:
       Occupied  (A) (A) (A) (A) (A) (A) (A) (A) (A) (A) (A) (A)
                 (A) (A) (A) (A) (A) (A) (A) (A) (A) (A) (A) (A)
                 (A) (A) (A) (A) (A) (A) (A) (A) (A) (A) (A) (A)
       Virtual   (A) (A) (A) (A) (A) (A) (A) (A) (A) (A) (A) (A)
                 (A) (A) (A) (A) (A) (A) (A) (A) (A) (A) (A) (A)
                 (A) (A) (A) (A) (A) (A) (A) (A) (A) (A) (A) (A)
                 (A) (A) (A) (A) (A) (A) (A) (A) (A) (A) (A) (A)
                 (A) (A) (A) (A) (A) (A) (A) (A) (A) (A) (A) (A)
                 (A) (A) (A) (A) (A) (A) (A) (A) (A) (A) (A) (A)
                 (A) (A) (A) (A) (A) (A) (A) (A) (A) (A) (A) (A)
                 (A) (A) (A) (A) (A) (A) (A) (A) (A) (A) (A) (A)
                 (A) (A) (A) (A) (A) (A) (A) (A) (A) (A) (A) (A)
                 (A) (A) (A) (A) (A) (A) (A) (A) (A) (A) (A) (A)
                 (A) (A) (A) (A) (A) (A) (A) (A) (A) (A) (A) (A)
                 (A) (A) (A) (A) (A) (A) (A) (A) (A) (A) (A) (A)
                 (A) (A) (A) (A) (A) (A) (A) (A) (A) (A) (A) (A)
                 (A) (A) (A) (A) (A) (A) (A) (A) (A) (A) (A) (A)
                 (A) (A) (A) (A) (A) (A) (A) (A) (A) (A) (A) (A)
                 (A) (A) (A) (A)
 The electronic state is 1-A.
 Alpha  occ. eigenvalues --  -19.25579 -19.25577 -14.65174 -14.45542 -10.34790
 Alpha  occ. eigenvalues --  -10.31947 -10.29943 -10.29941 -10.28930 -10.28930
 Alpha  occ. eigenvalues --   -1.30982  -1.13172  -1.04280  -0.96769  -0.87984
 Alpha  occ. eigenvalues --   -0.86047  -0.77569  -0.72486  -0.67958  -0.63950
 Alpha  occ. eigenvalues --   -0.62591  -0.61401  -0.60661  -0.57837  -0.53768
 Alpha  occ. eigenvalues --   -0.52904  -0.51774  -0.49203  -0.48857  -0.43540
 Alpha  occ. eigenvalues --   -0.41081  -0.37696  -0.37157  -0.35816  -0.33855
 Alpha  occ. eigenvalues --   -0.28789
 Alpha virt. eigenvalues --   -0.04233   0.01064   0.01195   0.03495   0.04081
 Alpha virt. eigenvalues --    0.05008   0.06308   0.06760   0.08819   0.09018
 Alpha virt. eigenvalues --    0.10275   0.10809   0.11481   0.12084   0.13722
 Alpha virt. eigenvalues --    0.15057   0.15442   0.15832   0.16233   0.16276
 Alpha virt. eigenvalues --    0.17373   0.19172   0.19415   0.19750   0.19762
 Alpha virt. eigenvalues --    0.20297   0.20443   0.22783   0.23008   0.23700
 Alpha virt. eigenvalues --    0.23759   0.24607   0.24886   0.25707   0.26708
 Alpha virt. eigenvalues --    0.27071   0.27278   0.29113   0.29464   0.29634
 Alpha virt. eigenvalues --    0.31040   0.31790   0.32241   0.34621   0.35595
 Alpha virt. eigenvalues --    0.35628   0.35988   0.37282   0.38802   0.40129
 Alpha virt. eigenvalues --    0.42204   0.43695   0.44127   0.45758   0.45994
 Alpha virt. eigenvalues --    0.49268   0.50892   0.57622   0.64178   0.66299
 Alpha virt. eigenvalues --    0.69107   0.70020   0.70850   0.75104   0.75293
 Alpha virt. eigenvalues --    0.76213   0.78193   0.80145   0.83050   0.83467
 Alpha virt. eigenvalues --    0.86406   0.88787   0.89630   0.92834   0.95262
 Alpha virt. eigenvalues --    0.95740   0.98611   0.98819   1.01012   1.04630
 Alpha virt. eigenvalues --    1.04801   1.07973   1.09314   1.12517   1.12549
 Alpha virt. eigenvalues --    1.13835   1.15573   1.21733   1.22376   1.24911
 Alpha virt. eigenvalues --    1.24985   1.26687   1.27951   1.28957   1.30804
 Alpha virt. eigenvalues --    1.33922   1.36730   1.36801   1.38803   1.40526
 Alpha virt. eigenvalues --    1.42186   1.43524   1.43687   1.44217   1.48752
 Alpha virt. eigenvalues --    1.49181   1.50410   1.51988   1.52625   1.59102
 Alpha virt. eigenvalues --    1.68405   1.74839   1.78445   1.81791   1.86405
 Alpha virt. eigenvalues --    1.88170   1.88266   1.90709   1.92456   1.94207
 Alpha virt. eigenvalues --    1.98263   1.98419   1.98938   2.02553   2.02802
 Alpha virt. eigenvalues --    2.03237   2.03881   2.09676   2.13960   2.15110
 Alpha virt. eigenvalues --    2.19479   2.20047   2.20132   2.23774   2.25943
 Alpha virt. eigenvalues --    2.28582   2.29664   2.36619   2.43837   2.44945
 Alpha virt. eigenvalues --    2.45695   2.48409   2.49061   2.49716   2.55278
 Alpha virt. eigenvalues --    2.58160   2.59850   2.60628   2.62647   2.64252
 Alpha virt. eigenvalues --    2.65786   2.66967   2.73789   2.76252   2.80040
 Alpha virt. eigenvalues --    2.80190   2.85670   2.88911   2.89749   2.91477
 Alpha virt. eigenvalues --    3.06020   3.09218   3.10862   3.13917   3.18070
 Alpha virt. eigenvalues --    3.18915   3.26474   3.34665   3.40958   3.41367
 Alpha virt. eigenvalues --    3.48502   3.59174   3.72685   3.90347   4.18873
 Alpha virt. eigenvalues --    4.28087   4.34838   4.34880   4.39447   4.54005
 Alpha virt. eigenvalues --    4.55350   4.58862   4.86904   4.92035
          Condensed to atoms (all electrons):
               1          2          3          4          5          6
     1  C    8.840053   0.158816  -2.554601  -0.446644  -0.183084  -0.318918
     2  C    0.158816   8.852675   0.158834  -0.875725  -0.343681  -0.875731
     3  C   -2.554601   0.158834   8.840029  -0.318906  -0.183085  -0.446647
     4  C   -0.446644  -0.875725  -0.318906   8.982660   0.349712  -1.907102
     5  C   -0.183084  -0.343681  -0.183085   0.349712   5.731443   0.349703
     6  C   -0.318918  -0.875731  -0.446647  -1.907102   0.349703   8.982690
     7  N    0.034830  -0.011511   0.034830  -0.045761   0.043765  -0.045761
     8  N    0.205417  -0.792468   0.205415   0.020749  -0.014094   0.020748
     9  O    0.131958  -0.309344  -0.065653   0.151757   0.012370  -0.015316
    10  O   -0.065653  -0.309344   0.131957  -0.015315   0.012370   0.151759
    11  H    0.068470   0.257936   0.108518  -0.011043  -0.032718  -0.039992
    12  H    0.108518   0.257935   0.068471  -0.039992  -0.032717  -0.011043
    13  H   -0.015810   0.015996   0.091364   0.195113   0.009729   0.028938
    14  H    0.091365   0.015996  -0.015810   0.028938   0.009729   0.195112
    15  H    0.026840  -0.001252  -0.000251   0.059450  -0.002999  -0.094713
    16  H   -0.000251  -0.001252   0.026840  -0.094713  -0.002999   0.059450
               7          8          9         10         11         12
     1  C    0.034830   0.205417   0.131958  -0.065653   0.068470   0.108518
     2  C   -0.011511  -0.792468  -0.309344  -0.309344   0.257936   0.257935
     3  C    0.034830   0.205415  -0.065653   0.131957   0.108518   0.068471
     4  C   -0.045761   0.020749   0.151757  -0.015315  -0.011043  -0.039992
     5  C    0.043765  -0.014094   0.012370   0.012370  -0.032718  -0.032717
     6  C   -0.045761   0.020748  -0.015316   0.151759  -0.039992  -0.011043
     7  N    7.023297   0.000697  -0.000236  -0.000236  -0.000419  -0.000419
     8  N    0.000697   6.938654   0.376417   0.376416  -0.048105  -0.048105
     9  O   -0.000236   0.376417   7.872565  -0.086972  -0.002799   0.017750
    10  O   -0.000236   0.376416  -0.086972   7.872565   0.017750  -0.002799
    11  H   -0.000419  -0.048105  -0.002799   0.017750   0.510983  -0.000135
    12  H   -0.000419  -0.048105   0.017750  -0.002799  -0.000135   0.510983
    13  H   -0.017289  -0.000371   0.000034   0.000054   0.000012  -0.004783
    14  H   -0.017289  -0.000371   0.000054   0.000034  -0.004783   0.000012
    15  H    0.339506   0.000010  -0.000000   0.000001  -0.000008   0.000002
    16  H    0.339506   0.000010   0.000001  -0.000000   0.000002  -0.000008
              13         14         15         16
     1  C   -0.015810   0.091365   0.026840  -0.000251
     2  C    0.015996   0.015996  -0.001252  -0.001252
     3  C    0.091364  -0.015810  -0.000251   0.026840
     4  C    0.195113   0.028938   0.059450  -0.094713
     5  C    0.009729   0.009729  -0.002999  -0.002999
     6  C    0.028938   0.195112  -0.094713   0.059450
     7  N   -0.017289  -0.017289   0.339506   0.339506
     8  N   -0.000371  -0.000371   0.000010   0.000010
     9  O    0.000034   0.000054  -0.000000   0.000001
    10  O    0.000054   0.000034   0.000001  -0.000000
    11  H    0.000012  -0.004783  -0.000008   0.000002
    12  H   -0.004783   0.000012   0.000002  -0.000008
    13  H    0.564579  -0.000134  -0.000042   0.004575
    14  H   -0.000134   0.564579   0.004575  -0.000042
    15  H   -0.000042   0.004575   0.383239  -0.026990
    16  H    0.004575  -0.000042  -0.026990   0.383239
 Mulliken charges:
               1
     1  C   -0.081307
     2  C   -0.197879
     3  C   -0.081305
     4  C   -0.033178
     5  C    0.276556
     6  C   -0.033177
     7  N   -0.677510
     8  N   -0.241018
     9  O   -0.082587
    10  O   -0.082587
    11  H    0.176330
    12  H    0.176330
    13  H    0.128034
    14  H    0.128034
    15  H    0.312631
    16  H    0.312631
 Sum of Mulliken charges =  -0.00000
 Mulliken charges with hydrogens summed into heavy atoms:
               1
     1  C    0.095024
     2  C   -0.197879
     3  C    0.095025
     4  C    0.094856
     5  C    0.276556
     6  C    0.094857
     7  N   -0.052248
     8  N   -0.241018
     9  O   -0.082587
    10  O   -0.082587
 Electronic spatial extent (au):  <R**2>=           1558.1695
 Charge=             -0.0000 electrons
 Dipole moment (field-independent basis, Debye):
    X=              7.6915    Y=             -0.0000    Z=              0.0004  Tot=              7.6915
 Quadrupole moment (field-independent basis, Debye-Ang):
   XX=            -57.4607   YY=            -53.2375   ZZ=            -60.9456
   XY=              0.0000   XZ=             -0.0017   YZ=             -0.0002
 Traceless Quadrupole moment (field-independent basis, Debye-Ang):
   XX=             -0.2461   YY=              3.9771   ZZ=             -3.7310
   XY=              0.0000   XZ=             -0.0017   YZ=             -0.0002
 Octapole moment (field-independent basis, Debye-Ang**2):
  XXX=            108.3993  YYY=              0.0000  ZZZ=             -0.0008  XYY=             16.8782
  XXY=             -0.0000  XXZ=              0.0025  XZZ=            -13.5584  YZZ=             -0.0000
  YYZ=             -0.0003  XYZ=             -0.0009
 Hexadecapole moment (field-independent basis, Debye-Ang**3):
 XXXX=          -1382.5265 YYYY=           -370.1269 ZZZZ=            -67.0574 XXXY=             -0.0000
 XXXZ=             -0.0146 YYYX=              0.0000 YYYZ=              0.0034 ZZZX=              0.0030
 ZZZY=              0.0056 XXYY=           -301.8964 XXZZ=           -281.3424 YYZZ=            -85.3501
 XXYZ=              0.0006 YYXZ=             -0.0002 ZZXY=              0.0000
 N-N= 4.956986560630D+02 E-N=-2.137881721049D+03  KE= 4.874851683184D+02
 Calling FoFJK, ICntrl=      2127 FMM=F ISym2X=0 I1Cent= 0 IOpClX= 0 NMat=1 NMatS=1 NMatT=0.
 ***** Axes restored to original set *****
 -------------------------------------------------------------------
 Center     Atomic                   Forces (Hartrees/Bohr)
 Number     Number              X              Y              Z
 -------------------------------------------------------------------
      1        6           0.000059601   -0.002117010   -0.000003054
      2        6           0.004659410   -0.000000861   -0.000017827
      3        6           0.000060484    0.002117805   -0.000002941
      4        6          -0.000320313    0.002197245    0.000000673
      5        6          -0.005019394   -0.000000361   -0.000000297
      6        6          -0.000319072   -0.002196353    0.000000850
      7        7           0.000997042    0.000000794    0.000000050
      8        7          -0.004537079    0.000000154    0.000078632
      9        8           0.001894349    0.005628133   -0.000028441
     10        8           0.001894024   -0.005628102   -0.000028094
     11        1           0.000572607   -0.000787504   -0.000000021
     12        1           0.000572315    0.000787251   -0.000000132
     13        1          -0.000264542    0.000839025    0.000000288
     14        1          -0.000264803   -0.000839528    0.000000370
     15        1           0.000007496    0.000212914   -0.000000027
     16        1           0.000007876   -0.000213602   -0.000000029
 -------------------------------------------------------------------
 Cartesian Forces:  Max     0.005628133 RMS     0.001833625

 GradGradGradGradGradGradGradGradGradGradGradGradGradGradGradGradGradGrad
 Berny optimization.
 FormGI is forming the generalized inverse of G from B-inverse, IUseBI=4.
 Internal  Forces:  Max     0.005858987 RMS     0.001403524
 Search for a local minimum.
 Step number   1 out of a maximum of   82
 All quantities printed in internal units (Hartrees-Bohrs-Radians)
 Mixed Optimization -- RFO/linear search
 Second derivative matrix not updated -- first step.
 ITU=  0
     Eigenvalues ---    0.01034   0.01034   0.01805   0.01968   0.02043
     Eigenvalues ---    0.02099   0.02130   0.02152   0.02152   0.02182
     Eigenvalues ---    0.02192   0.02236   0.02242   0.16000   0.16000
     Eigenvalues ---    0.16000   0.16000   0.16000   0.16000   0.22000
     Eigenvalues ---    0.22969   0.24000   0.25000   0.25000   0.25000
     Eigenvalues ---    0.25000   0.35198   0.35198   0.35511   0.35511
     Eigenvalues ---    0.38277   0.41007   0.41966   0.45111   0.45347
     Eigenvalues ---    0.46792   0.46792   0.47048   0.48515   0.51911
     Eigenvalues ---    0.90722   0.90722
 RFO step:  Lambda=-2.45994919D-04 EMin= 1.03364348D-02
 Linear search not attempted -- first point.
 Iteration  1 RMS(Cart)=  0.00381702 RMS(Int)=  0.00000516
 Iteration  2 RMS(Cart)=  0.00000553 RMS(Int)=  0.00000090
 Iteration  3 RMS(Cart)=  0.00000000 RMS(Int)=  0.00000090
 Variable       Old X    -DE/DX   Delta X   Delta X   Delta X     New X
                                 (Linear)    (Quad)   (Total)
    R1        2.63803  -0.00345   0.00000  -0.00744  -0.00744   2.63059
    R2        2.61394  -0.00259   0.00000  -0.00533  -0.00533   2.60861
    R3        2.04853  -0.00097   0.00000  -0.00273  -0.00273   2.04580
    R4        2.63803  -0.00345   0.00000  -0.00744  -0.00744   2.63059
    R5        2.73964   0.00075   0.00000   0.00195   0.00195   2.74159
    R6        2.61394  -0.00259   0.00000  -0.00533  -0.00533   2.60861
    R7        2.04853  -0.00097   0.00000  -0.00273  -0.00273   2.04580
    R8        2.66711  -0.00368   0.00000  -0.00839  -0.00839   2.65872
    R9        2.05355  -0.00086   0.00000  -0.00244  -0.00244   2.05111
   R10        2.66711  -0.00368   0.00000  -0.00839  -0.00839   2.65872
   R11        2.57984   0.00101   0.00000   0.00195   0.00195   2.58179
   R12        2.05355  -0.00086   0.00000  -0.00244  -0.00244   2.05111
   R13        1.89949   0.00019   0.00000   0.00040   0.00040   1.89988
   R14        1.89949   0.00019   0.00000   0.00040   0.00040   1.89988
   R15        2.32602  -0.00586   0.00000  -0.00646  -0.00646   2.31956
   R16        2.32602  -0.00586   0.00000  -0.00646  -0.00646   2.31956
    A1        2.08673  -0.00019   0.00000  -0.00081  -0.00081   2.08593
    A2        2.08292   0.00018   0.00000   0.00094   0.00094   2.08386
    A3        2.11353   0.00001   0.00000  -0.00013  -0.00013   2.11340
    A4        2.10973   0.00027   0.00000   0.00112   0.00112   2.11085
    A5        2.08673  -0.00014   0.00000  -0.00056  -0.00056   2.08617
    A6        2.08673  -0.00014   0.00000  -0.00056  -0.00056   2.08617
    A7        2.08673  -0.00019   0.00000  -0.00081  -0.00081   2.08593
    A8        2.08292   0.00018   0.00000   0.00094   0.00094   2.08386
    A9        2.11353   0.00001   0.00000  -0.00013  -0.00013   2.11340
   A10        2.10563  -0.00010   0.00000  -0.00038  -0.00038   2.10525
   A11        2.08897   0.00024   0.00000   0.00138   0.00138   2.09035
   A12        2.08858  -0.00014   0.00000  -0.00100  -0.00100   2.08758
   A13        2.07192   0.00030   0.00000   0.00124   0.00124   2.07316
   A14        2.10563  -0.00015   0.00000  -0.00062  -0.00062   2.10501
   A15        2.10563  -0.00015   0.00000  -0.00062  -0.00062   2.10501
   A16        2.10563  -0.00010   0.00000  -0.00038  -0.00038   2.10525
   A17        2.08897   0.00024   0.00000   0.00138   0.00138   2.09035
   A18        2.08858  -0.00014   0.00000  -0.00100  -0.00100   2.08758
   A19        2.11447  -0.00007   0.00000  -0.00041  -0.00041   2.11406
   A20        2.11447  -0.00007   0.00000  -0.00041  -0.00041   2.11406
   A21        2.05424   0.00013   0.00000   0.00082   0.00082   2.05506
   A22        2.05919   0.00075   0.00000   0.00300   0.00299   2.06218
   A23        2.05919   0.00075   0.00000   0.00300   0.00300   2.06218
   A24        2.16481  -0.00150   0.00000  -0.00600  -0.00600   2.15881
    D1        0.00000  -0.00000   0.00000  -0.00006  -0.00006  -0.00006
    D2       -3.14159  -0.00000   0.00000  -0.00003  -0.00003   3.14157
    D3        3.14159  -0.00000   0.00000  -0.00002  -0.00002   3.14157
    D4        0.00000   0.00000   0.00000   0.00001   0.00001   0.00001
    D5       -0.00000   0.00000   0.00000   0.00003   0.00003   0.00003
    D6        3.14159   0.00000   0.00000   0.00003   0.00003  -3.14156
    D7       -3.14159  -0.00000   0.00000  -0.00001  -0.00001   3.14159
    D8        0.00000  -0.00000   0.00000  -0.00000  -0.00000  -0.00000
    D9        0.00000   0.00000   0.00000   0.00006   0.00006   0.00006
   D10        3.14159   0.00000   0.00000   0.00003   0.00003  -3.14157
   D11        3.14159   0.00000   0.00000   0.00002   0.00002  -3.14157
   D12       -0.00000  -0.00000   0.00000  -0.00001  -0.00001  -0.00001
   D13       -3.14135  -0.00003   0.00000  -0.00267  -0.00267   3.13917
   D14       -0.00024   0.00003   0.00000   0.00264   0.00264   0.00240
   D15        0.00024  -0.00003   0.00000  -0.00264  -0.00264  -0.00239
   D16        3.14135   0.00003   0.00000   0.00267   0.00267  -3.13917
   D17       -0.00000  -0.00000   0.00000  -0.00002  -0.00002  -0.00003
   D18        3.14159  -0.00000   0.00000  -0.00003  -0.00003   3.14156
   D19        3.14159   0.00000   0.00000   0.00001   0.00001  -3.14159
   D20       -0.00000   0.00000   0.00000   0.00000   0.00000   0.00000
   D21        0.00000  -0.00000   0.00000  -0.00000  -0.00000  -0.00000
   D22        3.14159  -0.00000   0.00000  -0.00000  -0.00000   3.14159
   D23       -3.14159  -0.00000   0.00000  -0.00000  -0.00000   3.14159
   D24       -0.00000   0.00000   0.00000   0.00000   0.00000  -0.00000
   D25       -0.00000   0.00000   0.00000   0.00000   0.00000   0.00000
   D26        3.14159  -0.00000   0.00000   0.00000   0.00000  -3.14159
   D27       -3.14159   0.00000   0.00000  -0.00000  -0.00000  -3.14159
   D28        0.00000  -0.00000   0.00000  -0.00000  -0.00000   0.00000
   D29        3.14157  -0.00000   0.00000  -0.00000  -0.00000   3.14157
   D30        0.00002   0.00000   0.00000  -0.00000  -0.00000   0.00002
   D31       -0.00003   0.00000   0.00000   0.00000   0.00000  -0.00002
   D32       -3.14157   0.00000   0.00000   0.00000   0.00000  -3.14157
         Item               Value     Threshold  Converged?
 Maximum Force            0.005859     0.000450     NO 
 RMS     Force            0.001404     0.000300     NO 
 Maximum Displacement     0.010153     0.001800     NO 
 RMS     Displacement     0.003818     0.001200     NO 
 Predicted change in Energy=-1.230618D-04
 GradGradGradGradGradGradGradGradGradGradGradGradGradGradGradGradGradGrad

                          Input orientation:                          
 ---------------------------------------------------------------------
 Center     Atomic      Atomic             Coordinates (Angstroms)
 Number     Number       Type             X           Y           Z
 ---------------------------------------------------------------------
      1          6           0       -0.021151    1.211233    0.000421
      2          6           0       -0.707233    0.000000    0.000643
      3          6           0       -0.021151   -1.211233    0.000493
      4          6           0        1.359266   -1.210902    0.000187
      5          6           0        2.075631    0.000000   -0.000006
      6          6           0        1.359267    1.210902    0.000116
      7          7           0        3.441857   -0.000000   -0.000303
      8          7           0       -2.158020   -0.000000    0.000994
      9          8           0       -2.737196   -1.082225   -0.001441
     10          8           0       -2.737197    1.082223   -0.001508
     11          1           0       -0.579942    2.138462    0.000522
     12          1           0       -0.579942   -2.138462    0.000647
     13          1           0        1.898386   -2.152944    0.000096
     14          1           0        1.898386    2.152944   -0.000030
     15          1           0        3.961569    0.860627   -0.000462
     16          1           0        3.961569   -0.860627   -0.000410
 ---------------------------------------------------------------------
                    Distance matrix (angstroms):
                    1          2          3          4          5
     1  C    0.000000
     2  C    1.392047   0.000000
     3  C    2.422466   1.392047   0.000000
     4  C    2.787882   2.395142   1.380417   0.000000
     5  C    2.421483   2.782864   2.421483   1.406933   0.000000
     6  C    1.380417   2.395142   2.787882   2.421804   1.406933
     7  N    3.668720   4.149089   3.668720   2.409038   1.366226
     8  N    2.456277   1.450787   2.456277   3.719891   4.233651
     9  O    3.554835   2.300427   2.719108   4.098483   4.933002
    10  O    2.719109   2.300427   3.554835   4.694618   4.933003
    11  H    1.082590   2.142247   3.395983   3.870241   3.409559
    12  H    3.395983   2.142247   1.082590   2.149627   3.409559
    13  H    3.873281   3.380002   2.138093   1.085400   2.160228
    14  H    2.138093   3.380003   3.873281   3.406774   2.160228
    15  H    3.998122   4.747461   4.489394   3.326140   2.073027
    16  H    4.489394   4.747461   3.998122   2.625771   2.073027
                    6          7          8          9         10
     6  C    0.000000
     7  N    2.409038   0.000000
     8  N    3.719891   5.599877   0.000000
     9  O    4.694618   6.273109   1.227461   0.000000
    10  O    4.098484   6.273110   1.227461   2.164448   0.000000
    11  H    2.149628   4.554985   2.657696   3.876412   2.401956
    12  H    3.870241   4.554985   2.657696   2.401954   3.876411
    13  H    3.406774   2.649051   4.592341   4.757631   5.652870
    14  H    1.085400   2.649051   4.592342   5.652870   4.757633
    15  H    2.625770   1.005375   6.179810   6.974820   6.702430
    16  H    3.326140   1.005375   6.179810   6.702429   6.974821
                   11         12         13         14         15
    11  H    0.000000
    12  H    4.276923   0.000000
    13  H    4.955631   2.478370   0.000000
    14  H    2.478371   4.955631   4.305888   0.000000
    15  H    4.717858   5.442413   3.652169   2.434504   0.000000
    16  H    5.442413   4.717858   2.434504   3.652169   1.721254
                   16
    16  H    0.000000
 Stoichiometry    C6H6N2O2
 Framework group  C1[X(C6H6N2O2)]
 Deg. of freedom    42
 Full point group                 C1      NOp   1
 Largest Abelian subgroup         C1      NOp   1
 Largest concise Abelian subgroup C1      NOp   1
                         Standard orientation:                         
 ---------------------------------------------------------------------
 Center     Atomic      Atomic             Coordinates (Angstroms)
 Number     Number       Type             X           Y           Z
 ---------------------------------------------------------------------
      1          6           0       -0.021422   -1.211233   -0.000522
      2          6           0       -0.707504   -0.000000   -0.000744
      3          6           0       -0.021422    1.211233   -0.000594
      4          6           0        1.358995    1.210902   -0.000288
      5          6           0        2.075360   -0.000000   -0.000095
      6          6           0        1.358996   -1.210902   -0.000217
      7          7           0        3.441585    0.000000    0.000202
      8          7           0       -2.158291   -0.000000   -0.001095
      9          8           0       -2.737467    1.082224    0.001340
     10          8           0       -2.737468   -1.082224    0.001406
     11          1           0       -0.580213   -2.138462   -0.000623
     12          1           0       -0.580214    2.138461   -0.000748
     13          1           0        1.898114    2.152944   -0.000197
     14          1           0        1.898115   -2.152944   -0.000071
     15          1           0        3.961298   -0.860627    0.000361
     16          1           0        3.961298    0.860627    0.000309
 ---------------------------------------------------------------------
 Rotational constants (GHZ):      3.9507076      0.8262958      0.6833685
 Standard basis: 6-31+G(d,p) (6D, 7F)
 There are   220 symmetry adapted cartesian basis functions of A   symmetry.
 There are   220 symmetry adapted basis functions of A   symmetry.
   220 basis functions,   362 primitive gaussians,   220 cartesian basis functions
    36 alpha electrons       36 beta electrons
       nuclear repulsion energy       496.5497338991 Hartrees.
 NAtoms=   16 NActive=   16 NUniq=   16 SFac= 1.00D+00 NAtFMM=   60 NAOKFM=F Big=F
 Integral buffers will be    131072 words long.
 Raffenetti 2 integral format.
 Two-electron integral symmetry is turned on.
 Nuclear repulsion after empirical dispersion term =      496.5422524191 Hartrees.
 One-electron integrals computed using PRISM.
 NBasis=   220 RedAO= T EigKep=  3.15D-06  NBF=   220
 NBsUse=   220 1.00D-06 EigRej= -1.00D+00 NBFU=   220
 Initial guess from the checkpoint file:  "camb3lypD3PNA.chk"
 B after Tr=    -0.000000   -0.000000    0.000000
         Rot=    1.000000    0.000000   -0.000057    0.000000 Ang=   0.01 deg.
 Keep R1 ints in memory in canonical form, NReq=596566580.
 Requested convergence on RMS density matrix=1.00D-08 within 128 cycles.
 Requested convergence on MAX density matrix=1.00D-06.
 Requested convergence on             energy=1.00D-06.
 No special actions if energy rises.
 SCF Done:  E(RCAM-B3LYP) =  -491.922223064     A.U. after   12 cycles
            NFock= 12  Conv=0.78D-08     -V/T= 2.0089
 Calling FoFJK, ICntrl=      2127 FMM=F ISym2X=0 I1Cent= 0 IOpClX= 0 NMat=1 NMatS=1 NMatT=0.
 ***** Axes restored to original set *****
 -------------------------------------------------------------------
 Center     Atomic                   Forces (Hartrees/Bohr)
 Number     Number              X              Y              Z
 -------------------------------------------------------------------
      1        6          -0.000716658    0.000137992    0.000033994
      2        6           0.001157640   -0.000000007    0.000174442
      3        6          -0.000716570   -0.000138022    0.000033935
      4        6           0.000503061   -0.000115205   -0.000009868
      5        6          -0.000766630   -0.000000100    0.000003838
      6        6           0.000503078    0.000115281   -0.000009914
      7        7           0.000973404   -0.000000004    0.000000558
      8        7          -0.002893979   -0.000000057   -0.000775925
      9        8           0.001016802    0.000247663    0.000277653
     10        8           0.001016913   -0.000247620    0.000277669
     11        1          -0.000034523    0.000098238    0.000000933
     12        1          -0.000034513   -0.000098190    0.000000951
     13        1           0.000038768   -0.000065376   -0.000003807
     14        1           0.000038744    0.000065384   -0.000003813
     15        1          -0.000042755   -0.000043935   -0.000000321
     16        1          -0.000042783    0.000043958   -0.000000323
 -------------------------------------------------------------------
 Cartesian Forces:  Max     0.002893979 RMS     0.000574982

 GradGradGradGradGradGradGradGradGradGradGradGradGradGradGradGradGradGrad
 Berny optimization.
 Using GEDIIS/GDIIS optimizer.
 FormGI is forming the generalized inverse of G from B-inverse, IUseBI=4.
 Internal  Forces:  Max     0.001205968 RMS     0.000289660
 Search for a local minimum.
 Step number   2 out of a maximum of   82
 All quantities printed in internal units (Hartrees-Bohrs-Radians)
 Mixed Optimization -- En-DIIS/RFO-DIIS
 Update second derivatives using D2CorX and points    1    2
 DE= -1.17D-04 DEPred=-1.23D-04 R= 9.51D-01
 TightC=F SS=  1.41D+00  RLast= 2.29D-02 DXNew= 5.0454D-01 6.8617D-02
 Trust test= 9.51D-01 RLast= 2.29D-02 DXMaxT set to 3.00D-01
 ITU=  1  0
 Use linear search instead of GDIIS.
     Eigenvalues ---    0.01034   0.01055   0.01806   0.01968   0.02043
     Eigenvalues ---    0.02099   0.02130   0.02152   0.02152   0.02182
     Eigenvalues ---    0.02191   0.02236   0.02242   0.15975   0.16000
     Eigenvalues ---    0.16000   0.16000   0.16000   0.16002   0.22000
     Eigenvalues ---    0.22941   0.23758   0.25000   0.25000   0.25000
     Eigenvalues ---    0.26342   0.35198   0.35226   0.35511   0.35574
     Eigenvalues ---    0.37131   0.41254   0.41955   0.45107   0.45226
     Eigenvalues ---    0.46792   0.46806   0.47046   0.50164   0.54909
     Eigenvalues ---    0.84247   0.90722
 RFO step:  Lambda=-4.09660123D-05 EMin= 1.03364348D-02
 Quartic linear search produced a step of -0.04951.
 Iteration  1 RMS(Cart)=  0.00633278 RMS(Int)=  0.00013287
 Iteration  2 RMS(Cart)=  0.00011498 RMS(Int)=  0.00008102
 Iteration  3 RMS(Cart)=  0.00000002 RMS(Int)=  0.00008102
 Variable       Old X    -DE/DX   Delta X   Delta X   Delta X     New X
                                 (Linear)    (Quad)   (Total)
    R1        2.63059   0.00009   0.00037  -0.00143  -0.00106   2.62953
    R2        2.60861   0.00060   0.00026   0.00002   0.00029   2.60890
    R3        2.04580   0.00010   0.00014  -0.00032  -0.00019   2.04561
    R4        2.63059   0.00009   0.00037  -0.00143  -0.00106   2.62953
    R5        2.74159   0.00086  -0.00010   0.00256   0.00246   2.74405
    R6        2.60861   0.00060   0.00026   0.00002   0.00029   2.60890
    R7        2.04580   0.00010   0.00014  -0.00032  -0.00019   2.04561
    R8        2.65872   0.00022   0.00042  -0.00133  -0.00092   2.65780
    R9        2.05111   0.00008   0.00012  -0.00033  -0.00020   2.05090
   R10        2.65872   0.00022   0.00042  -0.00133  -0.00092   2.65780
   R11        2.58179   0.00089  -0.00010   0.00205   0.00195   2.58374
   R12        2.05111   0.00008   0.00012  -0.00033  -0.00020   2.05090
   R13        1.89988  -0.00006  -0.00002  -0.00003  -0.00005   1.89983
   R14        1.89988  -0.00006  -0.00002  -0.00003  -0.00005   1.89983
   R15        2.31956  -0.00070   0.00032  -0.00213  -0.00181   2.31775
   R16        2.31956  -0.00070   0.00032  -0.00213  -0.00181   2.31775
    A1        2.08593  -0.00013   0.00004  -0.00071  -0.00067   2.08526
    A2        2.08386   0.00009  -0.00005   0.00060   0.00055   2.08441
    A3        2.11340   0.00004   0.00001   0.00011   0.00012   2.11352
    A4        2.11085   0.00025  -0.00006   0.00121   0.00115   2.11200
    A5        2.08617  -0.00013   0.00003  -0.00060  -0.00058   2.08559
    A6        2.08617  -0.00013   0.00003  -0.00060  -0.00057   2.08559
    A7        2.08593  -0.00013   0.00004  -0.00071  -0.00067   2.08526
    A8        2.08386   0.00009  -0.00005   0.00060   0.00055   2.08441
    A9        2.11340   0.00004   0.00001   0.00011   0.00012   2.11352
   A10        2.10525  -0.00004   0.00002  -0.00020  -0.00018   2.10508
   A11        2.09035   0.00002  -0.00007   0.00036   0.00030   2.09065
   A12        2.08758   0.00002   0.00005  -0.00017  -0.00012   2.08746
   A13        2.07316   0.00007  -0.00006   0.00060   0.00054   2.07370
   A14        2.10501  -0.00004   0.00003  -0.00030  -0.00027   2.10474
   A15        2.10501  -0.00004   0.00003  -0.00030  -0.00027   2.10474
   A16        2.10525  -0.00004   0.00002  -0.00020  -0.00018   2.10508
   A17        2.09035   0.00002  -0.00007   0.00036   0.00030   2.09065
   A18        2.08758   0.00002   0.00005  -0.00017  -0.00012   2.08746
   A19        2.11406  -0.00001   0.00002  -0.00014  -0.00012   2.11394
   A20        2.11406  -0.00001   0.00002  -0.00014  -0.00012   2.11394
   A21        2.05506   0.00002  -0.00004   0.00028   0.00024   2.05531
   A22        2.06218  -0.00060  -0.00015  -0.00156  -0.00211   2.06007
   A23        2.06218  -0.00060  -0.00015  -0.00156  -0.00211   2.06008
   A24        2.15881   0.00121   0.00030   0.00335   0.00325   2.16206
    D1       -0.00006   0.00001   0.00000   0.00058   0.00059   0.00053
    D2        3.14157   0.00001   0.00000   0.00027   0.00027  -3.14135
    D3        3.14157   0.00001   0.00000   0.00025   0.00025  -3.14137
    D4        0.00001  -0.00000  -0.00000  -0.00007  -0.00007  -0.00006
    D5        0.00003  -0.00001  -0.00000  -0.00028  -0.00028  -0.00025
    D6       -3.14156  -0.00001  -0.00000  -0.00030  -0.00030   3.14132
    D7        3.14159   0.00000   0.00000   0.00006   0.00006  -3.14153
    D8       -0.00000   0.00000   0.00000   0.00004   0.00004   0.00003
    D9        0.00006  -0.00001  -0.00000  -0.00058  -0.00059  -0.00053
   D10       -3.14157  -0.00001  -0.00000  -0.00025  -0.00025   3.14137
   D11       -3.14157  -0.00001  -0.00000  -0.00027  -0.00027   3.14135
   D12       -0.00001   0.00000   0.00000   0.00007   0.00007   0.00006
   D13        3.13917   0.00028   0.00013   0.02523   0.02536  -3.11866
   D14        0.00240  -0.00028  -0.00013  -0.02492  -0.02504  -0.02265
   D15       -0.00239   0.00028   0.00013   0.02492   0.02504   0.02265
   D16       -3.13917  -0.00028  -0.00013  -0.02523  -0.02536   3.11866
   D17       -0.00003   0.00001   0.00000   0.00028   0.00028   0.00025
   D18        3.14156   0.00001   0.00000   0.00030   0.00030  -3.14132
   D19       -3.14159  -0.00000  -0.00000  -0.00006  -0.00006   3.14153
   D20        0.00000  -0.00000  -0.00000  -0.00004  -0.00004  -0.00004
   D21       -0.00000   0.00000   0.00000   0.00002   0.00002   0.00002
   D22        3.14159   0.00000   0.00000   0.00002   0.00002  -3.14158
   D23        3.14159  -0.00000   0.00000  -0.00000  -0.00000   3.14159
   D24       -0.00000  -0.00000  -0.00000  -0.00001  -0.00001  -0.00001
   D25        0.00000  -0.00000  -0.00000  -0.00002  -0.00002  -0.00002
   D26       -3.14159   0.00000  -0.00000   0.00000   0.00000  -3.14159
   D27       -3.14159  -0.00000   0.00000  -0.00002  -0.00002   3.14158
   D28        0.00000   0.00000   0.00000   0.00001   0.00001   0.00001
   D29        3.14157  -0.00000   0.00000  -0.00001  -0.00001   3.14156
   D30        0.00002   0.00000   0.00000   0.00001   0.00001   0.00004
   D31       -0.00002  -0.00000  -0.00000  -0.00001  -0.00001  -0.00004
   D32       -3.14157   0.00000  -0.00000   0.00001   0.00001  -3.14156
         Item               Value     Threshold  Converged?
 Maximum Force            0.001206     0.000450     NO 
 RMS     Force            0.000290     0.000300     YES
 Maximum Displacement     0.028245     0.001800     NO 
 RMS     Displacement     0.006343     0.001200     NO 
 Predicted change in Energy=-2.087961D-05
 GradGradGradGradGradGradGradGradGradGradGradGradGradGradGradGradGradGrad

                          Input orientation:                          
 ---------------------------------------------------------------------
 Center     Atomic      Atomic             Coordinates (Angstroms)
 Number     Number       Type             X           Y           Z
 ---------------------------------------------------------------------
      1          6           0       -0.021636    1.211138   -0.004446
      2          6           0       -0.706743   -0.000000   -0.006251
      3          6           0       -0.021636   -1.211139   -0.004375
      4          6           0        1.358929   -1.210679   -0.001305
      5          6           0        2.074718    0.000000    0.000240
      6          6           0        1.358929    1.210679   -0.001376
      7          7           0        3.441973    0.000000    0.003262
      8          7           0       -2.158830   -0.000001   -0.009792
      9          8           0       -2.735331   -1.082318    0.013505
     10          8           0       -2.735332    1.082318    0.013439
     11          1           0       -0.580397    2.138271   -0.005761
     12          1           0       -0.580396   -2.138271   -0.005636
     13          1           0        1.898361   -2.152417   -0.000090
     14          1           0        1.898361    2.152417   -0.000216
     15          1           0        3.961565    0.860666    0.004355
     16          1           0        3.961565   -0.860665    0.004406
 ---------------------------------------------------------------------
                    Distance matrix (angstroms):
                    1          2          3          4          5
     1  C    0.000000
     2  C    1.391486   0.000000
     3  C    2.422277   1.391485   0.000000
     4  C    2.787682   2.394320   1.380569   0.000000
     5  C    2.421070   2.781469   2.421070   1.406449   0.000000
     6  C    1.380569   2.394321   2.787682   2.421358   1.406449
     7  N    3.669265   4.148727   3.669265   2.409323   1.367259
     8  N    2.456519   1.452091   2.456519   3.720275   4.233560
     9  O    3.553084   2.299341   2.716810   4.096299   4.930331
    10  O    2.716810   2.299341   3.553084   4.692656   4.930331
    11  H    1.082492   2.142001   3.395697   3.869944   3.409086
    12  H    3.395697   2.142001   1.082492   2.149751   3.409086
    13  H    3.872972   3.379275   2.138320   1.085292   2.159630
    14  H    2.138320   3.379275   3.872972   3.406083   2.159629
    15  H    3.998600   4.746995   4.489804   3.326291   2.073874
    16  H    4.489804   4.746995   3.998600   2.626072   2.073874
                    6          7          8          9         10
     6  C    0.000000
     7  N    2.409323   0.000000
     8  N    3.720275   5.600819   0.000000
     9  O    4.692656   6.271412   1.226502   0.000000
    10  O    4.096299   6.271412   1.226502   2.164635   0.000000
    11  H    2.149751   4.555408   2.657757   3.875088   2.399823
    12  H    3.869944   4.555408   2.657757   2.399823   3.875088
    13  H    3.406083   2.648707   4.592797   4.755670   5.651088
    14  H    1.085292   2.648707   4.592798   5.651088   4.755670
    15  H    2.626072   1.005346   6.180629   6.973068   6.700569
    16  H    3.326291   1.005347   6.180630   6.700569   6.973069
                   11         12         13         14         15
    11  H    0.000000
    12  H    4.276542   0.000000
    13  H    4.955227   2.478804   0.000000
    14  H    2.478804   4.955227   4.304833   0.000000
    15  H    4.718240   5.442714   3.651780   2.434225   0.000000
    16  H    5.442714   4.718240   2.434225   3.651780   1.721331
                   16
    16  H    0.000000
 Stoichiometry    C6H6N2O2
 Framework group  C1[X(C6H6N2O2)]
 Deg. of freedom    42
 Full point group                 C1      NOp   1
 Largest Abelian subgroup         C1      NOp   1
 Largest concise Abelian subgroup C1      NOp   1
                         Standard orientation:                         
 ---------------------------------------------------------------------
 Center     Atomic      Atomic             Coordinates (Angstroms)
 Number     Number       Type             X           Y           Z
 ---------------------------------------------------------------------
      1          6           0       -0.022063   -1.211139    0.005290
      2          6           0       -0.707168    0.000000    0.007791
      3          6           0       -0.022063    1.211139    0.005291
      4          6           0        1.358498    1.210679    0.000891
      5          6           0        2.074285    0.000000   -0.001379
      6          6           0        1.358499   -1.210679    0.000890
      7          7           0        3.441537    0.000000   -0.005718
      8          7           0       -2.159251    0.000000    0.012730
      9          8           0       -2.735774    1.082318   -0.009979
     10          8           0       -2.735774   -1.082318   -0.009977
     11          1           0       -0.580822   -2.138271    0.007116
     12          1           0       -0.580822    2.138271    0.007117
     13          1           0        1.897929    2.152417   -0.000815
     14          1           0        1.897929   -2.152417   -0.000817
     15          1           0        3.961127   -0.860665   -0.007337
     16          1           0        3.961127    0.860666   -0.007337
 ---------------------------------------------------------------------
 Rotational constants (GHZ):      3.9510342      0.8267405      0.6836963
 Standard basis: 6-31+G(d,p) (6D, 7F)
 There are   220 symmetry adapted cartesian basis functions of A   symmetry.
 There are   220 symmetry adapted basis functions of A   symmetry.
   220 basis functions,   362 primitive gaussians,   220 cartesian basis functions
    36 alpha electrons       36 beta electrons
       nuclear repulsion energy       496.6446435586 Hartrees.
 NAtoms=   16 NActive=   16 NUniq=   16 SFac= 1.00D+00 NAtFMM=   60 NAOKFM=F Big=F
 Integral buffers will be    131072 words long.
 Raffenetti 2 integral format.
 Two-electron integral symmetry is turned on.
 Nuclear repulsion after empirical dispersion term =      496.6371639485 Hartrees.
 One-electron integrals computed using PRISM.
 NBasis=   220 RedAO= T EigKep=  3.14D-06  NBF=   220
 NBsUse=   220 1.00D-06 EigRej= -1.00D+00 NBFU=   220
 Initial guess from the checkpoint file:  "camb3lypD3PNA.chk"
 B after Tr=     0.000000    0.000000   -0.000000
         Rot=    1.000000   -0.000015    0.000059   -0.000000 Ang=  -0.01 deg.
 ExpMin= 4.38D-02 ExpMax= 5.48D+03 ExpMxC= 8.25D+02 IAcc=2 IRadAn=         4 AccDes= 0.00D+00
 Harris functional with IExCor=20419 and IRadAn=       4 diagonalized for initial guess.
 HarFok:  IExCor=20419 AccDes= 0.00D+00 IRadAn=         4 IDoV= 1 UseB2=F ITyADJ=14
 ICtDFT=  3500011 ScaDFX=  1.000000  1.000000  1.000000  1.000000
 FoFCou: FMM=F IPFlag=           0 FMFlag=      100000 FMFlg1=           0
         NFxFlg=           0 DoJE=T BraDBF=F KetDBF=T FulRan=T
         wScrn=  0.000000 ICntrl=     500 IOpCl=  0 I1Cent=   200000004 NGrid=           0
         NMat0=    1 NMatS0=      1 NMatT0=    0 NMatD0=    1 NMtDS0=    0 NMtDT0=    0
 Petite list used in FoFCou.
 Keep R1 ints in memory in canonical form, NReq=596566580.
 Requested convergence on RMS density matrix=1.00D-08 within 128 cycles.
 Requested convergence on MAX density matrix=1.00D-06.
 Requested convergence on             energy=1.00D-06.
 No special actions if energy rises.
 SCF Done:  E(RCAM-B3LYP) =  -491.922108874     A.U. after   12 cycles
            NFock= 12  Conv=0.68D-08     -V/T= 2.0089
 Calling FoFJK, ICntrl=      2127 FMM=F ISym2X=0 I1Cent= 0 IOpClX= 0 NMat=1 NMatS=1 NMatT=0.
 ***** Axes restored to original set *****
 -------------------------------------------------------------------
 Center     Atomic                   Forces (Hartrees/Bohr)
 Number     Number              X              Y              Z
 -------------------------------------------------------------------
      1        6          -0.000309243    0.000325700   -0.000320290
      2        6           0.000359387    0.000000054   -0.001664280
      3        6          -0.000309399   -0.000325818   -0.000320289
      4        6           0.000317312   -0.000317229    0.000093995
      5        6           0.000320377    0.000000024   -0.000035936
      6        6           0.000317105    0.000317112    0.000093952
      7        7           0.000252116   -0.000000129   -0.000004903
      8        7          -0.000364120    0.000000192    0.007304050
      9        8          -0.000235018   -0.000479986   -0.002602595
     10        8          -0.000235014    0.000479837   -0.002602616
     11        1          -0.000063795    0.000135395   -0.000009483
     12        1          -0.000063768   -0.000135355   -0.000009468
     13        1           0.000047681   -0.000145838    0.000036306
     14        1           0.000047717    0.000145926    0.000036299
     15        1          -0.000040635   -0.000040077    0.000002637
     16        1          -0.000040702    0.000040193    0.000002622
 -------------------------------------------------------------------
 Cartesian Forces:  Max     0.007304050 RMS     0.001223014

 GradGradGradGradGradGradGradGradGradGradGradGradGradGradGradGradGradGrad
 Berny optimization.
 Using GEDIIS/GDIIS optimizer.
 FormGI is forming the generalized inverse of G from B-inverse, IUseBI=4.
 Internal  Forces:  Max     0.002699764 RMS     0.000664005
 Search for a local minimum.
 Step number   3 out of a maximum of   82
 All quantities printed in internal units (Hartrees-Bohrs-Radians)
 Mixed Optimization -- En-DIIS/RFO-DIIS
 Swapping is turned off.
 Update second derivatives using D2CorX and points    1    2    3
 DE=  1.14D-04 DEPred=-2.09D-05 R=-5.47D+00
 Trust test=-5.47D+00 RLast= 5.09D-02 DXMaxT set to 1.50D-01
 ITU= -1  1  0
     Eigenvalues ---    0.01034   0.01806   0.01968   0.02043   0.02099
     Eigenvalues ---    0.02130   0.02152   0.02152   0.02179   0.02191
     Eigenvalues ---    0.02236   0.02242   0.09669   0.13783   0.16000
     Eigenvalues ---    0.16000   0.16000   0.16000   0.16006   0.16750
     Eigenvalues ---    0.22000   0.23028   0.24897   0.25000   0.25000
     Eigenvalues ---    0.25000   0.28147   0.35198   0.35297   0.35511
     Eigenvalues ---    0.35879   0.40962   0.41515   0.41956   0.45108
     Eigenvalues ---    0.46792   0.46799   0.47045   0.48808   0.53914
     Eigenvalues ---    0.73412   0.90722
 En-DIIS/RFO-DIIS IScMMF=        0 using points:     3    2
 RFO step:  Lambda=-8.71359147D-05.
 DidBck=T Rises=F RFO-DIIS coefs:    0.13334    0.86666
 Iteration  1 RMS(Cart)=  0.00579435 RMS(Int)=  0.00008886
 Iteration  2 RMS(Cart)=  0.00009713 RMS(Int)=  0.00000204
 Iteration  3 RMS(Cart)=  0.00000001 RMS(Int)=  0.00000204
 Variable       Old X    -DE/DX   Delta X   Delta X   Delta X     New X
                                 (Linear)    (Quad)   (Total)
    R1        2.62953   0.00051   0.00092  -0.00106  -0.00014   2.62938
    R2        2.60890   0.00061  -0.00025   0.00044   0.00019   2.60909
    R3        2.04561   0.00015   0.00016  -0.00016  -0.00000   2.04561
    R4        2.62953   0.00051   0.00092  -0.00106  -0.00014   2.62938
    R5        2.74405   0.00083  -0.00214   0.00295   0.00081   2.74487
    R6        2.60890   0.00061  -0.00025   0.00044   0.00019   2.60909
    R7        2.04561   0.00015   0.00016  -0.00016  -0.00000   2.04561
    R8        2.65780   0.00053   0.00079  -0.00090  -0.00010   2.65770
    R9        2.05090   0.00015   0.00018  -0.00018  -0.00001   2.05090
   R10        2.65780   0.00053   0.00079  -0.00090  -0.00010   2.65770
   R11        2.58374   0.00017  -0.00169   0.00218   0.00049   2.58423
   R12        2.05090   0.00015   0.00018  -0.00018  -0.00001   2.05090
   R13        1.89983  -0.00006   0.00005  -0.00007  -0.00002   1.89981
   R14        1.89983  -0.00006   0.00005  -0.00007  -0.00002   1.89981
   R15        2.31775   0.00048   0.00157  -0.00195  -0.00038   2.31737
   R16        2.31775   0.00048   0.00157  -0.00195  -0.00038   2.31737
    A1        2.08526  -0.00001   0.00058  -0.00074  -0.00016   2.08510
    A2        2.08441   0.00002  -0.00048   0.00062   0.00014   2.08455
    A3        2.11352  -0.00001  -0.00010   0.00012   0.00002   2.11353
    A4        2.11200   0.00002  -0.00100   0.00127   0.00027   2.11227
    A5        2.08559  -0.00001   0.00050  -0.00064  -0.00014   2.08546
    A6        2.08559  -0.00001   0.00050  -0.00064  -0.00014   2.08546
    A7        2.08526  -0.00001   0.00058  -0.00074  -0.00016   2.08510
    A8        2.08441   0.00002  -0.00048   0.00062   0.00014   2.08455
    A9        2.11352  -0.00001  -0.00010   0.00012   0.00002   2.11353
   A10        2.10508  -0.00001   0.00015  -0.00020  -0.00005   2.10503
   A11        2.09065  -0.00003  -0.00026   0.00031   0.00005   2.09070
   A12        2.08746   0.00004   0.00010  -0.00011  -0.00000   2.08746
   A13        2.07370   0.00002  -0.00047   0.00060   0.00013   2.07383
   A14        2.10474  -0.00001   0.00023  -0.00030  -0.00007   2.10468
   A15        2.10474  -0.00001   0.00023  -0.00030  -0.00007   2.10468
   A16        2.10508  -0.00001   0.00015  -0.00020  -0.00005   2.10503
   A17        2.09065  -0.00003  -0.00026   0.00031   0.00005   2.09070
   A18        2.08746   0.00004   0.00010  -0.00011  -0.00000   2.08746
   A19        2.11394  -0.00001   0.00011  -0.00014  -0.00004   2.11390
   A20        2.11394  -0.00001   0.00011  -0.00014  -0.00004   2.11390
   A21        2.05531   0.00002  -0.00021   0.00028   0.00007   2.05538
   A22        2.06007   0.00009   0.00183  -0.00191  -0.00007   2.06001
   A23        2.06008   0.00009   0.00183  -0.00191  -0.00007   2.06001
   A24        2.16206   0.00005  -0.00282   0.00392   0.00111   2.16317
    D1        0.00053  -0.00012  -0.00051  -0.00003  -0.00054  -0.00001
    D2       -3.14135  -0.00007  -0.00023  -0.00002  -0.00025   3.14159
    D3       -3.14137  -0.00005  -0.00022  -0.00001  -0.00023   3.14159
    D4       -0.00006   0.00001   0.00006  -0.00000   0.00005  -0.00000
    D5       -0.00025   0.00006   0.00024   0.00001   0.00025   0.00000
    D6        3.14132   0.00007   0.00026   0.00002   0.00028  -3.14159
    D7       -3.14153  -0.00002  -0.00006  -0.00000  -0.00006   3.14159
    D8        0.00003  -0.00001  -0.00003  -0.00000  -0.00003   0.00000
    D9       -0.00053   0.00012   0.00051   0.00003   0.00054   0.00001
   D10        3.14137   0.00005   0.00022   0.00001   0.00023  -3.14159
   D11        3.14135   0.00007   0.00023   0.00002   0.00025  -3.14159
   D12        0.00006  -0.00001  -0.00006   0.00000  -0.00005   0.00000
   D13       -3.11866  -0.00270  -0.02197  -0.00133  -0.02331   3.14122
   D14       -0.02265   0.00264   0.02170   0.00132   0.02303   0.00038
   D15        0.02265  -0.00264  -0.02170  -0.00132  -0.02303  -0.00038
   D16        3.11866   0.00270   0.02197   0.00133   0.02331  -3.14121
   D17        0.00025  -0.00006  -0.00024  -0.00001  -0.00025  -0.00000
   D18       -3.14132  -0.00007  -0.00026  -0.00002  -0.00028   3.14159
   D19        3.14153   0.00002   0.00006   0.00000   0.00006  -3.14159
   D20       -0.00004   0.00001   0.00003   0.00000   0.00003  -0.00000
   D21        0.00002  -0.00000  -0.00002  -0.00000  -0.00002  -0.00000
   D22       -3.14158  -0.00000  -0.00002  -0.00000  -0.00002   3.14159
   D23        3.14159   0.00000   0.00000   0.00000   0.00000  -3.14159
   D24       -0.00001   0.00000   0.00001  -0.00000   0.00000  -0.00000
   D25       -0.00002   0.00000   0.00002   0.00000   0.00002   0.00000
   D26       -3.14159  -0.00000  -0.00000  -0.00000  -0.00000   3.14159
   D27        3.14158   0.00000   0.00002   0.00000   0.00002  -3.14159
   D28        0.00001  -0.00000  -0.00001   0.00000  -0.00000   0.00000
   D29        3.14156   0.00000   0.00001  -0.00000   0.00001   3.14157
   D30        0.00004  -0.00000  -0.00001   0.00000  -0.00001   0.00003
   D31       -0.00004   0.00000   0.00001  -0.00000   0.00001  -0.00003
   D32       -3.14156  -0.00000  -0.00001   0.00000  -0.00001  -3.14157
         Item               Value     Threshold  Converged?
 Maximum Force            0.002700     0.000450     NO 
 RMS     Force            0.000664     0.000300     NO 
 Maximum Displacement     0.025968     0.001800     NO 
 RMS     Displacement     0.005794     0.001200     NO 
 Predicted change in Energy=-1.241388D-04
 GradGradGradGradGradGradGradGradGradGradGradGradGradGradGradGradGradGrad

                          Input orientation:                          
 ---------------------------------------------------------------------
 Center     Atomic      Atomic             Coordinates (Angstroms)
 Number     Number       Type             X           Y           Z
 ---------------------------------------------------------------------
      1          6           0       -0.021712    1.211167    0.000027
      2          6           0       -0.706618   -0.000000    0.000081
      3          6           0       -0.021712   -1.211167    0.000098
      4          6           0        1.358957   -1.210680    0.000066
      5          6           0        2.074639    0.000000    0.000015
      6          6           0        1.358957    1.210680   -0.000005
      7          7           0        3.442157    0.000000   -0.000011
      8          7           0       -2.159140   -0.000000    0.000124
      9          8           0       -2.735414   -1.082462   -0.000237
     10          8           0       -2.735414    1.082462   -0.000303
     11          1           0       -0.580469    2.138300    0.000013
     12          1           0       -0.580469   -2.138300    0.000138
     13          1           0        1.898455   -2.152376    0.000082
     14          1           0        1.898455    2.152376   -0.000044
     15          1           0        3.961713    0.860673   -0.000069
     16          1           0        3.961713   -0.860672   -0.000018
 ---------------------------------------------------------------------
                    Distance matrix (angstroms):
                    1          2          3          4          5
     1  C    0.000000
     2  C    1.391410   0.000000
     3  C    2.422334   1.391410   0.000000
     4  C    2.787757   2.394232   1.380669   0.000000
     5  C    2.421077   2.781257   2.421077   1.406395   0.000000
     6  C    1.380669   2.394232   2.787757   2.421360   1.406395
     7  N    3.669511   4.148775   3.669511   2.409454   1.367518
     8  N    2.456730   1.452522   2.456730   3.720584   4.233778
     9  O    3.553155   2.299508   2.716752   4.096378   4.930348
    10  O    2.716752   2.299508   3.553155   4.692800   4.930348
    11  H    1.082490   2.142018   3.395753   3.870018   3.409094
    12  H    3.395753   2.142018   1.082490   2.149849   3.409094
    13  H    3.873044   3.379220   2.138438   1.085288   2.159575
    14  H    2.138438   3.379220   3.873044   3.406054   2.159575
    15  H    3.998815   4.747006   4.490010   3.326385   2.074079
    16  H    4.490010   4.747006   3.998814   2.626184   2.074079
                    6          7          8          9         10
     6  C    0.000000
     7  N    2.409454   0.000000
     8  N    3.720585   5.601296   0.000000
     9  O    4.692800   6.271690   1.226302   0.000000
    10  O    4.096378   6.271690   1.226302   2.164924   0.000000
    11  H    2.149849   4.555639   2.657918   3.875189   2.399704
    12  H    3.870018   4.555639   2.657918   2.399704   3.875189
    13  H    3.406055   2.648724   4.593125   4.755781   5.651276
    14  H    1.085288   2.648724   4.593125   5.651276   4.755781
    15  H    2.626184   1.005334   6.181067   6.973326   6.700798
    16  H    3.326385   1.005334   6.181067   6.700798   6.973326
                   11         12         13         14         15
    11  H    0.000000
    12  H    4.276600   0.000000
    13  H    4.955297   2.478964   0.000000
    14  H    2.478965   4.955297   4.304753   0.000000
    15  H    4.718448   5.442908   3.651780   2.434241   0.000000
    16  H    5.442909   4.718448   2.434241   3.651780   1.721345
                   16
    16  H    0.000000
 Stoichiometry    C6H6N2O2
 Framework group  C1[X(C6H6N2O2)]
 Deg. of freedom    42
 Full point group                 C1      NOp   1
 Largest Abelian subgroup         C1      NOp   1
 Largest concise Abelian subgroup C1      NOp   1
                         Standard orientation:                         
 ---------------------------------------------------------------------
 Center     Atomic      Atomic             Coordinates (Angstroms)
 Number     Number       Type             X           Y           Z
 ---------------------------------------------------------------------
      1          6           0       -0.022114   -1.211167   -0.000051
      2          6           0       -0.707020    0.000000   -0.000105
      3          6           0       -0.022114    1.211167   -0.000122
      4          6           0        1.358555    1.210680   -0.000090
      5          6           0        2.074237    0.000000   -0.000039
      6          6           0        1.358555   -1.210680   -0.000019
      7          7           0        3.441754    0.000000   -0.000013
      8          7           0       -2.159542    0.000000   -0.000148
      9          8           0       -2.735816    1.082462    0.000213
     10          8           0       -2.735816   -1.082462    0.000279
     11          1           0       -0.580872   -2.138300   -0.000037
     12          1           0       -0.580872    2.138300   -0.000162
     13          1           0        1.898053    2.152376   -0.000106
     14          1           0        1.898053   -2.152376    0.000020
     15          1           0        3.961310   -0.860672    0.000045
     16          1           0        3.961310    0.860673   -0.000006
 ---------------------------------------------------------------------
 Rotational constants (GHZ):      3.9509076      0.8266851      0.6836406
 Standard basis: 6-31+G(d,p) (6D, 7F)
 There are   220 symmetry adapted cartesian basis functions of A   symmetry.
 There are   220 symmetry adapted basis functions of A   symmetry.
   220 basis functions,   362 primitive gaussians,   220 cartesian basis functions
    36 alpha electrons       36 beta electrons
       nuclear repulsion energy       496.6348640844 Hartrees.
 NAtoms=   16 NActive=   16 NUniq=   16 SFac= 1.00D+00 NAtFMM=   60 NAOKFM=F Big=F
 Integral buffers will be    131072 words long.
 Raffenetti 2 integral format.
 Two-electron integral symmetry is turned on.
 Nuclear repulsion after empirical dispersion term =      496.6273843911 Hartrees.
 One-electron integrals computed using PRISM.
 NBasis=   220 RedAO= T EigKep=  3.14D-06  NBF=   220
 NBsUse=   220 1.00D-06 EigRej= -1.00D+00 NBFU=   220
 Initial guess from the checkpoint file:  "camb3lypD3PNA.chk"
 B after Tr=    -0.000000   -0.000000    0.000000
         Rot=    1.000000    0.000015   -0.000015   -0.000000 Ang=   0.00 deg.
 ExpMin= 4.38D-02 ExpMax= 5.48D+03 ExpMxC= 8.25D+02 IAcc=2 IRadAn=         4 AccDes= 0.00D+00
 Harris functional with IExCor=20419 and IRadAn=       4 diagonalized for initial guess.
 HarFok:  IExCor=20419 AccDes= 0.00D+00 IRadAn=         4 IDoV= 1 UseB2=F ITyADJ=14
 ICtDFT=  3500011 ScaDFX=  1.000000  1.000000  1.000000  1.000000
 FoFCou: FMM=F IPFlag=           0 FMFlag=      100000 FMFlg1=           0
         NFxFlg=           0 DoJE=T BraDBF=F KetDBF=T FulRan=T
         wScrn=  0.000000 ICntrl=     500 IOpCl=  0 I1Cent=   200000004 NGrid=           0
         NMat0=    1 NMatS0=      1 NMatT0=    0 NMatD0=    1 NMtDS0=    0 NMtDT0=    0
 Petite list used in FoFCou.
 Keep R1 ints in memory in canonical form, NReq=596566580.
 Requested convergence on RMS density matrix=1.00D-08 within 128 cycles.
 Requested convergence on MAX density matrix=1.00D-06.
 Requested convergence on             energy=1.00D-06.
 No special actions if energy rises.
 SCF Done:  E(RCAM-B3LYP) =  -491.922230826     A.U. after   12 cycles
            NFock= 12  Conv=0.53D-08     -V/T= 2.0089
 Calling FoFJK, ICntrl=      2127 FMM=F ISym2X=0 I1Cent= 0 IOpClX= 0 NMat=1 NMatS=1 NMatT=0.
 ***** Axes restored to original set *****
 -------------------------------------------------------------------
 Center     Atomic                   Forces (Hartrees/Bohr)
 Number     Number              X              Y              Z
 -------------------------------------------------------------------
      1        6          -0.000191274    0.000336261    0.000005089
      2        6           0.000079088    0.000000124    0.000028155
      3        6          -0.000191452   -0.000336370    0.000005087
[...]
 ! A20   A(5,7,16)             121.1161         -DE/DX =    0.0                 !
 ! A21   A(15,7,16)            117.7679         -DE/DX =    0.0                 !
 ! A22   A(2,8,9)              118.0435         -DE/DX =    0.0                 !
 ! A23   A(2,8,10)             118.0435         -DE/DX =    0.0                 !
 ! A24   A(9,8,10)             123.9131         -DE/DX =    0.0                 !
 ! D1    D(6,1,2,3)              0.0            -DE/DX =    0.0                 !
 ! D2    D(6,1,2,8)           -180.0001         -DE/DX =    0.0                 !
 ! D3    D(11,1,2,3)           180.0            -DE/DX =    0.0                 !
 ! D4    D(11,1,2,8)            -0.0001         -DE/DX =    0.0                 !
 ! D5    D(2,1,6,5)              0.0            -DE/DX =    0.0                 !
 ! D6    D(2,1,6,14)          -180.0            -DE/DX =    0.0                 !
 ! D7    D(11,1,6,5)          -180.0            -DE/DX =    0.0                 !
 ! D8    D(11,1,6,14)            0.0            -DE/DX =    0.0                 !
 ! D9    D(1,2,3,4)              0.0            -DE/DX =    0.0                 !
 ! D10   D(1,2,3,12)          -180.0            -DE/DX =    0.0                 !
 ! D11   D(8,2,3,4)            180.0001         -DE/DX =    0.0                 !
 ! D12   D(8,2,3,12)             0.0001         -DE/DX =    0.0                 !
 ! D13   D(1,2,8,9)           -180.0            -DE/DX =    0.0                 !
 ! D14   D(1,2,8,10)             0.0003         -DE/DX =    0.0                 !
 ! D15   D(3,2,8,9)             -0.0002         -DE/DX =    0.0                 !
 ! D16   D(3,2,8,10)          -179.9998         -DE/DX =    0.0                 !
 ! D17   D(2,3,4,5)              0.0            -DE/DX =    0.0                 !
 ! D18   D(2,3,4,13)           180.0            -DE/DX =    0.0                 !
 ! D19   D(12,3,4,5)           180.0            -DE/DX =    0.0                 !
 ! D20   D(12,3,4,13)            0.0            -DE/DX =    0.0                 !
 ! D21   D(3,4,5,6)              0.0            -DE/DX =    0.0                 !
 ! D22   D(3,4,5,7)            179.9998         -DE/DX =    0.0                 !
 ! D23   D(13,4,5,6)          -180.0            -DE/DX =    0.0                 !
 ! D24   D(13,4,5,7)            -0.0002         -DE/DX =    0.0                 !
 ! D25   D(4,5,6,1)              0.0            -DE/DX =    0.0                 !
 ! D26   D(4,5,6,14)           180.0            -DE/DX =    0.0                 !
 ! D27   D(7,5,6,1)           -179.9998         -DE/DX =    0.0                 !
 ! D28   D(7,5,6,14)             0.0002         -DE/DX =    0.0                 !
 ! D29   D(4,5,7,15)           179.9985         -DE/DX =    0.0                 !
 ! D30   D(4,5,7,16)             0.0016         -DE/DX =    0.0                 !
 ! D31   D(6,5,7,15)            -0.0017         -DE/DX =    0.0                 !
 ! D32   D(6,5,7,16)          -179.9985         -DE/DX =    0.0                 !
 --------------------------------------------------------------------------------
 GradGradGradGradGradGradGradGradGradGradGradGradGradGradGradGradGradGrad

 1\1\ WCSS.PL-BEM-JP\Freq\RCAM-B3LYP\6-31+G(d,p)\C6H6N2O2\C612\17-Dec-2
 024\0\\#N Geom=AllCheck Guess=TCheck SCRF=Check GenChk RCAM-B3LYP/6-31
 +G(d,p) Freq\\[No Title]\\0,1\C,-0.0217359702,1.2115820622,-0.00004516
 85\C,-0.7069531412,-0.0000001383,-0.0000195056\C,-0.0217358476,-1.2115
 82241,0.0000257035\C,1.3593876906,-1.2111362034,0.0000444172\C,2.07536
 09386,0.0000000035,0.0000190509\C,1.3593876106,1.2111361682,-0.0000263
 762\N,3.4428226946,0.000000064,0.0000418636\N,-2.1600645544,-0.0000001
 838,-0.000037865\O,-2.7367542697,-1.0826135993,-0.0000153331\O,-2.7367
 543653,1.0826131837,-0.0000812352\H,-0.5805425958,2.1388929419,-0.0000
 800189\H,-0.5805424009,-2.1388931766,0.0000451632\H,1.8987799318,-2.15
 31026362,0.0000798784\H,1.8987797329,2.1531026329,-0.0000459976\H,3.96
 2331237,0.8606534676,0.0000009894\H,3.9623313089,-0.860653326,0.000052
 434\\Version=ES64L-G09RevE.01\State=1-A\HF=-491.9222336\RMSD=5.008e-09
 \RMSF=4.529e-05\ZeroPoint=0.1205049\Thermal=0.1283846\Dipole=2.9909741
 ,0.000001,0.0000152\DipoleDeriv=0.5704565,0.114768,0.0000056,0.3115601
 ,0.0777848,0.0000009,-0.0000002,-0.0000021,-0.0383409,-1.1401486,0.000
 0004,-0.0000165,0.0000002,-0.2035551,0.0000057,-0.0000143,0.0000057,-0
 .0117008,0.5704562,-0.1147686,0.0000121,-0.3115603,0.0777848,-0.000007
 7,0.0000185,-0.0000049,-0.0383418,-0.6873532,-0.0258751,-0.0000063,-0.
 5922038,0.0110579,-0.0000163,0.0000128,-0.0000074,-0.2114696,2.1775243
 ,0.,0.0000338,0.0000002,0.1290796,0.0000011,0.0000361,0.000001,0.16108
 56,-0.687353,0.0258754,-0.0000078,0.5922038,0.0110581,0.0000032,-0.000
 0223,-0.0000057,-0.2114696,-1.9531575,0.,-0.0000281,-0.0000001,-0.1663
 444,-0.0000137,-0.0000635,-0.0000138,-0.627483,2.4879731,0.,0.0000306,
 0.,1.6504839,-0.0000426,0.0000297,-0.0000424,0.2624097,-0.9906562,-0.3
 959825,0.0000024,-0.4567483,-0.9802075,0.000016,0.0000031,0.0000145,-0
 .2677602,-0.9906562,0.3959824,-0.0000218,0.4567483,-0.980207,0.0000275
 ,-0.0000246,0.0000289,-0.2677602,0.1112533,0.0352864,-0.0000014,0.0230
 363,0.0627558,0.0000025,-0.0000012,0.0000029,0.1398859,0.1112533,-0.03
 52863,0.0000007,-0.0230363,0.0627558,0.0000019,0.,0.0000018,0.1398859,
 -0.0062314,0.0754872,-0.0000043,0.0739845,-0.0281019,0.0000061,-0.0000
 045,0.0000061,0.1478681,-0.0062314,-0.0754872,0.0000002,-0.0739845,-0.
 028102,0.0000042,0.,0.0000042,0.1478681,0.2164354,0.0481215,-0.0000011
 ,0.0874755,0.1518786,0.0000092,0.0000128,0.0000101,0.3376614,0.2164354
 ,-0.0481214,0.0000019,-0.0874755,0.1518786,0.0000018,0.0000174,0.00000
 1,0.3376614\Polar=146.4750483,-0.0000014,97.9343873,0.0013596,-0.00141
 83,50.0106044\PG=C01 [X(C6H6N2O2)]\NImag=1\\0.74010274,-0.04120604,0.7
 4389870,0.00000935,-0.00001808,0.14271845,-0.15097856,-0.11130408,0.00
 000199,0.58829751,-0.04954094,-0.29908881,0.00000623,-0.00000013,0.771
 95755,0.00000022,0.00000544,-0.05944185,0.00000635,-0.00001901,0.12425
 332,0.05872018,0.02471701,0.00000001,-0.15097868,0.04954104,-0.0000026
 6,0.74010299,-0.02471700,-0.05881903,0.00000157,0.11130423,-0.29908894
 ,0.00000857,0.04120594,0.74389875,0.00000144,0.00000217,0.00543062,-0.
 00000452,0.00000779,-0.05944216,0.00000691,-0.00001704,0.14271875,-0.0
 4705738,-0.03285551,0.00000035,-0.03941798,0.07709493,-0.00000288,-0.3
 8238427,-0.03374170,-0.00000337,0.74860867,-0.02080443,-0.01803014,0.0
 0000019,0.01850037,0.03328310,-0.00000059,0.03598721,-0.13347059,0.000
 00269,-0.04199333,0.70930459,0.00000004,0.00000008,-0.00159440,-0.0000
 0113,0.00000016,0.00563322,-0.00000556,0.00000177,-0.05793291,0.000009
 93,-0.00001766,0.12474616,-0.03461832,0.03021683,-0.00000133,0.0193309
 5,0.00000001,0.00000033,-0.03461828,-0.03021683,0.00000044,-0.15945063
 ,-0.09810906,0.00000173,0.75239989,0.08278946,0.04596698,-0.00000024,0
 .,-0.07903016,0.00000220,-0.08278946,0.04596698,-0.00000246,-0.0315138
 4,-0.27715968,0.00000554,0.00000003,0.70232479,-0.00000297,-0.00000093
 ,-0.00003089,0.00000048,0.00000218,-0.00431746,0.00000186,-0.00000175,
 -0.00003080,-0.00000025,0.00000479,-0.07037838,0.00000754,-0.00001561,
 0.16946461,-0.38238406,0.03374163,-0.00000537,-0.03941798,-0.07709494,
 0.00000162,-0.04705740,0.03285551,-0.00000158,0.06027477,0.01613428,0.
 00000024,-0.15945063,0.03151383,-0.00000209,0.74860847,-0.03598720,-0.
 13347063,0.00000171,-0.01850041,0.03328309,-0.00000103,0.02080442,-0.0
 1803012,0.00000076,-0.01613427,-0.04268844,0.00000120,0.09810904,-0.27
 715966,0.00000730,0.04199339,0.70930468,-0.00000345,0.00000261,-0.0579
 3286,-0.00000004,-0.00000178,0.00563323,-0.00000119,0.00000089,-0.0015
 9451,0.00000117,0.00000165,0.00645774,-0.00000400,0.00000654,-0.070378
 39,0.00000749,-0.00001646,0.12474621,0.01275093,0.00206307,0.00000007,
 -0.02046975,0.,-0.00000026,0.01275093,-0.00206306,0.00000020,-0.046496
 10,-0.01966655,-0.00000031,-0.36056608,-0.00000001,-0.00000563,-0.0464
 9612,0.01966655,-0.00000147,0.79329465,-0.00696708,-0.01085930,0.00000
 043,0.,0.00822493,-0.00000027,0.00696708,-0.01085930,0.00000047,-0.050
 74661,0.00182199,-0.00000056,-0.00000001,-0.13326751,0.00000279,0.0507
 4661,0.00182199,0.00000105,0.00000004,0.88963478,0.00000064,0.00000045
 ,0.00450861,-0.00000079,-0.00000026,-0.00095749,0.00000025,0.00000044,
 0.00450861,0.00000041,-0.00000045,0.01028035,-0.00000211,0.00000281,-0
 .03915194,-0.00000256,0.00000094,0.01028034,-0.00000268,-0.00002630,0.
 00969865,-0.04390482,-0.02177618,0.00000014,-0.14372460,0.00000006,-0.
 00000073,-0.04390468,0.02177615,-0.00000115,0.01534899,0.01007344,-0.0
 0000024,-0.01940918,0.,-0.00000036,0.01534899,-0.01007345,0.00000036,0
 .01814956,0.,0.00000069,0.69728402,-0.02607294,0.01487128,-0.00000094,
 0.00000006,-0.11688211,0.00000126,0.02607285,0.01487131,-0.00000031,0.
 00514254,-0.00747575,0.00000052,0.,-0.00484337,0.00000008,-0.00514251,
 -0.00747575,0.00000040,0.,0.00009441,-0.00000002,0.00000003,1.00166205
 ,0.00000021,-0.00000095,-0.00629312,-0.00000100,0.00000123,-0.07373024
 ,-0.00000129,-0.00000029,-0.00629293,-0.00000006,0.00000059,0.00810017
 ,-0.00000024,0.00000009,-0.00191651,0.00000025,0.00000032,0.00810017,0
 .00000025,-0.00000002,-0.00052410,0.00000732,-0.00002322,0.23449947,-0
 .00231726,0.00791840,-0.00000032,-0.04065392,-0.05106310,0.00000060,-0
 .00154401,-0.00301399,0.00000005,-0.00204441,-0.00256119,0.00000006,0.
 00501605,-0.00200044,0.00000015,-0.00482767,0.00016686,-0.00000005,-0.
 00498003,0.00031169,-0.00000019,-0.24840852,-0.18995739,0.00000304,0.2
 5557198,0.00140624,0.00345348,0.00000004,-0.03829834,-0.01051917,0.000
 00027,0.01118513,-0.00867278,0.00000047,-0.00424705,0.00001947,-0.0000
 0006,0.00478373,-0.00004047,0.00000011,-0.00261976,0.00275958,-0.00000
 015,-0.00405848,0.00055136,-0.00000018,-0.18800639,-0.44375609,0.00000
 791,0.22945161,0.57714466,-0.00000013,0.00000014,0.00429320,0.00000040
 ,0.00000014,0.01823143,-0.00000037,0.00000025,0.00176912,0.00000010,-0
 .00000005,-0.00068304,-0.00000008,-0.00000001,0.00035460,0.00000003,-0
 .00000012,-0.00112350,0.00000005,0.,0.00005116,0.00000282,0.00000767,-
 0.07819824,-0.00000339,-0.00001273,0.02892786,-0.00154395,0.00301400,-
 0.00000014,-0.04065398,0.05106305,-0.00000249,-0.00231729,-0.00791839,
 0.00000013,-0.00482767,-0.00016686,-0.00000003,0.00501606,0.00200045,0
 .00000004,-0.00204442,0.00256119,-0.00000009,-0.00498003,-0.00031169,-
 0.00000017,-0.24840844,0.18995737,-0.00000860,0.04920416,-0.01123519,0
 .00000069,0.25557194,-0.01118508,-0.00867281,0.00000015,0.03829830,-0.
 01051915,0.00000150,-0.00140623,0.00345349,0.00000001,0.00261975,0.002
 75958,-0.00000009,-0.00478373,-0.00004047,-0.00000008,0.00424705,0.000
 01947,0.00000002,0.00405848,0.00055136,0.00000015,0.18800634,-0.443755
 89,0.00001428,0.01123520,-0.12530475,0.00000486,-0.22945158,0.57714447
 ,0.00000030,0.00000037,0.00176921,-0.00000193,0.00000162,0.01823129,-0
 .00000006,-0.00000010,0.00429319,-0.00000013,-0.00000011,-0.00112351,0
 .00000021,0.00000004,0.00035460,-0.00000015,0.00000002,-0.00068305,-0.
 00000019,-0.00000002,0.00005116,-0.00000871,0.00001451,-0.07819799,0.,
 0.00000440,0.02686960,0.00001068,-0.00002056,0.02892768,-0.13378531,0.
 12990112,-0.00000506,0.01329516,-0.01226097,0.00000045,-0.00174211,-0.
 00356991,0.00000001,-0.00083797,-0.00066313,0.00000002,-0.00481667,-0.
 00099957,-0.00000016,-0.00926896,0.02585343,-0.00000096,-0.00025110,0.
 00129748,-0.00000002,0.00089249,-0.00116320,0.00000011,0.00046802,0.00
 143377,-0.00000004,-0.00470167,-0.00039520,-0.00000006,0.13946864,0.12
 799827,-0.28024270,0.00000875,0.01534820,-0.01786042,0.00000089,-0.003
 96037,-0.00306177,0.00000018,-0.00064062,0.00045480,-0.00000005,-0.001
 59978,0.00110939,0.00000019,-0.00279811,0.00662405,-0.00000008,-0.0000
 2777,0.00025687,0.,0.00272844,-0.00389951,0.00000004,-0.00005277,0.001
 27809,-0.00000003,0.00053160,0.00320613,-0.00000009,-0.13852541,0.2922
 0852,-0.00000501,0.00000882,-0.04154421,-0.00000035,0.00000049,0.00552
 966,0.00000001,0.00000019,0.00495372,0.00000003,-0.00000005,-0.0009888
 1,-0.00000014,0.00000019,0.00847427,-0.00000012,0.00000030,0.00515215,
 0.,0.,-0.00016791,0.,-0.00000002,-0.00414366,0.,0.,0.00035349,-0.00000
 009,-0.00000011,-0.00013371,0.00000560,-0.00000964,0.02775212,-0.00174
 211,0.00356992,-0.00000020,0.01329516,0.01226098,-0.00000026,-0.133785
 30,-0.12990112,0.00000254,-0.00926895,-0.02585342,0.00000056,-0.004816
 68,0.00099957,-0.00000022,-0.00083796,0.00066313,-0.00000002,-0.000251
 10,-0.00129748,0.00000006,0.00089249,0.00116319,0.00000004,-0.00470167
 ,0.00039520,-0.00000008,0.00046802,-0.00143377,0.00000005,0.00072333,0
 .00082659,-0.00000002,0.13946860,0.00396037,-0.00306176,0.00000029,-0.
 01534819,-0.01786041,0.00000047,-0.12799825,-0.28024272,0.00000523,0.0
 0279811,0.00662405,0.,0.00159978,0.00110939,0.00000024,0.00064062,0.00
 045480,-0.00000003,0.00002777,0.00025687,-0.00000002,-0.00272844,-0.00
 389950,-0.00000005,-0.00053160,0.00320613,-0.00000010,0.00005277,0.001
 27809,-0.00000003,-0.00082659,-0.00084849,0.00000003,0.13852539,0.2922
 0853,-0.00000022,0.00000028,0.00495372,0.00000053,0.00000091,0.0055296
 6,0.00000251,0.00000516,-0.04154420,-0.00000028,-0.00000039,0.00515215
 ,-0.00000023,0.00000024,0.00847427,0.,-0.00000003,-0.00098881,0.,-0.00
 000003,-0.00016791,0.00000016,0.00000001,-0.00414367,-0.00000004,-0.00
 000012,-0.00013371,0.,-0.00000004,0.00035349,0.00000003,0.00000005,0.0
 0052180,-0.00000253,-0.00000584,0.02775212,-0.00089890,-0.00071950,0.0
 0000001,-0.00458952,-0.00193883,-0.00000009,-0.01184205,0.02917451,-0.
 00000108,-0.12813895,0.12111986,-0.00000488,0.01000486,-0.01488869,0.0
 0000052,-0.00131241,-0.00298658,0.,0.00205986,-0.00075104,0.00000007,0
 .00039449,0.00182773,-0.00000007,-0.00018134,-0.00024183,0.,-0.0009351
 7,0.00021788,-0.00000001,0.00002612,0.00007525,0.,0.00088812,-0.000193
 40,0.00000009,0.13438129,-0.00124434,-0.00014076,-0.00000003,-0.000752
 31,0.00204113,0.00000015,-0.00177460,0.00439541,-0.00000008,0.12099181
 ,-0.27574431,0.00000885,0.01735521,-0.01850826,0.00000091,-0.00382215,
 -0.00287269,0.00000018,0.00078640,0.00166366,-0.00000015,-0.00046447,0
 .00021883,0.00000003,0.00017234,0.00003288,0.,0.00002560,-0.00003004,-
 0.00000002,0.00004990,-0.00000151,-0.00000002,0.00017137,0.00076216,-0
 .00000017,-0.13030275,0.28958410,0.00000004,-0.00000002,-0.00058643,-0
 .00000014,0.00000012,0.00726707,-0.00000013,0.00000033,0.00256055,-0.0
 0000493,0.00000890,-0.03399043,-0.00000044,0.00000043,0.00413717,0.000
 00002,0.00000019,0.00510601,0.00000003,-0.00000008,-0.00293500,0.,0.00
 000006,0.00141918,0.,0.,-0.00005489,0.,-0.00000002,-0.00060702,0.,-0.0
 0000002,-0.00060530,0.00000007,-0.00000017,-0.00490642,0.00000539,-0.0
 0000972,0.02342621,-0.01184205,-0.02917452,0.00000064,-0.00458952,0.00
 193883,-0.00000021,-0.00089890,0.00071950,-0.00000003,-0.00131241,0.00
 298658,-0.00000018,0.01000486,0.01488869,-0.00000035,-0.12813893,-0.12
 111987,0.00000220,0.00205986,0.00075104,0.00000002,0.00039449,-0.00182
 773,0.00000004,-0.00093517,-0.00021788,0.,-0.00018134,0.00024183,0.,0.
 00088812,0.00019340,0.00000008,0.00002612,-0.00007525,0.00000001,0.000
 58033,0.00073674,-0.00000001,0.13438127,0.00177459,0.00439540,-0.00000
 003,0.00075231,0.00204113,0.00000016,0.00124433,-0.00014076,0.,0.00382
 215,-0.00287269,0.00000029,-0.01735521,-0.01850826,0.00000041,-0.12099
 181,-0.27574438,0.00000529,-0.00078640,0.00166366,-0.00000012,0.000464
 47,0.00021883,0.00000004,-0.00002560,-0.00003004,-0.00000002,-0.000172
 34,0.00003288,0.,-0.00017137,0.00076216,-0.00000016,-0.00004990,-0.000
 00151,-0.00000002,-0.00073674,-0.00100719,0.00000001,0.13030276,0.2895
 8418,-0.00000024,-0.00000044,0.00256055,-0.00000018,0.00000018,0.00726
 707,-0.00000004,0.,-0.00058643,-0.00000020,0.00000027,0.00510601,0.000
 00059,0.00000089,0.00413717,0.00000215,0.00000525,-0.03399042,0.000000
 07,-0.00000018,-0.00293500,-0.00000003,0.,0.00141918,0.,-0.00000002,-0
 .00060702,0.,0.,-0.00005489,0.00000008,-0.00000016,-0.00490642,0.00000
 001,-0.00000002,-0.00060530,0.00000003,0.00000003,-0.00019873,-0.00000
 223,-0.00000584,0.02342621,-0.00060405,-0.00003039,-0.00000004,0.00062
 785,0.00047436,0.,0.00010292,-0.00192424,0.00000001,-0.00494409,0.0031
 1335,-0.00000016,-0.01201309,-0.03197957,0.00000169,0.00194838,-0.0019
 0287,0.00000002,-0.17828774,-0.17618419,0.00000846,-0.00047263,-0.0000
 2876,0.,0.00021048,0.00024953,0.,0.00012330,-0.00001971,0.,0.00001011,
 0.00000796,0.,-0.00036819,0.00010487,0.,0.00008930,-0.00021417,0.00000
 002,-0.00052602,0.00171458,-0.00000003,0.17981921,-0.00104854,-0.00062
 500,-0.00000009,0.00157066,0.00000913,0.00000003,-0.00084464,0.0004250
 8,0.00000004,0.00264171,0.00181766,0.00000013,-0.00103677,0.00604017,-
 0.00000045,0.00323806,0.00135634,-0.00000008,-0.17493171,-0.37577792,0
 .00001677,-0.00149019,0.00002563,0.,0.00034224,0.00027890,0.,0.0003922
 5,-0.00040125,0.00000001,0.00007561,0.00000166,0.,0.00003595,0.0000127
 3,-0.00000001,0.00013665,0.00022376,-0.00000002,-0.00020746,-0.0006171
 5,0.00000008,0.18887270,0.38092373,-0.00000002,-0.00000001,-0.00087881
 ,0.00000012,-0.00000003,0.00015662,-0.00000016,0.00000002,0.00206821,-
 0.00000016,0.00000021,0.00309652,-0.00000113,-0.00000125,-0.00459616,0
 .00000008,-0.00000021,-0.00188083,0.00001021,0.00001896,0.00373024,-0.
 00000010,0.,-0.00004885,0.00000003,0.00000003,-0.00002671,0.00000003,-
 0.00000002,-0.00002334,0.,0.,0.00011595,-0.00000001,0.,-0.00036314,0.,
 -0.00000002,-0.00071372,0.00000002,0.00000003,0.00068174,-0.00000902,-
 0.00001734,0.00250574,0.00010292,0.00192424,-0.00000010,0.00062785,-0.
 00047436,0.00000002,-0.00060405,0.00003039,-0.00000004,0.00194838,0.00
 190286,-0.00000009,-0.01201309,0.03197958,-0.00000023,-0.00494409,-0.0
 0311335,0.00000002,-0.17828775,0.17618416,-0.00000210,-0.00047263,0.00
 002876,0.,0.00012330,0.00001971,0.,0.00021048,-0.00024953,0.00000001,-
 0.00036819,-0.00010487,0.,0.00001011,-0.00000796,0.,-0.00052602,-0.001
 71458,0.00000007,0.00008930,0.00021417,0.,0.01428425,-0.01774653,0.000
 00011,0.17981922,0.00084464,0.00042508,0.00000006,-0.00157066,0.000009
 12,-0.00000002,0.00104854,-0.00062500,0.00000007,-0.00323806,0.0013563
 4,-0.00000011,0.00103677,0.00604017,-0.00000019,-0.00264171,0.00181766
 ,-0.00000006,0.17493168,-0.37577784,0.00000594,0.00149019,0.00002563,0
 .,-0.00039225,-0.00040125,0.,-0.00034224,0.00027890,-0.00000001,-0.000
 03595,0.00001273,0.,-0.00007561,0.00000166,0.,0.00020746,-0.00061715,0
 .,-0.00013665,0.00022376,-0.00000004,0.01774654,-0.01369346,-0.0000003
 5,-0.18887268,0.38092365,-0.00000021,0.00000008,0.00206821,0.00000021,
 0.00000004,0.00015662,-0.00000008,0.,-0.00087881,0.00000026,0.00000002
 ,-0.00188083,-0.00000114,0.00000061,-0.00459616,0.,-0.00000013,0.00309
 653,-0.00000032,0.00000376,0.00373023,-0.00000018,0.,-0.00004885,0.000
 00005,0.00000004,-0.00002334,0.00000005,-0.00000005,-0.00002671,0.,-0.
 00000001,-0.00036314,0.,0.,0.00011595,0.,0.00000004,0.00068174,0.00000
 002,-0.00000003,-0.00071372,-0.00000095,0.00000093,-0.00382348,0.00000
 230,-0.00000530,0.00250575\\0.00008026,-0.00002212,0.00000003,-0.00020
 024,-0.00000002,-0.00000037,0.00008024,0.00002215,0.00000003,-0.000041
 30,0.00002675,-0.00000001,-0.00008393,-0.00000002,0.00000008,-0.000041
 21,-0.00002672,-0.00000001,0.00002154,0.00000002,-0.00000019,0.0000882
 5,-0.00000013,0.00000096,0.00002036,0.00010300,-0.00000032,0.00002030,
 -0.00010288,-0.00000032,0.00001150,-0.00002097,-0.00000001,0.00001151,
 0.00002098,-0.00000001,0.00000302,0.00002030,0.,0.00000301,-0.00002031
 ,0.,0.00001334,0.00000022,0.00000007,0.00001335,-0.00000024,0.00000007
 \\\@


 MAN IS THE MEASURE OF ALL THINGS.
  -- PROTAGORAS (5TH CENTURY B.C.)
 Job cpu time:       0 days  0 hours 10 minutes 42.9 seconds.
 File lengths (MBytes):  RWF=     85 Int=      0 D2E=      0 Chk=      5 Scr=      1
 Normal termination of Gaussian 09 at Tue Dec 17 19:34:54 2024.
