 Entering Gaussian System, Link 0=g09
 Input=camb3lypD3PNAyang.gjf
 Output=camb3lypD3PNAyang.log
 Initial command:
 /home/c612/g09E/g09/l1.exe "/mnt/ja_sm883/scratch/Gau-1825325.inp" -scrdir="/mnt/ja_sm883/scratch/"
 Default is to use a total of  18 processors:
                               18 via shared-memory
                                1 via Linda
 Entering Link 1 = /home/c612/g09E/g09/l1.exe PID=   1825327.
  
 Copyright (c) 1988,1990,1992,1993,1995,1998,2003,2009,2015,
            Gaussian, Inc.  All Rights Reserved.
  
 This is part of the Gaussian(R) 09 program.  It is based on
 the Gaussian(R) 03 system (copyright 2003, Gaussian, Inc.),
 the Gaussian(R) 98 system (copyright 1998, Gaussian, Inc.),
 the Gaussian(R) 94 system (copyright 1995, Gaussian, Inc.),
 the Gaussian 92(TM) system (copyright 1992, Gaussian, Inc.),
 the Gaussian 90(TM) system (copyright 1990, Gaussian, Inc.),
 the Gaussian 88(TM) system (copyright 1988, Gaussian, Inc.),
 the Gaussian 86(TM) system (copyright 1986, Carnegie Mellon
 University), and the Gaussian 82(TM) system (copyright 1983,
 Carnegie Mellon University). Gaussian is a federally registered
 trademark of Gaussian, Inc.
  
 This software contains proprietary and confidential information,
 including trade secrets, belonging to Gaussian, Inc.
  
 This software is provided under written license and may be
 used, copied, transmitted, or stored only in accord with that
 written license.
  
 The following legend is applicable only to US Government
 contracts under FAR:
  
                    RESTRICTED RIGHTS LEGEND
  
 Use, reproduction and disclosure by the US Government is
 subject to restrictions as set forth in subparagraphs (a)
 and (c) of the Commercial Computer Software - Restricted
 Rights clause in FAR 52.227-19.
  
 Gaussian, Inc.
 340 Quinnipiac St., Bldg. 40, Wallingford CT 06492
  
  
 ---------------------------------------------------------------
 Warning -- This program may not be used in any manner that
 competes with the business of Gaussian, Inc. or will provide
 assistance to any competitor of Gaussian, Inc.  The licensee
 of this program is prohibited from giving any competitor of
 Gaussian, Inc. access to this program.  By using this program,
 the user acknowledges that Gaussian, Inc. is engaged in the
 business of creating and licensing software in the field of
 computational chemistry and represents and warrants to the
 licensee that it is not a competitor of Gaussian, Inc. and that
 it will not use this program in any manner prohibited above.
 ---------------------------------------------------------------
  

 Cite this work as:
 Gaussian 09, Revision E.01,
 M. J. Frisch, G. W. Trucks, H. B. Schlegel, G. E. Scuseria, 
 M. A. Robb, J. R. Cheeseman, G. Scalmani, V. Barone, B. Mennucci, 
 G. A. Petersson, H. Nakatsuji, M. Caricato, X. Li, H. P. Hratchian, 
 A. F. Izmaylov, J. Bloino, G. Zheng, J. L. Sonnenberg, M. Hada, 
 M. Ehara, K. Toyota, R. Fukuda, J. Hasegawa, M. Ishida, T. Nakajima, 
 Y. Honda, O. Kitao, H. Nakai, T. Vreven, J. A. Montgomery, Jr., 
 J. E. Peralta, F. Ogliaro, M. Bearpark, J. J. Heyd, E. Brothers, 
 K. N. Kudin, V. N. Staroverov, T. Keith, R. Kobayashi, J. Normand, 
 K. Raghavachari, A. Rendell, J. C. Burant, S. S. Iyengar, J. Tomasi, 
 M. Cossi, N. Rega, J. M. Millam, M. Klene, J. E. Knox, J. B. Cross, 
 V. Bakken, C. Adamo, J. Jaramillo, R. Gomperts, R. E. Stratmann, 
 O. Yazyev, A. J. Austin, R. Cammi, C. Pomelli, J. W. Ochterski, 
 R. L. Martin, K. Morokuma, V. G. Zakrzewski, G. A. Voth, 
 P. Salvador, J. J. Dannenberg, S. Dapprich, A. D. Daniels, 
 O. Farkas, J. B. Foresman, J. V. Ortiz, J. Cioslowski, 
 and D. J. Fox, Gaussian, Inc., Wallingford CT, 2013.
 
 ******************************************
 Gaussian 09:  ES64L-G09RevE.01 30-Nov-2015
                17-Dec-2024 
 ******************************************
 %chk=camb3lypD3PNAyang.chk
 --------------------------------------------------------
 # opt freq cam-b3lyp/6-31+g(d,p) empiricaldispersion=gd3
 --------------------------------------------------------
 1/14=-1,18=20,19=15,26=3,38=1/1,3;
 2/9=110,12=2,17=6,18=5,40=1/2;
 3/5=1,6=6,7=111,11=2,16=1,25=1,30=1,71=1,74=-40,124=31/1,2,3;
 4//1;
 5/5=2,38=5/2;
 6/7=2,8=2,9=2,10=2,28=1/1;
 7//1,2,3,16;
 1/14=-1,18=20,19=15,26=3/3(2);
 2/9=110/2;
 99//99;
 2/9=110/2;
 3/5=1,6=6,7=111,11=2,16=1,25=1,30=1,71=1,74=-40,124=31/1,2,3;
 4/5=5,16=3,69=1/1;
 5/5=2,38=5/2;
 7//1,2,3,16;
 1/14=-1,18=20,19=15,26=3/3(-5);
 2/9=110/2;
 6/7=2,8=2,9=2,10=2,19=2,28=1/1;
 99/9=1/99;
 ----------
 [No Title]
 ----------
 Symbolic Z-matrix:
 Charge =  1 Multiplicity = 1
 C                    -0.05732   1.26042  -0.00002 
 C                     0.66742   0.03633  -0.00007 
 C                    -0.00651  -1.21605  -0.00004 
 C                    -1.37145  -1.23715  0. 
 C                    -2.11785  -0.01758   0.00003 
 C                    -1.42089   1.23142   0.00002 
 N                    -3.45088  -0.0439    0.00006 
 N                     2.03076   0.1071   -0.00011 
 O                     2.66654  -1.09534   0.00005 
 O                     2.70408   1.11458   0.00003 
 H                     0.48219   2.20135  -0.00003 
 H                     0.55649  -2.1417   -0.00007 
 H                    -1.89792  -2.18652   0. 
 H                    -1.98382   2.15968   0.00004 
 H                    -3.9962    0.80656   0.00008 
 H                    -3.96284  -0.91482   0.00007 
 H                     3.6175   -0.86525   0.00015 
 

 GradGradGradGradGradGradGradGradGradGradGradGradGradGradGradGradGradGrad
 Berny optimization.
 Initialization pass.
                           ----------------------------
                           !    Initial Parameters    !
                           ! (Angstroms and Degrees)  !
 --------------------------                            --------------------------
 ! Name  Definition              Value          Derivative Info.                !
 --------------------------------------------------------------------------------
 ! R1    R(1,2)                  1.4225         estimate D2E/DX2                !
 ! R2    R(1,6)                  1.3639         estimate D2E/DX2                !
 ! R3    R(1,11)                 1.0846         estimate D2E/DX2                !
 ! R4    R(2,3)                  1.4222         estimate D2E/DX2                !
 ! R5    R(2,8)                  1.3652         estimate D2E/DX2                !
 ! R6    R(3,4)                  1.3651         estimate D2E/DX2                !
 ! R7    R(3,12)                 1.0834         estimate D2E/DX2                !
 ! R8    R(4,5)                  1.4298         estimate D2E/DX2                !
 ! R9    R(4,13)                 1.0856         estimate D2E/DX2                !
 ! R10   R(5,6)                  1.4303         estimate D2E/DX2                !
 ! R11   R(5,7)                  1.3333         estimate D2E/DX2                !
 ! R12   R(6,14)                 1.0856         estimate D2E/DX2                !
 ! R13   R(7,15)                 1.0103         estimate D2E/DX2                !
 ! R14   R(7,16)                 1.0102         estimate D2E/DX2                !
 ! R15   R(8,9)                  1.3602         estimate D2E/DX2                !
 ! R16   R(8,10)                 1.2118         estimate D2E/DX2                !
 ! R17   R(9,17)                 0.9784         estimate D2E/DX2                !
 ! A1    A(2,1,6)              119.4098         estimate D2E/DX2                !
 ! A2    A(2,1,11)             119.543          estimate D2E/DX2                !
 ! A3    A(6,1,11)             121.0472         estimate D2E/DX2                !
 ! A4    A(1,2,3)              121.0867         estimate D2E/DX2                !
 ! A5    A(1,2,8)              117.6568         estimate D2E/DX2                !
 ! A6    A(3,2,8)              121.2565         estimate D2E/DX2                !
 ! A7    A(2,3,4)              119.171          estimate D2E/DX2                !
 ! A8    A(2,3,12)             120.4063         estimate D2E/DX2                !
 ! A9    A(4,3,12)             120.4227         estimate D2E/DX2                !
 ! A10   A(3,4,5)              120.582          estimate D2E/DX2                !
 ! A11   A(3,4,13)             119.8964         estimate D2E/DX2                !
 ! A12   A(5,4,13)             119.5216         estimate D2E/DX2                !
 ! A13   A(4,5,6)              119.3699         estimate D2E/DX2                !
 ! A14   A(4,5,7)              120.3369         estimate D2E/DX2                !
 ! A15   A(6,5,7)              120.2932         estimate D2E/DX2                !
 ! A16   A(1,6,5)              120.3806         estimate D2E/DX2                !
 ! A17   A(1,6,14)             120.0161         estimate D2E/DX2                !
 ! A18   A(5,6,14)             119.6033         estimate D2E/DX2                !
 ! A19   A(5,7,15)             121.5378         estimate D2E/DX2                !
 ! A20   A(5,7,16)             121.5796         estimate D2E/DX2                !
 ! A21   A(15,7,16)            116.8826         estimate D2E/DX2                !
 ! A22   A(2,8,9)              114.8957         estimate D2E/DX2                !
 ! A23   A(2,8,10)             126.7268         estimate D2E/DX2                !
 ! A24   A(9,8,10)             118.3775         estimate D2E/DX2                !
 ! A25   A(8,9,17)             104.265          estimate D2E/DX2                !
 ! D1    D(6,1,2,3)             -0.0016         estimate D2E/DX2                !
 ! D2    D(6,1,2,8)            179.9998         estimate D2E/DX2                !
 ! D3    D(11,1,2,3)           179.9994         estimate D2E/DX2                !
 ! D4    D(11,1,2,8)             0.0007         estimate D2E/DX2                !
 ! D5    D(2,1,6,5)              0.0007         estimate D2E/DX2                !
 ! D6    D(2,1,6,14)          -179.999          estimate D2E/DX2                !
 ! D7    D(11,1,6,5)           179.9998         estimate D2E/DX2                !
 ! D8    D(11,1,6,14)            0.0            estimate D2E/DX2                !
 ! D9    D(1,2,3,4)              0.0015         estimate D2E/DX2                !
 ! D10   D(1,2,3,12)          -179.9992         estimate D2E/DX2                !
 ! D11   D(8,2,3,4)           -179.9999         estimate D2E/DX2                !
 ! D12   D(8,2,3,12)            -0.0006         estimate D2E/DX2                !
 ! D13   D(1,2,8,9)            179.9904         estimate D2E/DX2                !
 ! D14   D(1,2,8,10)             0.0082         estimate D2E/DX2                !
 ! D15   D(3,2,8,9)             -0.0082         estimate D2E/DX2                !
 ! D16   D(3,2,8,10)          -179.9904         estimate D2E/DX2                !
 ! D17   D(2,3,4,5)             -0.0006         estimate D2E/DX2                !
 ! D18   D(2,3,4,13)           179.9992         estimate D2E/DX2                !
 ! D19   D(12,3,4,5)          -179.9999         estimate D2E/DX2                !
 ! D20   D(12,3,4,13)           -0.0001         estimate D2E/DX2                !
 ! D21   D(3,4,5,6)             -0.0002         estimate D2E/DX2                !
 ! D22   D(3,4,5,7)            179.9999         estimate D2E/DX2                !
 ! D23   D(13,4,5,6)           180.0            estimate D2E/DX2                !
 ! D24   D(13,4,5,7)             0.0001         estimate D2E/DX2                !
 ! D25   D(4,5,6,1)              0.0001         estimate D2E/DX2                !
 ! D26   D(4,5,6,14)           179.9999         estimate D2E/DX2                !
 ! D27   D(7,5,6,1)           -179.9999         estimate D2E/DX2                !
 ! D28   D(7,5,6,14)            -0.0002         estimate D2E/DX2                !
 ! D29   D(4,5,7,15)           180.0            estimate D2E/DX2                !
 ! D30   D(4,5,7,16)            -0.0001         estimate D2E/DX2                !
 ! D31   D(6,5,7,15)             0.0001         estimate D2E/DX2                !
 ! D32   D(6,5,7,16)           180.0            estimate D2E/DX2                !
 ! D33   D(2,8,9,17)          -179.9909         estimate D2E/DX2                !
 ! D34   D(10,8,9,17)           -0.0071         estimate D2E/DX2                !
 --------------------------------------------------------------------------------
 Trust Radius=3.00D-01 FncErr=1.00D-07 GrdErr=1.00D-06
 Number of steps in this run=     86 maximum allowed number of steps=    102.
 GradGradGradGradGradGradGradGradGradGradGradGradGradGradGradGradGradGrad

                          Input orientation:                          
 ---------------------------------------------------------------------
 Center     Atomic      Atomic             Coordinates (Angstroms)
 Number     Number       Type             X           Y           Z
 ---------------------------------------------------------------------
      1          6           0       -0.057318    1.260419   -0.000021
      2          6           0        0.667415    0.036333   -0.000068
      3          6           0       -0.006506   -1.216048   -0.000043
      4          6           0       -1.371446   -1.237151   -0.000004
      5          6           0       -2.117853   -0.017584    0.000025
      6          6           0       -1.420885    1.231421    0.000017
      7          7           0       -3.450875   -0.043897    0.000061
      8          7           0        2.030763    0.107099   -0.000109
      9          8           0        2.666538   -1.095343    0.000053
     10          8           0        2.704081    1.114584    0.000029
     11          1           0        0.482190    2.201352   -0.000031
     12          1           0        0.556485   -2.141698   -0.000066
     13          1           0       -1.897923   -2.186524    0.000002
     14          1           0       -1.983821    2.159680    0.000037
     15          1           0       -3.996204    0.806563    0.000082
     16          1           0       -3.962836   -0.914815    0.000067
     17          1           0        3.617496   -0.865246    0.000148
 ---------------------------------------------------------------------
                    Distance matrix (angstroms):
                    1          2          3          4          5
     1  C    0.000000
     2  C    1.422542   0.000000
     3  C    2.476988   1.422191   0.000000
     4  C    2.822196   2.403896   1.365103   0.000000
     5  C    2.424685   2.785790   2.427777   1.429849   0.000000
     6  C    1.363875   2.406082   2.826760   2.469067   1.430307
     7  N    3.635584   4.119071   3.638353   2.397474   1.333282
     8  N    2.385420   1.365183   2.429235   3.658146   4.150489
     9  O    3.601251   2.297212   2.675768   4.040473   4.904280
    10  O    2.765247   2.304481   3.574791   4.705378   4.953065
    11  H    1.084631   2.172928   3.452165   3.906311   3.418172
    12  H    3.457044   2.180854   1.083414   2.129583   3.415252
    13  H    3.907588   3.394415   2.125860   1.085581   2.180062
    14  H    2.126049   3.396712   3.912201   3.451589   2.181386
    15  H    3.964947   4.726796   4.473102   3.326578   2.051200
    16  H    4.470427   4.726934   3.967781   2.611360   2.051581
    17  H    4.245316   3.084773   3.640941   5.002785   5.797651
                    6          7          8          9         10
     6  C    0.000000
     7  N    2.397352   0.000000
     8  N    3.630148   5.483717   0.000000
     9  O    4.703282   6.207115   1.360175   0.000000
    10  O    4.126620   6.263031   1.211769   2.210246   0.000000
    11  H    2.135992   4.528813   2.604606   3.954690   2.473432
    12  H    3.909977   4.523240   2.688974   2.355246   3.900710
    13  H    3.451074   2.646226   4.549207   4.693078   5.663546
    14  H    1.085616   2.647263   4.508877   5.676356   4.802984
    15  H    2.610129   1.010280   6.067420   6.928880   6.707361
    16  H    3.326837   1.010249   6.080094   6.631832   6.968948
    17  H    5.457224   7.115932   1.860961   0.978400   2.180379
                   11         12         13         14         15
    11  H    0.000000
    12  H    4.343685   0.000000
    13  H    4.991833   2.454817   0.000000
    14  H    2.466363   4.995499   4.347053   0.000000
    15  H    4.690570   5.423949   3.655318   2.424997   0.000000
    16  H    5.428513   4.682895   2.425100   3.656367   1.721701
    17  H    4.385677   3.316492   5.671474   6.365919   7.795086
                   16         17
    16  H    0.000000
    17  H    7.580494   0.000000
 Stoichiometry    C6H7N2O2(1+)
 Framework group  C1[X(C6H7N2O2)]
 Deg. of freedom    45
 Full point group                 C1      NOp   1
 Largest Abelian subgroup         C1      NOp   1
 Largest concise Abelian subgroup C1      NOp   1
                         Standard orientation:                         
 ---------------------------------------------------------------------
 Center     Atomic      Atomic             Coordinates (Angstroms)
 Number     Number       Type             X           Y           Z
 ---------------------------------------------------------------------
      1          6           0       -0.057318    1.260419   -0.000021
      2          6           0        0.667415    0.036333   -0.000068
      3          6           0       -0.006506   -1.216048   -0.000043
      4          6           0       -1.371446   -1.237151   -0.000004
      5          6           0       -2.117853   -0.017584    0.000025
      6          6           0       -1.420885    1.231421    0.000017
      7          7           0       -3.450875   -0.043897    0.000061
      8          7           0        2.030763    0.107099   -0.000109
      9          8           0        2.666538   -1.095343    0.000053
     10          8           0        2.704081    1.114584    0.000029
     11          1           0        0.482190    2.201352   -0.000031
     12          1           0        0.556485   -2.141698   -0.000066
     13          1           0       -1.897923   -2.186524    0.000002
     14          1           0       -1.983821    2.159680    0.000037
     15          1           0       -3.996204    0.806563    0.000082
     16          1           0       -3.962836   -0.914815    0.000067
     17          1           0        3.617496   -0.865246    0.000148
 ---------------------------------------------------------------------
 Rotational constants (GHZ):      3.7744281      0.8229505      0.6756388
 Standard basis: 6-31+G(d,p) (6D, 7F)
 There are   225 symmetry adapted cartesian basis functions of A   symmetry.
 There are   225 symmetry adapted basis functions of A   symmetry.
   225 basis functions,   369 primitive gaussians,   225 cartesian basis functions
    36 alpha electrons       36 beta electrons
       nuclear repulsion energy       508.9631194315 Hartrees.
 NAtoms=   17 NActive=   17 NUniq=   17 SFac= 1.00D+00 NAtFMM=   60 NAOKFM=F Big=F
 Integral buffers will be    131072 words long.
 Raffenetti 2 integral format.
 Two-electron integral symmetry is turned on.
 Nuclear repulsion after empirical dispersion term =      508.9551879851 Hartrees.
 One-electron integrals computed using PRISM.
 NBasis=   225 RedAO= T EigKep=  3.35D-06  NBF=   225
 NBsUse=   225 1.00D-06 EigRej= -1.00D+00 NBFU=   225
 ExpMin= 4.38D-02 ExpMax= 5.48D+03 ExpMxC= 8.25D+02 IAcc=2 IRadAn=         4 AccDes= 0.00D+00
 Harris functional with IExCor=20419 and IRadAn=       4 diagonalized for initial guess.
 HarFok:  IExCor=20419 AccDes= 0.00D+00 IRadAn=         4 IDoV= 1 UseB2=F ITyADJ=14
 ICtDFT=  3500011 ScaDFX=  1.000000  1.000000  1.000000  1.000000
 FoFCou: FMM=F IPFlag=           0 FMFlag=      100000 FMFlg1=           0
         NFxFlg=           0 DoJE=T BraDBF=F KetDBF=T FulRan=T
         wScrn=  0.000000 ICntrl=     500 IOpCl=  0 I1Cent=   200000004 NGrid=           0
         NMat0=    1 NMatS0=      1 NMatT0=    0 NMatD0=    1 NMtDS0=    0 NMtDT0=    0
 Petite list used in FoFCou.
 Keep R1 ints in memory in canonical form, NReq=652403680.
 Requested convergence on RMS density matrix=1.00D-08 within 128 cycles.
 Requested convergence on MAX density matrix=1.00D-06.
 Requested convergence on             energy=1.00D-06.
 No special actions if energy rises.
 SCF Done:  E(RCAM-B3LYP) =  -492.263559944     A.U. after   16 cycles
            NFock= 16  Conv=0.75D-08     -V/T= 2.0091

 **********************************************************************

            Population analysis using the SCF density.

 **********************************************************************

 Orbital symmetries:
       Occupied  (A) (A) (A) (A) (A) (A) (A) (A) (A) (A) (A) (A)
                 (A) (A) (A) (A) (A) (A) (A) (A) (A) (A) (A) (A)
                 (A) (A) (A) (A) (A) (A) (A) (A) (A) (A) (A) (A)
       Virtual   (A) (A) (A) (A) (A) (A) (A) (A) (A) (A) (A) (A)
                 (A) (A) (A) (A) (A) (A) (A) (A) (A) (A) (A) (A)
                 (A) (A) (A) (A) (A) (A) (A) (A) (A) (A) (A) (A)
                 (A) (A) (A) (A) (A) (A) (A) (A) (A) (A) (A) (A)
                 (A) (A) (A) (A) (A) (A) (A) (A) (A) (A) (A) (A)
                 (A) (A) (A) (A) (A) (A) (A) (A) (A) (A) (A) (A)
                 (A) (A) (A) (A) (A) (A) (A) (A) (A) (A) (A) (A)
                 (A) (A) (A) (A) (A) (A) (A) (A) (A) (A) (A) (A)
                 (A) (A) (A) (A) (A) (A) (A) (A) (A) (A) (A) (A)
                 (A) (A) (A) (A) (A) (A) (A) (A) (A) (A) (A) (A)
                 (A) (A) (A) (A) (A) (A) (A) (A) (A) (A) (A) (A)
                 (A) (A) (A) (A) (A) (A) (A) (A) (A) (A) (A) (A)
                 (A) (A) (A) (A) (A) (A) (A) (A) (A) (A) (A) (A)
                 (A) (A) (A) (A) (A) (A) (A) (A) (A) (A) (A) (A)
                 (A) (A) (A) (A) (A) (A) (A) (A) (A) (A) (A) (A)
                 (A) (A) (A) (A) (A) (A) (A) (A) (A)
 The electronic state is 1-A.
 Alpha  occ. eigenvalues --  -19.49852 -19.46373 -14.84323 -14.62697 -10.52483
 Alpha  occ. eigenvalues --  -10.50242 -10.47065 -10.46860 -10.45124 -10.45076
 Alpha  occ. eigenvalues --   -1.50783  -1.34318  -1.21556  -1.16230  -1.08264
 Alpha  occ. eigenvalues --   -1.02854  -0.96587  -0.90340  -0.87718  -0.82908
 Alpha  occ. eigenvalues --   -0.81134  -0.79786  -0.79041  -0.77683  -0.71989
 Alpha  occ. eigenvalues --   -0.69269  -0.68603  -0.67768  -0.65858  -0.65330
 Alpha  occ. eigenvalues --   -0.60525  -0.59561  -0.57572  -0.56788  -0.50518
 Alpha  occ. eigenvalues --   -0.45358
 Alpha virt. eigenvalues --   -0.25119  -0.13986  -0.11253  -0.10390  -0.09370
 Alpha virt. eigenvalues --   -0.07693  -0.06714  -0.05922  -0.04671  -0.04147
 Alpha virt. eigenvalues --   -0.03014  -0.01834  -0.01577  -0.01023  -0.00729
 Alpha virt. eigenvalues --    0.00111   0.01947   0.02916   0.03208   0.03706
 Alpha virt. eigenvalues --    0.04018   0.04073   0.05162   0.06488   0.06849
 Alpha virt. eigenvalues --    0.07034   0.07791   0.08624   0.08915   0.08931
 Alpha virt. eigenvalues --    0.10090   0.11045   0.11684   0.12065   0.12314
 Alpha virt. eigenvalues --    0.12841   0.13420   0.14505   0.14905   0.15416
 Alpha virt. eigenvalues --    0.15982   0.16781   0.18273   0.18591   0.19292
 Alpha virt. eigenvalues --    0.19975   0.20605   0.22260   0.22804   0.24117
 Alpha virt. eigenvalues --    0.24970   0.27702   0.28465   0.29261   0.30375
 Alpha virt. eigenvalues --    0.33604   0.34206   0.36727   0.41114   0.46882
 Alpha virt. eigenvalues --    0.49584   0.53342   0.54475   0.55077   0.58141
 Alpha virt. eigenvalues --    0.59890   0.61013   0.62890   0.64468   0.68221
 Alpha virt. eigenvalues --    0.69025   0.70873   0.73098   0.74217   0.77205
 Alpha virt. eigenvalues --    0.78719   0.79997   0.83137   0.84722   0.85486
 Alpha virt. eigenvalues --    0.87175   0.87697   0.90789   0.91642   0.94254
 Alpha virt. eigenvalues --    0.95658   0.96142   0.97795   1.00075   1.02594
 Alpha virt. eigenvalues --    1.05324   1.06765   1.07719   1.10112   1.10561
 Alpha virt. eigenvalues --    1.12483   1.15525   1.16778   1.17829   1.19913
 Alpha virt. eigenvalues --    1.20609   1.21778   1.23487   1.27391   1.27568
 Alpha virt. eigenvalues --    1.27709   1.28728   1.32314   1.35547   1.36029
 Alpha virt. eigenvalues --    1.40038   1.41703   1.45163   1.55659   1.59196
 Alpha virt. eigenvalues --    1.63775   1.65529   1.69643   1.70777   1.73537
 Alpha virt. eigenvalues --    1.73596   1.78805   1.80474   1.80553   1.83121
 Alpha virt. eigenvalues --    1.85089   1.86180   1.87102   1.87133   1.92991
 Alpha virt. eigenvalues --    1.95597   1.98892   2.00853   2.02018   2.04564
 Alpha virt. eigenvalues --    2.07512   2.08996   2.11011   2.20749   2.21037
 Alpha virt. eigenvalues --    2.27774   2.28674   2.30082   2.30195   2.30876
 Alpha virt. eigenvalues --    2.34755   2.35618   2.38630   2.40009   2.44057
 Alpha virt. eigenvalues --    2.46360   2.46828   2.48843   2.48900   2.50588
 Alpha virt. eigenvalues --    2.52393   2.57388   2.57748   2.61462   2.66340
 Alpha virt. eigenvalues --    2.66354   2.70950   2.73517   2.75430   2.87163
 Alpha virt. eigenvalues --    2.90363   2.93503   2.98289   3.01005   3.05802
 Alpha virt. eigenvalues --    3.10255   3.19648   3.24818   3.25462   3.31751
 Alpha virt. eigenvalues --    3.40297   3.43505   3.58999   3.74314   4.03460
 Alpha virt. eigenvalues --    4.11515   4.18412   4.19887   4.23889   4.35673
 Alpha virt. eigenvalues --    4.38141   4.42476   4.67900   4.75932
          Condensed to atoms (all electrons):
               1          2          3          4          5          6
     1  C    7.872672   0.868198  -2.152822  -0.944140  -0.079775  -0.055182
     2  C    0.868198  10.557033  -1.538256  -1.254058  -0.803754  -0.519735
     3  C   -2.152822  -1.538256   9.863687  -0.318782   0.169500  -0.922171
     4  C   -0.944140  -1.254058  -0.318782   8.647244   0.483100  -0.830534
     5  C   -0.079775  -0.803754   0.169500   0.483100   5.612558   0.258793
     6  C   -0.055182  -0.519735  -0.922171  -0.830534   0.258793   7.767598
     7  N    0.065765  -0.013385   0.061655  -0.057143   0.132439  -0.067016
     8  N    0.362887  -0.892825   0.053850  -0.019371   0.036054   0.063969
     9  O    0.004747  -0.308185   0.133276   0.059146  -0.004270   0.029992
    10  O   -0.176787  -0.233584   0.268639   0.007700   0.017528   0.014167
    11  H    0.113034   0.202095   0.066544  -0.004203  -0.033076   0.014070
    12  H    0.045713   0.249800   0.041416   0.059841  -0.045482   0.008196
    13  H    0.001833   0.025955   0.116980   0.186173   0.000741   0.003879
    14  H    0.085661   0.019930  -0.010641   0.010477   0.000284   0.229632
    15  H    0.025441  -0.000245  -0.001016   0.028929  -0.021322  -0.047234
    16  H   -0.001795  -0.000057   0.024356  -0.046110  -0.021188   0.029368
    17  H    0.032139   0.019197  -0.040599  -0.001007  -0.000993   0.003595
               7          8          9         10         11         12
     1  C    0.065765   0.362887   0.004747  -0.176787   0.113034   0.045713
     2  C   -0.013385  -0.892825  -0.308185  -0.233584   0.202095   0.249800
     3  C    0.061655   0.053850   0.133276   0.268639   0.066544   0.041416
     4  C   -0.057143  -0.019371   0.059146   0.007700  -0.004203   0.059841
     5  C    0.132439   0.036054  -0.004270   0.017528  -0.033076  -0.045482
     6  C   -0.067016   0.063969   0.029992   0.014167   0.014070   0.008196
     7  N    6.814169   0.000575  -0.000120  -0.000463  -0.000205  -0.000091
     8  N    0.000575   7.171527   0.188357   0.436456  -0.050363  -0.054610
     9  O   -0.000120   0.188357   7.798166  -0.103174  -0.001741   0.016308
    10  O   -0.000463   0.436456  -0.103174   7.711221   0.017667  -0.002221
    11  H   -0.000205  -0.050363  -0.001741   0.017667   0.474076  -0.000081
    12  H   -0.000091  -0.054610   0.016308  -0.002221  -0.000081   0.480677
    13  H   -0.014756  -0.000886   0.000101   0.000030   0.000009  -0.004525
    14  H   -0.014376  -0.000499   0.000074  -0.000068  -0.004181   0.000010
    15  H    0.337240   0.000001  -0.000000   0.000001  -0.000007   0.000002
    16  H    0.337183   0.000008   0.000001  -0.000000   0.000002  -0.000008
    17  H    0.000004   0.024698   0.224805   0.013310   0.000005   0.000223
              13         14         15         16         17
     1  C    0.001833   0.085661   0.025441  -0.001795   0.032139
     2  C    0.025955   0.019930  -0.000245  -0.000057   0.019197
     3  C    0.116980  -0.010641  -0.001016   0.024356  -0.040599
     4  C    0.186173   0.010477   0.028929  -0.046110  -0.001007
     5  C    0.000741   0.000284  -0.021322  -0.021188  -0.000993
     6  C    0.003879   0.229632  -0.047234   0.029368   0.003595
     7  N   -0.014756  -0.014376   0.337240   0.337183   0.000004
     8  N   -0.000886  -0.000499   0.000001   0.000008   0.024698
     9  O    0.000101   0.000074  -0.000000   0.000001   0.224805
    10  O    0.000030  -0.000068   0.000001  -0.000000   0.013310
    11  H    0.000009  -0.004181  -0.000007   0.000002   0.000005
    12  H   -0.004525   0.000010   0.000002  -0.000008   0.000223
    13  H    0.507157  -0.000088  -0.000020   0.003931   0.000000
    14  H   -0.000088   0.504684   0.003949  -0.000022  -0.000000
    15  H   -0.000020   0.003949   0.345425  -0.020715   0.000000
    16  H    0.003931  -0.000022  -0.020715   0.345790  -0.000000
    17  H    0.000000  -0.000000   0.000000  -0.000000   0.322972
 Mulliken charges:
               1
     1  C   -0.067589
     2  C   -0.378123
     3  C    0.184383
     4  C   -0.007263
     5  C    0.298862
     6  C    0.018612
     7  N   -0.581474
     8  N   -0.319826
     9  O   -0.037480
    10  O    0.029578
    11  H    0.206355
    12  H    0.204831
    13  H    0.173486
    14  H    0.175175
    15  H    0.349572
    16  H    0.349253
    17  H    0.401650
 Sum of Mulliken charges =   1.00000
 Mulliken charges with hydrogens summed into heavy atoms:
               1
     1  C    0.138765
     2  C   -0.378123
     3  C    0.389214
     4  C    0.166223
     5  C    0.298862
     6  C    0.193787
     7  N    0.117351
     8  N   -0.319826
     9  O    0.364169
    10  O    0.029578
 Electronic spatial extent (au):  <R**2>=           1551.0814
 Charge=              1.0000 electrons
 Dipole moment (field-independent basis, Debye):
    X=             -3.4085    Y=             -1.1204    Z=              0.0001  Tot=              3.5879
 Quadrupole moment (field-independent basis, Debye-Ang):
   XX=             -8.8745   YY=            -44.9576   ZZ=            -58.8325
   XY=             -4.7877   XZ=             -0.0001   YZ=             -0.0001
 Traceless Quadrupole moment (field-independent basis, Debye-Ang):
   XX=             28.6804   YY=             -7.4027   ZZ=            -21.2776
   XY=             -4.7877   XZ=             -0.0001   YZ=             -0.0001
 Octapole moment (field-independent basis, Debye-Ang**2):
  XXX=            -39.3130  YYY=             -1.0317  ZZZ=              0.0004  XYY=            -12.6844
  XXY=            -21.9250  XXZ=              0.0056  XZZ=             11.4255  YZZ=              0.3291
  YYZ=              0.0005  XYZ=             -0.0011
 Hexadecapole moment (field-independent basis, Debye-Ang**3):
 XXXX=           -687.9694 YYYY=           -339.1118 ZZZZ=            -59.7607 XXXY=            -82.2381
 XXXZ=              0.0086 YYYX=             -3.5672 YYYZ=              0.0001 ZZZX=              0.0061
 ZZZY=             -0.0003 XXYY=           -248.1931 XXZZ=           -266.3647 YYZZ=            -82.4169
 XXYZ=             -0.0034 YYXZ=              0.0020 ZZXY=              0.4471
 N-N= 5.089551879851D+02 E-N=-2.151908804224D+03  KE= 4.878365888777D+02
 Calling FoFJK, ICntrl=      2127 FMM=F ISym2X=0 I1Cent= 0 IOpClX= 0 NMat=1 NMatS=1 NMatT=0.
 ***** Axes restored to original set *****
 -------------------------------------------------------------------
 Center     Atomic                   Forces (Hartrees/Bohr)
 Number     Number              X              Y              Z
 -------------------------------------------------------------------
      1        6          -0.004978434    0.000060811   -0.000004474
      2        6           0.005026005    0.001092940   -0.000006963
      3        6          -0.005066358   -0.000676373   -0.000003793
      4        6           0.004496088   -0.000330134    0.000000298
      5        6          -0.001503722    0.000193271   -0.000000217
      6        6           0.004179028    0.000525647    0.000000252
      7        7           0.003487609    0.000034837   -0.000000189
      8        7          -0.003703804    0.000231380    0.000041789
      9        8          -0.000742577    0.004719721   -0.000011429
     10        8          -0.002176005   -0.005105882   -0.000015827
     11        1          -0.000317508   -0.000575082    0.000000184
     12        1          -0.000354960    0.000608300   -0.000000138
     13        1           0.000220113    0.000806495    0.000000686
     14        1           0.000220850   -0.000814545    0.000000816
     15        1           0.000009273    0.000333466    0.000000019
     16        1           0.000020960   -0.000339106    0.000000024
     17        1           0.001183439   -0.000765746   -0.000001039
 -------------------------------------------------------------------
 Cartesian Forces:  Max     0.005105882 RMS     0.001989458

 GradGradGradGradGradGradGradGradGradGradGradGradGradGradGradGradGradGrad
 Berny optimization.
 FormGI is forming the generalized inverse of G from B-inverse, IUseBI=4.
 GSVD:  received Info=                   1 from GESDD.
 Internal  Forces:  Max     0.005657928 RMS     0.001466618
 Search for a local minimum.
 Step number   1 out of a maximum of   86
 All quantities printed in internal units (Hartrees-Bohrs-Radians)
 Mixed Optimization -- RFO/linear search
 Second derivative matrix not updated -- first step.
 ITU=  0
     Eigenvalues ---    0.01727   0.01822   0.01848   0.01947   0.02012
     Eigenvalues ---    0.02055   0.02061   0.02152   0.02152   0.02156
     Eigenvalues ---    0.02278   0.02295   0.02574   0.02574   0.16000
     Eigenvalues ---    0.16000   0.16000   0.16000   0.16000   0.16000
     Eigenvalues ---    0.16000   0.22000   0.22950   0.24000   0.25000
     Eigenvalues ---    0.25000   0.25000   0.25000   0.35324   0.35328
     Eigenvalues ---    0.35441   0.35585   0.38330   0.39823   0.41618
     Eigenvalues ---    0.41716   0.45926   0.45931   0.49063   0.51697
     Eigenvalues ---    0.51913   0.52055   0.52912   0.58737   0.99125
 RFO step:  Lambda=-3.22956418D-04 EMin= 1.72716356D-02
 Linear search not attempted -- first point.
 Iteration  1 RMS(Cart)=  0.00523928 RMS(Int)=  0.00000815
 Iteration  2 RMS(Cart)=  0.00001272 RMS(Int)=  0.00000048
 Iteration  3 RMS(Cart)=  0.00000000 RMS(Int)=  0.00000048
 Variable       Old X    -DE/DX   Delta X   Delta X   Delta X     New X
                                 (Linear)    (Quad)   (Total)
    R1        2.68821  -0.00019   0.00000  -0.00038  -0.00039   2.68783
    R2        2.57735  -0.00548   0.00000  -0.01049  -0.01049   2.56686
    R3        2.04966  -0.00066   0.00000  -0.00185  -0.00185   2.04780
    R4        2.68755  -0.00007   0.00000  -0.00009  -0.00009   2.68747
    R5        2.57982  -0.00548   0.00000  -0.01055  -0.01055   2.56927
    R6        2.57967  -0.00566   0.00000  -0.01089  -0.01089   2.56878
    R7        2.04736  -0.00070   0.00000  -0.00198  -0.00198   2.04538
    R8        2.70202  -0.00089   0.00000  -0.00223  -0.00223   2.69979
    R9        2.05145  -0.00081   0.00000  -0.00230  -0.00230   2.04916
   R10        2.70289  -0.00112   0.00000  -0.00280  -0.00280   2.70009
   R11        2.51954  -0.00352   0.00000  -0.00599  -0.00599   2.51355
   R12        2.05152  -0.00081   0.00000  -0.00229  -0.00229   2.04922
   R13        1.90915   0.00028   0.00000   0.00060   0.00060   1.90975
   R14        1.90909   0.00028   0.00000   0.00061   0.00061   1.90971
   R15        2.57036  -0.00329   0.00000  -0.00621  -0.00621   2.56415
   R16        2.28991  -0.00545   0.00000  -0.00550  -0.00550   2.28441
   R17        1.84891   0.00097   0.00000   0.00188   0.00188   1.85078
    A1        2.08409  -0.00009   0.00000  -0.00016  -0.00016   2.08394
    A2        2.08642   0.00003   0.00000   0.00001   0.00001   2.08643
    A3        2.11267   0.00005   0.00000   0.00015   0.00015   2.11282
    A4        2.11336   0.00013   0.00000   0.00084   0.00084   2.11420
    A5        2.05350   0.00000   0.00000  -0.00014  -0.00014   2.05335
    A6        2.11633  -0.00013   0.00000  -0.00070  -0.00070   2.11563
    A7        2.07993  -0.00025   0.00000  -0.00091  -0.00092   2.07901
    A8        2.10149   0.00011   0.00000   0.00038   0.00038   2.10186
    A9        2.10177   0.00014   0.00000   0.00054   0.00054   2.10231
   A10        2.10455  -0.00025   0.00000  -0.00117  -0.00117   2.10339
   A11        2.09259   0.00033   0.00000   0.00186   0.00185   2.09444
   A12        2.08605  -0.00008   0.00000  -0.00069  -0.00069   2.08536
   A13        2.08340   0.00087   0.00000   0.00331   0.00331   2.08671
   A14        2.10027  -0.00049   0.00000  -0.00186  -0.00186   2.09841
   A15        2.09951  -0.00038   0.00000  -0.00145  -0.00145   2.09807
   A16        2.10104  -0.00041   0.00000  -0.00191  -0.00191   2.09913
   A17        2.09468   0.00045   0.00000   0.00245   0.00245   2.09712
   A18        2.08747  -0.00003   0.00000  -0.00054  -0.00054   2.08693
   A19        2.12124  -0.00012   0.00000  -0.00074  -0.00074   2.12050
   A20        2.12196  -0.00012   0.00000  -0.00076  -0.00076   2.12120
   A21        2.03999   0.00024   0.00000   0.00150   0.00150   2.04149
   A22        2.00531   0.00179   0.00000   0.00715   0.00715   2.01246
   A23        2.21180   0.00028   0.00000   0.00113   0.00113   2.21293
   A24        2.06608  -0.00207   0.00000  -0.00828  -0.00828   2.05780
   A25        1.81977   0.00189   0.00000   0.01179   0.01179   1.83156
    D1       -0.00003   0.00000   0.00000   0.00008   0.00008   0.00005
    D2        3.14159   0.00000   0.00000   0.00001   0.00001  -3.14158
    D3        3.14158   0.00000   0.00000   0.00003   0.00003  -3.14157
    D4        0.00001  -0.00000   0.00000  -0.00003  -0.00003  -0.00002
    D5        0.00001  -0.00000   0.00000  -0.00004  -0.00004  -0.00002
    D6       -3.14158  -0.00000   0.00000  -0.00005  -0.00005   3.14156
    D7        3.14159   0.00000   0.00000   0.00001   0.00001  -3.14159
    D8        0.00000  -0.00000   0.00000  -0.00000  -0.00000   0.00000
    D9        0.00003  -0.00000   0.00000  -0.00008  -0.00008  -0.00005
   D10       -3.14158  -0.00000   0.00000  -0.00004  -0.00004   3.14157
   D11       -3.14159  -0.00000   0.00000  -0.00001  -0.00001   3.14159
   D12       -0.00001   0.00000   0.00000   0.00003   0.00003   0.00002
   D13        3.14143   0.00001   0.00000   0.00052   0.00053  -3.14123
   D14        0.00014  -0.00001   0.00000  -0.00046  -0.00046  -0.00032
   D15       -0.00014   0.00001   0.00000   0.00046   0.00046   0.00032
   D16       -3.14143  -0.00001   0.00000  -0.00053  -0.00053   3.14123
   D17       -0.00001   0.00000   0.00000   0.00003   0.00003   0.00002
   D18        3.14158   0.00000   0.00000   0.00004   0.00004  -3.14157
   D19       -3.14159  -0.00000   0.00000  -0.00000  -0.00000   3.14159
   D20       -0.00000   0.00000   0.00000   0.00000   0.00000   0.00000
   D21       -0.00000   0.00000   0.00000   0.00001   0.00001   0.00000
   D22        3.14159   0.00000   0.00000   0.00001   0.00001  -3.14159
   D23        3.14159  -0.00000   0.00000   0.00000   0.00000  -3.14159
   D24        0.00000  -0.00000   0.00000  -0.00000  -0.00000  -0.00000
   D25        0.00000  -0.00000   0.00000  -0.00001  -0.00001  -0.00000
   D26        3.14159   0.00000   0.00000   0.00001   0.00001  -3.14159
   D27       -3.14159  -0.00000   0.00000  -0.00000  -0.00000   3.14159
   D28       -0.00000   0.00000   0.00000   0.00001   0.00001   0.00000
   D29        3.14159  -0.00000   0.00000   0.00000   0.00000  -3.14159
   D30       -0.00000   0.00000   0.00000   0.00000   0.00000   0.00000
   D31        0.00000  -0.00000   0.00000  -0.00000  -0.00000  -0.00000
   D32        3.14159   0.00000   0.00000  -0.00000  -0.00000   3.14159
   D33       -3.14143  -0.00001   0.00000  -0.00051  -0.00051   3.14124
   D34       -0.00012   0.00001   0.00000   0.00039   0.00039   0.00026
         Item               Value     Threshold  Converged?
 Maximum Force            0.005658     0.000450     NO 
 RMS     Force            0.001467     0.000300     NO 
 Maximum Displacement     0.017589     0.001800     NO 
 RMS     Displacement     0.005242     0.001200     NO 
 Predicted change in Energy=-1.616045D-04
 GradGradGradGradGradGradGradGradGradGradGradGradGradGradGradGradGradGrad

                          Input orientation:                          
 ---------------------------------------------------------------------
 Center     Atomic      Atomic             Coordinates (Angstroms)
 Number     Number       Type             X           Y           Z
 ---------------------------------------------------------------------
      1          6           0       -0.060227    1.260016    0.000078
      2          6           0        0.663726    0.035706    0.000160
      3          6           0       -0.009813   -1.216829    0.000116
      4          6           0       -1.369003   -1.236990    0.000054
      5          6           0       -2.112608   -0.017093    0.000005
      6          6           0       -1.418253    1.231670    0.000017
      7          7           0       -3.442461   -0.043435   -0.000052
      8          7           0        2.021528    0.105627    0.000232
      9          8           0        2.663835   -1.089608   -0.000130
     10          8           0        2.694773    1.109658   -0.000075
     11          1           0        0.479302    2.199808    0.000094
     12          1           0        0.552553   -2.141634    0.000155
     13          1           0       -1.897243   -2.183992    0.000045
     14          1           0       -1.982464    2.157734   -0.000017
     15          1           0       -3.987391    0.807658   -0.000087
     16          1           0       -3.953864   -0.915057   -0.000062
     17          1           0        3.616910   -0.864093   -0.000354
 ---------------------------------------------------------------------
                    Distance matrix (angstroms):
                    1          2          3          4          5
     1  C    0.000000
     2  C    1.422337   0.000000
     3  C    2.477358   1.422145   0.000000
     4  C    2.819208   2.398280   1.359340   0.000000
     5  C    2.417287   2.776836   2.420973   1.428669   0.000000
     6  C    1.358322   2.401035   2.824686   2.469151   1.428824
     7  N    3.624706   4.106950   3.627662   2.392447   1.330114
     8  N    2.380403   1.359601   2.423889   3.646687   4.135957
     9  O    3.597395   2.294944   2.676673   4.035531   4.895375
    10  O    2.759100   2.297504   3.567538   4.692658   4.937659
    11  H    1.083651   2.171946   3.451469   3.902283   3.410666
    12  H    3.456404   2.180177   1.082368   2.123855   3.408336
    13  H    3.903309   3.389045   2.120802   1.084366   2.177575
    14  H    2.121530   3.391950   3.908839   3.449708   2.178717
    15  H    3.953131   4.714743   4.463147   3.322129   2.048177
    16  H    4.459972   4.714455   3.955579   2.604831   2.048551
    17  H    4.246549   3.087221   3.643836   4.999839   5.791786
                    6          7          8          9         10
     6  C    0.000000
     7  N    2.392344   0.000000
     8  N    3.619402   5.466022   0.000000
     9  O    4.695932   6.195267   1.356888   0.000000
    10  O    4.114836   6.244619   1.208858   2.199483   0.000000
    11  H    2.130260   4.518004   2.600780   3.948726   2.469158
    12  H    3.906822   4.512492   2.684785   2.358871   3.893586
    13  H    3.449084   2.640016   4.538626   4.690535   5.651084
    14  H    1.084402   2.641351   4.499232   5.668626   4.793225
    15  H    2.603893   1.010598   6.049790   6.916533   6.688986
    16  H    3.322312   1.010573   6.061939   6.620000   6.950096
    17  H    5.453906   7.106912   1.866976   0.979392   2.178539
                   11         12         13         14         15
    11  H    0.000000
    12  H    4.342060   0.000000
    13  H    4.986549   2.450162   0.000000
    14  H    2.462125   4.991080   4.342562   0.000000
    15  H    4.678614   5.413818   3.649478   2.417114   0.000000
    16  H    5.418056   4.670362   2.416585   3.650816   1.723041
    17  H    4.385439   3.319999   5.669922   6.362737   7.785895
                   16         17
    16  H    0.000000
    17  H    7.570945   0.000000
 Stoichiometry    C6H7N2O2(1+)
 Framework group  C1[X(C6H7N2O2)]
 Deg. of freedom    45
 Full point group                 C1      NOp   1
 Largest Abelian subgroup         C1      NOp   1
 Largest concise Abelian subgroup C1      NOp   1
                         Standard orientation:                         
 ---------------------------------------------------------------------
 Center     Atomic      Atomic             Coordinates (Angstroms)
 Number     Number       Type             X           Y           Z
 ---------------------------------------------------------------------
      1          6           0       -0.059495    1.260062    0.000051
      2          6           0        0.664904    0.036016    0.000133
      3          6           0       -0.008179   -1.216764    0.000089
      4          6           0       -1.367363   -1.237420    0.000027
      5          6           0       -2.111411   -0.017794   -0.000022
      6          6           0       -1.417510    1.231222   -0.000010
      7          7           0       -3.441254   -0.044619   -0.000079
      8          7           0        2.022681    0.106431    0.000205
      9          8           0        2.665422   -1.088570   -0.000157
     10          8           0        2.695560    1.110707   -0.000102
     11          1           0        0.479692    2.200050    0.000067
     12          1           0        0.554523   -2.141365    0.000128
     13          1           0       -1.895258   -2.184614    0.000018
     14          1           0       -1.982058    2.157080   -0.000044
     15          1           0       -3.986494    0.806275   -0.000114
     16          1           0       -3.952340   -0.916427   -0.000089
     17          1           0        3.618415   -0.862709   -0.000381
 ---------------------------------------------------------------------
 Rotational constants (GHZ):      3.7855243      0.8269988      0.6787227
 Standard basis: 6-31+G(d,p) (6D, 7F)
 There are   225 symmetry adapted cartesian basis functions of A   symmetry.
 There are   225 symmetry adapted basis functions of A   symmetry.
   225 basis functions,   369 primitive gaussians,   225 cartesian basis functions
    36 alpha electrons       36 beta electrons
       nuclear repulsion energy       509.9928305201 Hartrees.
 NAtoms=   17 NActive=   17 NUniq=   17 SFac= 1.00D+00 NAtFMM=   60 NAOKFM=F Big=F
 Integral buffers will be    131072 words long.
 Raffenetti 2 integral format.
 Two-electron integral symmetry is turned on.
 Nuclear repulsion after empirical dispersion term =      509.9849045869 Hartrees.
 One-electron integrals computed using PRISM.
 NBasis=   225 RedAO= T EigKep=  3.30D-06  NBF=   225
 NBsUse=   225 1.00D-06 EigRej= -1.00D+00 NBFU=   225
 Initial guess from the checkpoint file:  "camb3lypD3PNAyang.chk"
 B after Tr=     0.000000   -0.000000    0.000000
         Rot=    1.000000   -0.000001    0.000002   -0.000224 Ang=  -0.03 deg.
 Keep R1 ints in memory in canonical form, NReq=652403680.
 Requested convergence on RMS density matrix=1.00D-08 within 128 cycles.
 Requested convergence on MAX density matrix=1.00D-06.
 Requested convergence on             energy=1.00D-06.
 No special actions if energy rises.
 SCF Done:  E(RCAM-B3LYP) =  -492.263707805     A.U. after   12 cycles
            NFock= 12  Conv=0.60D-08     -V/T= 2.0089
 Calling FoFJK, ICntrl=      2127 FMM=F ISym2X=0 I1Cent= 0 IOpClX= 0 NMat=1 NMatS=1 NMatT=0.
 ***** Axes restored to original set *****
 -------------------------------------------------------------------
 Center     Atomic                   Forces (Hartrees/Bohr)
 Number     Number              X              Y              Z
 -------------------------------------------------------------------
      1        6          -0.000505698    0.000235273    0.000009495
      2        6           0.002269712    0.000002293    0.000016244
      3        6          -0.000560988   -0.000288739    0.000008255
      4        6           0.000388165   -0.000508458   -0.000001144
      5        6          -0.001076714    0.000001960    0.000000844
      6        6           0.000340775    0.000470603   -0.000001037
      7        7           0.000206330   -0.000018231    0.000000036
      8        7           0.000491839   -0.001118703   -0.000090991
      9        8          -0.000984817   -0.000098033    0.000024504
     10        8           0.000026652    0.000922165    0.000033932
     11        1           0.000199870   -0.000056391   -0.000000353
     12        1           0.000263291    0.000051555    0.000000302
     13        1          -0.000242155    0.000051731   -0.000001375
     14        1          -0.000208217   -0.000057228   -0.000001613
     15        1          -0.000092593   -0.000025296   -0.000000025
     16        1          -0.000090010    0.000022331   -0.000000031
     17        1          -0.000425443    0.000413169    0.000002957
 -------------------------------------------------------------------
 Cartesian Forces:  Max     0.002269712 RMS     0.000479722

 GradGradGradGradGradGradGradGradGradGradGradGradGradGradGradGradGradGrad
 Berny optimization.
 Using GEDIIS/GDIIS optimizer.
 FormGI is forming the generalized inverse of G from B-inverse, IUseBI=4.
 GSVD:  received Info=                   1 from GESDD.
 Internal  Forces:  Max     0.001000118 RMS     0.000319996
 Search for a local minimum.
 Step number   2 out of a maximum of   86
 All quantities printed in internal units (Hartrees-Bohrs-Radians)
 Mixed Optimization -- En-DIIS/RFO-DIIS
 Update second derivatives using D2CorX and points    1    2
 DE= -1.48D-04 DEPred=-1.62D-04 R= 9.15D-01
 TightC=F SS=  1.41D+00  RLast= 2.79D-02 DXNew= 5.0454D-01 8.3718D-02
 Trust test= 9.15D-01 RLast= 2.79D-02 DXMaxT set to 3.00D-01
 ITU=  1  0
 Use linear search instead of GDIIS.
     Eigenvalues ---    0.01727   0.01822   0.01847   0.01947   0.02012
     Eigenvalues ---    0.02057   0.02060   0.02152   0.02152   0.02156
     Eigenvalues ---    0.02277   0.02295   0.02574   0.02574   0.15757
     Eigenvalues ---    0.16000   0.16000   0.16000   0.16000   0.16000
     Eigenvalues ---    0.16781   0.22003   0.22859   0.24115   0.24966
     Eigenvalues ---    0.25000   0.25000   0.27137   0.35324   0.35344
     Eigenvalues ---    0.35444   0.35612   0.38322   0.39827   0.41145
     Eigenvalues ---    0.41714   0.45891   0.45929   0.46991   0.49071
     Eigenvalues ---    0.51723   0.52469   0.55473   0.58931   1.01399
 RFO step:  Lambda=-1.97204422D-05 EMin= 1.72702019D-02
 Quartic linear search produced a step of -0.08066.
 Iteration  1 RMS(Cart)=  0.00154426 RMS(Int)=  0.00000178
 Iteration  2 RMS(Cart)=  0.00000223 RMS(Int)=  0.00000025
 Iteration  3 RMS(Cart)=  0.00000000 RMS(Int)=  0.00000025
 Variable       Old X    -DE/DX   Delta X   Delta X   Delta X     New X
                                 (Linear)    (Quad)   (Total)
    R1        2.68783   0.00056   0.00003   0.00117   0.00120   2.68903
    R2        2.56686   0.00041   0.00085  -0.00078   0.00007   2.56692
    R3        2.04780   0.00005   0.00015  -0.00013   0.00002   2.04782
    R4        2.68747   0.00062   0.00001   0.00135   0.00136   2.68882
    R5        2.56927  -0.00088   0.00085  -0.00307  -0.00222   2.56705
    R6        2.56878   0.00037   0.00088  -0.00090  -0.00002   2.56876
    R7        2.04538   0.00009   0.00016  -0.00004   0.00012   2.04550
    R8        2.69979   0.00056   0.00018   0.00094   0.00112   2.70091
    R9        2.04916   0.00007   0.00019  -0.00014   0.00005   2.04920
   R10        2.70009   0.00058   0.00023   0.00090   0.00113   2.70121
   R11        2.51355  -0.00002   0.00048  -0.00089  -0.00041   2.51314
   R12        2.04922   0.00006   0.00019  -0.00017   0.00001   2.04923
   R13        1.90975   0.00003  -0.00005   0.00014   0.00009   1.90985
   R14        1.90971   0.00003  -0.00005   0.00014   0.00009   1.90980
   R15        2.56415  -0.00095   0.00050  -0.00253  -0.00203   2.56212
   R16        2.28441   0.00078   0.00044  -0.00006   0.00039   2.28480
   R17        1.85078  -0.00032  -0.00015  -0.00030  -0.00045   1.85033
    A1        2.08394   0.00022   0.00001   0.00083   0.00084   2.08478
    A2        2.08643  -0.00031  -0.00000  -0.00161  -0.00161   2.08482
    A3        2.11282   0.00010  -0.00001   0.00078   0.00077   2.11359
    A4        2.11420  -0.00042  -0.00007  -0.00149  -0.00156   2.11264
    A5        2.05335   0.00038   0.00001   0.00140   0.00141   2.05477
    A6        2.11563   0.00004   0.00006   0.00009   0.00015   2.11578
    A7        2.07901   0.00027   0.00007   0.00092   0.00100   2.08001
    A8        2.10186  -0.00039  -0.00003  -0.00195  -0.00198   2.09988
    A9        2.10231   0.00012  -0.00004   0.00103   0.00098   2.10330
   A10        2.10339   0.00007   0.00009   0.00008   0.00017   2.10355
   A11        2.09444   0.00021  -0.00015   0.00154   0.00139   2.09583
   A12        2.08536  -0.00028   0.00006  -0.00161  -0.00156   2.08380
   A13        2.08671  -0.00025  -0.00027  -0.00050  -0.00077   2.08594
   A14        2.09841   0.00010   0.00015   0.00011   0.00026   2.09868
   A15        2.09807   0.00016   0.00012   0.00039   0.00051   2.09857
   A16        2.09913   0.00012   0.00015   0.00017   0.00032   2.09945
   A17        2.09712   0.00015  -0.00020   0.00135   0.00116   2.09828
   A18        2.08693  -0.00027   0.00004  -0.00152  -0.00148   2.08545
   A19        2.12050   0.00006   0.00006   0.00024   0.00030   2.12079
   A20        2.12120   0.00006   0.00006   0.00021   0.00027   2.12147
   A21        2.04149  -0.00011  -0.00012  -0.00044  -0.00056   2.04092
   A22        2.01246  -0.00088  -0.00058  -0.00220  -0.00278   2.00968
   A23        2.21293  -0.00012  -0.00009  -0.00029  -0.00038   2.21255
   A24        2.05780   0.00100   0.00067   0.00249   0.00316   2.06096
   A25        1.83156  -0.00093  -0.00095  -0.00361  -0.00456   1.82700
    D1        0.00005  -0.00000  -0.00001  -0.00014  -0.00015  -0.00009
    D2       -3.14158  -0.00000  -0.00000  -0.00003  -0.00003   3.14158
    D3       -3.14157  -0.00000  -0.00000  -0.00006  -0.00006   3.14155
    D4       -0.00002   0.00000   0.00000   0.00006   0.00006   0.00004
    D5       -0.00002   0.00000   0.00000   0.00007   0.00007   0.00004
    D6        3.14156   0.00000   0.00000   0.00008   0.00009  -3.14154
    D7       -3.14159  -0.00000  -0.00000  -0.00002  -0.00002   3.14158
    D8        0.00000   0.00000   0.00000  -0.00000  -0.00000  -0.00000
    D9       -0.00005   0.00000   0.00001   0.00014   0.00014   0.00009
   D10        3.14157   0.00000   0.00000   0.00007   0.00007  -3.14154
   D11        3.14159   0.00000   0.00000   0.00002   0.00002  -3.14158
   D12        0.00002  -0.00000  -0.00000  -0.00005  -0.00005  -0.00003
   D13       -3.14123  -0.00002  -0.00004  -0.00099  -0.00103   3.14092
   D14       -0.00032   0.00002   0.00004   0.00088   0.00092   0.00060
   D15        0.00032  -0.00002  -0.00004  -0.00088  -0.00091  -0.00059
   D16        3.14123   0.00002   0.00004   0.00100   0.00104  -3.14092
   D17        0.00002  -0.00000  -0.00000  -0.00006  -0.00006  -0.00004
   D18       -3.14157  -0.00000  -0.00000  -0.00007  -0.00008   3.14154
   D19        3.14159   0.00000   0.00000   0.00001   0.00001  -3.14159
   D20        0.00000  -0.00000  -0.00000  -0.00001  -0.00001  -0.00000
   D21        0.00000  -0.00000  -0.00000  -0.00001  -0.00001  -0.00001
   D22       -3.14159  -0.00000  -0.00000  -0.00001  -0.00001   3.14159
   D23        3.14159   0.00000   0.00000   0.00000   0.00000  -3.14159
   D24       -0.00000   0.00000   0.00000   0.00000   0.00000   0.00000
   D25       -0.00000   0.00000   0.00000   0.00001   0.00001   0.00001
   D26       -3.14159  -0.00000  -0.00000  -0.00001  -0.00001   3.14159
   D27        3.14159   0.00000   0.00000   0.00001   0.00001  -3.14159
   D28        0.00000  -0.00000  -0.00000  -0.00001  -0.00001  -0.00001
   D29       -3.14159   0.00000  -0.00000  -0.00000  -0.00000  -3.14159
   D30        0.00000   0.00000  -0.00000  -0.00000  -0.00000  -0.00000
   D31       -0.00000  -0.00000   0.00000   0.00000   0.00000   0.00000
   D32        3.14159  -0.00000   0.00000   0.00000   0.00000   3.14159
   D33        3.14124   0.00002   0.00004   0.00096   0.00100  -3.14094
   D34        0.00026  -0.00002  -0.00003  -0.00073  -0.00076  -0.00050
         Item               Value     Threshold  Converged?
 Maximum Force            0.001000     0.000450     NO 
 RMS     Force            0.000320     0.000300     NO 
 Maximum Displacement     0.007841     0.001800     NO 
 RMS     Displacement     0.001544     0.001200     NO 
 Predicted change in Energy=-1.103579D-05
 GradGradGradGradGradGradGradGradGradGradGradGradGradGradGradGradGradGrad

                          Input orientation:                          
 ---------------------------------------------------------------------
 Center     Atomic      Atomic             Coordinates (Angstroms)
 Number     Number       Type             X           Y           Z
 ---------------------------------------------------------------------
      1          6           0       -0.059804    1.260490   -0.000120
      2          6           0        0.665632    0.036318   -0.000288
      3          6           0       -0.009013   -1.216436   -0.000200
      4          6           0       -1.368184   -1.237123   -0.000062
      5          6           0       -2.112774   -0.017136    0.000045
      6          6           0       -1.417862    1.231999    0.000015
      7          7           0       -3.442404   -0.043861    0.000172
      8          7           0        2.022293    0.105550   -0.000439
      9          8           0        2.660217   -1.090814    0.000232
     10          8           0        2.695737    1.109693    0.000131
     11          1           0        0.480352    2.199931   -0.000156
     12          1           0        0.554653   -2.140522   -0.000284
     13          1           0       -1.897385   -2.183616   -0.000039
     14          1           0       -1.983245    2.157355    0.000091
     15          1           0       -3.987863    0.806952    0.000248
     16          1           0       -3.953810   -0.915537    0.000195
     17          1           0        3.612761   -0.864097    0.000638
 ---------------------------------------------------------------------
                    Distance matrix (angstroms):
                    1          2          3          4          5
     1  C    0.000000
     2  C    1.422974   0.000000
     3  C    2.477446   1.422862   0.000000
     4  C    2.819562   2.399595   1.359328   0.000000
     5  C    2.418060   2.778920   2.421597   1.429260   0.000000
     6  C    1.358357   2.402207   2.824834   2.469622   1.429419
     7  N    3.625371   4.108818   3.628100   2.392962   1.329899
     8  N    2.380970   1.358427   2.423602   3.646656   4.136887
     9  O    3.595434   2.291026   2.672184   4.031057   4.892262
    10  O    2.759664   2.296401   3.567428   4.692866   4.938777
    11  H    1.083659   2.171531   3.451237   3.902618   3.411698
    12  H    3.456073   2.179667   1.082430   2.124484   3.409389
    13  H    3.903661   3.390747   2.121647   1.084391   2.177161
    14  H    2.122260   3.393426   3.908971   3.449751   2.178345
    15  H    3.954155   4.716873   4.463782   3.322795   2.048189
    16  H    4.460759   4.716489   3.956256   2.605548   2.048545
    17  H    4.242830   3.081610   3.638872   4.994893   5.787840
                    6          7          8          9         10
     6  C    0.000000
     7  N    2.393029   0.000000
     8  N    3.619883   5.466739   0.000000
     9  O    4.693207   6.191777   1.355815   0.000000
    10  O    4.115416   6.245595   1.209062   2.200794   0.000000
    11  H    2.130753   4.519139   2.600772   3.947254   2.469119
    12  H    3.907008   4.513586   2.683058   2.352718   3.892060
    13  H    3.449111   2.639250   4.539180   4.686785   5.651783
    14  H    1.084408   2.640927   4.500471   5.666775   4.794837
    15  H    2.604912   1.010648   6.050945   6.913645   6.690452
    16  H    3.323092   1.010621   6.062708   6.616349   6.951117
    17  H    5.449843   7.102686   1.862741   0.979153   2.176414
                   11         12         13         14         15
    11  H    0.000000
    12  H    4.341088   0.000000
    13  H    4.986894   2.452417   0.000000
    14  H    2.463965   4.991259   4.341820   0.000000
    15  H    4.680313   5.414985   3.648781   2.417040   0.000000
    16  H    5.419219   4.671919   2.415970   3.650451   1.722826
    17  H    4.381809   3.313802   5.665937   6.359595   7.782152
                   16         17
    16  H    0.000000
    17  H    7.566746   0.000000
 Stoichiometry    C6H7N2O2(1+)
 Framework group  C1[X(C6H7N2O2)]
 Deg. of freedom    45
 Full point group                 C1      NOp   1
 Largest Abelian subgroup         C1      NOp   1
 Largest concise Abelian subgroup C1      NOp   1
                         Standard orientation:                         
 ---------------------------------------------------------------------
 Center     Atomic      Atomic             Coordinates (Angstroms)
 Number     Number       Type             X           Y           Z
 ---------------------------------------------------------------------
      1          6           0       -0.059044    1.260584   -0.000094
      2          6           0        0.666714    0.036604   -0.000261
      3          6           0       -0.007600   -1.216328   -0.000173
      4          6           0       -1.366766   -1.237374   -0.000035
      5          6           0       -2.111677   -0.017583    0.000071
      6          6           0       -1.417095    1.231735    0.000042
      7          7           0       -3.441301   -0.044658    0.000198
      8          7           0        2.023357    0.106193   -0.000413
      9          8           0        2.661596   -1.090003    0.000258
     10          8           0        2.696536    1.110513    0.000158
     11          1           0        0.480864    2.200167   -0.000130
     12          1           0        0.556309   -2.140265   -0.000258
     13          1           0       -1.895717   -2.184006   -0.000013
     14          1           0       -1.982721    2.156942    0.000118
     15          1           0       -3.986984    0.806012    0.000275
     16          1           0       -3.952476   -0.916469    0.000221
     17          1           0        3.614081   -0.863034    0.000665
 ---------------------------------------------------------------------
 Rotational constants (GHZ):      3.7840384      0.8272836      0.6788667
 Standard basis: 6-31+G(d,p) (6D, 7F)
 There are   225 symmetry adapted cartesian basis functions of A   symmetry.
 There are   225 symmetry adapted basis functions of A   symmetry.
   225 basis functions,   369 primitive gaussians,   225 cartesian basis functions
    36 alpha electrons       36 beta electrons
       nuclear repulsion energy       510.0264904382 Hartrees.
 NAtoms=   17 NActive=   17 NUniq=   17 SFac= 1.00D+00 NAtFMM=   60 NAOKFM=F Big=F
 Integral buffers will be    131072 words long.
 Raffenetti 2 integral format.
 Two-electron integral symmetry is turned on.
 Nuclear repulsion after empirical dispersion term =      510.0185666023 Hartrees.
 One-electron integrals computed using PRISM.
 NBasis=   225 RedAO= T EigKep=  3.30D-06  NBF=   225
 NBsUse=   225 1.00D-06 EigRej= -1.00D+00 NBFU=   225
 Initial guess from the checkpoint file:  "camb3lypD3PNAyang.chk"
 B after Tr=    -0.000000    0.000000   -0.000000
         Rot=    1.000000    0.000002   -0.000005    0.000104 Ang=   0.01 deg.
 Keep R1 ints in memory in canonical form, NReq=652403680.
 Requested convergence on RMS density matrix=1.00D-08 within 128 cycles.
 Requested convergence on MAX density matrix=1.00D-06.
 Requested convergence on             energy=1.00D-06.
 No special actions if energy rises.
 SCF Done:  E(RCAM-B3LYP) =  -492.263717605     A.U. after   11 cycles
            NFock= 11  Conv=0.43D-08     -V/T= 2.0089
 Calling FoFJK, ICntrl=      2127 FMM=F ISym2X=0 I1Cent= 0 IOpClX= 0 NMat=1 NMatS=1 NMatT=0.
 ***** Axes restored to original set *****
 -------------------------------------------------------------------
 Center     Atomic                   Forces (Hartrees/Bohr)
 Number     Number              X              Y              Z
 -------------------------------------------------------------------
      1        6          -0.000199482    0.000002576   -0.000017631
      2        6           0.000446963    0.000165619   -0.000030821
      3        6          -0.000276356   -0.000088012   -0.000015374
      4        6           0.000109715   -0.000160974    0.000002189
      5        6          -0.000320046    0.000017229   -0.000001770
      6        6           0.000069658    0.000137167    0.000001963
      7        7           0.000097785    0.000002100   -0.000000072
      8        7          -0.000797289   -0.000598279    0.000170154
      9        8           0.000427888    0.000241821   -0.000045683
     10        8           0.000468657    0.000451686   -0.000063571
     11        1           0.000080473    0.000029880    0.000000644
     12        1           0.000036405   -0.000014254   -0.000000556
     13        1          -0.000074601   -0.000028145    0.000002519
     14        1          -0.000070552    0.000028686    0.000002968
     15        1          -0.000037551   -0.000015660    0.000000060
     16        1          -0.000035554    0.000015402    0.000000085
     17        1           0.000073888   -0.000186842   -0.000005104
 -------------------------------------------------------------------
 Cartesian Forces:  Max     0.000797289 RMS     0.000211673

 GradGradGradGradGradGradGradGradGradGradGradGradGradGradGradGradGradGrad
 Berny optimization.
 Using GEDIIS/GDIIS optimizer.
 FormGI is forming the generalized inverse of G from B-inverse, IUseBI=4.
 GSVD:  received Info=                   1 from GESDD.
 Internal  Forces:  Max     0.000636077 RMS     0.000136008
 Search for a local minimum.
 Step number   3 out of a maximum of   86
 All quantities printed in internal units (Hartrees-Bohrs-Radians)
 Mixed Optimization -- En-DIIS/RFO-DIIS
 Swapping is turned off.
 Update second derivatives using D2CorX and points    1    2    3
 DE= -9.80D-06 DEPred=-1.10D-05 R= 8.88D-01
 TightC=F SS=  1.41D+00  RLast= 9.12D-03 DXNew= 5.0454D-01 2.7359D-02
 Trust test= 8.88D-01 RLast= 9.12D-03 DXMaxT set to 3.00D-01
 ITU=  1  1  0
     Eigenvalues ---    0.01727   0.01822   0.01848   0.01947   0.02013
     Eigenvalues ---    0.02061   0.02093   0.02152   0.02153   0.02157
     Eigenvalues ---    0.02277   0.02296   0.02574   0.02574   0.14120
     Eigenvalues ---    0.16000   0.16000   0.16000   0.16000   0.16008
     Eigenvalues ---    0.17672   0.21701   0.22004   0.23405   0.24975
     Eigenvalues ---    0.25000   0.25023   0.33839   0.35327   0.35366
     Eigenvalues ---    0.35479   0.35613   0.37379   0.38949   0.39938
     Eigenvalues ---    0.41735   0.45918   0.45929   0.49039   0.51234
     Eigenvalues ---    0.51827   0.52767   0.55334   0.59201   1.01145
 En-DIIS/RFO-DIIS IScMMF=        0 using points:     3    2
 RFO step:  Lambda=-2.13245976D-06.
 DidBck=F Rises=F RFO-DIIS coefs:    0.89958    0.10042
 Iteration  1 RMS(Cart)=  0.00107397 RMS(Int)=  0.00000078
 Iteration  2 RMS(Cart)=  0.00000097 RMS(Int)=  0.00000030
 Variable       Old X    -DE/DX   Delta X   Delta X   Delta X     New X
                                 (Linear)    (Quad)   (Total)
    R1        2.68903   0.00021  -0.00012   0.00077   0.00065   2.68968
    R2        2.56692   0.00014  -0.00001   0.00019   0.00018   2.56711
    R3        2.04782   0.00007  -0.00000   0.00016   0.00016   2.04798
    R4        2.68882   0.00032  -0.00014   0.00105   0.00091   2.68973
    R5        2.56705   0.00017   0.00022  -0.00038  -0.00015   2.56690
    R6        2.56876   0.00013   0.00000   0.00015   0.00016   2.56891
    R7        2.04550   0.00003  -0.00001   0.00010   0.00009   2.04558
    R8        2.70091   0.00019  -0.00011   0.00071   0.00059   2.70150
    R9        2.04920   0.00006  -0.00000   0.00015   0.00015   2.04935
   R10        2.70121   0.00016  -0.00011   0.00063   0.00052   2.70173
   R11        2.51314  -0.00002   0.00004  -0.00018  -0.00014   2.51300
   R12        2.04923   0.00006  -0.00000   0.00015   0.00014   2.04938
   R13        1.90985   0.00001  -0.00001   0.00004   0.00003   1.90988
   R14        1.90980   0.00000  -0.00001   0.00004   0.00003   1.90982
   R15        2.56212   0.00019   0.00020  -0.00027  -0.00007   2.56205
   R16        2.28480   0.00064  -0.00004   0.00065   0.00061   2.28540
   R17        1.85033   0.00003   0.00005  -0.00006  -0.00002   1.85031
    A1        2.08478   0.00014  -0.00008   0.00075   0.00066   2.08544
    A2        2.08482  -0.00012   0.00016  -0.00101  -0.00085   2.08397
    A3        2.11359  -0.00001  -0.00008   0.00026   0.00019   2.11378
    A4        2.11264  -0.00022   0.00016  -0.00123  -0.00107   2.11157
    A5        2.05477  -0.00002  -0.00014   0.00033   0.00019   2.05495
    A6        2.11578   0.00024  -0.00001   0.00090   0.00089   2.11666
    A7        2.08001   0.00011  -0.00010   0.00070   0.00060   2.08061
    A8        2.09988  -0.00008   0.00020  -0.00089  -0.00069   2.09919
    A9        2.10330  -0.00003  -0.00010   0.00019   0.00009   2.10339
   A10        2.10355   0.00002  -0.00002   0.00012   0.00010   2.10365
   A11        2.09583   0.00004  -0.00014   0.00064   0.00051   2.09634
   A12        2.08380  -0.00006   0.00016  -0.00076  -0.00060   2.08319
   A13        2.08594  -0.00007   0.00008  -0.00047  -0.00039   2.08555
   A14        2.09868   0.00003  -0.00003   0.00020   0.00017   2.09885
   A15        2.09857   0.00003  -0.00005   0.00026   0.00021   2.09879
   A16        2.09945   0.00002  -0.00003   0.00013   0.00010   2.09955
   A17        2.09828   0.00003  -0.00012   0.00056   0.00044   2.09873
   A18        2.08545  -0.00006   0.00015  -0.00069  -0.00054   2.08491
   A19        2.12079   0.00003  -0.00003   0.00022   0.00019   2.12099
   A20        2.12147   0.00002  -0.00003   0.00020   0.00017   2.12164
   A21        2.04092  -0.00005   0.00006  -0.00042  -0.00037   2.04055
   A22        2.00968   0.00045   0.00028   0.00088   0.00116   2.01083
   A23        2.21255  -0.00007   0.00004  -0.00034  -0.00030   2.21225
   A24        2.06096  -0.00038  -0.00032  -0.00054  -0.00086   2.06010
   A25        1.82700   0.00037   0.00046   0.00086   0.00132   1.82832
    D1       -0.00009   0.00001   0.00001   0.00023   0.00025   0.00016
    D2        3.14158   0.00000   0.00000   0.00004   0.00004  -3.14157
    D3        3.14155   0.00000   0.00001   0.00010   0.00010  -3.14153
    D4        0.00004  -0.00000  -0.00001  -0.00010  -0.00011  -0.00007
    D5        0.00004  -0.00000  -0.00001  -0.00011  -0.00012  -0.00007
    D6       -3.14154  -0.00000  -0.00001  -0.00014  -0.00015   3.14150
    D7        3.14158   0.00000   0.00000   0.00003   0.00003  -3.14157
    D8       -0.00000  -0.00000   0.00000   0.00000   0.00000   0.00000
    D9        0.00009  -0.00001  -0.00001  -0.00023  -0.00024  -0.00015
   D10       -3.14154  -0.00000  -0.00001  -0.00012  -0.00013   3.14151
   D11       -3.14158  -0.00000  -0.00000  -0.00003  -0.00003   3.14158
   D12       -0.00003   0.00000   0.00001   0.00008   0.00009   0.00005
   D13        3.14092   0.00005   0.00010   0.00168   0.00178  -3.14048
   D14        0.00060  -0.00004  -0.00009  -0.00150  -0.00159  -0.00099
   D15       -0.00059   0.00004   0.00009   0.00148   0.00158   0.00098
   D16       -3.14092  -0.00005  -0.00010  -0.00169  -0.00180   3.14047
   D17       -0.00004   0.00000   0.00001   0.00010   0.00011   0.00007
   D18        3.14154   0.00000   0.00001   0.00012   0.00013  -3.14151
   D19       -3.14159  -0.00000  -0.00000  -0.00001  -0.00001   3.14159
   D20       -0.00000   0.00000   0.00000   0.00001   0.00001   0.00001
   D21       -0.00001   0.00000   0.00000   0.00002   0.00002   0.00001
   D22        3.14159   0.00000   0.00000   0.00002   0.00002  -3.14158
   D23       -3.14159  -0.00000  -0.00000   0.00000   0.00000  -3.14159
   D24        0.00000  -0.00000  -0.00000  -0.00000  -0.00000  -0.00000
   D25        0.00001  -0.00000  -0.00000  -0.00002  -0.00002  -0.00001
   D26        3.14159   0.00000   0.00000   0.00001   0.00001  -3.14158
   D27       -3.14159  -0.00000  -0.00000  -0.00001  -0.00001   3.14158
   D28       -0.00001   0.00000   0.00000   0.00001   0.00002   0.00001
   D29       -3.14159  -0.00000   0.00000  -0.00000  -0.00000   3.14159
   D30       -0.00000  -0.00000   0.00000   0.00000   0.00000   0.00000
   D31        0.00000   0.00000  -0.00000  -0.00000  -0.00000  -0.00000
   D32        3.14159   0.00000  -0.00000   0.00000   0.00000  -3.14159
   D33       -3.14094  -0.00004  -0.00010  -0.00164  -0.00174   3.14051
   D34       -0.00050   0.00003   0.00008   0.00125   0.00132   0.00082
         Item               Value     Threshold  Converged?
 Maximum Force            0.000636     0.000450     NO 
 RMS     Force            0.000136     0.000300     YES
 Maximum Displacement     0.004016     0.001800     NO 
 RMS     Displacement     0.001074     0.001200     YES
 Predicted change in Energy=-1.878391D-06
 GradGradGradGradGradGradGradGradGradGradGradGradGradGradGradGradGradGrad

                          Input orientation:                          
 ---------------------------------------------------------------------
 Center     Atomic      Atomic             Coordinates (Angstroms)
 Number     Number       Type             X           Y           Z
 ---------------------------------------------------------------------
      1          6           0       -0.059811    1.260082    0.000226
      2          6           0        0.666259    0.035887    0.000490
      3          6           0       -0.009487   -1.216821    0.000350
      4          6           0       -1.368742   -1.237380    0.000139
      5          6           0       -2.113500   -0.017127   -0.000024
      6          6           0       -1.417974    1.231981    0.000019
      7          7           0       -3.443061   -0.043624   -0.000217
      8          7           0        2.022827    0.105370    0.000721
      9          8           0        2.662342   -1.090103   -0.000397
     10          8           0        2.695958    1.110109   -0.000230
     11          1           0        0.480834    2.199338    0.000280
     12          1           0        0.554199   -2.140949    0.000479
     13          1           0       -1.898550   -2.183624    0.000106
     14          1           0       -1.983541    2.157313   -0.000097
     15          1           0       -3.988549    0.807192   -0.000334
     16          1           0       -3.954775   -0.915136   -0.000250
     17          1           0        3.614870   -0.863361   -0.001081
 ---------------------------------------------------------------------
                    Distance matrix (angstroms):
                    1          2          3          4          5
     1  C    0.000000
     2  C    1.423317   0.000000
     3  C    2.477414   1.423344   0.000000
     4  C    2.819684   2.400508   1.359411   0.000000
     5  C    2.418451   2.780265   2.422011   1.429574   0.000000
     6  C    1.358454   2.403054   2.824972   2.469852   1.429695
     7  N    3.625746   4.110089   3.628474   2.393294   1.329825
     8  N    2.381331   1.358346   2.424559   3.647700   4.138140
     9  O    3.596316   2.291768   2.674832   4.033773   4.894890
    10  O    2.759847   2.296439   3.568478   4.693878   4.939793
    11  H    1.083743   2.171383   3.451168   3.902815   3.412227
    12  H    3.456013   2.179718   1.082476   2.124650   3.409874
    13  H    3.903854   3.391824   2.122091   1.084470   2.177134
    14  H    2.122678   3.394391   3.909178   3.449916   2.178321
    15  H    3.954755   4.718278   4.464254   3.323201   2.048246
    16  H    4.461201   4.717880   3.956806   2.606033   2.048587
    17  H    4.244089   3.082687   3.641551   4.997627   5.790539
                    6          7          8          9         10
     6  C    0.000000
     7  N    2.393354   0.000000
     8  N    3.620547   5.467918   0.000000
     9  O    4.694790   6.194438   1.355779   0.000000
    10  O    4.115737   6.246492   1.209383   2.200469   0.000000
    11  H    2.131022   4.519716   2.600470   3.947075   2.468440
    12  H    3.907189   4.514074   2.683806   2.355535   3.893137
    13  H    3.449248   2.639151   4.540560   4.690152   5.653157
    14  H    1.084484   2.640894   4.501272   5.668328   4.795242
    15  H    2.605437   1.010665   6.052205   6.916219   6.691367
    16  H    3.323472   1.010635   6.064087   6.619429   6.952256
    17  H    5.451603   7.105376   1.863611   0.979143   2.176921
                   11         12         13         14         15
    11  H    0.000000
    12  H    4.340908   0.000000
    13  H    4.987166   2.453120   0.000000
    14  H    2.464733   4.991511   4.341769   0.000000
    15  H    4.681181   5.415542   3.648709   2.417206   0.000000
    16  H    5.419831   4.672629   2.416014   3.650439   1.722659
    17  H    4.382044   3.316616   5.669294   6.361342   7.784775
                   16         17
    16  H    0.000000
    17  H    7.569822   0.000000
 Stoichiometry    C6H7N2O2(1+)
 Framework group  C1[X(C6H7N2O2)]
 Deg. of freedom    45
 Full point group                 C1      NOp   1
 Largest Abelian subgroup         C1      NOp   1
 Largest concise Abelian subgroup C1      NOp   1
                         Standard orientation:                         
 ---------------------------------------------------------------------
 Center     Atomic      Atomic             Coordinates (Angstroms)
 Number     Number       Type             X           Y           Z
 ---------------------------------------------------------------------
      1          6           0       -0.059133    1.260168    0.000160
      2          6           0        0.667213    0.036136    0.000424
      3          6           0       -0.008249   -1.216724    0.000284
      4          6           0       -1.367500   -1.237590    0.000073
      5          6           0       -2.112534   -0.017505   -0.000090
      6          6           0       -1.417289    1.231760   -0.000047
      7          7           0       -3.442088   -0.044302   -0.000283
      8          7           0        2.023765    0.105926    0.000655
      9          8           0        2.663551   -1.089402   -0.000463
     10          8           0        2.696670    1.110817   -0.000296
     11          1           0        0.481300    2.199546    0.000214
     12          1           0        0.555645   -2.140725    0.000413
     13          1           0       -1.897094   -2.183954    0.000040
[...]
 ! D6    D(2,1,6,14)           179.9999         -DE/DX =    0.0                 !
 ! D7    D(11,1,6,5)          -180.0            -DE/DX =    0.0                 !
 ! D8    D(11,1,6,14)            0.0            -DE/DX =    0.0                 !
 ! D9    D(1,2,3,4)             -0.0001         -DE/DX =    0.0                 !
 ! D10   D(1,2,3,12)           179.9999         -DE/DX =    0.0                 !
 ! D11   D(8,2,3,4)            180.0            -DE/DX =    0.0                 !
 ! D12   D(8,2,3,12)             0.0            -DE/DX =    0.0                 !
 ! D13   D(1,2,8,9)            180.0007         -DE/DX =    0.0                 !
 ! D14   D(1,2,8,10)            -0.0006         -DE/DX =    0.0                 !
 ! D15   D(3,2,8,9)              0.0006         -DE/DX =    0.0                 !
 ! D16   D(3,2,8,10)           179.9993         -DE/DX =    0.0                 !
 ! D17   D(2,3,4,5)              0.0            -DE/DX =    0.0                 !
 ! D18   D(2,3,4,13)           180.0001         -DE/DX =    0.0                 !
 ! D19   D(12,3,4,5)           180.0            -DE/DX =    0.0                 !
 ! D20   D(12,3,4,13)            0.0            -DE/DX =    0.0                 !
 ! D21   D(3,4,5,6)              0.0            -DE/DX =    0.0                 !
 ! D22   D(3,4,5,7)           -180.0            -DE/DX =    0.0                 !
 ! D23   D(13,4,5,6)          -180.0            -DE/DX =    0.0                 !
 ! D24   D(13,4,5,7)             0.0            -DE/DX =    0.0                 !
 ! D25   D(4,5,6,1)              0.0            -DE/DX =    0.0                 !
 ! D26   D(4,5,6,14)           180.0            -DE/DX =    0.0                 !
 ! D27   D(7,5,6,1)            180.0            -DE/DX =    0.0                 !
 ! D28   D(7,5,6,14)             0.0            -DE/DX =    0.0                 !
 ! D29   D(4,5,7,15)           180.0            -DE/DX =    0.0                 !
 ! D30   D(4,5,7,16)             0.0            -DE/DX =    0.0                 !
 ! D31   D(6,5,7,15)             0.0            -DE/DX =    0.0                 !
 ! D32   D(6,5,7,16)          -180.0            -DE/DX =    0.0                 !
 ! D33   D(2,8,9,17)           179.9993         -DE/DX =    0.0                 !
 ! D34   D(10,8,9,17)            0.0005         -DE/DX =    0.0                 !
 --------------------------------------------------------------------------------
 GradGradGradGradGradGradGradGradGradGradGradGradGradGradGradGradGradGrad

 1\1\ WCSS.PL-BEM-JP\Freq\RCAM-B3LYP\6-31+G(d,p)\C6H7N2O2(1+)\C612\17-D
 ec-2024\0\\#N Geom=AllCheck Guess=TCheck SCRF=Check GenChk RCAM-B3LYP/
 6-31+G(d,p) Freq\\[No Title]\\1,1\C,-0.0598951399,1.2601739769,0.00001
 20038\C,0.6661329275,0.0359616223,0.0000103611\C,-0.0094828667,-1.2167
 818756,0.0000109749\C,-1.3686498723,-1.2374007177,0.0000152866\C,-2.11
 340833,-0.0171158609,0.0000182773\C,-1.4179840641,1.2320487,0.00001637
 17\N,-3.4429043373,-0.0436557464,0.0000228454\N,2.0226330673,0.1053292
 688,0.0000064358\O,2.6620908733,-1.0902111241,-0.0000094264\O,2.695997
 3133,1.1101755239,-0.0000067896\H,0.480750806,2.1994658785,0.000010851
 2\H,0.5542974257,-2.1409090513,0.0000088403\H,-1.8983456743,-2.1837237
 037,0.0000166659\H,-1.9835003083,2.1574318957,0.0000187387\H,-3.988454
 2922,0.8071267183,0.0000250364\H,-3.954629033,-0.9151673323,0.00002434
 16\H,3.614652505,-0.8636031724,-0.0000218147\\Version=ES64L-G09RevE.01
 \State=1-A\HF=-492.2637194\RMSD=2.505e-09\RMSF=1.073e-05\ZeroPoint=0.1
 342199\Thermal=0.1425346\Dipole=-1.3720107,-0.4459061,0.0000033\Dipole
 Deriv=1.0763084,0.0259488,-0.0000045,-0.6059559,0.0275262,0.0000027,-0
 .0000045,0.,-0.0027446,-2.2917635,-0.1837284,0.0000125,0.023955,-0.130
 4922,-0.0000004,0.0000139,-0.0000008,0.0382757,1.0909667,0.0966001,-0.
 0000046,0.630347,0.1050148,-0.0000027,-0.0000032,0.0000005,0.0116761,-
 1.0668987,0.1143016,0.000004,0.8394149,-0.054519,-0.0000034,0.0000017,
 -0.0000006,-0.1679341,2.6786736,0.0835993,-0.0000097,0.0368173,0.45693
 55,0.,-0.000008,0.,0.2783695,-1.0181457,-0.2104766,0.0000037,-0.852361
 9,-0.1386083,0.0000035,0.0000012,0.0000006,-0.1647359,-2.3277601,-0.07
 80079,0.0000076,-0.0391221,-0.2181818,0.0000003,0.0000062,0.0000003,-0
 .4859841,3.997891,0.1300849,-0.0000202,0.4360362,1.417254,0.000003,-0.
 0000641,0.0000024,0.2586506,-1.1711881,0.4742934,0.0000068,1.0586789,-
 0.6920815,-0.0000062,0.0000255,-0.0000099,-0.2546351,-1.6079112,-0.342
 8149,0.0000059,-1.4008131,-0.7890968,0.0000029,0.0000327,0.0000073,-0.
 1628717,0.0770597,-0.0111066,0.0000003,0.0326636,0.1195607,0.,0.000000
 6,0.,0.1425658,0.0935139,0.0038951,0.0000001,-0.0159061,0.108154,0.,0.
 0000005,0.,0.1430417,0.0416218,-0.0296524,0.0000004,-0.0130699,0.05476
 36,0.,0.0000011,0.,0.1549015,0.0387565,0.0303079,0.0000005,0.0110626,0
 .0584434,0.,0.0000012,0.,0.1558484,0.3578909,-0.0617931,-0.0000002,-0.
 2304289,0.2026687,0.0000009,-0.0000001,0.0000001,0.3341942,0.3467759,0
 .0708596,0.,0.2346763,0.2223938,-0.000001,0.0000001,-0.0000003,0.33374
 04,0.6842088,-0.1123108,-0.0000023,-0.1459939,0.2502651,0.0000008,-0.0
 000047,0.0000005,0.3876415\Polar=196.8695329,6.3303969,86.2257674,-0.0
 007221,-0.0000118,44.677645\PG=C01 [X(C6H7N2O2)]\NImag=0\\0.80142760,0
 .05994682,0.70445750,-0.00000192,-0.00000006,0.14201740,-0.11788264,0.
 07393811,0.00000027,0.67895668,0.05245957,-0.26812707,-0.00000006,0.01
 021570,0.72474607,-0.00000004,-0.00000019,-0.05751529,-0.00000260,0.00
 000022,0.12330386,0.03083068,-0.00398485,-0.00000004,-0.11376860,-0.04
 862962,-0.00000007,0.79489523,0.00706564,-0.04551430,0.,-0.06813108,-0
 .27664982,0.,-0.05889066,0.70688708,-0.00000003,-0.00000005,0.00455467
 ,0.00000022,-0.00000009,-0.05583834,-0.00000197,0.00000053,0.14171444,
 -0.02213890,0.01822739,0.00000004,-0.04897225,-0.04383202,0.00000019,-
 0.45382307,0.01654957,0.00000120,0.80315872,0.00590920,-0.00691450,-0.
 00000001,-0.01496496,0.01519166,-0.00000002,-0.03341906,-0.13195559,0.
 00000002,0.06277861,0.68885725,0.00000006,-0.00000003,-0.00007017,0.00
 000008,0.00000012,0.00599143,0.00000123,-0.00000007,-0.05684609,-0.000
 00212,0.00000012,0.12469244,-0.04192409,-0.02934469,0.00000015,0.03254
 453,0.00055671,-0.00000019,-0.04524785,0.02638086,0.00000017,-0.137165
 95,0.07327515,0.00000026,0.80733583,-0.05714493,0.02881575,0.00000015,
 0.00100080,-0.03375019,-0.00000003,0.05496679,0.03222535,-0.00000011,0
 .03159327,-0.25949078,-0.00000024,0.00250082,0.67242691,0.00000017,0.0
 0000006,-0.00154382,-0.00000012,-0.00000001,-0.00743047,0.00000022,-0.
 00000002,-0.00162353,0.00000017,-0.00000032,-0.07010132,-0.00000211,0.
 00000018,0.17692381,-0.45746889,-0.02751805,0.00000119,-0.05094161,0.0
 4194026,0.00000024,-0.02128327,-0.01890656,0.00000003,0.04127557,0.000
 81341,-0.00000010,-0.13269495,-0.02648305,0.00000014,0.80993349,0.0211
 1434,-0.13160264,-0.00000004,0.01282893,0.01830171,0.00000005,-0.00676
 232,-0.00800911,0.00000001,0.00210899,-0.03141424,-0.00000003,-0.06827
 779,-0.26363810,0.00000016,-0.05951040,0.68415107,0.00000129,0.0000000
 5,-0.05630343,0.00000009,-0.00000011,0.00534262,0.00000005,0.00000003,
 -0.00008303,-0.00000010,-0.00000001,0.00472185,0.00000018,0.00000008,-
 0.07007532,-0.00000223,0.00000034,0.12464476,0.02081969,-0.00632845,-0
 .00000007,-0.03150863,0.00020140,0.00000016,0.02090221,0.00727975,-0.0
 0000006,-0.05687095,0.02392355,0.00000023,-0.44449734,-0.00584976,0.00
 000133,-0.05418149,-0.02605105,0.00000020,0.87604057,0.00446027,-0.010
 21556,0.,-0.00058596,0.00308912,0.00000001,-0.00345243,-0.01011081,0.,
 0.04862866,0.00483475,-0.00000015,-0.00589810,-0.14586598,-0.00000002,
 -0.05089162,0.00194432,0.00000016,-0.00000912,0.87858060,-0.00000007,0
 .00000003,0.00387936,0.00000011,0.,-0.00067464,-0.00000007,-0.00000004
 ,0.00393617,0.00000026,-0.00000009,0.01080877,0.00000135,-0.00000001,-
 0.04998383,0.00000022,0.00000009,0.01084711,-0.00000286,0.00000028,0.0
 4964433,-0.07275916,0.03735245,0.00000005,-0.27114710,-0.01204772,0.00
 000041,-0.06162864,-0.03678585,-0.00000015,0.02777651,-0.01829290,0.,-
 0.03551214,-0.00022932,0.00000008,0.02665683,0.01896857,0.00000001,0.0
 3215010,0.00047771,-0.00000011,0.87418933,0.02900077,0.01571506,-0.000
 00007,0.01199526,-0.13501984,-0.00000010,-0.03911903,0.00863296,0.0000
 0003,-0.00140586,-0.01063324,0.,-0.00460023,-0.00506982,0.00000001,0.0
 0747451,-0.00529457,0.00000002,0.00400075,0.00054837,-0.00000001,0.151
 31641,0.77105339,0.00000057,-0.00000036,-0.00559565,0.00000115,0.00000
 006,-0.06715463,0.00000042,0.00000036,-0.01027867,-0.00000022,0.000000
 23,0.00557498,0.00000049,0.00000006,-0.00163837,-0.00000025,-0.0000002
 9,0.00528548,-0.00000046,-0.00000002,-0.00026089,-0.00000702,-0.000002
 43,0.20441791,0.00091802,-0.01016160,0.00000011,-0.03912837,0.05312565
 ,0.00000086,-0.00160486,0.00387267,0.00000003,-0.00287209,0.00260539,0
 .,0.00688068,0.00381148,-0.00000001,-0.00636507,-0.00118469,-0.0000000
 1,-0.00633286,-0.00082884,0.00000002,-0.19237387,0.06308764,0.00000172
 ,0.64941925,-0.01085582,0.00680828,-0.00000005,0.03686954,-0.00102183,
 -0.00000051,-0.00990002,-0.00762655,0.00000006,0.00542721,-0.00313254,
 0.,-0.00871413,-0.00220242,0.00000002,0.00613408,0.00590400,0.,0.00803
 797,0.00077752,-0.00000003,0.00224668,-0.18788927,-0.00000004,0.050628
 18,0.37103757,-0.00000010,0.00000017,0.00473681,0.00000036,-0.00000047
 ,0.00970328,-0.00000004,-0.00000011,0.00045830,0.00000007,-0.00000006,
 -0.00074917,-0.00000018,-0.00000008,0.00009951,0.00000012,0.00000009,0
 .00007518,0.00000017,0.00000002,0.00008741,0.00000186,-0.00000181,-0.0
 5336548,-0.00000795,0.00000037,0.02383629,0.00755298,-0.00913866,-0.00
 000008,-0.06115535,-0.05576724,0.00000097,0.00622213,0.01388335,0.0000
 0021,-0.01000175,0.00393034,-0.00000001,0.01175351,-0.00398482,-0.0000
 0003,-0.00555588,-0.00522117,0.,-0.01072419,0.00058996,0.00000003,-0.2
 9261644,-0.22875950,0.00000314,0.04104820,0.00994602,-0.00000016,0.313
 54842,0.01798086,-0.01225758,-0.00000011,-0.06287561,-0.00741815,0.000
 00066,0.01299399,0.01008191,0.00000011,-0.00934112,0.00814443,0.,0.013
 55660,-0.00222611,-0.00000004,-0.00789218,-0.00480689,0.,-0.01201565,0
 .00061576,0.00000004,-0.21388710,-0.45820868,0.00000336,-0.01711773,-0
 .10000895,0.00000036,0.28356957,0.56358828,-0.00000019,0.00000018,-0.0
 0119773,0.00000051,0.00000042,0.01653091,-0.00000010,-0.00000021,0.009
 52887,0.00000013,-0.00000010,-0.00093000,-0.00000024,0.00000003,0.0002
 0115,0.00000012,0.00000011,-0.00064382,0.00000023,0.,0.00009380,0.0000
 0383,0.00000442,-0.07469577,-0.00000026,-0.00000053,0.02160898,-0.0000
 0395,-0.00000448,0.03352132,-0.13060287,-0.12787411,0.00000018,0.01140
 869,0.01508100,0.,-0.00217752,0.00346560,0.00000002,-0.00066240,0.0004
 0773,0.,-0.00488335,0.00094623,0.00000004,-0.00917663,-0.02642490,0.00
 000003,-0.00032343,-0.00141219,0.,0.00332432,0.00264660,-0.00000006,0.
 00010026,-0.00066655,0.,-0.00437803,-0.00096845,0.00000005,0.13626633,
 -0.12693594,-0.28565016,0.00000027,-0.01223763,-0.01706648,0.00000001,
 0.00378846,-0.00198370,0.,-0.00001300,0.00061956,0.,0.00136830,-0.0001
 4570,0.,0.00287659,0.00746163,0.,0.00042503,0.00054578,0.,-0.00321214,
 -0.00348162,0.00000005,0.00006027,0.00032608,0.,0.00016442,0.00312759,
 -0.00000003,0.13422379,0.29603547,0.00000015,0.00000030,-0.04272086,0.
 00000004,-0.00000007,0.00430724,0.,0.,0.00313271,0.,0.,-0.00120966,0.0
 0000004,-0.00000001,0.01083686,0.00000007,0.00000008,0.00743099,0.,0.,
 -0.00077707,-0.00000007,-0.00000002,-0.00225182,0.,0.,-0.00037221,0.00
 000003,0.00000002,0.00028146,-0.00000025,-0.00000029,0.02712895,-0.002
 02355,-0.00349385,0.00000002,0.01157575,-0.01444833,0.,-0.13829598,0.1
 3333440,0.00000033,-0.01007755,0.02609272,0.00000006,-0.00504596,-0.00
 112214,0.00000004,-0.00051825,-0.00032965,0.,-0.00020696,0.00140882,0.
 ,0.00384022,-0.00099691,-0.00000008,-0.00635699,-0.00060434,0.00000008
 ,-0.00052441,0.00029892,0.00000002,0.00065763,-0.00067808,0.,0.1465842
 2,-0.00389924,-0.00209994,0.,0.01354709,-0.01645128,-0.00000004,0.1319
 9617,-0.28061586,-0.00000050,-0.00330620,0.00797488,0.,-0.00161165,-0.
 00020939,0.,0.00006540,0.00067319,0.,-0.00032465,0.00055885,0.,0.00276
 455,-0.00223759,-0.00000005,0.00043416,0.00131934,0.,-0.00053039,0.000
 14423,0.00000002,0.00072842,-0.00061263,0.,-0.13959517,0.28991039,0.,0
 .,0.00330316,0.00000005,0.00000006,0.00348388,0.00000030,-0.00000056,-
 0.04208538,0.00000007,-0.00000007,0.00745502,0.00000004,0.00000001,0.0
 1070745,0.,0.,-0.00118015,0.,0.,-0.00074062,-0.00000007,0.,-0.00236611
 ,0.00000006,0.,0.00089856,0.,0.,0.00000049,0.,0.,0.00106841,-0.0000004
 3,0.00000056,0.02660493,-0.00067179,0.00050524,0.,-0.00422472,0.001924
 61,0.00000003,-0.01202575,-0.02873391,0.00000002,-0.12783347,-0.123308
 52,0.00000027,0.01069948,0.01710723,-0.00000001,-0.00210790,0.00300451
 ,0.00000003,0.00198576,0.00051818,-0.00000002,-0.00017307,-0.00190387,
 0.00000002,-0.00005975,-0.00001019,0.,-0.00065204,0.00010067,0.,0.0000
 5033,-0.00007911,0.,0.00068613,-0.00015139,-0.00000002,0.13427493,0.00
 100982,-0.00009547,0.,0.00147390,0.00150447,0.,0.00178210,0.00538066,0
 .,-0.12369267,-0.28363566,0.00000028,-0.01479507,-0.01813651,0.0000000
 3,0.00346128,-0.00214441,-0.00000002,-0.00090886,0.00167736,0.,-0.0001
 7960,0.00041554,0.,-0.00001865,-0.00005567,0.,0.00036222,0.00020518,0.
 ,-0.00005410,0.00001791,0.,0.00006962,0.00086493,0.,0.13034015,0.29512
 981,0.,0.,-0.00067614,0.,-0.00000003,0.00839673,0.00000006,0.00000009,
 0.00404897,0.00000028,0.00000030,-0.03613954,-0.00000005,-0.00000006,0
 .00339701,0.00000002,0.,0.00404532,0.,0.,-0.00214654,0.00000005,0.0000
 0002,0.00208921,0.,0.,0.00007118,-0.00000002,-0.00000001,-0.00125550,0
 .,0.,-0.00040940,-0.00000002,0.,-0.00594961,-0.00000031,-0.00000030,0.
 02444889,-0.01290686,0.02805047,0.00000004,-0.00408544,-0.00210661,0.0
 0000003,-0.00061755,-0.00051699,0.,-0.00185289,-0.00299955,0.00000002,
 0.01074177,-0.01592869,-0.00000003,-0.13758487,0.12894182,0.00000042,0
 .00199520,-0.00049000,-0.00000002,-0.00021580,0.00163016,0.00000002,-0
 .00076854,-0.00010047,0.,0.00002038,0.00007519,0.,0.00073853,0.0001184
 8,-0.00000002,0.00004209,0.00007780,0.,0.00064644,-0.00069428,0.,0.144
 47366,-0.00239508,0.00644011,0.,-0.00171401,0.00138251,0.,-0.00100832,
 -0.00015259,0.,-0.00345105,-0.00235867,0.00000001,0.01589006,-0.018105
 94,-0.00000006,0.12925550,-0.27394908,-0.00000052,0.00092487,0.0016747
 4,0.,0.00024975,0.00051503,0.,-0.00037254,0.00017327,0.,-0.00001476,-0
 .00012035,0.,-0.00006729,0.00083645,0.,0.00005062,0.00002005,0.,0.0007
 4550,-0.00075419,0.,-0.13624457,0.28484126,0.00000006,-0.00000009,0.00
 403794,0.,0.00000002,0.00864690,0.,0.,-0.00064106,0.00000002,0.,0.0040
 5826,-0.00000004,0.00000004,0.00339673,0.00000043,-0.00000054,-0.03629
 150,0.,0.,-0.00213525,0.00000003,0.,0.00173487,0.,0.,-0.00084515,0.,0.
 ,0.00015658,-0.00000002,0.,-0.00599836,0.,0.,-0.00045406,0.,0.,-0.0001
 6601,-0.00000046,0.00000056,0.02449648,-0.00072188,0.00018083,0.,0.001
 55998,-0.00009844,0.,-0.00060081,0.00152341,0.,-0.00341638,-0.00357536
 ,0.00000003,-0.01588088,0.03162572,0.00000006,0.00206217,0.00210892,-0
 .00000002,-0.18247671,0.17228571,0.00000066,-0.00177487,-0.00035202,0.
 00000004,0.00052957,-0.00058853,-0.00000001,0.00063124,0.00068797,-0.0
 0000002,0.00004702,-0.00007400,0.,-0.00033649,-0.00009939,0.,0.0000178
 8,0.00019566,0.,-0.00066194,-0.00166761,0.,0.18577925,0.00197217,-0.00
 117421,0.,-0.00309589,0.00008806,0.00000002,0.00183308,0.00106572,0.,-
 0.00409630,0.00219231,0.,0.00298297,0.00861772,0.,-0.00452628,0.000830
 28,0.00000002,0.17109702,-0.35779080,-0.00000071,0.00358465,0.00056569
 ,-0.00000006,-0.00063452,0.00087915,0.00000002,-0.00131693,-0.00159167
 ,0.00000003,-0.00009587,0.00005242,0.,-0.00006629,-0.00004350,0.,-0.00
 014283,0.00017340,0.,-0.00010921,-0.00065735,0.,-0.18547488,0.36013992
 ,0.,0.,-0.00066441,0.,0.,0.00021341,0.,-0.00000001,0.00161383,0.000000
 05,0.,0.00660394,0.00000005,-0.00000010,-0.00178145,-0.00000003,0.,-0.
 00414788,0.00000066,-0.00000071,-0.01123437,0.,0.,-0.00004582,0.,0.,0.
 00007721,0.,0.,-0.00001249,0.,0.,0.00041759,0.,0.,-0.00089180,0.,0.,-0
 .00047599,0.,0.,0.00071652,-0.00000067,0.00000076,0.01101897,-0.000473
 23,-0.00158617,0.,0.00145291,0.00008881,0.,-0.00068163,-0.00016820,0.,
 0.00195162,-0.00206241,-0.00000002,-0.01450611,-0.03258441,0.00000003,
 -0.00368702,0.00335027,0.00000004,-0.16918417,-0.16486819,0.00000050,-
 0.00167839,-0.00022721,0.00000003,0.00034631,-0.00040008,0.,0.00076310
 ,0.00085831,-0.00000002,-0.00033058,0.00008848,0.,0.00003879,0.0000680
 0,0.,-0.00065836,0.00167993,0.,0.00002036,-0.00020129,0.,0.01542507,0.
 01781502,-0.00000005,0.17137435,-0.00185965,0.00094843,0.,0.00313181,0
 .00002355,-0.00000002,-0.00195957,-0.00121737,0.,0.00453063,0.00089094
 ,-0.00000001,-0.00386559,0.00717637,0.00000002,0.00386927,0.00247123,-
 0.00000001,-0.16368996,-0.37097511,0.00000045,-0.00363330,-0.00056071,
 0.00000006,0.00078918,-0.00103311,-0.00000002,0.00122121,0.00144501,-0
 .00000003,0.00007132,-0.00005334,0.,0.00007236,0.00004027,0.,0.0000916
 0,-0.00057282,0.,0.00014075,0.00017299,0.,-0.01670385,-0.01326251,0.00
 000006,0.17808127,0.37442720,0.,0.00000001,0.00156422,0.,-0.00000001,0
 .00033187,0.,0.,-0.00069960,-0.00000003,0.,-0.00413006,0.00000004,0.00
 000011,-0.00178701,0.00000005,0.,0.00664292,0.00000050,0.00000045,-0.0
 1121641,0.,0.,0.00002352,0.,0.,-0.00013226,0.,0.,-0.00000771,0.,0.,-0.
 00091976,0.,0.,0.00040850,0.,0.,0.00072127,0.,0.,-0.00047297,-0.000000
 06,-0.00000007,-0.00136812,-0.00000050,-0.00000050,0.01097609,-0.00197
 512,0.00122912,0.00000003,0.00531615,0.00133629,0.00000003,-0.00109473
 ,-0.00122201,-0.00000001,0.00152523,-0.00111335,0.,-0.00259716,-0.0002
 2522,0.00000001,0.00163777,0.00133561,0.,0.00241320,0.00006712,0.,-0.0
 3805782,0.00621252,0.00000050,-0.44337990,-0.08744954,0.00000578,0.004
 06812,-0.00602423,-0.00000011,-0.00005831,0.00011609,0.,-0.00003869,-0
 .00016351,0.,0.00004590,-0.00003146,0.,0.00001546,0.00002022,0.,-0.000
 18221,0.00027407,0.,-0.00017302,-0.00028749,0.,0.47253514,0.00217119,0
 .00046630,-0.00000001,-0.00139600,-0.00882250,-0.00000006,-0.00023473,
 -0.00043799,0.00000001,-0.00070610,0.00082946,0.,0.00059578,-0.0004211
 5,0.,-0.00016217,-0.00087839,0.,-0.00071284,0.00011111,0.,0.07130718,0
 .01094930,-0.00000095,-0.14809606,-0.08425486,0.00000151,-0.00893362,-
 0.00071403,0.00000019,-0.00000723,-0.00002926,0.,0.00000731,0.00076408
 ,0.,-0.00000789,0.00002547,0.,0.00015570,0.00004177,0.,0.00002585,-0.0
 0008464,0.,0.00006787,0.00007896,0.,0.08592577,0.08237638,0.00000005,-
 0.00000002,0.00219393,-0.00000016,-0.00000004,0.00236123,0.,0.00000002
 ,-0.00089226,-0.00000002,0.00000002,0.00026931,0.00000004,0.,0.0004026
 1,-0.00000003,-0.00000003,-0.00031110,-0.00000004,0.,-0.00012731,0.000
 00108,-0.00000004,-0.00147276,0.00000544,0.00000069,-0.00618845,-0.000
 00016,0.00000008,-0.00318053,0.,0.,0.00005492,0.,0.,-0.00026265,0.,0.,
 0.00000015,0.,0.,-0.00023992,0.,0.,-0.00003916,0.,0.,0.00006550,-0.000
 00621,-0.00000070,0.00736649\\-0.00002699,-0.00000378,-0.00000033,0.00
 002814,-0.00000394,-0.00000055,-0.00002830,0.00000102,-0.00000029,0.00
 002191,-0.00001058,0.00000004,-0.00002353,0.00000002,-0.00000003,0.000
 01877,0.00001361,0.00000004,0.00000226,0.00000068,0.,0.00002585,0.0000
 1848,0.00000310,-0.00000277,0.00000876,-0.00000083,-0.00001473,-0.0000
 1414,-0.00000116,0.00000548,0.00000376,0.00000002,0.00000764,-0.000003
 81,0.,-0.00000648,-0.00000178,0.00000005,-0.00000696,0.00000123,0.0000
 0006,-0.00000051,-0.00000074,0.,-0.00000031,0.00000087,0.,0.00000054,-
 0.00000967,-0.00000010\\\@


 THE FIRST AND LAST THING REQUIRED OF GENIUS IS THE LOVE OF TRUTH.

                          -- GOETHE
 Job cpu time:       0 days  0 hours 13 minutes 38.8 seconds.
 File lengths (MBytes):  RWF=     93 Int=      0 D2E=      0 Chk=      5 Scr=      1
 Normal termination of Gaussian 09 at Tue Dec 17 19:49:38 2024.
