 Entering Gaussian System, Link 0=g09
 Input=m062x6311PNA.gjf
 Output=m062x6311PNA.log
 Initial command:
 /home/phzd/g09E/g09/l1.exe "/home/phzd/g09E/scratch/Gau-68086.inp" -scrdir="/home/phzd/g09E/scratch/"
 Default is to use a total of  18 processors:
                               18 via shared-memory
                                1 via Linda
 Entering Link 1 = /home/phzd/g09E/g09/l1.exe PID=     68088.
  
 Copyright (c) 1988,1990,1992,1993,1995,1998,2003,2009,2015,
            Gaussian, Inc.  All Rights Reserved.
  
 This is part of the Gaussian(R) 09 program.  It is based on
 the Gaussian(R) 03 system (copyright 2003, Gaussian, Inc.),
 the Gaussian(R) 98 system (copyright 1998, Gaussian, Inc.),
 the Gaussian(R) 94 system (copyright 1995, Gaussian, Inc.),
 the Gaussian 92(TM) system (copyright 1992, Gaussian, Inc.),
 the Gaussian 90(TM) system (copyright 1990, Gaussian, Inc.),
 the Gaussian 88(TM) system (copyright 1988, Gaussian, Inc.),
 the Gaussian 86(TM) system (copyright 1986, Carnegie Mellon
 University), and the Gaussian 82(TM) system (copyright 1983,
 Carnegie Mellon University). Gaussian is a federally registered
 trademark of Gaussian, Inc.
  
 This software contains proprietary and confidential information,
 including trade secrets, belonging to Gaussian, Inc.
  
 This software is provided under written license and may be
 used, copied, transmitted, or stored only in accord with that
 written license.
  
 The following legend is applicable only to US Government
 contracts under FAR:
  
                    RESTRICTED RIGHTS LEGEND
  
 Use, reproduction and disclosure by the US Government is
 subject to restrictions as set forth in subparagraphs (a)
 and (c) of the Commercial Computer Software - Restricted
 Rights clause in FAR 52.227-19.
  
 Gaussian, Inc.
 340 Quinnipiac St., Bldg. 40, Wallingford CT 06492
  
  
 ---------------------------------------------------------------
 Warning -- This program may not be used in any manner that
 competes with the business of Gaussian, Inc. or will provide
 assistance to any competitor of Gaussian, Inc.  The licensee
 of this program is prohibited from giving any competitor of
 Gaussian, Inc. access to this program.  By using this program,
 the user acknowledges that Gaussian, Inc. is engaged in the
 business of creating and licensing software in the field of
 computational chemistry and represents and warrants to the
 licensee that it is not a competitor of Gaussian, Inc. and that
 it will not use this program in any manner prohibited above.
 ---------------------------------------------------------------
  

 Cite this work as:
 Gaussian 09, Revision E.01,
 M. J. Frisch, G. W. Trucks, H. B. Schlegel, G. E. Scuseria, 
 M. A. Robb, J. R. Cheeseman, G. Scalmani, V. Barone, B. Mennucci, 
 G. A. Petersson, H. Nakatsuji, M. Caricato, X. Li, H. P. Hratchian, 
 A. F. Izmaylov, J. Bloino, G. Zheng, J. L. Sonnenberg, M. Hada, 
 M. Ehara, K. Toyota, R. Fukuda, J. Hasegawa, M. Ishida, T. Nakajima, 
 Y. Honda, O. Kitao, H. Nakai, T. Vreven, J. A. Montgomery, Jr., 
 J. E. Peralta, F. Ogliaro, M. Bearpark, J. J. Heyd, E. Brothers, 
 K. N. Kudin, V. N. Staroverov, T. Keith, R. Kobayashi, J. Normand, 
 K. Raghavachari, A. Rendell, J. C. Burant, S. S. Iyengar, J. Tomasi, 
 M. Cossi, N. Rega, J. M. Millam, M. Klene, J. E. Knox, J. B. Cross, 
 V. Bakken, C. Adamo, J. Jaramillo, R. Gomperts, R. E. Stratmann, 
 O. Yazyev, A. J. Austin, R. Cammi, C. Pomelli, J. W. Ochterski, 
 R. L. Martin, K. Morokuma, V. G. Zakrzewski, G. A. Voth, 
 P. Salvador, J. J. Dannenberg, S. Dapprich, A. D. Daniels, 
 O. Farkas, J. B. Foresman, J. V. Ortiz, J. Cioslowski, 
 and D. J. Fox, Gaussian, Inc., Wallingford CT, 2013.
 
 ******************************************
 Gaussian 09:  ES64L-G09RevE.01 30-Nov-2015
                13-Jun-2024 
 ******************************************
 %chk=m062x6311PNA.chk
 -----------------------------
 # opt freq m062x/6-311+g(d,p)
 -----------------------------
 1/14=-1,18=20,19=15,26=3,38=1/1,3;
 2/9=110,12=2,17=6,18=5,40=1/2;
 3/5=4,6=6,7=111,11=2,16=1,25=1,30=1,71=1,74=-55/1,2,3;
 4//1;
 5/5=2,38=5/2;
 6/7=2,8=2,9=2,10=2,28=1/1;
 7//1,2,3,16;
 1/14=-1,18=20,19=15,26=3/3(2);
 2/9=110/2;
 99//99;
 2/9=110/2;
 3/5=4,6=6,7=111,11=2,16=1,25=1,30=1,71=1,74=-55/1,2,3;
 4/5=5,16=3,69=1/1;
 5/5=2,38=5/2;
 7//1,2,3,16;
 1/14=-1,18=20,19=15,26=3/3(-5);
 2/9=110/2;
 6/7=2,8=2,9=2,10=2,19=2,28=1/1;
 99/9=1/99;
 ----------
 [No Title]
 ----------
 Symbolic Z-matrix:
 Charge =  0 Multiplicity = 1
 C                    -0.0218    1.21641   0.00023 
 C                    -0.71134   0.        0.00039 
 C                    -0.0218   -1.2164    0.0003 
 C                     1.36325  -1.2161    0.00016 
 C                     2.08217  0.         0.00006 
 C                     1.36325   1.2161    0.00009 
 N                     3.4515    0.       -0.00007 
 N                    -2.16391   0.        0.00061 
 O                    -2.7452   -1.0916   -0.0007 
 O                    -2.74521   1.0916   -0.00077 
 H                    -0.58095   2.14355   0.00027 
 H                    -0.58095  -2.14355   0.0004 
 H                     1.90326  -2.15827   0.00014 
 H                     1.90326   2.15827   0.00002 
 H                     3.9715    0.86123  -0.00016 
 H                     3.9715   -0.86123  -0.0001 
 

 GradGradGradGradGradGradGradGradGradGradGradGradGradGradGradGradGradGrad
 Berny optimization.
 Initialization pass.
                           ----------------------------
                           !    Initial Parameters    !
                           ! (Angstroms and Degrees)  !
 --------------------------                            --------------------------
 ! Name  Definition              Value          Derivative Info.                !
 --------------------------------------------------------------------------------
 ! R1    R(1,2)                  1.3983         estimate D2E/DX2                !
 ! R2    R(1,6)                  1.3851         estimate D2E/DX2                !
 ! R3    R(1,11)                 1.0827         estimate D2E/DX2                !
 ! R4    R(2,3)                  1.3983         estimate D2E/DX2                !
 ! R5    R(2,8)                  1.4526         estimate D2E/DX2                !
 ! R6    R(3,4)                  1.3851         estimate D2E/DX2                !
 ! R7    R(3,12)                 1.0827         estimate D2E/DX2                !
 ! R8    R(4,5)                  1.4127         estimate D2E/DX2                !
 ! R9    R(4,13)                 1.086          estimate D2E/DX2                !
 ! R10   R(5,6)                  1.4127         estimate D2E/DX2                !
 ! R11   R(5,7)                  1.3693         estimate D2E/DX2                !
 ! R12   R(6,14)                 1.086          estimate D2E/DX2                !
 ! R13   R(7,15)                 1.006          estimate D2E/DX2                !
 ! R14   R(7,16)                 1.006          estimate D2E/DX2                !
 ! R15   R(8,9)                  1.2367         estimate D2E/DX2                !
 ! R16   R(8,10)                 1.2367         estimate D2E/DX2                !
 ! A1    A(2,1,6)              119.5352         estimate D2E/DX2                !
 ! A2    A(2,1,11)             119.3587         estimate D2E/DX2                !
 ! A3    A(6,1,11)             121.1062         estimate D2E/DX2                !
 ! A4    A(1,2,3)              120.9048         estimate D2E/DX2                !
 ! A5    A(1,2,8)              119.5476         estimate D2E/DX2                !
 ! A6    A(3,2,8)              119.5475         estimate D2E/DX2                !
 ! A7    A(2,3,4)              119.5353         estimate D2E/DX2                !
 ! A8    A(2,3,12)             119.3585         estimate D2E/DX2                !
 ! A9    A(4,3,12)             121.1062         estimate D2E/DX2                !
 ! A10   A(3,4,5)              120.6023         estimate D2E/DX2                !
 ! A11   A(3,4,13)             119.8071         estimate D2E/DX2                !
 ! A12   A(5,4,13)             119.5906         estimate D2E/DX2                !
 ! A13   A(4,5,6)              118.8201         estimate D2E/DX2                !
 ! A14   A(4,5,7)              120.5901         estimate D2E/DX2                !
 ! A15   A(6,5,7)              120.5898         estimate D2E/DX2                !
 ! A16   A(1,6,5)              120.6024         estimate D2E/DX2                !
 ! A17   A(1,6,14)             119.8071         estimate D2E/DX2                !
 ! A18   A(5,6,14)             119.5905         estimate D2E/DX2                !
 ! A19   A(5,7,15)             121.1236         estimate D2E/DX2                !
 ! A20   A(5,7,16)             121.1233         estimate D2E/DX2                !
 ! A21   A(15,7,16)            117.7531         estimate D2E/DX2                !
 ! A22   A(2,8,9)              118.0358         estimate D2E/DX2                !
 ! A23   A(2,8,10)             118.0364         estimate D2E/DX2                !
 ! A24   A(9,8,10)             123.9276         estimate D2E/DX2                !
 ! D1    D(6,1,2,3)             -0.0059         estimate D2E/DX2                !
 ! D2    D(6,1,2,8)            179.9966         estimate D2E/DX2                !
 ! D3    D(11,1,2,3)           179.9978         estimate D2E/DX2                !
 ! D4    D(11,1,2,8)             0.0004         estimate D2E/DX2                !
 ! D5    D(2,1,6,5)              0.0029         estimate D2E/DX2                !
 ! D6    D(2,1,6,14)          -179.9966         estimate D2E/DX2                !
 ! D7    D(11,1,6,5)           179.999          estimate D2E/DX2                !
 ! D8    D(11,1,6,14)           -0.0004         estimate D2E/DX2                !
 ! D9    D(1,2,3,4)              0.0059         estimate D2E/DX2                !
 ! D10   D(1,2,3,12)          -179.9979         estimate D2E/DX2                !
 ! D11   D(8,2,3,4)           -179.9966         estimate D2E/DX2                !
 ! D12   D(8,2,3,12)            -0.0004         estimate D2E/DX2                !
 ! D13   D(1,2,8,9)            179.9235         estimate D2E/DX2                !
 ! D14   D(1,2,8,10)             0.0742         estimate D2E/DX2                !
 ! D15   D(3,2,8,9)             -0.074          estimate D2E/DX2                !
 ! D16   D(3,2,8,10)          -179.9233         estimate D2E/DX2                !
 ! D17   D(2,3,4,5)             -0.0029         estimate D2E/DX2                !
 ! D18   D(2,3,4,13)           179.9966         estimate D2E/DX2                !
 ! D19   D(12,3,4,5)          -179.999          estimate D2E/DX2                !
 ! D20   D(12,3,4,13)            0.0005         estimate D2E/DX2                !
 ! D21   D(3,4,5,6)             -0.0001         estimate D2E/DX2                !
 ! D22   D(3,4,5,7)            179.9996         estimate D2E/DX2                !
 ! D23   D(13,4,5,6)          -179.9996         estimate D2E/DX2                !
 ! D24   D(13,4,5,7)             0.0002         estimate D2E/DX2                !
 ! D25   D(4,5,6,1)              0.0001         estimate D2E/DX2                !
 ! D26   D(4,5,6,14)           179.9996         estimate D2E/DX2                !
 ! D27   D(7,5,6,1)           -179.9996         estimate D2E/DX2                !
 ! D28   D(7,5,6,14)            -0.0002         estimate D2E/DX2                !
 ! D29   D(4,5,7,15)           179.9994         estimate D2E/DX2                !
 ! D30   D(4,5,7,16)             0.0007         estimate D2E/DX2                !
 ! D31   D(6,5,7,15)            -0.0008         estimate D2E/DX2                !
 ! D32   D(6,5,7,16)          -179.9995         estimate D2E/DX2                !
 --------------------------------------------------------------------------------
 Trust Radius=3.00D-01 FncErr=1.00D-07 GrdErr=1.00D-06
 Number of steps in this run=     82 maximum allowed number of steps=    100.
 GradGradGradGradGradGradGradGradGradGradGradGradGradGradGradGradGradGrad

                          Input orientation:                          
 ---------------------------------------------------------------------
 Center     Atomic      Atomic             Coordinates (Angstroms)
 Number     Number       Type             X           Y           Z
 ---------------------------------------------------------------------
      1          6           0       -0.021796    1.216405    0.000228
      2          6           0       -0.711339    0.000001    0.000394
      3          6           0       -0.021797   -1.216402    0.000299
      4          6           0        1.363253   -1.216104    0.000162
      5          6           0        2.082168   -0.000001    0.000057
      6          6           0        1.363254    1.216104    0.000091
      7          7           0        3.451498    0.000001   -0.000071
      8          7           0       -2.163906    0.000000    0.000613
      9          8           0       -2.745196   -1.091600   -0.000701
     10          8           0       -2.745209    1.091597   -0.000768
     11          1           0       -0.580949    2.143553    0.000271
     12          1           0       -0.580954   -2.143550    0.000397
     13          1           0        1.903261   -2.158272    0.000144
     14          1           0        1.903264    2.158270    0.000018
     15          1           0        3.971504    0.861227   -0.000155
     16          1           0        3.971503   -0.861226   -0.000103
 ---------------------------------------------------------------------
                    Distance matrix (angstroms):
                    1          2          3          4          5
     1  C    0.000000
     2  C    1.398252   0.000000
     3  C    2.432807   1.398250   0.000000
     4  C    2.799189   2.404754   1.385050   0.000000
     5  C    2.430290   2.793507   2.430288   1.412708   0.000000
     6  C    1.385050   2.404754   2.799188   2.432208   1.412710
     7  N    3.680137   4.162837   3.680138   2.416543   1.369330
     8  N    2.463387   1.452567   2.463385   3.730919   4.246074
     9  O    3.569845   2.308283   2.726257   4.110335   4.949246
    10  O    2.726272   2.308292   3.569851   4.712212   4.949258
    11  H    1.082707   2.147514   3.406163   3.881651   3.418628
    12  H    3.406164   2.147513   1.082710   2.154088   3.418629
    13  H    3.885137   3.390321   2.143121   1.085951   2.165673
    14  H    2.143121   3.390321   3.885135   3.417311   2.165673
    15  H    4.009064   4.761379   4.501444   3.334408   2.076368
    16  H    4.501443   4.761378   4.009064   2.632282   2.076366
                    6          7          8          9         10
     6  C    0.000000
     7  N    2.416541   0.000000
     8  N    3.730920   5.615404   0.000000
     9  O    4.712203   6.292107   1.236726   0.000000
    10  O    4.110349   6.292119   1.236729   2.183197   0.000000
    11  H    2.154086   4.566776   2.664690   3.892323   2.406374
    12  H    3.881652   4.566780   2.664685   2.406355   3.892323
    13  H    3.417312   2.656159   4.604344   4.769271   5.671854
    14  H    1.085950   2.656154   4.604346   5.671846   4.769286
    15  H    2.632281   1.006040   6.195560   6.994826   6.720662
    16  H    3.334406   1.006040   6.195559   6.720649   6.994837
                   11         12         13         14         15
    11  H    0.000000
    12  H    4.287103   0.000000
    13  H    4.967595   2.484259   0.000000
    14  H    2.484257   4.967594   4.316542   0.000000
    15  H    4.729608   5.454682   3.659918   2.441298   0.000000
    16  H    5.454678   4.729611   2.441302   3.659914   1.722453
                   16
    16  H    0.000000
 Stoichiometry    C6H6N2O2
 Framework group  C1[X(C6H6N2O2)]
 Deg. of freedom    42
 Full point group                 C1      NOp   1
 Largest Abelian subgroup         C1      NOp   1
 Largest concise Abelian subgroup C1      NOp   1
                         Standard orientation:                         
 ---------------------------------------------------------------------
 Center     Atomic      Atomic             Coordinates (Angstroms)
 Number     Number       Type             X           Y           Z
 ---------------------------------------------------------------------
      1          6           0        0.021796   -1.216405    0.000228
      2          6           0        0.711339   -0.000001    0.000394
      3          6           0        0.021797    1.216402    0.000299
      4          6           0       -1.363253    1.216104    0.000162
      5          6           0       -2.082168    0.000001    0.000057
      6          6           0       -1.363254   -1.216104    0.000091
      7          7           0       -3.451498   -0.000001   -0.000071
      8          7           0        2.163906    0.000000    0.000613
      9          8           0        2.745196    1.091600   -0.000701
     10          8           0        2.745209   -1.091597   -0.000768
     11          1           0        0.580949   -2.143553    0.000271
     12          1           0        0.580954    2.143550    0.000397
     13          1           0       -1.903261    2.158272    0.000144
     14          1           0       -1.903264   -2.158270    0.000018
     15          1           0       -3.971504   -0.861227   -0.000155
     16          1           0       -3.971503    0.861226   -0.000103
 ---------------------------------------------------------------------
 Rotational constants (GHZ):      3.9094978      0.8215452      0.6788840
 Standard basis: 6-311+G(d,p) (5D, 7F)
 There are   266 symmetry adapted cartesian basis functions of A   symmetry.
 There are   256 symmetry adapted basis functions of A   symmetry.
   256 basis functions,   408 primitive gaussians,   266 cartesian basis functions
    36 alpha electrons       36 beta electrons
       nuclear repulsion energy       494.6945858361 Hartrees.
 NAtoms=   16 NActive=   16 NUniq=   16 SFac= 1.00D+00 NAtFMM=   60 NAOKFM=F Big=F
 Integral buffers will be    131072 words long.
 Raffenetti 2 integral format.
 Two-electron integral symmetry is turned on.
 One-electron integrals computed using PRISM.
 NBasis=   256 RedAO= T EigKep=  2.24D-06  NBF=   256
 NBsUse=   256 1.00D-06 EigRej= -1.00D+00 NBFU=   256
 ExpMin= 4.38D-02 ExpMax= 8.59D+03 ExpMxC= 1.30D+03 IAcc=2 IRadAn=         4 AccDes= 0.00D+00
 Harris functional with IExCor= 1009 and IRadAn=       4 diagonalized for initial guess.
 HarFok:  IExCor= 1009 AccDes= 0.00D+00 IRadAn=         4 IDoV= 1 UseB2=F ITyADJ=14
 ICtDFT=  3500011 ScaDFX=  1.000000  1.000000  1.000000  1.000000
 FoFCou: FMM=F IPFlag=           0 FMFlag=      100000 FMFlg1=           0
         NFxFlg=           0 DoJE=T BraDBF=F KetDBF=T FulRan=T
         wScrn=  0.000000 ICntrl=     500 IOpCl=  0 I1Cent=   200000004 NGrid=           0
         NMat0=    1 NMatS0=      1 NMatT0=    0 NMatD0=    1 NMtDS0=    0 NMtDT0=    0
 Petite list used in FoFCou.
 Keep R1 ints in memory in canonical form, NReq=550844378.
 Requested convergence on RMS density matrix=1.00D-08 within 128 cycles.
 Requested convergence on MAX density matrix=1.00D-06.
 Requested convergence on             energy=1.00D-06.
 No special actions if energy rises.
 SCF Done:  E(RM062X) =  -492.045900281     A.U. after   14 cycles
            NFock= 14  Conv=0.83D-08     -V/T= 2.0040

 **********************************************************************

            Population analysis using the SCF density.

 **********************************************************************

 Orbital symmetries:
       Occupied  (A) (A) (A) (A) (A) (A) (A) (A) (A) (A) (A) (A)
                 (A) (A) (A) (A) (A) (A) (A) (A) (A) (A) (A) (A)
                 (A) (A) (A) (A) (A) (A) (A) (A) (A) (A) (A) (A)
       Virtual   (A) (A) (A) (A) (A) (A) (A) (A) (A) (A) (A) (A)
                 (A) (A) (A) (A) (A) (A) (A) (A) (A) (A) (A) (A)
                 (A) (A) (A) (A) (A) (A) (A) (A) (A) (A) (A) (A)
                 (A) (A) (A) (A) (A) (A) (A) (A) (A) (A) (A) (A)
                 (A) (A) (A) (A) (A) (A) (A) (A) (A) (A) (A) (A)
                 (A) (A) (A) (A) (A) (A) (A) (A) (A) (A) (A) (A)
                 (A) (A) (A) (A) (A) (A) (A) (A) (A) (A) (A) (A)
                 (A) (A) (A) (A) (A) (A) (A) (A) (A) (A) (A) (A)
                 (A) (A) (A) (A) (A) (A) (A) (A) (A) (A) (A) (A)
                 (A) (A) (A) (A) (A) (A) (A) (A) (A) (A) (A) (A)
                 (A) (A) (A) (A) (A) (A) (A) (A) (A) (A) (A) (A)
                 (A) (A) (A) (A) (A) (A) (A) (A) (A) (A) (A) (A)
                 (A) (A) (A) (A) (A) (A) (A) (A) (A) (A) (A) (A)
                 (A) (A) (A) (A) (A) (A) (A) (A) (A) (A) (A) (A)
                 (A) (A) (A) (A) (A) (A) (A) (A) (A) (A) (A) (A)
                 (A) (A) (A) (A) (A) (A) (A) (A) (A) (A) (A) (A)
                 (A) (A) (A) (A) (A) (A) (A) (A) (A) (A) (A) (A)
                 (A) (A) (A) (A) (A) (A) (A) (A) (A) (A) (A) (A)
                 (A) (A) (A) (A)
 The electronic state is 1-A.
 Alpha  occ. eigenvalues --  -19.65318 -19.65314 -14.99377 -14.78978 -10.62721
 Alpha  occ. eigenvalues --  -10.60172 -10.57824 -10.57822 -10.56833 -10.56832
 Alpha  occ. eigenvalues --   -1.34876  -1.16444  -1.06725  -0.98807  -0.89722
 Alpha  occ. eigenvalues --   -0.87605  -0.79019  -0.73342  -0.69064  -0.64951
 Alpha  occ. eigenvalues --   -0.63116  -0.62143  -0.61238  -0.59034  -0.54111
 Alpha  occ. eigenvalues --   -0.52893  -0.51883  -0.49123  -0.49103  -0.43299
 Alpha  occ. eigenvalues --   -0.41243  -0.38704  -0.37263  -0.37071  -0.33803
 Alpha  occ. eigenvalues --   -0.28698
 Alpha virt. eigenvalues --   -0.05244  -0.00625  -0.00537   0.01303   0.02075
 Alpha virt. eigenvalues --    0.03650   0.04183   0.04469   0.06516   0.06824
 Alpha virt. eigenvalues --    0.08058   0.08503   0.09187   0.09613   0.11355
 Alpha virt. eigenvalues --    0.12735   0.12864   0.13226   0.13378   0.13813
 Alpha virt. eigenvalues --    0.15080   0.16573   0.16949   0.17176   0.17410
 Alpha virt. eigenvalues --    0.17661   0.17676   0.20105   0.20374   0.20803
 Alpha virt. eigenvalues --    0.21373   0.21874   0.22348   0.23420   0.23735
 Alpha virt. eigenvalues --    0.23863   0.24470   0.24491   0.25477   0.26945
 Alpha virt. eigenvalues --    0.27202   0.27442   0.28471   0.29758   0.32227
 Alpha virt. eigenvalues --    0.32625   0.32903   0.33261   0.34067   0.36955
 Alpha virt. eigenvalues --    0.37934   0.39432   0.40578   0.41569   0.43756
 Alpha virt. eigenvalues --    0.45792   0.47733   0.51456   0.52995   0.53511
 Alpha virt. eigenvalues --    0.54245   0.57752   0.58203   0.58562   0.59747
 Alpha virt. eigenvalues --    0.62143   0.62553   0.63067   0.63789   0.64447
 Alpha virt. eigenvalues --    0.68189   0.69812   0.71065   0.72704   0.73100
 Alpha virt. eigenvalues --    0.74081   0.76298   0.76905   0.79137   0.83765
 Alpha virt. eigenvalues --    0.83852   0.85589   0.85975   0.87439   0.87782
 Alpha virt. eigenvalues --    0.89079   0.89594   0.90758   0.93125   0.94533
 Alpha virt. eigenvalues --    1.00013   1.01853   1.02406   1.02616   1.02674
 Alpha virt. eigenvalues --    1.10634   1.12234   1.13683   1.14394   1.15577
 Alpha virt. eigenvalues --    1.16246   1.19135   1.21275   1.23532   1.24808
 Alpha virt. eigenvalues --    1.26940   1.27431   1.27586   1.30544   1.39227
 Alpha virt. eigenvalues --    1.41931   1.44179   1.48244   1.52721   1.55309
 Alpha virt. eigenvalues --    1.57980   1.59212   1.59782   1.60277   1.60883
 Alpha virt. eigenvalues --    1.64316   1.65670   1.70977   1.72376   1.75431
 Alpha virt. eigenvalues --    1.76522   1.78926   1.80454   1.83797   1.85824
 Alpha virt. eigenvalues --    1.88328   1.91460   1.92214   1.93040   1.93632
 Alpha virt. eigenvalues --    1.97064   1.97977   2.00424   2.03160   2.04820
 Alpha virt. eigenvalues --    2.06725   2.08781   2.13213   2.19963   2.24337
 Alpha virt. eigenvalues --    2.28737   2.29423   2.30991   2.41193   2.43861
 Alpha virt. eigenvalues --    2.45433   2.50993   2.51591   2.52753   2.53889
 Alpha virt. eigenvalues --    2.58973   2.63032   2.67956   2.69473   2.72305
 Alpha virt. eigenvalues --    2.72360   2.73718   2.76312   2.78262   2.78926
 Alpha virt. eigenvalues --    2.82513   2.83327   2.87931   2.90383   2.92738
 Alpha virt. eigenvalues --    2.93701   2.93862   2.93967   2.94521   2.98328
 Alpha virt. eigenvalues --    2.99364   3.07603   3.10919   3.18790   3.20983
 Alpha virt. eigenvalues --    3.31919   3.34020   3.37149   3.37791   3.42901
 Alpha virt. eigenvalues --    3.44933   3.51419   3.53954   3.57563   3.62799
 Alpha virt. eigenvalues --    3.75002   3.82089   3.83502   3.89464   3.94008
 Alpha virt. eigenvalues --    3.95114   4.01048   4.16819   4.18188   4.61527
 Alpha virt. eigenvalues --    4.79875   4.82484   4.82993   5.07071   5.10622
 Alpha virt. eigenvalues --    5.13770   5.23909   5.29017   5.82423   6.32614
 Alpha virt. eigenvalues --   23.63943  23.97477  23.98711  24.07238  24.16795
 Alpha virt. eigenvalues --   24.23228  35.47659  35.72770  50.01192  50.11065
          Condensed to atoms (all electrons):
               1          2          3          4          5          6
     1  C   10.365606   0.028608  -1.841589  -0.835129  -0.266697  -2.014293
     2  C    0.028608  10.399499   0.028579  -1.104225  -0.893021  -1.104214
     3  C   -1.841589   0.028579  10.365624  -2.014293  -0.266691  -0.835131
     4  C   -0.835129  -1.104225  -2.014293  10.539939   0.070812  -1.011438
     5  C   -0.266697  -0.893021  -0.266691   0.070812   7.566879   0.070822
     6  C   -2.014293  -1.104214  -0.835131  -1.011438   0.070822  10.539908
     7  N    0.050872  -0.016207   0.050871  -0.106057   0.077833  -0.106055
     8  N    0.031041  -0.514785   0.031044   0.007850  -0.013477   0.007858
     9  O   -0.052154  -0.445664   0.104922   0.267555  -0.002246  -0.009166
    10  O    0.104918  -0.445654  -0.052150  -0.009166  -0.002246   0.267548
    11  H    0.316309   0.100990  -0.026543   0.013389   0.004202  -0.028137
    12  H   -0.026544   0.100990   0.316310  -0.028137   0.004202   0.013389
    13  H    0.020094   0.043506   0.081747   0.345803  -0.053515  -0.074179
    14  H    0.081748   0.043505   0.020093  -0.074179  -0.053514   0.345803
    15  H    0.018143   0.000191  -0.006684   0.024743  -0.024915  -0.015202
    16  H   -0.006684   0.000191   0.018143  -0.015202  -0.024915   0.024743
               7          8          9         10         11         12
     1  C    0.050872   0.031041  -0.052154   0.104918   0.316309  -0.026544
     2  C   -0.016207  -0.514785  -0.445664  -0.445654   0.100990   0.100990
     3  C    0.050871   0.031044   0.104922  -0.052150  -0.026543   0.316310
     4  C   -0.106057   0.007850   0.267555  -0.009166   0.013389  -0.028137
     5  C    0.077833  -0.013477  -0.002246  -0.002246   0.004202   0.004202
     6  C   -0.106055   0.007858  -0.009166   0.267548  -0.028137   0.013389
     7  N    6.771246   0.000691  -0.000223  -0.000223  -0.000989  -0.000989
     8  N    0.000691   7.200899   0.258896   0.258903  -0.025218  -0.025218
     9  O   -0.000223   0.258896   7.916733  -0.013235  -0.001529   0.009391
    10  O   -0.000223   0.258903  -0.013235   7.916727   0.009391  -0.001529
    11  H   -0.000989  -0.025218  -0.001529   0.009391   0.447799  -0.000091
    12  H   -0.000989  -0.025218   0.009391  -0.001529  -0.000091   0.447799
    13  H   -0.010485  -0.002061   0.000246  -0.000007   0.000015  -0.005371
    14  H   -0.010485  -0.002061  -0.000007   0.000246  -0.005371   0.000015
    15  H    0.371025  -0.000005   0.000002   0.000001   0.000013   0.000003
    16  H    0.371025  -0.000005   0.000001   0.000002   0.000003   0.000013
              13         14         15         16
     1  C    0.020094   0.081748   0.018143  -0.006684
     2  C    0.043506   0.043505   0.000191   0.000191
     3  C    0.081747   0.020093  -0.006684   0.018143
     4  C    0.345803  -0.074179   0.024743  -0.015202
     5  C   -0.053515  -0.053514  -0.024915  -0.024915
     6  C   -0.074179   0.345803  -0.015202   0.024743
     7  N   -0.010485  -0.010485   0.371025   0.371025
     8  N   -0.002061  -0.002061  -0.000005  -0.000005
     9  O    0.000246  -0.000007   0.000002   0.000001
    10  O   -0.000007   0.000246   0.000001   0.000002
    11  H    0.000015  -0.005371   0.000013   0.000003
    12  H   -0.005371   0.000015   0.000003   0.000013
    13  H    0.501775  -0.000030   0.000385   0.003133
    14  H   -0.000030   0.501775   0.003133   0.000385
    15  H    0.000385   0.003133   0.376850  -0.019011
    16  H    0.003133   0.000385  -0.019011   0.376851
 Mulliken charges:
               1
     1  C    0.025752
     2  C   -0.222290
     3  C    0.025748
     4  C   -0.072265
     5  C   -0.193512
     6  C   -0.072257
     7  N   -0.441850
     8  N   -0.214352
     9  O   -0.033523
    10  O   -0.033526
    11  H    0.195765
    12  H    0.195765
    13  H    0.148944
    14  H    0.148944
    15  H    0.271328
    16  H    0.271328
 Sum of Mulliken charges =  -0.00000
 Mulliken charges with hydrogens summed into heavy atoms:
               1
     1  C    0.221517
     2  C   -0.222290
     3  C    0.221513
     4  C    0.076679
     5  C   -0.193512
     6  C    0.076687
     7  N    0.100806
     8  N   -0.214352
     9  O   -0.033523
    10  O   -0.033526
 Electronic spatial extent (au):  <R**2>=           1563.2777
 Charge=             -0.0000 electrons
 Dipole moment (field-independent basis, Debye):
    X=             -7.7647    Y=              0.0000    Z=              0.0026  Tot=              7.7647
 Quadrupole moment (field-independent basis, Debye-Ang):
   XX=            -57.2055   YY=            -52.7051   ZZ=            -61.2674
   XY=              0.0001   XZ=              0.0096   YZ=              0.0002
 Traceless Quadrupole moment (field-independent basis, Debye-Ang):
   XX=             -0.1461   YY=              4.3542   ZZ=             -4.2081
   XY=              0.0001   XZ=              0.0096   YZ=              0.0002
 Octapole moment (field-independent basis, Debye-Ang**2):
  XXX=           -109.0834  YYY=              0.0000  ZZZ=             -0.0071  XYY=            -17.7276
  XXY=              0.0001  XXZ=              0.0176  XZZ=             13.5791  YZZ=              0.0000
  YYZ=             -0.0004  XYZ=             -0.0009
 Hexadecapole moment (field-independent basis, Debye-Ang**3):
 XXXX=          -1376.3341 YYYY=           -363.0225 ZZZZ=            -65.2514 XXXY=              0.0008
 XXXZ=              0.1285 YYYX=              0.0001 YYYZ=             -0.0032 ZZZX=              0.0422
 ZZZY=             -0.0056 XXYY=           -299.8570 XXZZ=           -281.3299 YYZZ=            -84.6233
 XXYZ=             -0.0006 YYXZ=              0.0166 ZZXY=              0.0000
 N-N= 4.946945858361D+02 E-N=-2.138552961337D+03  KE= 4.900970728830D+02
 Calling FoFJK, ICntrl=      2127 FMM=F ISym2X=0 I1Cent= 0 IOpClX= 0 NMat=1 NMatS=1 NMatT=0.
 ***** Axes restored to original set *****
 -------------------------------------------------------------------
 Center     Atomic                   Forces (Hartrees/Bohr)
 Number     Number              X              Y              Z
 -------------------------------------------------------------------
      1        6           0.000728566   -0.004477019    0.000028207
      2        6           0.008074588    0.000001663    0.000067022
      3        6           0.000727783    0.004474989    0.000027989
      4        6          -0.001637225    0.003434832   -0.000006800
      5        6          -0.001784920    0.000001155    0.000003482
      6        6          -0.001637656   -0.003435713   -0.000006533
      7        7          -0.002269647   -0.000000928    0.000000592
      8        7          -0.027294423    0.000001768   -0.000445563
      9        8           0.014187611    0.026655765    0.000167923
     10        8           0.014191181   -0.026658455    0.000169539
     11        1           0.000257769   -0.000665347    0.000000210
     12        1           0.000258813    0.000666478    0.000000093
     13        1          -0.000623357    0.001428863   -0.000003013
     14        1          -0.000623148   -0.001428409   -0.000002941
     15        1          -0.001278045   -0.001234679   -0.000000077
     16        1          -0.001277891    0.001235038   -0.000000130
 -------------------------------------------------------------------
 Cartesian Forces:  Max     0.027294423 RMS     0.007534579

 GradGradGradGradGradGradGradGradGradGradGradGradGradGradGradGradGradGrad
 Berny optimization.
 FormGI is forming the generalized inverse of G from B-inverse, IUseBI=4.
 Internal  Forces:  Max     0.030200548 RMS     0.005387814
 Search for a local minimum.
 Step number   1 out of a maximum of   82
 All quantities printed in internal units (Hartrees-Bohrs-Radians)
 Mixed Optimization -- RFO/linear search
 Second derivative matrix not updated -- first step.
 ITU=  0
     Eigenvalues ---    0.00996   0.00996   0.01774   0.01947   0.02015
     Eigenvalues ---    0.02078   0.02097   0.02097   0.02106   0.02155
     Eigenvalues ---    0.02167   0.02210   0.02216   0.16000   0.16000
     Eigenvalues ---    0.16000   0.16000   0.16000   0.16000   0.22000
     Eigenvalues ---    0.22969   0.24000   0.25000   0.25000   0.25000
     Eigenvalues ---    0.25000   0.35285   0.35285   0.35669   0.35669
     Eigenvalues ---    0.37911   0.40804   0.41759   0.44815   0.45017
     Eigenvalues ---    0.46642   0.46642   0.46706   0.48191   0.51106
     Eigenvalues ---    0.88339   0.88341
 RFO step:  Lambda=-2.65721364D-03 EMin= 9.96419452D-03
 Linear search not attempted -- first point.
 Iteration  1 RMS(Cart)=  0.01200382 RMS(Int)=  0.00004608
 Iteration  2 RMS(Cart)=  0.00004500 RMS(Int)=  0.00001582
 Iteration  3 RMS(Cart)=  0.00000001 RMS(Int)=  0.00001582
 Variable       Old X    -DE/DX   Delta X   Delta X   Delta X     New X
                                 (Linear)    (Quad)   (Total)
    R1        2.64231  -0.00689   0.00000  -0.01505  -0.01505   2.62726
    R2        2.61737  -0.00557   0.00000  -0.01149  -0.01149   2.60588
    R3        2.04602  -0.00070   0.00000  -0.00196  -0.00196   2.04406
    R4        2.64231  -0.00689   0.00000  -0.01505  -0.01505   2.62726
    R5        2.74495  -0.00108   0.00000  -0.00284  -0.00284   2.74211
    R6        2.61737  -0.00557   0.00000  -0.01149  -0.01149   2.60588
    R7        2.04602  -0.00070   0.00000  -0.00196  -0.00196   2.04406
    R8        2.66963  -0.00571   0.00000  -0.01289  -0.01289   2.65674
    R9        2.05215  -0.00155   0.00000  -0.00436  -0.00436   2.04779
   R10        2.66963  -0.00571   0.00000  -0.01289  -0.01290   2.65674
   R11        2.58766  -0.00483   0.00000  -0.00939  -0.00939   2.57827
   R12        2.05215  -0.00155   0.00000  -0.00436  -0.00436   2.04779
   R13        1.90114  -0.00172   0.00000  -0.00366  -0.00366   1.89748
   R14        1.90114  -0.00172   0.00000  -0.00366  -0.00366   1.89748
   R15        2.33707  -0.03020   0.00000  -0.03408  -0.03408   2.30299
   R16        2.33708  -0.03020   0.00000  -0.03408  -0.03408   2.30299
    A1        2.08628  -0.00074   0.00000  -0.00341  -0.00341   2.08287
    A2        2.08320   0.00025   0.00000   0.00093   0.00093   2.08413
    A3        2.11370   0.00050   0.00000   0.00248   0.00248   2.11618
    A4        2.11019   0.00173   0.00000   0.00656   0.00656   2.11675
    A5        2.08650  -0.00087   0.00000  -0.00328  -0.00328   2.08322
    A6        2.08650  -0.00087   0.00000  -0.00328  -0.00328   2.08322
    A7        2.08628  -0.00075   0.00000  -0.00341  -0.00341   2.08287
    A8        2.08320   0.00025   0.00000   0.00094   0.00093   2.08413
    A9        2.11370   0.00050   0.00000   0.00248   0.00248   2.11618
   A10        2.10491  -0.00039   0.00000  -0.00128  -0.00129   2.10362
   A11        2.09103   0.00037   0.00000   0.00171   0.00171   2.09274
   A12        2.08725   0.00002   0.00000  -0.00043  -0.00043   2.08682
   A13        2.07380   0.00055   0.00000   0.00284   0.00283   2.07663
   A14        2.10469  -0.00027   0.00000  -0.00142  -0.00142   2.10328
   A15        2.10469  -0.00027   0.00000  -0.00142  -0.00141   2.10328
   A16        2.10491  -0.00039   0.00000  -0.00128  -0.00129   2.10362
   A17        2.09103   0.00037   0.00000   0.00171   0.00171   2.09274
   A18        2.08725   0.00002   0.00000  -0.00043  -0.00043   2.08682
   A19        2.11400  -0.00029   0.00000  -0.00178  -0.00178   2.11223
   A20        2.11400  -0.00029   0.00000  -0.00177  -0.00177   2.11223
   A21        2.05518   0.00058   0.00000   0.00355   0.00355   2.05873
   A22        2.06011   0.00001   0.00000   0.00004  -0.00003   2.06008
   A23        2.06012   0.00000   0.00000   0.00003  -0.00005   2.06007
   A24        2.16294  -0.00001   0.00000  -0.00002  -0.00009   2.16285
    D1       -0.00010   0.00001   0.00000   0.00046   0.00046   0.00035
    D2        3.14153   0.00000   0.00000   0.00014   0.00014  -3.14151
    D3        3.14155   0.00000   0.00000   0.00020   0.00020  -3.14143
    D4        0.00001  -0.00000   0.00000  -0.00011  -0.00011  -0.00011
    D5        0.00005  -0.00001   0.00000  -0.00021  -0.00021  -0.00016
    D6       -3.14153  -0.00001   0.00000  -0.00024  -0.00024   3.14142
    D7        3.14158   0.00000   0.00000   0.00004   0.00004  -3.14157
    D8       -0.00001   0.00000   0.00000   0.00002   0.00002   0.00001
    D9        0.00010  -0.00001   0.00000  -0.00046  -0.00046  -0.00035
   D10       -3.14156  -0.00000   0.00000  -0.00020  -0.00020   3.14143
   D11       -3.14153  -0.00000   0.00000  -0.00014  -0.00014   3.14151
   D12       -0.00001   0.00000   0.00000   0.00011   0.00011   0.00011
   D13        3.14026   0.00014   0.00000   0.01126   0.01126  -3.13167
   D14        0.00129  -0.00014   0.00000  -0.01095  -0.01095  -0.00965
   D15       -0.00129   0.00014   0.00000   0.01095   0.01095   0.00966
   D16       -3.14025  -0.00014   0.00000  -0.01126  -0.01126   3.13167
   D17       -0.00005   0.00001   0.00000   0.00021   0.00021   0.00016
   D18        3.14153   0.00001   0.00000   0.00024   0.00024  -3.14142
   D19       -3.14157  -0.00000   0.00000  -0.00005  -0.00005   3.14157
   D20        0.00001  -0.00000   0.00000  -0.00002  -0.00002  -0.00001
   D21       -0.00000   0.00000   0.00000   0.00002   0.00002   0.00002
   D22        3.14159   0.00000   0.00000   0.00002   0.00002  -3.14157
   D23       -3.14159  -0.00000   0.00000   0.00000  -0.00000  -3.14159
   D24        0.00000  -0.00000   0.00000   0.00000   0.00000   0.00000
   D25        0.00000  -0.00000   0.00000  -0.00002  -0.00002  -0.00002
   D26        3.14159   0.00000   0.00000   0.00000   0.00000   3.14159
   D27       -3.14159  -0.00000   0.00000  -0.00002  -0.00002   3.14158
   D28       -0.00000   0.00000   0.00000  -0.00000  -0.00000  -0.00000
   D29        3.14158  -0.00000   0.00000  -0.00001  -0.00001   3.14157
   D30        0.00001   0.00000   0.00000   0.00001   0.00001   0.00002
   D31       -0.00001  -0.00000   0.00000  -0.00001  -0.00001  -0.00002
   D32       -3.14158   0.00000   0.00000   0.00001   0.00001  -3.14157
         Item               Value     Threshold  Converged?
 Maximum Force            0.030201     0.000450     NO 
 RMS     Force            0.005388     0.000300     NO 
 Maximum Displacement     0.038401     0.001800     NO 
 RMS     Displacement     0.012007     0.001200     NO 
 Predicted change in Energy=-1.334159D-03
 GradGradGradGradGradGradGradGradGradGradGradGradGradGradGradGradGradGrad

                          Input orientation:                          
 ---------------------------------------------------------------------
 Center     Atomic      Atomic             Coordinates (Angstroms)
 Number     Number       Type             X           Y           Z
 ---------------------------------------------------------------------
      1          6           0       -0.019402    1.211717   -0.001851
      2          6           0       -0.701045   -0.000001   -0.002678
      3          6           0       -0.019401   -1.211719   -0.001780
      4          6           0        1.359570   -1.211242   -0.000460
      5          6           0        2.073297   -0.000000    0.000176
      6          6           0        1.359569    1.211242   -0.000531
      7          7           0        3.437656    0.000001    0.001461
      8          7           0       -2.152108    0.000000   -0.004169
      9          8           0       -2.724896   -1.075650    0.005808
     10          8           0       -2.724888    1.075656    0.005739
     11          1           0       -0.580195    2.136664   -0.002431
     12          1           0       -0.580193   -2.136666   -0.002307
     13          1           0        1.900164   -2.150414    0.000082
     14          1           0        1.900163    2.150413   -0.000044
     15          1           0        3.955132    0.860489    0.001904
     16          1           0        3.955133   -0.860487    0.001956
 ---------------------------------------------------------------------
                    Distance matrix (angstroms):
                    1          2          3          4          5
     1  C    0.000000
     2  C    1.390288   0.000000
     3  C    2.423436   1.390287   0.000000
     4  C    2.787884   2.390239   1.378972   0.000000
     5  C    2.418192   2.774343   2.418192   1.405885   0.000000
     6  C    1.378972   2.390239   2.787884   2.422484   1.405886
     7  N    3.663266   4.138703   3.663266   2.405318   1.364359
     8  N    2.452896   1.451064   2.452898   3.714701   4.225407
     9  O    3.542853   2.291957   2.708925   4.086721   4.917287
    10  O    2.708916   2.291954   3.542852   4.681105   4.917281
    11  H    1.081672   2.140080   3.395019   3.869259   3.406811
    12  H    3.395019   2.140080   1.081672   2.149208   3.406810
    13  H    3.871519   3.374991   2.136792   1.083644   2.157372
    14  H    2.136792   3.374992   3.871519   3.404844   2.157372
    15  H    3.990024   4.735023   4.482295   3.320996   2.069238
    16  H    4.482295   4.735023   3.990025   2.619156   2.069238
                    6          7          8          9         10
     6  C    0.000000
     7  N    2.405317   0.000000
     8  N    3.714700   5.589767   0.000000
     9  O    4.681108   6.255724   1.218692   0.000000
    10  O    4.086712   6.255718   1.218692   2.151306   0.000000
    11  H    2.149208   4.550656   2.652592   3.862483   2.392805
    12  H    3.869259   4.550656   2.652595   2.392817   3.862486
    13  H    3.404845   2.643514   4.587505   4.748297   5.639031
    14  H    1.083644   2.643513   4.587503   5.639032   4.748287
    15  H    2.619156   1.004102   6.167565   6.954957   6.683486
    16  H    3.320996   1.004102   6.167566   6.683494   6.954951
                   11         12         13         14         15
    11  H    0.000000
    12  H    4.273330   0.000000
    13  H    4.952900   2.480396   0.000000
    14  H    2.480396   4.952899   4.300827   0.000000
    15  H    4.711457   5.436187   3.645330   2.426274   0.000000
    16  H    5.436187   4.711458   2.426275   3.645329   1.720976
                   16
    16  H    0.000000
 Stoichiometry    C6H6N2O2
 Framework group  C1[X(C6H6N2O2)]
 Deg. of freedom    42
 Full point group                 C1      NOp   1
 Largest Abelian subgroup         C1      NOp   1
 Largest concise Abelian subgroup C1      NOp   1
                         Standard orientation:                         
 ---------------------------------------------------------------------
 Center     Atomic      Atomic             Coordinates (Angstroms)
 Number     Number       Type             X           Y           Z
 ---------------------------------------------------------------------
      1          6           0        0.023100   -1.211717   -0.002238
      2          6           0        0.704742    0.000002   -0.003375
      3          6           0        0.023098    1.211719   -0.002240
      4          6           0       -1.355872    1.211242   -0.000367
      5          6           0       -2.069599    0.000000    0.000592
      6          6           0       -1.355870   -1.211241   -0.000365
      7          7           0       -3.433956   -0.000001    0.002424
      8          7           0        2.155804    0.000001   -0.005448
      9          8           0        2.728596    1.075651    0.004267
     10          8           0        2.728589   -1.075655    0.004262
     11          1           0        0.583893   -2.136663   -0.003016
     12          1           0        0.583890    2.136666   -0.003019
     13          1           0       -1.896466    2.150414    0.000364
     14          1           0       -1.896463   -2.150413    0.000367
     15          1           0       -3.951432   -0.860489    0.003100
     16          1           0       -3.951434    0.860486    0.003101
 ---------------------------------------------------------------------
 Rotational constants (GHZ):      3.9644133      0.8305423      0.6866853
 Standard basis: 6-311+G(d,p) (5D, 7F)
 There are   266 symmetry adapted cartesian basis functions of A   symmetry.
 There are   256 symmetry adapted basis functions of A   symmetry.
   256 basis functions,   408 primitive gaussians,   266 cartesian basis functions
    36 alpha electrons       36 beta electrons
       nuclear repulsion energy       497.7309318678 Hartrees.
 NAtoms=   16 NActive=   16 NUniq=   16 SFac= 1.00D+00 NAtFMM=   60 NAOKFM=F Big=F
 Integral buffers will be    131072 words long.
 Raffenetti 2 integral format.
 Two-electron integral symmetry is turned on.
 One-electron integrals computed using PRISM.
 NBasis=   256 RedAO= T EigKep=  2.14D-06  NBF=   256
 NBsUse=   256 1.00D-06 EigRej= -1.00D+00 NBFU=   256
 Initial guess from the checkpoint file:  "m062x6311PNA.chk"
 B after Tr=     0.000000   -0.000000   -0.000000
         Rot=    1.000000    0.000015    0.000033    0.000000 Ang=   0.00 deg.
 ExpMin= 4.38D-02 ExpMax= 8.59D+03 ExpMxC= 1.30D+03 IAcc=2 IRadAn=         4 AccDes= 0.00D+00
 Harris functional with IExCor= 1009 and IRadAn=       4 diagonalized for initial guess.
 HarFok:  IExCor= 1009 AccDes= 0.00D+00 IRadAn=         4 IDoV= 1 UseB2=F ITyADJ=14
 ICtDFT=  3500011 ScaDFX=  1.000000  1.000000  1.000000  1.000000
 FoFCou: FMM=F IPFlag=           0 FMFlag=      100000 FMFlg1=           0
         NFxFlg=           0 DoJE=T BraDBF=F KetDBF=T FulRan=T
         wScrn=  0.000000 ICntrl=     500 IOpCl=  0 I1Cent=   200000004 NGrid=           0
         NMat0=    1 NMatS0=      1 NMatT0=    0 NMatD0=    1 NMtDS0=    0 NMtDT0=    0
 Petite list used in FoFCou.
 Keep R1 ints in memory in canonical form, NReq=550844378.
 Requested convergence on RMS density matrix=1.00D-08 within 128 cycles.
 Requested convergence on MAX density matrix=1.00D-06.
 Requested convergence on             energy=1.00D-06.
 No special actions if energy rises.
 SCF Done:  E(RM062X) =  -492.047320820     A.U. after   13 cycles
            NFock= 13  Conv=0.90D-08     -V/T= 2.0034
 Calling FoFJK, ICntrl=      2127 FMM=F ISym2X=0 I1Cent= 0 IOpClX= 0 NMat=1 NMatS=1 NMatT=0.
 ***** Axes restored to original set *****
 -------------------------------------------------------------------
 Center     Atomic                   Forces (Hartrees/Bohr)
 Number     Number              X              Y              Z
 -------------------------------------------------------------------
      1        6          -0.001028441    0.000167325   -0.000178956
      2        6           0.004186009   -0.000000120   -0.000561745
      3        6          -0.001028590   -0.000167301   -0.000178900
      4        6           0.000659870   -0.000300315    0.000046149
      5        6          -0.000068262    0.000000308   -0.000027650
      6        6           0.000660134    0.000300056    0.000046096
      7        7           0.001133829   -0.000000159    0.000000617
      8        7          -0.010845595    0.000001243    0.003067899
      9        8           0.002962591    0.002979705   -0.001121335
     10        8           0.002962092   -0.002980666   -0.001121127
     11        1          -0.000022831   -0.000005923   -0.000004531
     12        1          -0.000022957    0.000005756   -0.000004525
     13        1           0.000189086   -0.000048755    0.000017224
     14        1           0.000189054    0.000048773    0.000017247
     15        1           0.000036999    0.000003428    0.000001784
     16        1           0.000037011   -0.000003354    0.000001753
 -------------------------------------------------------------------
 Cartesian Forces:  Max     0.010845595 RMS     0.001975731

 GradGradGradGradGradGradGradGradGradGradGradGradGradGradGradGradGradGrad
 Berny optimization.
 Using GEDIIS/GDIIS optimizer.
 FormGI is forming the generalized inverse of G from B-inverse, IUseBI=4.
 Internal  Forces:  Max     0.004920063 RMS     0.001010870
 Search for a local minimum.
 Step number   2 out of a maximum of   82
 All quantities printed in internal units (Hartrees-Bohrs-Radians)
 Mixed Optimization -- RFO/linear search
 Update second derivatives using D2CorX and points    1    2
 DE= -1.42D-03 DEPred=-1.33D-03 R= 1.06D+00
 TightC=F SS=  1.41D+00  RLast= 6.46D-02 DXNew= 5.0454D-01 1.9391D-01
 Trust test= 1.06D+00 RLast= 6.46D-02 DXMaxT set to 3.00D-01
 ITU=  1  0
 Use linear search instead of GDIIS.
     Eigenvalues ---    0.00996   0.01037   0.01777   0.01947   0.02015
     Eigenvalues ---    0.02078   0.02097   0.02097   0.02107   0.02155
     Eigenvalues ---    0.02167   0.02210   0.02216   0.15986   0.16000
     Eigenvalues ---    0.16000   0.16000   0.16000   0.16006   0.22000
     Eigenvalues ---    0.22963   0.24063   0.24926   0.25000   0.25000
     Eigenvalues ---    0.25000   0.35248   0.35285   0.35651   0.35669
     Eigenvalues ---    0.37068   0.40817   0.41748   0.44813   0.45969
     Eigenvalues ---    0.46642   0.46662   0.46699   0.49832   0.52703
     Eigenvalues ---    0.76238   0.88340
 RFO step:  Lambda=-6.63446677D-04 EMin= 9.96419452D-03
 Quartic linear search produced a step of  0.05100.
 Iteration  1 RMS(Cart)=  0.02687347 RMS(Int)=  0.00243615
 Iteration  2 RMS(Cart)=  0.00209333 RMS(Int)=  0.00149116
 Iteration  3 RMS(Cart)=  0.00000670 RMS(Int)=  0.00149115
 Iteration  4 RMS(Cart)=  0.00000001 RMS(Int)=  0.00149115
 Variable       Old X    -DE/DX   Delta X   Delta X   Delta X     New X
                                 (Linear)    (Quad)   (Total)
    R1        2.62726   0.00036  -0.00077  -0.00215  -0.00292   2.62435
    R2        2.60588   0.00142  -0.00059   0.00084   0.00025   2.60613
    R3        2.04406   0.00001  -0.00010  -0.00036  -0.00046   2.04360
    R4        2.62726   0.00036  -0.00077  -0.00215  -0.00292   2.62435
    R5        2.74211   0.00492  -0.00014   0.01308   0.01293   2.75504
    R6        2.60588   0.00142  -0.00059   0.00084   0.00025   2.60613
    R7        2.04406   0.00001  -0.00010  -0.00036  -0.00046   2.04360
    R8        2.65674   0.00055  -0.00066  -0.00118  -0.00184   2.65490
    R9        2.04779   0.00014  -0.00022  -0.00044  -0.00067   2.04713
   R10        2.65674   0.00055  -0.00066  -0.00118  -0.00184   2.65490
   R11        2.57827   0.00121  -0.00048   0.00063   0.00016   2.57842
   R12        2.04779   0.00014  -0.00022  -0.00044  -0.00067   2.04713
   R13        1.89748   0.00002  -0.00019  -0.00067  -0.00086   1.89662
   R14        1.89748   0.00002  -0.00019  -0.00067  -0.00086   1.89662
   R15        2.30299  -0.00403  -0.00174  -0.01156  -0.01330   2.28969
   R16        2.30299  -0.00403  -0.00174  -0.01156  -0.01330   2.28969
    A1        2.08287   0.00014  -0.00017  -0.00006  -0.00024   2.08264
    A2        2.08413  -0.00009   0.00005  -0.00026  -0.00022   2.08392
    A3        2.11618  -0.00005   0.00013   0.00033   0.00045   2.11663
    A4        2.11675  -0.00023   0.00033   0.00020   0.00054   2.11728
    A5        2.08322   0.00011  -0.00017  -0.00010  -0.00027   2.08295
    A6        2.08322   0.00011  -0.00017  -0.00010  -0.00027   2.08295
    A7        2.08287   0.00014  -0.00017  -0.00006  -0.00024   2.08264
    A8        2.08413  -0.00009   0.00005  -0.00026  -0.00022   2.08392
    A9        2.11618  -0.00005   0.00013   0.00033   0.00045   2.11663
   A10        2.10362   0.00015  -0.00007   0.00043   0.00036   2.10398
   A11        2.09274   0.00007   0.00009   0.00092   0.00101   2.09375
   A12        2.08682  -0.00022  -0.00002  -0.00135  -0.00137   2.08545
   A13        2.07663  -0.00035   0.00014  -0.00093  -0.00079   2.07585
   A14        2.10328   0.00018  -0.00007   0.00046   0.00039   2.10367
   A15        2.10328   0.00018  -0.00007   0.00047   0.00039   2.10367
   A16        2.10362   0.00015  -0.00007   0.00043   0.00036   2.10398
   A17        2.09274   0.00007   0.00009   0.00092   0.00101   2.09375
   A18        2.08682  -0.00022  -0.00002  -0.00135  -0.00137   2.08545
   A19        2.11223   0.00002  -0.00009  -0.00021  -0.00030   2.11193
   A20        2.11223   0.00002  -0.00009  -0.00021  -0.00030   2.11193
   A21        2.05873  -0.00004   0.00018   0.00042   0.00060   2.05933
   A22        2.06008  -0.00092  -0.00000  -0.00257  -0.00978   2.05030
   A23        2.06007  -0.00091  -0.00000  -0.00256  -0.00977   2.05030
   A24        2.16285   0.00187  -0.00000   0.00911   0.00173   2.16458
    D1        0.00035  -0.00007   0.00002  -0.00338  -0.00335  -0.00300
    D2       -3.14151  -0.00002   0.00001  -0.00071  -0.00070   3.14097
    D3       -3.14143  -0.00003   0.00001  -0.00168  -0.00167   3.14009
    D4       -0.00011   0.00002  -0.00001   0.00099   0.00099   0.00088
    D5       -0.00016   0.00003  -0.00001   0.00157   0.00156   0.00139
    D6        3.14142   0.00003  -0.00001   0.00164   0.00162  -3.14014
    D7       -3.14157  -0.00000   0.00000  -0.00016  -0.00016   3.14146
    D8        0.00001  -0.00000   0.00000  -0.00010  -0.00009  -0.00008
    D9       -0.00035   0.00007  -0.00002   0.00338   0.00335   0.00300
   D10        3.14143   0.00003  -0.00001   0.00168   0.00167  -3.14009
   D11        3.14151   0.00002  -0.00001   0.00071   0.00070  -3.14097
   D12        0.00011  -0.00002   0.00001  -0.00099  -0.00098  -0.00088
   D13       -3.13167  -0.00112   0.00057  -0.10954  -0.10829   3.04323
   D14       -0.00965   0.00107  -0.00056   0.10692   0.10569   0.09603
   D15        0.00966  -0.00107   0.00056  -0.10693  -0.10569  -0.09603
   D16        3.13167   0.00112  -0.00057   0.10954   0.10829  -3.04323
   D17        0.00016  -0.00003   0.00001  -0.00157  -0.00156  -0.00139
   D18       -3.14142  -0.00003   0.00001  -0.00164  -0.00162   3.14015
   D19        3.14157   0.00000  -0.00000   0.00016   0.00016  -3.14146
   D20       -0.00001   0.00000  -0.00000   0.00010   0.00009   0.00008
   D21        0.00002  -0.00000   0.00000  -0.00017  -0.00017  -0.00015
   D22       -3.14157  -0.00000   0.00000  -0.00020  -0.00020   3.14141
   D23       -3.14159   0.00000  -0.00000  -0.00010  -0.00010   3.14150
   D24        0.00000  -0.00000   0.00000  -0.00013  -0.00013  -0.00013
   D25       -0.00002   0.00000  -0.00000   0.00017   0.00017   0.00015
   D26        3.14159  -0.00000   0.00000   0.00010   0.00010  -3.14150
   D27        3.14158   0.00000  -0.00000   0.00020   0.00020  -3.14141
   D28       -0.00000   0.00000  -0.00000   0.00013   0.00013   0.00013
   D29        3.14157   0.00000  -0.00000   0.00010   0.00010  -3.14152
   D30        0.00002  -0.00000   0.00000  -0.00007  -0.00007  -0.00005
   D31       -0.00002   0.00000  -0.00000   0.00007   0.00007   0.00005
   D32       -3.14157  -0.00000   0.00000  -0.00010  -0.00010   3.14151
         Item               Value     Threshold  Converged?
 Maximum Force            0.004920     0.000450     NO 
 RMS     Force            0.001011     0.000300     NO 
 Maximum Displacement     0.119266     0.001800     NO 
 RMS     Displacement     0.026811     0.001200     NO 
 Predicted change in Energy=-3.308388D-04
 GradGradGradGradGradGradGradGradGradGradGradGradGradGradGradGradGradGrad

                          Input orientation:                          
 ---------------------------------------------------------------------
 Center     Atomic      Atomic             Coordinates (Angstroms)
 Number     Number       Type             X           Y           Z
 ---------------------------------------------------------------------
      1          6           0       -0.020030    1.210556    0.018678
      2          6           0       -0.700543    0.000001    0.026901
      3          6           0       -0.020030   -1.210554    0.018749
      4          6           0        1.359013   -1.210123    0.005764
      5          6           0        2.072692    0.000000   -0.000899
      6          6           0        1.359013    1.210124    0.005693
      7          7           0        3.437075   -0.000001   -0.013534
      8          7           0       -2.158377    0.000001    0.041417
      9          8           0       -2.718372   -1.069935   -0.057305
     10          8           0       -2.718372    1.069931   -0.057371
     11          1           0       -0.581120    2.135022    0.023987
     12          1           0       -0.581120   -2.135019    0.024112
     13          1           0        1.900325   -2.148461    0.000673
     14          1           0        1.900326    2.148461    0.000548
     15          1           0        3.954039    0.860254   -0.018294
     16          1           0        3.954039   -0.860255   -0.018242
 ---------------------------------------------------------------------
                    Distance matrix (angstroms):
                    1          2          3          4          5
     1  C    0.000000
     2  C    1.388744   0.000000
     3  C    2.421110   1.388744   0.000000
     4  C    2.785968   2.388854   1.379104   0.000000
     5  C    2.417708   2.773375   2.417708   1.404913   0.000000
     6  C    1.379104   2.388853   2.785968   2.420248   1.404913
     7  N    3.663067   4.137816   3.663067   2.404810   1.364442
     8  N    2.457334   1.457906   2.457333   3.719907   4.231281
     9  O    3.533761   2.285495   2.703074   4.080282   4.909403
    10  O    2.703074   2.285494   3.533759   4.672012   4.909402
    11  H    1.081428   2.138360   3.392304   3.867098   3.406120
    12  H    3.392304   2.138360   1.081428   2.149392   3.406120
    13  H    3.869248   3.373588   2.137232   1.083292   2.155365
    14  H    2.137232   3.373588   3.869248   3.401931   2.155365
    15  H    3.989649   4.733626   4.481388   3.319819   2.068769
    16  H    4.481389   4.733626   3.989649   2.618615   2.068769
                    6          7          8          9         10
     6  C    0.000000
     7  N    2.404810   0.000000
     8  N    3.719907   5.595722   0.000000
     9  O    4.672013   6.247896   1.211653   0.000000
    10  O    4.080282   6.247896   1.211653   2.139866   0.000000
    11  H    2.149392   4.550343   2.654498   3.853077   2.389327
    12  H    3.867097   4.550342   2.654496   2.389326   3.853075
    13  H    3.401931   2.641530   4.592452   4.743305   5.629722
    14  H    1.083292   2.641531   4.592453   5.629724   4.743306
    15  H    2.618615   1.003649   6.172944   6.946094   6.675819
    16  H    3.319820   1.003649   6.172944   6.675819   6.946093
                   11         12         13         14         15
    11  H    0.000000
    12  H    4.270041   0.000000
    13  H    4.950387   2.481593   0.000000
    14  H    2.481593   4.950387   4.296922   0.000000
    15  H    4.711103   5.435175   3.642864   2.424370   0.000000
    16  H    5.435176   4.711102   2.424370   3.642865   1.720509
                   16
    16  H    0.000000
 Stoichiometry    C6H6N2O2
 Framework group  C1[X(C6H6N2O2)]
 Deg. of freedom    42
 Full point group                 C1      NOp   1
 Largest Abelian subgroup         C1      NOp   1
 Largest concise Abelian subgroup C1      NOp   1
                         Standard orientation:                         
 ---------------------------------------------------------------------
 Center     Atomic      Atomic             Coordinates (Angstroms)
 Number     Number       Type             X           Y           Z
 ---------------------------------------------------------------------
      1          6           0        0.024161   -1.210556    0.022427
      2          6           0        0.704635   -0.000000    0.033429
      3          6           0        0.024161    1.210555    0.022426
      4          6           0       -1.354816    1.210124    0.003737
      5          6           0       -2.068462    0.000000   -0.005841
      6          6           0       -1.354817   -1.210124    0.003738
      7          7           0       -3.432781    0.000001   -0.024120
      8          7           0        2.162396    0.000000    0.053974
      9          8           0        2.722795    1.069933   -0.042462
     10          8           0        2.722794   -1.069933   -0.042465
     11          1           0        0.585224   -2.135021    0.030085
     12          1           0        0.585225    2.135020    0.030083
     13          1           0       -1.896103    2.148461   -0.003620
     14          1           0       -1.896104   -2.148461   -0.003618
     15          1           0       -3.949721   -0.860254   -0.030993
     16          1           0       -3.949721    0.860255   -0.030992
 ---------------------------------------------------------------------
 Rotational constants (GHZ):      3.9775794      0.8315562      0.6880259
 Standard basis: 6-311+G(d,p) (5D, 7F)
 There are   266 symmetry adapted cartesian basis functions of A   symmetry.
 There are   256 symmetry adapted basis functions of A   symmetry.
   256 basis functions,   408 primitive gaussians,   266 cartesian basis functions
    36 alpha electrons       36 beta electrons
       nuclear repulsion energy       498.2993951097 Hartrees.
 NAtoms=   16 NActive=   16 NUniq=   16 SFac= 1.00D+00 NAtFMM=   60 NAOKFM=F Big=F
 Integral buffers will be    131072 words long.
 Raffenetti 2 integral format.
 Two-electron integral symmetry is turned on.
 One-electron integrals computed using PRISM.
 NBasis=   256 RedAO= T EigKep=  2.13D-06  NBF=   256
 NBsUse=   256 1.00D-06 EigRej= -1.00D+00 NBFU=   256
 Initial guess from the checkpoint file:  "m062x6311PNA.chk"
 B after Tr=    -0.000000   -0.000000    0.000000
         Rot=    1.000000   -0.000000   -0.000009   -0.000000 Ang=  -0.00 deg.
 ExpMin= 4.38D-02 ExpMax= 8.59D+03 ExpMxC= 1.30D+03 IAcc=2 IRadAn=         4 AccDes= 0.00D+00
 Harris functional with IExCor= 1009 and IRadAn=       4 diagonalized for initial guess.
 HarFok:  IExCor= 1009 AccDes= 0.00D+00 IRadAn=         4 IDoV= 1 UseB2=F ITyADJ=14
 ICtDFT=  3500011 ScaDFX=  1.000000  1.000000  1.000000  1.000000
 FoFCou: FMM=F IPFlag=           0 FMFlag=      100000 FMFlg1=           0
         NFxFlg=           0 DoJE=T BraDBF=F KetDBF=T FulRan=T
         wScrn=  0.000000 ICntrl=     500 IOpCl=  0 I1Cent=   200000004 NGrid=           0
         NMat0=    1 NMatS0=      1 NMatT0=    0 NMatD0=    1 NMtDS0=    0 NMtDT0=    0
 Petite list used in FoFCou.
 Keep R1 ints in memory in canonical form, NReq=550844378.
 Requested convergence on RMS density matrix=1.00D-08 within 128 cycles.
 Requested convergence on MAX density matrix=1.00D-06.
 Requested convergence on             energy=1.00D-06.
 No special actions if energy rises.
 SCF Done:  E(RM062X) =  -492.045169153     A.U. after   14 cycles
            NFock= 14  Conv=0.49D-08     -V/T= 2.0033
 Calling FoFJK, ICntrl=      2127 FMM=F ISym2X=0 I1Cent= 0 IOpClX= 0 NMat=1 NMatS=1 NMatT=0.
 ***** Axes restored to original set *****
 -------------------------------------------------------------------
 Center     Atomic                   Forces (Hartrees/Bohr)
 Number     Number              X              Y              Z
 -------------------------------------------------------------------
      1        6          -0.000933977    0.000778766    0.001610009
      2        6           0.003051190    0.000000011    0.006375471
      3        6          -0.000933524   -0.000778495    0.001610029
      4        6           0.000714977   -0.000665482   -0.000444677
      5        6          -0.000115234   -0.000000105    0.000255233
      6        6           0.000715296    0.000665567   -0.000444747
      7        7           0.001119710    0.000000171   -0.000003531
      8        7           0.003191829   -0.000001004   -0.030124989
      9        8          -0.003842416   -0.007160408    0.010710406
     10        8          -0.003842710    0.007161351    0.010709945
     11        1          -0.000005960    0.000215318    0.000057290
     12        1          -0.000006119   -0.000215520    0.000057317
     13        1           0.000168024   -0.000377852   -0.000163344
     14        1           0.000167942    0.000377746   -0.000163365
     15        1           0.000275504    0.000295918   -0.000020524
     16        1           0.000275467   -0.000295981   -0.000020523
 -------------------------------------------------------------------
 Cartesian Forces:  Max     0.030124989 RMS     0.005287094

 GradGradGradGradGradGradGradGradGradGradGradGradGradGradGradGradGradGrad
 Berny optimization.
 Using GEDIIS/GDIIS optimizer.
 FormGI is forming the generalized inverse of G from B-inverse, IUseBI=4.
 Internal  Forces:  Max     0.011649384 RMS     0.003061068
 Search for a local minimum.
 Step number   3 out of a maximum of   82
 All quantities printed in internal units (Hartrees-Bohrs-Radians)
 Mixed Optimization -- RFO/linear search
 Update second derivatives using D2CorX and points    1    3    2
 DE=  2.15D-03 DEPred=-3.31D-04 R=-6.50D+00
 Trust test=-6.50D+00 RLast= 2.16D-01 DXMaxT set to 1.50D-01
 ITU= -1  1  0
 Use linear search instead of GDIIS.
 Energy rises -- skip Quadratic/GDIIS search.
 Quartic linear search produced a step of -0.87787.
 Iteration  1 RMS(Cart)=  0.02343523 RMS(Int)=  0.00147975
 Iteration  2 RMS(Cart)=  0.00161681 RMS(Int)=  0.00015898
 Iteration  3 RMS(Cart)=  0.00000363 RMS(Int)=  0.00015895
 Iteration  4 RMS(Cart)=  0.00000000 RMS(Int)=  0.00015895
 Variable       Old X    -DE/DX   Delta X   Delta X   Delta X     New X
                                 (Linear)    (Quad)   (Total)
    R1        2.62435   0.00123   0.00256   0.00000   0.00256   2.62691
    R2        2.60613   0.00167  -0.00022   0.00000  -0.00022   2.60591
    R3        2.04360   0.00019   0.00040   0.00000   0.00040   2.04401
    R4        2.62435   0.00123   0.00256   0.00000   0.00256   2.62691
    R5        2.75504   0.00441  -0.01135   0.00000  -0.01135   2.74369
    R6        2.60613   0.00167  -0.00022   0.00000  -0.00022   2.60591
    R7        2.04360   0.00019   0.00041   0.00000   0.00041   2.04401
    R8        2.65490   0.00127   0.00161   0.00000   0.00161   2.65651
    R9        2.04713   0.00041   0.00058   0.00000   0.00058   2.04771
   R10        2.65490   0.00127   0.00161   0.00000   0.00161   2.65651
   R11        2.57842   0.00167  -0.00014   0.00000  -0.00014   2.57828
   R12        2.04713   0.00041   0.00058   0.00000   0.00058   2.04771
   R13        1.89662   0.00040   0.00075   0.00000   0.00075   1.89737
   R14        1.89662   0.00040   0.00075   0.00000   0.00075   1.89737
   R15        2.28969   0.00723   0.01168   0.00000   0.01168   2.30137
   R16        2.28969   0.00723   0.01168   0.00000   0.01168   2.30137
    A1        2.08264   0.00010   0.00021   0.00000   0.00021   2.08284
    A2        2.08392   0.00006   0.00019   0.00000   0.00019   2.08411
    A3        2.11663  -0.00016  -0.00040   0.00000  -0.00040   2.11623
    A4        2.11728  -0.00019  -0.00047   0.00000  -0.00047   2.11681
    A5        2.08295   0.00009   0.00023   0.00000   0.00023   2.08318
    A6        2.08295   0.00009   0.00024   0.00000   0.00024   2.08319
    A7        2.08264   0.00010   0.00021   0.00000   0.00021   2.08284
    A8        2.08392   0.00006   0.00019   0.00000   0.00019   2.08411
    A9        2.11663  -0.00016  -0.00040   0.00000  -0.00040   2.11623
   A10        2.10398   0.00010  -0.00032   0.00000  -0.00032   2.10367
   A11        2.09375  -0.00009  -0.00089   0.00000  -0.00089   2.09286
   A12        2.08545  -0.00001   0.00120   0.00000   0.00120   2.08666
   A13        2.07585  -0.00020   0.00069   0.00000   0.00069   2.07654
   A14        2.10367   0.00010  -0.00034   0.00000  -0.00034   2.10332
   A15        2.10367   0.00010  -0.00035   0.00000  -0.00035   2.10332
   A16        2.10398   0.00010  -0.00032   0.00000  -0.00032   2.10367
   A17        2.09375  -0.00009  -0.00089   0.00000  -0.00089   2.09287
   A18        2.08545  -0.00001   0.00120   0.00000   0.00120   2.08665
   A19        2.11193   0.00005   0.00026   0.00000   0.00026   2.11219
   A20        2.11193   0.00005   0.00026   0.00000   0.00026   2.11219
   A21        2.05933  -0.00011  -0.00053   0.00000  -0.00053   2.05880
   A22        2.05030   0.00196   0.00858   0.00000   0.00936   2.05966
   A23        2.05030   0.00196   0.00858   0.00000   0.00936   2.05966
   A24        2.16458   0.00038  -0.00152   0.00000  -0.00074   2.16384
    D1       -0.00300   0.00063   0.00294   0.00000   0.00294  -0.00006
    D2        3.14097   0.00025   0.00062   0.00000   0.00062   3.14159
    D3        3.14009   0.00028   0.00146   0.00000   0.00146   3.14155
    D4        0.00088  -0.00009  -0.00086   0.00000  -0.00086   0.00001
    D5        0.00139  -0.00030  -0.00137   0.00000  -0.00137   0.00003
    D6       -3.14014  -0.00033  -0.00143   0.00000  -0.00143  -3.14157
    D7        3.14146   0.00006   0.00014   0.00000   0.00014  -3.14158
    D8       -0.00008   0.00003   0.00008   0.00000   0.00008   0.00000
    D9        0.00300  -0.00063  -0.00294   0.00000  -0.00294   0.00006
   D10       -3.14009  -0.00028  -0.00146   0.00000  -0.00146  -3.14155
   D11       -3.14097  -0.00025  -0.00062   0.00000  -0.00062  -3.14159
   D12       -0.00088   0.00009   0.00086   0.00000   0.00086  -0.00001
   D13        3.04323   0.01165   0.09506   0.00000   0.09506   3.13829
   D14        0.09603  -0.01128  -0.09278   0.00000  -0.09278   0.00326
   D15       -0.09603   0.01128   0.09278   0.00000   0.09278  -0.00325
   D16       -3.04323  -0.01165  -0.09506   0.00000  -0.09506  -3.13829
   D17       -0.00139   0.00030   0.00137   0.00000   0.00137  -0.00003
   D18        3.14015   0.00033   0.00143   0.00000   0.00143   3.14157
   D19       -3.14146  -0.00006  -0.00014   0.00000  -0.00014   3.14158
   D20        0.00008  -0.00003  -0.00008   0.00000  -0.00008  -0.00000
   D21       -0.00015   0.00002   0.00015   0.00000   0.00015  -0.00000
   D22        3.14141   0.00004   0.00017   0.00000   0.00017   3.14159
   D23        3.14150  -0.00001   0.00009   0.00000   0.00009   3.14159
   D24       -0.00013   0.00001   0.00011   0.00000   0.00011  -0.00001
   D25        0.00015  -0.00002  -0.00015   0.00000  -0.00015   0.00000
   D26       -3.14150   0.00001  -0.00009   0.00000  -0.00009  -3.14159
   D27       -3.14141  -0.00004  -0.00017   0.00000  -0.00017  -3.14159
   D28        0.00013  -0.00001  -0.00011   0.00000  -0.00011   0.00001
   D29       -3.14152  -0.00003  -0.00009   0.00000  -0.00009   3.14158
   D30       -0.00005   0.00001   0.00006   0.00000   0.00006   0.00001
   D31        0.00005  -0.00001  -0.00006   0.00000  -0.00006  -0.00002
   D32        3.14151   0.00003   0.00009   0.00000   0.00009  -3.14159
         Item               Value     Threshold  Converged?
 Maximum Force            0.011649     0.000450     NO 
 RMS     Force            0.003061     0.000300     NO 
 Maximum Displacement     0.104689     0.001800     NO 
 RMS     Displacement     0.023555     0.001200     NO 
 Predicted change in Energy=-1.066339D-04
 GradGradGradGradGradGradGradGradGradGradGradGradGradGradGradGradGradGrad

                          Input orientation:                          
 ---------------------------------------------------------------------
 Center     Atomic      Atomic             Coordinates (Angstroms)
 Number     Number       Type             X           Y           Z
 ---------------------------------------------------------------------
      1          6           0       -0.019394    1.211575    0.000661
      2          6           0       -0.700905   -0.000001    0.000943
      3          6           0       -0.019393   -1.211577    0.000732
      4          6           0        1.359595   -1.211106    0.000300
      5          6           0        2.073320   -0.000000    0.000043
      6          6           0        1.359594    1.211105    0.000230
      7          7           0        3.437689    0.000001   -0.000376
      8          7           0       -2.152805    0.000000    0.001404
      9          8           0       -2.724733   -1.075175   -0.001906
     10          8           0       -2.724726    1.075180   -0.001974
     11          1           0       -0.580227    2.136463    0.000802
     12          1           0       -0.580225   -2.136465    0.000926
     13          1           0        1.900279   -2.150175    0.000153
     14          1           0        1.900278    2.150175    0.000028
     15          1           0        3.955105    0.860460   -0.000572
     16          1           0        3.955106   -0.860458   -0.000519
 ---------------------------------------------------------------------
                    Distance matrix (angstroms):
                    1          2          3          4          5
     1  C    0.000000
     2  C    1.390099   0.000000
     3  C    2.423152   1.390099   0.000000
     4  C    2.787650   2.390070   1.378988   0.000000
     5  C    2.418133   2.774225   2.418133   1.405767   0.000000
     6  C    1.378988   2.390070   2.787650   2.422211   1.405767
     7  N    3.663241   4.138594   3.663241   2.405256   1.364369
     8  N    2.453438   1.451900   2.453439   3.715337   4.226125
     9  O    3.542329   2.291699   2.708777   4.086589   4.917043
    10  O    2.708769   2.291696   3.542328   4.680682   4.917038
    11  H    1.081643   2.139870   3.394688   3.868995   3.406726
    12  H    3.394688   2.139869   1.081642   2.149230   3.406726
    13  H    3.871242   3.374820   2.136846   1.083601   2.157127
    14  H    2.136846   3.374820   3.871241   3.404489   2.157127
    15  H    3.989978   4.734853   4.482184   3.320853   2.069181
    16  H    4.482184   4.734853   3.989979   2.619090   2.069181
                    6          7          8          9         10
     6  C    0.000000
     7  N    2.405256   0.000000
     8  N    3.715336   5.590494   0.000000
     9  O    4.680684   6.255513   1.217832   0.000000
    10  O    4.086581   6.255507   1.217833   2.150355   0.000000
    11  H    2.149230   4.550617   2.652824   3.861805   2.392741
    12  H    3.868995   4.550617   2.652827   2.392751   3.861807
    13  H    3.404489   2.643272   4.588109   4.748301   5.638581
    14  H    1.083601   2.643271   4.588108   5.638582   4.748292
    15  H    2.619090   1.004047   6.168222   6.954633   6.683281
    16  H    3.320853   1.004047   6.168223   6.683289   6.954628
                   11         12         13         14         15
    11  H    0.000000
    12  H    4.272928   0.000000
    13  H    4.952593   2.480542   0.000000
    14  H    2.480543   4.952593   4.300350   0.000000
    15  H    4.711414   5.436063   3.645029   2.426042   0.000000
    16  H    5.436063   4.711414   2.426043   3.645028   1.720919
                   16
    16  H    0.000000
 Stoichiometry    C6H6N2O2
 Framework group  C1[X(C6H6N2O2)]
 Deg. of freedom    42
 Full point group                 C1      NOp   1
 Largest Abelian subgroup         C1      NOp   1
 Largest concise Abelian subgroup C1      NOp   1
                         Standard orientation:                         
 ---------------------------------------------------------------------
 Center     Atomic      Atomic             Coordinates (Angstroms)
 Number     Number       Type             X           Y           Z
 ---------------------------------------------------------------------
      1          6           0        0.023085   -1.211575    0.000739
      2          6           0        0.704596    0.000001    0.001021
      3          6           0        0.023084    1.211577    0.000809
      4          6           0       -1.355904    1.211106    0.000378
      5          6           0       -2.069629    0.000000    0.000120
      6          6           0       -1.355903   -1.211105    0.000307
      7          7           0       -3.433998   -0.000001   -0.000299
      8          7           0        2.156496    0.000001    0.001481
      9          8           0        2.728423    1.075176   -0.001828
     10          8           0        2.728417   -1.075179   -0.001897
     11          1           0        0.583918   -2.136463    0.000879
     12          1           0        0.583915    2.136465    0.001004
     13          1           0       -1.896589    2.150175    0.000231
     14          1           0       -1.896587   -2.150175    0.000105
     15          1           0       -3.951414   -0.860461   -0.000494
     16          1           0       -3.951416    0.860458   -0.000442
 ---------------------------------------------------------------------
 Rotational constants (GHZ):      3.9660942      0.8305202      0.6867183
 Standard basis: 6-311+G(d,p) (5D, 7F)
 There are   266 symmetry adapted cartesian basis functions of A   symmetry.
 There are   256 symmetry adapted basis functions of A   symmetry.
   256 basis functions,   408 primitive gaussians,   266 cartesian basis functions
    36 alpha electrons       36 beta electrons
       nuclear repulsion energy       497.7776078019 Hartrees.
 NAtoms=   16 NActive=   16 NUniq=   16 SFac= 1.00D+00 NAtFMM=   60 NAOKFM=F Big=F
 Integral buffers will be    131072 words long.
 Raffenetti 2 integral format.
 Two-electron integral symmetry is turned on.
 One-electron integrals computed using PRISM.
 NBasis=   256 RedAO= T EigKep=  2.14D-06  NBF=   256
 NBsUse=   256 1.00D-06 EigRej= -1.00D+00 NBFU=   256
 Lowest energy guess from the checkpoint file:  "m062x6311PNA.chk"
 B after Tr=    -0.000000   -0.000000    0.000000
         Rot=    1.000000   -0.000015   -0.000077   -0.000000 Ang=  -0.01 deg.
 B after Tr=     0.000000    0.000000   -0.000000
         Rot=    1.000000   -0.000015   -0.000068    0.000000 Ang=  -0.01 deg.
 Keep R1 ints in memory in canonical form, NReq=550844378.
 Requested convergence on RMS density matrix=1.00D-08 within 128 cycles.
 Requested convergence on MAX density matrix=1.00D-06.
 Requested convergence on             energy=1.00D-06.
 No special actions if energy rises.
 SCF Done:  E(RM062X) =  -492.047360857     A.U. after   10 cycles
            NFock= 10  Conv=0.51D-08     -V/T= 2.0034
 Calling FoFJK, ICntrl=      2127 FMM=F ISym2X=0 I1Cent= 0 IOpClX= 0 NMat=1 NMatS=1 NMatT=0.
 ***** Axes restored to original set *****
 -------------------------------------------------------------------
 Center     Atomic                   Forces (Hartrees/Bohr)
 Number     Number              X              Y              Z
 -------------------------------------------------------------------
      1        6          -0.001011595    0.000251617    0.000055549
      2        6           0.003874436   -0.000000108    0.000193469
      3        6          -0.001011667   -0.000251561    0.000055530
      4        6           0.000658428   -0.000353730   -0.000015190
[...]
 ! D2    D(6,1,2,8)           -180.0001         -DE/DX =    0.0                 !
 ! D3    D(11,1,2,3)           179.9998         -DE/DX =    0.0                 !
 ! D4    D(11,1,2,8)            -0.0003         -DE/DX =    0.0                 !
 ! D5    D(2,1,6,5)              0.0            -DE/DX =    0.0                 !
 ! D6    D(2,1,6,14)           180.0            -DE/DX =    0.0                 !
 ! D7    D(11,1,6,5)          -179.9999         -DE/DX =    0.0                 !
 ! D8    D(11,1,6,14)            0.0001         -DE/DX =    0.0                 !
 ! D9    D(1,2,3,4)              0.0001         -DE/DX =    0.0                 !
 ! D10   D(1,2,3,12)          -179.9998         -DE/DX =    0.0                 !
 ! D11   D(8,2,3,4)            180.0001         -DE/DX =    0.0                 !
 ! D12   D(8,2,3,12)             0.0003         -DE/DX =    0.0                 !
 ! D13   D(1,2,8,9)            179.9814         -DE/DX =    0.0                 !
 ! D14   D(1,2,8,10)             0.019          -DE/DX =    0.0                 !
 ! D15   D(3,2,8,9)             -0.0186         -DE/DX =    0.0                 !
 ! D16   D(3,2,8,10)          -179.981          -DE/DX =    0.0                 !
 ! D17   D(2,3,4,5)              0.0            -DE/DX =    0.0                 !
 ! D18   D(2,3,4,13)          -180.0            -DE/DX =    0.0                 !
 ! D19   D(12,3,4,5)           179.9999         -DE/DX =    0.0                 !
 ! D20   D(12,3,4,13)           -0.0002         -DE/DX =    0.0                 !
 ! D21   D(3,4,5,6)             -0.0001         -DE/DX =    0.0                 !
 ! D22   D(3,4,5,7)           -180.0002         -DE/DX =    0.0                 !
 ! D23   D(13,4,5,6)          -180.0001         -DE/DX =    0.0                 !
 ! D24   D(13,4,5,7)            -0.0002         -DE/DX =    0.0                 !
 ! D25   D(4,5,6,1)              0.0001         -DE/DX =    0.0                 !
 ! D26   D(4,5,6,14)           180.0001         -DE/DX =    0.0                 !
 ! D27   D(7,5,6,1)            180.0002         -DE/DX =    0.0                 !
 ! D28   D(7,5,6,14)             0.0002         -DE/DX =    0.0                 !
 ! D29   D(4,5,7,15)           179.999          -DE/DX =    0.0                 !
 ! D30   D(4,5,7,16)             0.0008         -DE/DX =    0.0                 !
 ! D31   D(6,5,7,15)            -0.001          -DE/DX =    0.0                 !
 ! D32   D(6,5,7,16)          -179.9992         -DE/DX =    0.0                 !
 --------------------------------------------------------------------------------
 GradGradGradGradGradGradGradGradGradGradGradGradGradGradGradGradGradGrad

 1\1\ WCSS.PL-BEM-QINLAB\Freq\RM062X\6-311+G(d,p)\C6H6N2O2\PHZD\13-Jun-
 2024\0\\#N Geom=AllCheck Guess=TCheck SCRF=Check GenChk RM062X/6-311+G
 (d,p) Freq\\[No Title]\\0,1\C,-0.0197071748,1.2116465491,0.0000778279\
 C,-0.7007213067,-0.0000002089,0.0001280635\C,-0.0197069121,-1.21164690
 44,0.0001481542\C,1.3608617167,-1.2112133054,0.0001197376\C,2.07545873
 64,0.0000001054,0.0000710659\C,1.3608614015,1.2112133383,0.000049333\N
 ,3.4413372719,0.0000003763,0.0000464055\N,-2.1627054734,0.0000003654,0
 .0001605489\O,-2.7289825353,-1.0748179917,-0.0001452855\O,-2.728979880
 7,1.0748200225,-0.0002143833\H,-0.5803743508,2.1367610099,0.0000593295
 \H,-0.5803736179,-2.1367615286,0.0001833418\H,1.9020347515,-2.15029429
 03,0.0001351334\H,1.9020342276,2.1502944584,0.00000972\H,3.9587608738,
 0.8604939896,-0.0000032464\H,3.9587612721,-0.8604929857,0.0000502539\\
 Version=ES64L-G09RevE.01\State=1-A\HF=-492.0474412\RMSD=7.508e-09\RMSF
 =1.091e-04\ZeroPoint=0.1198519\Thermal=0.1278357\Dipole=2.9430034,-0.0
 000024,0.0002725\DipoleDeriv=0.5224245,0.1254586,-0.0000094,0.2865463,
 0.0668314,0.0000015,-0.0000886,-0.0000448,-0.0508649,-1.0303842,-0.000
 0096,-0.0000021,-0.000128,-0.2014892,-0.0000004,0.0002879,0.0000055,-0
 .0122037,0.5226124,-0.1255048,0.0000014,-0.2864138,0.0668292,-0.000007
 ,0.0000541,0.0000217,-0.0508655,-0.6602571,-0.0018444,0.0000052,-0.560
 2125,0.0038654,-0.0000018,0.0000223,-0.0000089,-0.1993182,2.1579867,0.
 0000117,0.0000007,-0.0000546,0.0987509,0.0000041,-0.0000542,-0.0000025
 ,0.1318163,-0.6602923,0.0018776,0.0000084,0.5603002,0.0038365,-0.00000
 84,0.0000319,-0.0000006,-0.1993167,-1.9538878,-0.0000832,-0.0000031,0.
 0000254,-0.1828808,-0.0000086,0.0000439,0.0000084,-0.6041483,2.4891091
 ,-0.0000189,0.0000686,0.0001086,1.7773057,-0.0000319,-0.0000804,-0.000
 0435,0.2589079,-1.0278533,-0.4261429,-0.0000075,-0.4473046,-1.0449929,
 0.0000749,-0.0000959,-0.0002146,-0.263104,-1.0278506,0.4261782,-0.0000
 302,0.4472452,-1.0449591,-0.0000359,-0.0001107,0.0002673,-0.2631042,0.
 1142821,0.0282469,0.0000029,0.014646,0.0756392,-0.0000032,0.0000061,0.
 0000057,0.1459155,0.1142228,-0.0282449,0.000004,-0.0147195,0.0756438,0
 .0000049,0.,-0.000002,0.1459155,-0.0012397,0.0631287,-0.0000125,0.0612
 583,-0.008253,0.0000175,-0.000009,-0.0000011,0.1502175,-0.0012118,-0.0
 631046,-0.0000102,-0.0612564,-0.0082168,-0.0000107,-0.0000167,0.000009
 2,0.1502173,0.2211694,0.0545985,-0.000012,0.0988205,0.1610728,-0.00000
 9,-0.0000042,-0.0000037,0.329968,0.2211698,-0.054547,-0.0000043,-0.098
 8612,0.1610168,0.000014,0.0000135,0.0000039,0.3299674\Polar=141.985360
 3,-0.0020858,96.7064875,0.0006639,-0.0020551,49.4726238\PG=C01 [X(C6H6
 N2O2)]\NImag=1\\0.73439389,-0.03808751,0.73835527,-0.00001223,-0.00001
 489,0.13455699,-0.14925722,-0.11582211,0.00000694,0.58383410,-0.050133
 80,-0.30191955,0.00000739,-0.00000044,0.77776324,0.00000547,0.00000798
 ,-0.04894176,0.00000930,-0.00001921,0.09976062,0.06034288,0.02633681,-
 0.00000270,-0.14925613,0.05013390,0.00000336,0.73439327,-0.02633826,-0
 .05906666,0.00000275,0.11582255,-0.30192120,0.00000600,0.03808943,0.73
 835760,-0.00000090,-0.00000045,0.00141136,0.00000145,0.00000690,-0.048
 94067,-0.00001498,-0.00001700,0.13455615,-0.04858124,-0.03403109,0.000
 00162,-0.03895205,0.07958283,-0.00000253,-0.38283276,-0.03471574,0.000
 01085,0.74315349,-0.02152358,-0.01884709,0.00000110,0.01901131,0.03382
 796,-0.00000305,0.03674832,-0.12938818,0.00000190,-0.04250532,0.700251
 58,0.00000200,0.00000200,0.00011390,0.00000110,-0.00000377,0.00207032,
 0.00000608,0.00000388,-0.05353997,-0.00001171,-0.00001251,0.12003142,-
 0.03456270,0.02982306,-0.00000182,0.01807213,-0.00000089,-0.00000056,-
 0.03456134,-0.02982213,0.00000087,-0.15502242,-0.09836340,0.00000429,0
 .74097299,0.08447479,0.04688735,-0.00000335,-0.00000035,-0.08250623,0.
 00000236,-0.08447504,0.04688624,0.00000045,-0.03067890,-0.27528254,0.0
 0000452,-0.00000042,0.69564642,-0.00000243,-0.00000312,-0.00232499,-0.
 00000063,0.00000249,-0.00197785,0.00000240,0.00000017,-0.00232523,0.00
 000324,0.00000672,-0.06591694,-0.00001215,-0.00001453,0.16068168,-0.38
 283508,0.03471739,0.00000753,-0.03895235,-0.07958525,0.00000209,-0.048
 57967,0.03403191,0.00000079,0.06136793,0.01631682,-0.00000258,-0.15502
 276,0.03067786,0.00000199,0.74315307,-0.03674865,-0.12938869,0.0000023
 0,-0.01901086,0.03382790,0.00000125,0.02152374,-0.01884624,0.00000014,
 -0.01631580,-0.04232476,0.00000131,0.09836411,-0.27528274,0.00000428,0
 .04250601,0.70025163,0.00000840,0.00000019,-0.05353993,0.00000240,0.00
 000187,0.00207019,0.00000065,-0.00000053,0.00011421,-0.00000124,0.0000
 0135,0.00422950,-0.00000061,0.00000664,-0.06591684,-0.00001445,-0.0000
 1879,0.12003100,0.01280358,0.00208069,0.00000084,-0.02011369,0.0000010
 4,-0.00000023,0.01280279,-0.00208113,0.00000093,-0.04672538,-0.0196231
 3,0.00000182,-0.35580725,-0.00000016,0.00000600,-0.04672592,0.01962267
 ,0.00000044,0.78537129,-0.00710586,-0.01092951,0.00000044,0.,0.0084664
 6,-0.00000028,0.00710556,-0.01092932,0.00000035,-0.05040675,0.00132095
 ,0.00000128,0.00000013,-0.13018897,0.00000283,0.05040719,0.00132081,-0
 .00000079,-0.00000064,0.89185767,0.00000058,0.00000027,0.00452998,0.00
 000024,-0.00000044,-0.00087644,0.00000024,0.00000063,0.00452988,0.0000
 0236,0.00000021,0.00919472,0.00000818,0.00000298,-0.03485413,-0.000000
 41,0.00000028,0.00919478,-0.00002238,-0.00002669,0.00396765,-0.0417893
 0,-0.02040297,0.00000122,-0.13926339,-0.00000089,0.00001983,-0.0417878
 7,0.02040411,0.00000122,0.01474109,0.00974893,-0.00000279,-0.01924488,
 -0.00000063,0.00000071,0.01474047,-0.00974822,-0.00000181,0.01826556,-
 0.00000003,0.00000055,0.70723430,-0.02450805,0.01540080,0.00000100,0.0
 0000002,-0.11702491,0.00000177,0.02450703,0.01540166,-0.00000303,0.005
 36041,-0.00769057,-0.00000014,0.00000072,-0.00523683,-0.00000007,-0.00
 535851,-0.00769113,0.00000115,-0.00000222,0.00008298,0.00000050,0.0000
 0030,1.04539454,0.00000227,-0.00000205,-0.01085445,-0.00001781,0.00000
 155,-0.05814158,0.00000099,0.00000062,-0.01085516,0.00000018,-0.000000
 99,0.00913275,0.00000013,0.00000004,-0.00285370,0.00000051,0.00000201,
 0.00913276,-0.00000045,0.00000003,-0.00052100,0.00016828,-0.00002625,0
 .22149513,-0.00288458,0.00775975,-0.00000178,-0.04198852,-0.05242936,-
 0.00001683,-0.00143553,-0.00292878,-0.00000249,-0.00170509,-0.00244655
 ,0.00000074,0.00514515,-0.00203856,-0.00000056,-0.00490854,-0.00004444
 ,0.00000136,-0.00520303,0.00034054,-0.00000030,-0.25722095,-0.19677367
 ,-0.00007071,0.26386819,0.00054428,0.00309189,0.00000029,-0.03774629,-
 0.01014917,-0.00001187,0.01077413,-0.00883669,0.00000176,-0.00428084,0
 .00029904,0.00000039,0.00465017,0.00010952,-0.00000008,-0.00254771,0.0
 0255272,0.00000005,-0.00395491,0.00059841,-0.00000033,-0.19446487,-0.4
 6586342,-0.00008658,0.23727632,0.61034892,-0.00000307,0.00000116,0.004
 83866,0.00000106,-0.00000815,0.01492370,0.00000025,-0.00000095,0.00295
 007,-0.00000123,0.00000017,-0.00094727,0.00000058,0.00000041,0.0005608
 6,0.00000025,-0.00000103,-0.00126918,-0.00000040,0.00000007,0.00002758
 ,-0.00008786,-0.00010919,-0.07548812,0.00008366,0.00010143,0.02819120,
 -0.00143494,0.00292817,-0.00000196,-0.04198861,0.05243050,-0.00002023,
 -0.00288568,-0.00776063,-0.00000222,-0.00490898,0.00004412,0.00000161,
 0.00514510,0.00203940,-0.00000069,-0.00170465,0.00244601,0.00000039,-0
 .00520355,-0.00034043,-0.00000014,-0.25722034,0.19677360,-0.00008416,0
 .05161863,-0.01195691,0.00000812,0.26386793,-0.01077465,-0.00883592,-0
 .00000138,0.03774650,-0.01015055,0.00001352,-0.00054314,0.00309226,0.0
 0000041,0.00254729,0.00255290,-0.00000051,-0.00465056,0.00010912,0.000
 00019,0.00428023,0.00029962,-0.00000026,0.00395632,0.00059875,-0.00000
 004,0.19446474,-0.46586361,0.00011165,0.01195620,-0.13652872,0.0000153
 6,-0.23727574,0.61034982,0.00000099,0.00000150,0.00294982,-0.00000128,
 0.00000983,0.01492426,-0.00000311,-0.00000103,0.00483867,0.00000018,0.
 00000077,-0.00126916,0.00000095,-0.00000032,0.00056083,-0.00000135,-0.
 00000024,-0.00094727,-0.00000063,-0.00000010,0.00002757,-0.00010121,0.
 00013442,-0.07548890,0.00000731,-0.00000491,0.02662069,0.00009981,-0.0
 0013898,0.02819163,-0.13161751,0.12836598,-0.00000168,0.01289117,-0.01
 180316,-0.00000007,-0.00150655,-0.00368683,0.00000021,-0.00093713,-0.0
 0069277,0.00000004,-0.00487006,-0.00076508,0.00000032,-0.00904805,0.02
 533246,-0.00000028,-0.00024314,0.00130602,-0.00000010,0.00091522,-0.00
 112988,0.00000021,0.00050120,0.00155153,0.00000017,-0.00496108,-0.0004
 0649,-0.00000106,0.13746919,0.12626536,-0.27527643,0.00000400,0.015383
 04,-0.01741174,0.00000015,-0.00382317,-0.00321090,0.00000042,-0.000727
 33,0.00047267,0.,-0.00164321,0.00125944,0.00000037,-0.00272759,0.00641
 905,0.00000011,-0.00002325,0.00025791,-0.00000005,0.00254337,-0.003788
 84,0.00000077,0.00000024,0.00131039,0.00000008,0.00080946,0.00322598,-
 0.00000077,-0.13709293,0.28700829,-0.00000108,0.00000625,-0.04070105,-
 0.00000202,-0.00000057,0.00496282,0.00000005,0.00000060,0.00520423,0.0
 0000042,0.00000009,-0.00121854,0.00000051,-0.00000026,0.00863950,-0.00
 000008,-0.00000092,0.00476961,-0.00000004,0.,-0.00018245,0.00000119,0.
 00000008,-0.00417300,-0.00000032,-0.00000027,0.00043394,-0.00000068,-0
 .00000012,-0.00010740,0.00000225,-0.00000479,0.02760138,-0.00150666,0.
 00368738,-0.00000001,0.01289085,0.01180311,-0.00000079,-0.13161745,-0.
 12836647,0.00000589,-0.00904861,-0.02533238,0.00000118,-0.00487051,0.0
 0076506,0.00000032,-0.00093771,0.00069271,0.00000002,-0.00024303,-0.00
 130600,0.,0.00091466,0.00112999,0.00000008,-0.00496064,0.00040666,-0.0
 0000107,0.00050156,-0.00155180,0.00000030,0.00070402,0.00083933,0.0000
 0003,0.13746903,0.00382308,-0.00321025,0.00000004,-0.01538339,-0.01741
 192,0.00000110,-0.12626528,-0.27527715,0.00000835,0.00272692,0.0064191
 5,-0.00000028,0.00164268,0.00125939,0.00000009,0.00072663,0.00047267,-
 0.00000007,0.00002362,0.00025795,0.,-0.00254393,-0.00378864,-0.0000008
 1,-0.00080913,0.00322623,0.00000065,0.00000012,0.00131001,-0.00000011,
 -0.00083932,-0.00081547,0.00000005,0.13709292,0.28700844,-0.00000017,-
 0.00000001,0.00520422,-0.00000119,0.00000188,0.00496283,0.00000637,0.0
 0000596,-0.04070102,-0.00000031,0.00000075,0.00476961,0.00000036,0.000
 00066,0.00863950,0.00000029,-0.00000018,-0.00121853,-0.00000003,-0.000
 00002,-0.00018245,0.00000128,-0.00000012,-0.00417300,-0.00000060,-0.00
 000005,-0.00010741,-0.00000029,0.00000022,0.00043395,0.00000009,0.0000
 0002,0.00047571,-0.00000577,-0.00000891,0.02760134,-0.00086448,-0.0007
 0402,0.00000071,-0.00461483,-0.00186289,0.00000063,-0.01161353,0.02855
 804,-0.00000056,-0.12661644,0.12045526,-0.00000183,0.00978346,-0.01454
 591,0.00000042,-0.00120046,-0.00304830,-0.00000012,0.00191072,-0.00063
 713,-0.00000042,0.00041170,0.00184269,0.00000027,-0.00022093,-0.000274
 36,-0.00000018,-0.00098539,0.00026578,-0.00000044,0.00001317,0.0000792
 9,-0.00000003,0.00105822,-0.00021340,-0.00000016,0.13264366,-0.0014253
 3,-0.00021886,-0.00000074,-0.00086161,0.00230748,0.00000002,-0.0017475
 8,0.00415709,0.00000056,0.12026022,-0.27176255,0.00000335,0.01709770,-
 0.01778729,0.00000021,-0.00361092,-0.00311370,0.00000044,0.00091532,0.
 00175553,0.00000033,-0.00037753,0.00030804,0.00000030,0.00015992,-0.00
 001042,-0.00000005,-0.00003356,-0.00001141,0.00000004,0.00004737,-0.00
 001321,0.00000002,0.00022036,0.00054035,-0.00000024,-0.12965580,0.2852
 0891,0.00000022,0.00000016,-0.00081824,0.00000029,-0.00000024,0.007454
 58,0.00000027,-0.00000071,0.00239985,-0.00000178,0.00000350,-0.0335498
 3,-0.00000023,0.00000091,0.00384952,0.00000024,0.00000052,0.00535298,-
 0.00000047,-0.00000002,-0.00276982,-0.00000006,0.00000033,0.00145016,-
 0.00000005,-0.00000013,-0.00006800,0.00000022,-0.00000015,-0.00062138,
 -0.00000001,-0.00000005,-0.00060105,-0.00000010,-0.00000008,-0.0048775
 3,0.00000146,-0.00000401,0.02318645,-0.01161222,-0.02855922,0.00000208
 ,-0.00461463,0.00186419,0.00000056,-0.00086560,0.00070342,-0.00000030,
 -0.00120064,0.00304767,-0.00000002,0.00978368,0.01454686,-0.00000041,-
 0.12661565,-0.12045568,0.00000503,0.00191085,0.00063713,-0.00000053,0.
 00041205,-0.00184288,0.00000037,-0.00098581,-0.00026587,-0.00000034,-0
 .00022099,0.00027444,-0.00000032,0.00105780,0.00021384,-0.00000021,0.0
 0001361,-0.00007883,0.00000003,0.00057461,0.00075645,-0.00000005,0.132
 64305,0.00174944,0.00415570,0.00000072,0.00086170,0.00230938,0.0000002
 8,0.00142366,-0.00022008,-0.00000069,0.00361028,-0.00311456,0.00000043
 ,-0.01709766,-0.01778589,0.00000109,-0.12025948,-0.27176329,0.00000879
 ,-0.00091504,0.00175554,-0.00000067,0.00037769,0.00030779,-0.00000024,
 0.00003318,-0.00001141,0.00000006,-0.00015978,-0.00001047,-0.00000011,
 -0.00022099,0.00054101,-0.00000013,-0.00004674,-0.00001256,0.00000002,
 -0.00075617,-0.00097708,0.,0.12965525,0.28520859,0.00000009,0.00000067
 ,0.00239982,0.00000015,0.00000048,0.00745457,0.00000015,-0.00000025,-0
 .00081821,-0.00000006,0.00000001,0.00535298,0.00000073,0.00000027,0.00
 384951,0.00000530,0.00000911,-0.03354979,-0.00000039,-0.00000025,-0.00
 276982,-0.00000017,-0.00000025,0.00145015,0.00000029,0.00000016,-0.000
 62138,0.00000002,0.00000008,-0.00006798,-0.00000008,-0.00000023,-0.004
 87753,-0.00000002,0.,-0.00060105,0.00000006,-0.00000007,-0.00028177,-0
 .00000618,-0.00000979,0.02318644,-0.00061679,0.00000274,0.00000077,0.0
 0065664,0.00041020,0.,0.00002134,-0.00190571,-0.00000043,-0.00477761,0
 .00315156,0.00000023,-0.01247028,-0.03140500,0.00000174,0.00204644,-0.
 00196356,-0.00000033,-0.17639955,-0.17702897,0.00001106,-0.00055404,-0
 .00003069,-0.00000009,0.00023556,0.00026325,0.00000007,0.00014497,-0.0
 0002572,-0.00000013,0.00000897,0.00001635,0.,-0.00037677,0.00011321,0.
 00000004,0.00006892,-0.00019015,-0.00000003,-0.00034889,0.00155442,0.0
 0000008,0.17809163,-0.00110109,-0.00062011,0.00000077,0.00163510,-0.00
 000299,0.,-0.00089092,0.00042092,-0.00000047,0.00271622,0.00191445,0.0
 0000012,-0.00215877,0.00595707,-0.00000038,0.00314262,0.00135108,-0.00
 000039,-0.17511123,-0.37811255,0.00001889,-0.00156986,0.00002634,-0.00
 000003,0.00037770,0.00027740,0.00000003,0.00043365,-0.00041520,-0.0000
 0006,0.00007053,0.00000196,-0.00000003,0.00003690,0.00002032,0.0000000
 3,0.00014634,0.00023167,-0.00000005,-0.00035084,-0.00061463,0.00000016
 ,0.18983072,0.38299107,-0.00000020,0.00000011,-0.00095351,-0.00000009,
 0.00000010,0.00014719,0.00000012,-0.00000021,0.00212926,-0.00000023,0.
 00000002,0.00315256,-0.00000068,-0.00000003,-0.00530586,-0.00000014,-0
 .00000016,-0.00160605,0.00001256,0.00002072,0.00534198,-0.00000024,-0.
 00000015,-0.00005602,0.00000023,0.00000010,-0.00003066,0.00000010,0.00
 000001,-0.00001467,0.00000004,0.,0.00012242,-0.00000007,-0.00000002,-0
 .00034859,0.00000012,-0.00000019,-0.00074147,0.00000026,0.00000025,0.0
 0063553,-0.00001172,-0.00001977,0.00182635,0.00002238,0.00190493,0.000
 00048,0.00065651,-0.00040909,0.,-0.00061817,-0.00000378,-0.00000033,0.
 00204586,0.00196314,-0.00000015,-0.01247032,0.03140607,-0.00000028,-0.
 00477706,-0.00315221,0.00000015,-0.17640023,0.17702925,0.00000105,-0.0
 0055429,0.00003115,-0.00000006,0.00014490,0.00002543,0.,0.00023603,-0.
 00026341,-0.00000001,-0.00037722,-0.00011278,0.,0.00000943,-0.00001590
 ,0.00000004,-0.00034840,-0.00155484,0.00000008,0.00006878,0.00019025,0
 .00000004,0.01426947,-0.01720707,-0.00000007,0.17809235,0.00088982,0.0
 0042207,-0.00000046,-0.00163516,-0.00000415,0.,0.00110254,-0.00061935,
 0.00000039,-0.00314238,0.00135156,-0.00000007,0.00215849,0.00595594,-0
 .00000027,-0.00271720,0.00191508,0.00000024,0.17511204,-0.37811261,0.0
 0000413,0.00156980,0.00002581,-0.00000003,-0.00043336,-0.00041471,-0.0
 0000004,-0.00037799,0.00027741,0.00000007,-0.00003643,0.00001989,0.,-0
 .00007102,0.00000147,-0.00000002,0.00035058,-0.00061456,0.,-0.00014593
 ,0.00023195,-0.00000010,0.01720735,-0.01342677,-0.00000077,-0.18983114
 ,0.38299098,0.00000006,0.00000022,0.00212917,0.00000008,-0.00000011,0.
 00014721,-0.00000014,0.00000006,-0.00095342,0.00000023,-0.00000004,-0.
 00160606,-0.00000056,-0.00000076,-0.00530587,0.,0.00000013,0.00315255,
 0.00000242,0.00000244,0.00534197,-0.00000015,-0.00000004,-0.00005602,0
 .00000005,0.00000003,-0.00001469,0.00000010,-0.00000001,-0.00003066,-0
 .00000003,-0.00000003,-0.00034858,0.00000001,0.,0.00012242,0.00000007,
 0.00000002,0.00063554,0.00000003,-0.00000002,-0.00074148,-0.00000125,0
 .00000116,-0.00429846,-0.00000092,-0.00000306,0.00182637\\0.00029505,-
 0.00002366,-0.00000510,-0.00044023,0.00000010,-0.00001999,0.00029517,0
 .00002354,-0.00000508,-0.00013011,-0.00004353,0.00000143,0.00012537,0.
 ,-0.00000073,-0.00013022,0.00004355,0.00000140,-0.00008653,0.,-0.00000
 023,-0.00001452,0.00000023,0.00010047,0.00003647,0.00024978,-0.0000363
 1,0.00003689,-0.00025003,-0.00003630,-0.00000887,0.00000263,-0.0000003
 7,-0.00000881,-0.00000260,-0.00000034,0.00000836,-0.00000004,0.0000004
 7,0.00000836,0.00000003,0.00000044,0.00000682,-0.00000044,0.00000012,0
 .00000682,0.00000045,0.00000012\\\@


 KINETICS       FACT
 ---------  =  -------
 MECHANISM     FICTION
 Job cpu time:       0 days  0 hours 40 minutes 17.1 seconds.
 File lengths (MBytes):  RWF=    106 Int=      0 D2E=      0 Chk=      6 Scr=      1
 Normal termination of Gaussian 09 at Thu Jun 13 22:23:15 2024.
