 Entering Gaussian System, Link 0=g09
 Input=lwAPFDSAYang.gjf
 Output=lwAPFDSAYang.log
 Initial command:
 /home/phzd/g09E/g09/l1.exe "/home/phzd/g09E/scratch/Gau-3280379.inp" -scrdir="/home/phzd/g09E/scratch/"
 Default is to use a total of  18 processors:
                               18 via shared-memory
                                1 via Linda
 Entering Link 1 = /home/phzd/g09E/g09/l1.exe PID=   3280381.
  
 Copyright (c) 1988,1990,1992,1993,1995,1998,2003,2009,2015,
            Gaussian, Inc.  All Rights Reserved.
  
 This is part of the Gaussian(R) 09 program.  It is based on
 the Gaussian(R) 03 system (copyright 2003, Gaussian, Inc.),
 the Gaussian(R) 98 system (copyright 1998, Gaussian, Inc.),
 the Gaussian(R) 94 system (copyright 1995, Gaussian, Inc.),
 the Gaussian 92(TM) system (copyright 1992, Gaussian, Inc.),
 the Gaussian 90(TM) system (copyright 1990, Gaussian, Inc.),
 the Gaussian 88(TM) system (copyright 1988, Gaussian, Inc.),
 the Gaussian 86(TM) system (copyright 1986, Carnegie Mellon
 University), and the Gaussian 82(TM) system (copyright 1983,
 Carnegie Mellon University). Gaussian is a federally registered
 trademark of Gaussian, Inc.
  
 This software contains proprietary and confidential information,
 including trade secrets, belonging to Gaussian, Inc.
  
 This software is provided under written license and may be
 used, copied, transmitted, or stored only in accord with that
 written license.
  
 The following legend is applicable only to US Government
 contracts under FAR:
  
                    RESTRICTED RIGHTS LEGEND
  
 Use, reproduction and disclosure by the US Government is
 subject to restrictions as set forth in subparagraphs (a)
 and (c) of the Commercial Computer Software - Restricted
 Rights clause in FAR 52.227-19.
  
 Gaussian, Inc.
 340 Quinnipiac St., Bldg. 40, Wallingford CT 06492
  
  
 ---------------------------------------------------------------
 Warning -- This program may not be used in any manner that
 competes with the business of Gaussian, Inc. or will provide
 assistance to any competitor of Gaussian, Inc.  The licensee
 of this program is prohibited from giving any competitor of
 Gaussian, Inc. access to this program.  By using this program,
 the user acknowledges that Gaussian, Inc. is engaged in the
 business of creating and licensing software in the field of
 computational chemistry and represents and warrants to the
 licensee that it is not a competitor of Gaussian, Inc. and that
 it will not use this program in any manner prohibited above.
 ---------------------------------------------------------------
  

 Cite this work as:
 Gaussian 09, Revision E.01,
 M. J. Frisch, G. W. Trucks, H. B. Schlegel, G. E. Scuseria, 
 M. A. Robb, J. R. Cheeseman, G. Scalmani, V. Barone, B. Mennucci, 
 G. A. Petersson, H. Nakatsuji, M. Caricato, X. Li, H. P. Hratchian, 
 A. F. Izmaylov, J. Bloino, G. Zheng, J. L. Sonnenberg, M. Hada, 
 M. Ehara, K. Toyota, R. Fukuda, J. Hasegawa, M. Ishida, T. Nakajima, 
 Y. Honda, O. Kitao, H. Nakai, T. Vreven, J. A. Montgomery, Jr., 
 J. E. Peralta, F. Ogliaro, M. Bearpark, J. J. Heyd, E. Brothers, 
 K. N. Kudin, V. N. Staroverov, T. Keith, R. Kobayashi, J. Normand, 
 K. Raghavachari, A. Rendell, J. C. Burant, S. S. Iyengar, J. Tomasi, 
 M. Cossi, N. Rega, J. M. Millam, M. Klene, J. E. Knox, J. B. Cross, 
 V. Bakken, C. Adamo, J. Jaramillo, R. Gomperts, R. E. Stratmann, 
 O. Yazyev, A. J. Austin, R. Cammi, C. Pomelli, J. W. Ochterski, 
 R. L. Martin, K. Morokuma, V. G. Zakrzewski, G. A. Voth, 
 P. Salvador, J. J. Dannenberg, S. Dapprich, A. D. Daniels, 
 O. Farkas, J. B. Foresman, J. V. Ortiz, J. Cioslowski, 
 and D. J. Fox, Gaussian, Inc., Wallingford CT, 2013.
 
 ******************************************
 Gaussian 09:  ES64L-G09RevE.01 30-Nov-2015
                19-May-2024 
 ******************************************
 %chk=lwAPFDSAYang.chk
 ---------------------------
 # opt freq apfd/6-31+g(d,p)
 ---------------------------
 1/14=-1,18=20,19=15,26=3,38=1/1,3;
 2/9=110,12=2,17=6,18=5,40=1/2;
 3/5=1,6=6,7=111,11=2,16=1,25=1,30=1,71=1,74=-44/1,2,3;
 4//1;
 5/5=2,38=5/2;
 6/7=2,8=2,9=2,10=2,28=1/1;
 7//1,2,3,16;
 1/14=-1,18=20,19=15,26=3/3(2);
 2/9=110/2;
 99//99;
 2/9=110/2;
 3/5=1,6=6,7=111,11=2,16=1,25=1,30=1,71=1,74=-44/1,2,3;
 4/5=5,16=3,69=1/1;
 5/5=2,38=5/2;
 7//1,2,3,16;
 1/14=-1,18=20,19=15,26=3/3(-5);
 2/9=110/2;
 6/7=2,8=2,9=2,10=2,19=2,28=1/1;
 99/9=1/99;
 ----------
 [No Title]
 ----------
 Symbolic Z-matrix:
 Charge =  1 Multiplicity = 1
 C                    -2.39062   0.19781   0.00131 
 C                    -1.91859  -1.13235  -0.00602 
 C                    -0.55509  -1.34707  -0.01071 
 C                     0.35667  -0.26047  -0.00884 
 C                    -0.13048   1.07124   0.00184 
 C                    -1.48574   1.28725   0.00525 
 O                    -3.69383   0.4154    0.00558 
 O                    -2.87236  -2.07457  -0.00762 
 C                    -2.47649  -3.43982  -0.01708 
 O                    -2.11886   2.48223   0.01407 
 C                    -1.33898   3.67454   0.0169 
 C                     1.73157  -0.56177  -0.01226 
 C                     2.79247   0.33279  -0.01819 
 C                     4.10069  -0.11078   0.00112 
 O                     5.06981   0.77584  -0.09868 
 O                     4.38342  -1.39477   0.12753 
 H                    -0.16385  -2.35642  -0.01639 
 H                     0.5547    1.90737   0.007 
 H                    -3.86102   1.37394   0.01127 
 H                    -3.40056  -4.0139   -0.01792 
 H                    -1.90001  -3.67312  -0.91849 
 H                    -1.89484  -3.68417   0.87806 
 H                    -2.05118   4.49673   0.02242 
 H                    -0.71465   3.72212   0.91428 
 H                    -0.71974   3.72965  -0.88357 
 H                     1.98808  -1.61855  -0.00891 
 H                     2.66016   1.40582  -0.04005 
 H                     5.95615   0.45021   0.11974 
 H                     5.28881  -1.64087  -0.11442 
 

 GradGradGradGradGradGradGradGradGradGradGradGradGradGradGradGradGradGrad
 Berny optimization.
 Initialization pass.
                           ----------------------------
                           !    Initial Parameters    !
                           ! (Angstroms and Degrees)  !
 --------------------------                            --------------------------
 ! Name  Definition              Value          Derivative Info.                !
 --------------------------------------------------------------------------------
 ! R1    R(1,2)                  1.4115         estimate D2E/DX2                !
 ! R2    R(1,6)                  1.4162         estimate D2E/DX2                !
 ! R3    R(1,7)                  1.3213         estimate D2E/DX2                !
 ! R4    R(2,3)                  1.3803         estimate D2E/DX2                !
 ! R5    R(2,8)                  1.3407         estimate D2E/DX2                !
 ! R6    R(3,4)                  1.4185         estimate D2E/DX2                !
 ! R7    R(3,17)                 1.0825         estimate D2E/DX2                !
 ! R8    R(4,5)                  1.4181         estimate D2E/DX2                !
 ! R9    R(4,12)                 1.4075         estimate D2E/DX2                !
 ! R10   R(5,6)                  1.3724         estimate D2E/DX2                !
 ! R11   R(5,18)                 1.081          estimate D2E/DX2                !
 ! R12   R(6,10)                 1.3524         estimate D2E/DX2                !
 ! R13   R(7,19)                 0.973          estimate D2E/DX2                !
 ! R14   R(8,9)                  1.4215         estimate D2E/DX2                !
 ! R15   R(9,20)                 1.0879         estimate D2E/DX2                !
 ! R16   R(9,21)                 1.0951         estimate D2E/DX2                !
 ! R17   R(9,22)                 1.0951         estimate D2E/DX2                !
 ! R18   R(10,11)                1.4247         estimate D2E/DX2                !
 ! R19   R(11,23)                1.0878         estimate D2E/DX2                !
 ! R20   R(11,24)                1.0942         estimate D2E/DX2                !
 ! R21   R(11,25)                1.0942         estimate D2E/DX2                !
 ! R22   R(12,13)                1.3877         estimate D2E/DX2                !
 ! R23   R(12,26)                1.0875         estimate D2E/DX2                !
 ! R24   R(13,14)                1.3815         estimate D2E/DX2                !
 ! R25   R(13,27)                1.0814         estimate D2E/DX2                !
 ! R26   R(14,15)                1.3173         estimate D2E/DX2                !
 ! R27   R(14,16)                1.3208         estimate D2E/DX2                !
 ! R28   R(15,28)                0.9692         estimate D2E/DX2                !
 ! R29   R(16,29)                0.9689         estimate D2E/DX2                !
 ! A1    A(2,1,6)              120.7495         estimate D2E/DX2                !
 ! A2    A(2,1,7)              119.0174         estimate D2E/DX2                !
 ! A3    A(6,1,7)              120.233          estimate D2E/DX2                !
 ! A4    A(1,2,3)              118.4881         estimate D2E/DX2                !
 ! A5    A(1,2,8)              115.1127         estimate D2E/DX2                !
 ! A6    A(3,2,8)              126.3992         estimate D2E/DX2                !
 ! A7    A(2,3,4)              121.0497         estimate D2E/DX2                !
 ! A8    A(2,3,17)             120.1375         estimate D2E/DX2                !
 ! A9    A(4,3,17)             118.8128         estimate D2E/DX2                !
 ! A10   A(3,4,5)              119.9073         estimate D2E/DX2                !
 ! A11   A(3,4,12)             117.6388         estimate D2E/DX2                !
 ! A12   A(5,4,12)             122.4534         estimate D2E/DX2                !
 ! A13   A(4,5,6)              119.1488         estimate D2E/DX2                !
 ! A14   A(4,5,18)             120.5748         estimate D2E/DX2                !
 ! A15   A(6,5,18)             120.2764         estimate D2E/DX2                !
 ! A16   A(1,6,5)              120.6562         estimate D2E/DX2                !
 ! A17   A(1,6,10)             112.3724         estimate D2E/DX2                !
 ! A18   A(5,6,10)             126.9713         estimate D2E/DX2                !
 ! A19   A(1,7,19)             109.3735         estimate D2E/DX2                !
 ! A20   A(2,8,9)              118.4804         estimate D2E/DX2                !
 ! A21   A(8,9,20)             105.6804         estimate D2E/DX2                !
 ! A22   A(8,9,21)             110.8963         estimate D2E/DX2                !
 ! A23   A(8,9,22)             110.9019         estimate D2E/DX2                !
 ! A24   A(20,9,21)            109.5173         estimate D2E/DX2                !
 ! A25   A(20,9,22)            109.5135         estimate D2E/DX2                !
 ! A26   A(21,9,22)            110.2233         estimate D2E/DX2                !
 ! A27   A(6,10,11)            118.8965         estimate D2E/DX2                !
 ! A28   A(10,11,23)           105.9122         estimate D2E/DX2                !
 ! A29   A(10,11,24)           110.5084         estimate D2E/DX2                !
 ! A30   A(10,11,25)           110.5047         estimate D2E/DX2                !
 ! A31   A(23,11,24)           109.6662         estimate D2E/DX2                !
 ! A32   A(23,11,25)           109.6717         estimate D2E/DX2                !
 ! A33   A(24,11,25)           110.4752         estimate D2E/DX2                !
 ! A34   A(4,12,13)            127.502          estimate D2E/DX2                !
 ! A35   A(4,12,26)            116.0033         estimate D2E/DX2                !
 ! A36   A(13,12,26)           116.4947         estimate D2E/DX2                !
 ! A37   A(12,13,14)           121.1247         estimate D2E/DX2                !
 ! A38   A(12,13,27)           123.1063         estimate D2E/DX2                !
 ! A39   A(14,13,27)           115.7688         estimate D2E/DX2                !
 ! A40   A(13,14,15)           118.6528         estimate D2E/DX2                !
 ! A41   A(13,14,16)           121.0756         estimate D2E/DX2                !
 ! A42   A(15,14,16)           120.2694         estimate D2E/DX2                !
 ! A43   A(14,15,28)           115.4419         estimate D2E/DX2                !
 ! A44   A(14,16,29)           115.0264         estimate D2E/DX2                !
 ! D1    D(6,1,2,3)             -0.0679         estimate D2E/DX2                !
 ! D2    D(6,1,2,8)            179.9278         estimate D2E/DX2                !
 ! D3    D(7,1,2,3)            179.9866         estimate D2E/DX2                !
 ! D4    D(7,1,2,8)             -0.0178         estimate D2E/DX2                !
 ! D5    D(2,1,6,5)              0.0081         estimate D2E/DX2                !
 ! D6    D(2,1,6,10)          -179.9131         estimate D2E/DX2                !
 ! D7    D(7,1,6,5)            179.9529         estimate D2E/DX2                !
 ! D8    D(7,1,6,10)             0.0317         estimate D2E/DX2                !
 ! D9    D(2,1,7,19)           179.948          estimate D2E/DX2                !
 ! D10   D(6,1,7,19)             0.0022         estimate D2E/DX2                !
 ! D11   D(1,2,3,4)             -0.0282         estimate D2E/DX2                !
 ! D12   D(1,2,3,17)          -179.9984         estimate D2E/DX2                !
 ! D13   D(8,2,3,4)            179.9767         estimate D2E/DX2                !
 ! D14   D(8,2,3,17)             0.0065         estimate D2E/DX2                !
 ! D15   D(1,2,8,9)            179.9001         estimate D2E/DX2                !
 ! D16   D(3,2,8,9)             -0.1047         estimate D2E/DX2                !
 ! D17   D(2,3,4,5)              0.1824         estimate D2E/DX2                !
 ! D18   D(2,3,4,12)           179.9241         estimate D2E/DX2                !
 ! D19   D(17,3,4,5)          -179.8471         estimate D2E/DX2                !
 ! D20   D(17,3,4,12)           -0.1054         estimate D2E/DX2                !
 ! D21   D(3,4,5,6)             -0.2393         estimate D2E/DX2                !
 ! D22   D(3,4,5,18)           179.776          estimate D2E/DX2                !
 ! D23   D(12,4,5,6)          -179.9682         estimate D2E/DX2                !
 ! D24   D(12,4,5,18)            0.0472         estimate D2E/DX2                !
 ! D25   D(3,4,12,13)          179.6402         estimate D2E/DX2                !
 ! D26   D(3,4,12,26)           -0.4221         estimate D2E/DX2                !
 ! D27   D(5,4,12,13)           -0.6251         estimate D2E/DX2                !
 ! D28   D(5,4,12,26)          179.3125         estimate D2E/DX2                !
 ! D29   D(4,5,6,1)              0.1455         estimate D2E/DX2                !
 ! D30   D(4,5,6,10)          -179.9457         estimate D2E/DX2                !
 ! D31   D(18,5,6,1)          -179.8698         estimate D2E/DX2                !
 ! D32   D(18,5,6,10)            0.039          estimate D2E/DX2                !
 ! D33   D(1,6,10,11)         -179.9054         estimate D2E/DX2                !
 ! D34   D(5,6,10,11)            0.1794         estimate D2E/DX2                !
 ! D35   D(2,8,9,20)          -179.9322         estimate D2E/DX2                !
 ! D36   D(2,8,9,21)           -61.3375         estimate D2E/DX2                !
 ! D37   D(2,8,9,22)            61.4746         estimate D2E/DX2                !
 ! D38   D(6,10,11,23)         179.9057         estimate D2E/DX2                !
 ! D39   D(6,10,11,24)         -61.3915         estimate D2E/DX2                !
 ! D40   D(6,10,11,25)          61.1984         estimate D2E/DX2                !
 ! D41   D(4,12,13,14)         178.9289         estimate D2E/DX2                !
 ! D42   D(4,12,13,27)          -1.2106         estimate D2E/DX2                !
 ! D43   D(26,12,13,14)         -1.0085         estimate D2E/DX2                !
 ! D44   D(26,12,13,27)        178.852          estimate D2E/DX2                !
 ! D45   D(12,13,14,15)        175.3772         estimate D2E/DX2                !
 ! D46   D(12,13,14,16)         -5.1609         estimate D2E/DX2                !
 ! D47   D(27,13,14,15)         -4.4931         estimate D2E/DX2                !
 ! D48   D(27,13,14,16)        174.9688         estimate D2E/DX2                !
 ! D49   D(13,14,15,28)        166.6523         estimate D2E/DX2                !
 ! D50   D(16,14,15,28)        -12.8141         estimate D2E/DX2                !
 ! D51   D(13,14,16,29)        163.6128         estimate D2E/DX2                !
 ! D52   D(15,14,16,29)        -16.934          estimate D2E/DX2                !
 --------------------------------------------------------------------------------
 Trust Radius=3.00D-01 FncErr=1.00D-07 GrdErr=1.00D-06
 Number of steps in this run=    135 maximum allowed number of steps=    174.
 GradGradGradGradGradGradGradGradGradGradGradGradGradGradGradGradGradGrad

                          Input orientation:                          
 ---------------------------------------------------------------------
 Center     Atomic      Atomic             Coordinates (Angstroms)
 Number     Number       Type             X           Y           Z
 ---------------------------------------------------------------------
      1          6           0       -2.390622    0.197810    0.001313
      2          6           0       -1.918592   -1.132350   -0.006022
      3          6           0       -0.555091   -1.347074   -0.010708
      4          6           0        0.356667   -0.260470   -0.008844
      5          6           0       -0.130478    1.071243    0.001841
      6          6           0       -1.485740    1.287251    0.005249
      7          8           0       -3.693827    0.415397    0.005578
      8          8           0       -2.872363   -2.074566   -0.007621
      9          6           0       -2.476489   -3.439819   -0.017081
     10          8           0       -2.118856    2.482227    0.014070
     11          6           0       -1.338977    3.674539    0.016902
     12          6           0        1.731568   -0.561770   -0.012261
     13          6           0        2.792471    0.332785   -0.018192
     14          6           0        4.100688   -0.110784    0.001123
     15          8           0        5.069812    0.775838   -0.098675
     16          8           0        4.383421   -1.394768    0.127532
     17          1           0       -0.163845   -2.356420   -0.016390
     18          1           0        0.554703    1.907370    0.007000
     19          1           0       -3.861015    1.373940    0.011265
     20          1           0       -3.400559   -4.013899   -0.017916
     21          1           0       -1.900007   -3.673119   -0.918491
     22          1           0       -1.894843   -3.684174    0.878061
     23          1           0       -2.051177    4.496728    0.022420
     24          1           0       -0.714648    3.722122    0.914277
     25          1           0       -0.719739    3.729645   -0.883569
     26          1           0        1.988077   -1.618546   -0.008910
     27          1           0        2.660162    1.405822   -0.040053
     28          1           0        5.956153    0.450211    0.119736
     29          1           0        5.288812   -1.640872   -0.114420
 ---------------------------------------------------------------------
                    Distance matrix (angstroms):
                    1          2          3          4          5
     1  C    0.000000
     2  C    1.411450   0.000000
     3  C    2.399163   1.380313   0.000000
     4  C    2.785268   2.436593   1.418455   0.000000
     5  C    2.423043   2.837822   2.455343   1.418056   0.000000
     6  C    1.416230   2.458039   2.793927   2.406263   1.372372
     7  O    1.321252   2.355231   3.599755   4.106520   3.623204
     8  O    2.322896   1.340691   2.428786   3.703725   4.173025
     9  C    3.638689   2.373981   2.841020   4.258533   5.084664
    10  O    2.300561   3.620176   4.136366   3.694743   2.438170
    11  C    3.632333   4.841762   5.082503   4.284877   2.870165
    12  C    4.191610   3.694492   2.417750   1.407532   2.476721
    13  C    5.184887   4.933648   3.745418   2.507026   3.014855
    14  C    6.498641   6.105357   4.817139   3.747025   4.393171
    15  O    7.483461   7.244830   6.012822   4.826566   5.209643
    16  O    6.959877   6.308888   4.940677   4.185687   5.145123
    17  H    3.388649   2.139531   1.082536   2.159629   3.427874
    18  H    3.405520   3.918833   3.438512   2.176924   1.081022
    19  H    1.882933   3.170930   4.281768   4.523333   3.742809
    20  H    4.331147   3.240323   3.899833   5.310844   6.045865
    21  H    4.008844   2.699713   2.836081   4.191206   5.146573
    22  H    4.010522   2.700736   2.836703   4.192570   5.147304
    23  H    4.312350   5.630711   6.032362   5.331944   3.927271
    24  H    4.007888   5.085502   5.155367   4.226217   2.863731
    25  H    4.006086   5.083929   5.153840   4.224312   2.863264
    26  H    4.740491   3.936808   2.557617   2.122703   3.423939
    27  H    5.193402   5.235309   4.232865   2.843166   2.810938
    28  H    8.351430   8.033176   6.756001   5.645870   6.119367
    29  H    7.897332   7.226134   5.852203   5.122764   6.061171
                    6          7          8          9         10
     6  C    0.000000
     7  O    2.373979   0.000000
     8  O    3.636578   2.622002   0.000000
     9  C    4.829832   4.042909   1.421521   0.000000
    10  O    1.352361   2.598537   4.618723   5.932917   0.000000
    11  C    2.391823   4.020877   5.950133   7.204802   1.424720
    12  C    3.710830   5.512720   4.846107   5.098130   4.908399
    13  C    4.383451   6.486868   6.155144   6.480315   5.361182
    14  C    5.758706   7.812256   7.244305   7.371707   6.738442
    15  O    6.576291   8.771668   8.438675   8.644367   7.389278
    16  O    6.454086   8.278497   7.288813   7.159714   7.571233
    17  H    3.876108   4.488232   2.723158   2.553836   5.218764
    18  H    2.132594   4.502887   5.253647   6.146636   2.734672
    19  H    2.376864   0.973031   3.587476   5.008991   2.064807
    20  H    5.636423   4.439056   2.010002   1.087876   6.621438
    21  H    5.062626   4.559348   2.080993   1.095126   6.229434
    22  H    5.064013   4.561146   2.081061   1.095126   6.230663
    23  H    3.258950   4.399528   6.622473   7.948033   2.015655
    24  H    2.710998   4.542650   6.253577   7.434037   2.078344
    25  H    2.709621   4.540927   6.252195   7.432240   2.078301
    26  H    4.528936   6.034995   4.881786   4.821769   5.803772
    27  H    4.147845   6.430879   6.536282   7.061583   4.899040
    28  H    7.489694   9.650718   9.183323   9.287653   8.327426
    29  H    7.381245   9.215772   8.173388   7.971548   8.478797
                   11         12         13         14         15
    11  C    0.000000
    12  C    5.232152   0.000000
    13  C    5.313889   1.387724   0.000000
    14  C    6.627132   2.411700   1.381506   0.000000
    15  O    7.034799   3.597296   2.321434   1.317293   0.000000
    16  O    7.645649   2.783119   2.353040   1.320807   2.287757
    17  H    6.144470   2.610244   3.996452   4.819692   6.099916
    18  H    2.590175   2.735331   2.736340   4.080072   4.655936
    19  H    3.413717   5.918151   6.734519   8.098964   8.951507
    20  H    7.960114   6.185140   7.566193   8.455967   9.731150
    21  H    7.428176   4.867246   6.235155   7.038768   8.309253
    22  H    7.429754   4.867539   6.237799   7.034524   8.327793
    23  H    1.087775   6.316547   6.387566   7.686030   8.035432
    24  H    1.094227   5.019380   4.965580   6.221935   6.570132
    25  H    1.094231   5.018399   4.962172   6.226403   6.546750
    26  H    6.251936   1.087467   2.110646   2.595491   3.903617
    27  H    4.598199   2.175885   1.081384   2.092105   2.491331
    28  H    7.976577   4.346107   3.168864   1.942044   0.969194
    29  H    8.496966   3.718721   3.183756   1.940659   2.426664
                   16         17         18         19         20
    16  O    0.000000
    17  H    4.650066   0.000000
    18  H    5.057443   4.323975   0.000000
    19  H    8.697700   5.252182   4.447823   0.000000
    20  H    8.214094   3.636421   7.120825   5.407558   0.000000
    21  H    6.765095   2.358334   6.166360   5.493888   1.782925
    22  H    6.724676   2.357823   6.166392   5.495606   1.782884
    23  H    8.724954   7.108387   3.673639   3.609355   8.617031
    24  H    7.265799   6.173994   2.393267   4.028525   8.241913
    25  H    7.302340   6.172617   2.395413   4.027119   8.240062
    26  H    2.409640   2.274925   3.806166   6.570179   5.897050
    27  H    3.292569   4.704258   2.164884   6.521457   8.130572
    28  H    2.424354   6.734247   5.595684   9.861127  10.367993
    29  H    0.968938   5.500281   5.917479   9.634533   9.008093
                   21         22         23         24         25
    21  H    0.000000
    22  H    1.796593   0.000000
    23  H    8.225240   8.227012   0.000000
    24  H    7.710623   7.499826   1.783741   0.000000
    25  H    7.496344   7.710313   1.783805   1.797869   0.000000
    26  H    4.490635   4.486714   7.328924   6.056379   6.058089
    27  H    6.882037   6.891956   5.635097   4.203015   4.187530
    28  H    8.933029   8.905410   8.972241   7.472368   7.505254
    29  H    7.513699   7.534255   9.568924   8.115507   8.095476
                   26         27         28         29
    26  H    0.000000
    27  H    3.098301   0.000000
    28  H    4.476822   3.435445   0.000000
    29  H    3.302496   4.024634   2.207442   0.000000
 Stoichiometry    C11H13O5(1+)
 Framework group  C1[X(C11H13O5)]
 Deg. of freedom    81
 Full point group                 C1      NOp   1
 Largest Abelian subgroup         C1      NOp   1
 Largest concise Abelian subgroup C1      NOp   1
                         Standard orientation:                         
 ---------------------------------------------------------------------
 Center     Atomic      Atomic             Coordinates (Angstroms)
 Number     Number       Type             X           Y           Z
 ---------------------------------------------------------------------
      1          6           0        2.390622    0.197810   -0.001313
      2          6           0        1.918592   -1.132350    0.006022
      3          6           0        0.555091   -1.347074    0.010708
      4          6           0       -0.356667   -0.260470    0.008844
      5          6           0        0.130478    1.071243   -0.001841
      6          6           0        1.485740    1.287251   -0.005249
      7          8           0        3.693827    0.415397   -0.005578
      8          8           0        2.872363   -2.074566    0.007621
      9          6           0        2.476489   -3.439819    0.017081
     10          8           0        2.118856    2.482227   -0.014070
     11          6           0        1.338977    3.674539   -0.016902
     12          6           0       -1.731568   -0.561770    0.012261
     13          6           0       -2.792471    0.332785    0.018192
     14          6           0       -4.100688   -0.110784   -0.001123
     15          8           0       -5.069812    0.775838    0.098675
     16          8           0       -4.383421   -1.394768   -0.127532
     17          1           0        0.163845   -2.356420    0.016390
     18          1           0       -0.554703    1.907370   -0.007000
     19          1           0        3.861015    1.373940   -0.011265
     20          1           0        3.400559   -4.013899    0.017916
     21          1           0        1.900007   -3.673119    0.918491
     22          1           0        1.894843   -3.684174   -0.878061
     23          1           0        2.051177    4.496728   -0.022420
     24          1           0        0.714648    3.722122   -0.914277
     25          1           0        0.719739    3.729645    0.883569
     26          1           0       -1.988077   -1.618546    0.008910
     27          1           0       -2.660162    1.405822    0.040053
     28          1           0       -5.956153    0.450211   -0.119736
     29          1           0       -5.288812   -1.640872    0.114420
 ---------------------------------------------------------------------
 Rotational constants (GHZ):      0.7152517      0.2761758      0.1998298
 Standard basis: 6-31+G(d,p) (6D, 7F)
 There are   369 symmetry adapted cartesian basis functions of A   symmetry.
 There are   369 symmetry adapted basis functions of A   symmetry.
   369 basis functions,   603 primitive gaussians,   369 cartesian basis functions
    59 alpha electrons       59 beta electrons
       nuclear repulsion energy      1075.6728382089 Hartrees.
 NAtoms=   29 NActive=   29 NUniq=   29 SFac= 1.00D+00 NAtFMM=   60 NAOKFM=F Big=F
 Integral buffers will be    131072 words long.
 Raffenetti 2 integral format.
 Two-electron integral symmetry is turned on.
 R6APFD:  NTU= -4 IXU= 1 FactS= 1.050
 Nuclear repulsion after empirical dispersion term =     1075.6526661579 Hartrees.
 One-electron integrals computed using PRISM.
 NBasis=   369 RedAO= T EigKep=  1.38D-06  NBF=   369
 NBsUse=   367 1.00D-06 EigRej=  7.59D-07 NBFU=   367
 ExpMin= 4.38D-02 ExpMax= 5.48D+03 ExpMxC= 8.25D+02 IAcc=2 IRadAn=         4 AccDes= 0.00D+00
 Harris functional with IExCor= 3731 and IRadAn=       4 diagonalized for initial guess.
 HarFok:  IExCor= 3731 AccDes= 0.00D+00 IRadAn=         4 IDoV= 1 UseB2=F ITyADJ=14
 ICtDFT=  3500011 ScaDFX=  1.000000  1.000000  1.000000  1.000000
 FoFCou: FMM=F IPFlag=           0 FMFlag=      100000 FMFlg1=           0
         NFxFlg=           0 DoJE=T BraDBF=F KetDBF=T FulRan=T
         wScrn=  0.000000 ICntrl=     500 IOpCl=  0 I1Cent=   200000004 NGrid=           0
         NMat0=    1 NMatS0=      1 NMatT0=    0 NMatD0=    1 NMtDS0=    0 NMtDT0=    0
 Petite list used in FoFCou.
 Requested convergence on RMS density matrix=1.00D-08 within 128 cycles.
 Requested convergence on MAX density matrix=1.00D-06.
 Requested convergence on             energy=1.00D-06.
 No special actions if energy rises.
 SCF Done:  E(RAPFD) =  -802.255520649     A.U. after   16 cycles
            NFock= 16  Conv=0.37D-08     -V/T= 2.0085

 **********************************************************************

            Population analysis using the SCF density.

 **********************************************************************

 Orbital symmetries:
       Occupied  (A) (A) (A) (A) (A) (A) (A) (A) (A) (A) (A) (A)
                 (A) (A) (A) (A) (A) (A) (A) (A) (A) (A) (A) (A)
                 (A) (A) (A) (A) (A) (A) (A) (A) (A) (A) (A) (A)
                 (A) (A) (A) (A) (A) (A) (A) (A) (A) (A) (A) (A)
                 (A) (A) (A) (A) (A) (A) (A) (A) (A) (A) (A)
       Virtual   (A) (A) (A) (A) (A) (A) (A) (A) (A) (A) (A) (A)
                 (A) (A) (A) (A) (A) (A) (A) (A) (A) (A) (A) (A)
                 (A) (A) (A) (A) (A) (A) (A) (A) (A) (A) (A) (A)
                 (A) (A) (A) (A) (A) (A) (A) (A) (A) (A) (A) (A)
                 (A) (A) (A) (A) (A) (A) (A) (A) (A) (A) (A) (A)
                 (A) (A) (A) (A) (A) (A) (A) (A) (A) (A) (A) (A)
                 (A) (A) (A) (A) (A) (A) (A) (A) (A) (A) (A) (A)
                 (A) (A) (A) (A) (A) (A) (A) (A) (A) (A) (A) (A)
                 (A) (A) (A) (A) (A) (A) (A) (A) (A) (A) (A) (A)
                 (A) (A) (A) (A) (A) (A) (A) (A) (A) (A) (A) (A)
                 (A) (A) (A) (A) (A) (A) (A) (A) (A) (A) (A) (A)
                 (A) (A) (A) (A) (A) (A) (A) (A) (A) (A) (A) (A)
                 (A) (A) (A) (A) (A) (A) (A) (A) (A) (A) (A) (A)
                 (A) (A) (A) (A) (A) (A) (A) (A) (A) (A) (A) (A)
                 (A) (A) (A) (A) (A) (A) (A) (A) (A) (A) (A) (A)
                 (A) (A) (A) (A) (A) (A) (A) (A) (A) (A) (A) (A)
                 (A) (A) (A) (A) (A) (A) (A) (A) (A) (A) (A) (A)
                 (A) (A) (A) (A) (A) (A) (A) (A) (A) (A) (A) (A)
                 (A) (A) (A) (A) (A) (A) (A) (A) (A) (A) (A) (A)
                 (A) (A) (A) (A) (A) (A) (A) (A) (A) (A) (A) (A)
                 (A) (A) (A) (A) (A) (A) (A) (A) (A) (A) (A) (A)
                 (A) (A) (A) (A) (A) (A) (A) (A) (A) (A) (A) (A)
                 (A) (A) (A) (A) (A) (A) (A) (A) (A) (A) (A) (A)
                 (A) (A) (A) (A) (A) (A) (A) (A) (A) (A) (A) (A)
                 (A) (A) (A) (A) (A) (A) (A) (A) (A) (A) (A) (A)
                 (A) (A) (A) (A) (A) (A) (A) (A)
 The electronic state is 1-A.
 Alpha  occ. eigenvalues --  -19.42813 -19.42698 -19.36996 -19.36881 -19.34829
 Alpha  occ. eigenvalues --  -10.53312 -10.42944 -10.41740 -10.41076 -10.40005
 Alpha  occ. eigenvalues --  -10.38236 -10.37340 -10.37182 -10.36706 -10.36115
 Alpha  occ. eigenvalues --  -10.35911  -1.33240  -1.25363  -1.25166  -1.22268
 Alpha  occ. eigenvalues --   -1.20882  -1.02644  -0.98670  -0.93023  -0.91499
 Alpha  occ. eigenvalues --   -0.86668  -0.85851  -0.82559  -0.80930  -0.79278
 Alpha  occ. eigenvalues --   -0.74926  -0.72433  -0.71309  -0.68829  -0.66692
 Alpha  occ. eigenvalues --   -0.65254  -0.64864  -0.63897  -0.62017  -0.61671
 Alpha  occ. eigenvalues --   -0.60819  -0.59603  -0.58619  -0.56329  -0.55959
 Alpha  occ. eigenvalues --   -0.55830  -0.55467  -0.53950  -0.53741  -0.52721
 Alpha  occ. eigenvalues --   -0.51439  -0.50020  -0.48437  -0.48384  -0.46960
 Alpha  occ. eigenvalues --   -0.46165  -0.42568  -0.37024  -0.34950
 Alpha virt. eigenvalues --   -0.24100  -0.14803  -0.13348  -0.11827  -0.09354
 Alpha virt. eigenvalues --   -0.09065  -0.08980  -0.08044  -0.06765  -0.06135
 Alpha virt. eigenvalues --   -0.05554  -0.05450  -0.04619  -0.03942  -0.03745
 Alpha virt. eigenvalues --   -0.03188  -0.02577  -0.01392  -0.01299  -0.00905
 Alpha virt. eigenvalues --   -0.00731   0.00614   0.01019   0.01449   0.01819
 Alpha virt. eigenvalues --    0.01885   0.03242   0.03837   0.03854   0.04129
 Alpha virt. eigenvalues --    0.04465   0.04588   0.04971   0.05663   0.05720
 Alpha virt. eigenvalues --    0.06061   0.06226   0.06815   0.07652   0.07659
 Alpha virt. eigenvalues --    0.08209   0.08589   0.08691   0.09963   0.10537
 Alpha virt. eigenvalues --    0.10635   0.11462   0.11701   0.12224   0.12573
 Alpha virt. eigenvalues --    0.13102   0.13588   0.14141   0.14789   0.15503
 Alpha virt. eigenvalues --    0.15883   0.15930   0.16103   0.16236   0.16574
 Alpha virt. eigenvalues --    0.16699   0.17459   0.18218   0.18482   0.19541
 Alpha virt. eigenvalues --    0.19580   0.20484   0.21102   0.21519   0.22013
 Alpha virt. eigenvalues --    0.22812   0.23132   0.23230   0.23681   0.24233
 Alpha virt. eigenvalues --    0.25153   0.25745   0.26167   0.26712   0.27240
 Alpha virt. eigenvalues --    0.27450   0.28659   0.29076   0.30043   0.31105
 Alpha virt. eigenvalues --    0.31983   0.32703   0.35171   0.35988   0.36564
 Alpha virt. eigenvalues --    0.37078   0.39238   0.41971   0.45552   0.47199
 Alpha virt. eigenvalues --    0.50904   0.54173   0.55057   0.55161   0.55693
 Alpha virt. eigenvalues --    0.57968   0.58584   0.58839   0.59773   0.60489
 Alpha virt. eigenvalues --    0.60691   0.61320   0.62690   0.63205   0.64042
 Alpha virt. eigenvalues --    0.64498   0.64979   0.66895   0.67686   0.69501
 Alpha virt. eigenvalues --    0.73994   0.74722   0.75879   0.77946   0.79770
 Alpha virt. eigenvalues --    0.80766   0.81251   0.82047   0.82588   0.82796
 Alpha virt. eigenvalues --    0.83975   0.85836   0.90368   0.90776   0.92672
 Alpha virt. eigenvalues --    0.94146   0.94837   0.96081   0.97559   0.98405
 Alpha virt. eigenvalues --    0.99853   1.00676   1.02268   1.02950   1.03608
 Alpha virt. eigenvalues --    1.05636   1.05713   1.06602   1.07266   1.07995
 Alpha virt. eigenvalues --    1.08343   1.09317   1.10007   1.10978   1.11089
 Alpha virt. eigenvalues --    1.12373   1.12811   1.13812   1.14759   1.15373
 Alpha virt. eigenvalues --    1.15946   1.16810   1.17598   1.18455   1.19535
 Alpha virt. eigenvalues --    1.20083   1.20984   1.21923   1.23688   1.24581
 Alpha virt. eigenvalues --    1.25944   1.27050   1.27939   1.29442   1.31144
 Alpha virt. eigenvalues --    1.34709   1.34725   1.36584   1.39650   1.41700
 Alpha virt. eigenvalues --    1.42807   1.44203   1.45484   1.46627   1.47644
 Alpha virt. eigenvalues --    1.49326   1.50830   1.55020   1.56799   1.59388
 Alpha virt. eigenvalues --    1.62068   1.63577   1.66566   1.68076   1.68941
 Alpha virt. eigenvalues --    1.71177   1.71399   1.72232   1.75058   1.75317
 Alpha virt. eigenvalues --    1.75981   1.77485   1.78403   1.80528   1.80908
 Alpha virt. eigenvalues --    1.81549   1.83104   1.84350   1.86035   1.86507
 Alpha virt. eigenvalues --    1.87829   1.90832   1.91115   1.92312   1.93666
 Alpha virt. eigenvalues --    1.95549   1.96884   1.97008   1.97712   1.99320
 Alpha virt. eigenvalues --    2.02198   2.03176   2.04641   2.05843   2.06952
 Alpha virt. eigenvalues --    2.08206   2.10408   2.11659   2.14302   2.14594
 Alpha virt. eigenvalues --    2.16923   2.19873   2.20264   2.24015   2.25539
 Alpha virt. eigenvalues --    2.26482   2.29293   2.31091   2.34496   2.35650
 Alpha virt. eigenvalues --    2.36943   2.37705   2.39739   2.40957   2.41092
 Alpha virt. eigenvalues --    2.42859   2.43545   2.45015   2.46080   2.48267
 Alpha virt. eigenvalues --    2.49130   2.50393   2.51529   2.53386   2.53571
 Alpha virt. eigenvalues --    2.56125   2.57106   2.57843   2.59799   2.60297
 Alpha virt. eigenvalues --    2.61289   2.63127   2.65049   2.67343   2.69081
 Alpha virt. eigenvalues --    2.71903   2.73134   2.73396   2.74629   2.75950
 Alpha virt. eigenvalues --    2.77391   2.79004   2.82115   2.85670   2.86682
 Alpha virt. eigenvalues --    2.88621   2.96414   2.97682   3.04905   3.07822
 Alpha virt. eigenvalues --    3.09775   3.10171   3.14634   3.16162   3.18494
 Alpha virt. eigenvalues --    3.26404   3.30681   3.31561   3.33020   3.33763
 Alpha virt. eigenvalues --    3.34334   3.38333   3.39863   3.44929   3.46471
 Alpha virt. eigenvalues --    3.50670   3.65077   4.08372   4.13558   4.18777
 Alpha virt. eigenvalues --    4.23968   4.25989   4.29903   4.31389   4.35943
 Alpha virt. eigenvalues --    4.38995   4.43178   4.48372   4.52674   4.57530
 Alpha virt. eigenvalues --    4.70212   4.74374   5.23914
          Condensed to atoms (all electrons):
               1          2          3          4          5          6
     1  C   26.447774  -1.071339  -8.527634   0.821745  -8.338246  -0.430920
     2  C   -1.071339  19.900405  -0.429966  -2.431214  -0.884775  -8.301372
     3  C   -8.527634  -0.429966  25.431538  -0.904720  -0.946949  -4.807528
     4  C    0.821745  -2.431214  -0.904720  15.737988  -2.657265  -2.135770
     5  C   -8.338246  -0.884775  -0.946949  -2.657265  15.003637   1.194629
     6  C   -0.430920  -8.301372  -4.807528  -2.135770   1.194629  20.119100
     7  O    0.143944  -0.935888   0.007844  -0.094317   0.175421   0.688806
     8  O   -0.748900   0.313159   0.438498  -0.043682   0.013555   0.043160
     9  C    0.175803  -0.092708  -0.118510  -0.228330   0.027370   0.110098
    10  O   -0.713642   0.111922   0.025735  -0.031007   0.315515   0.220186
    11  C   -0.063225   0.074675   0.032838  -0.086765   0.077789  -0.172777
    12  C   -1.503026  -0.217699  -2.544290  -1.282325   1.758209  -0.036577
    13  C   -0.079037  -0.570154  -1.549126   0.106240   0.045372  -0.190477
    14  C   -0.039191   0.026888  -0.761020  -1.101065   0.258666   0.147241
    15  O    0.000914   0.000795   0.004837   0.030735  -0.008282   0.001929
    16  O   -0.003334   0.001872  -0.008950  -0.003577  -0.011326  -0.006546
    17  H    0.024525  -0.084292   0.033754   0.164673   0.026379  -0.005222
    18  H    0.009726  -0.010444   0.055705   0.254120   0.122036  -0.113434
    19  H    0.200058   0.309003   0.023459   0.000095  -0.051734  -0.490590
    20  H    0.067409   0.056330  -0.099202  -0.012666  -0.001692   0.010829
    21  H   -0.039353  -0.092873   0.097010   0.037029   0.002848  -0.010558
    22  H   -0.043563  -0.091356   0.109901   0.019132   0.002647  -0.009072
    23  H    0.031110   0.006306  -0.002784  -0.009961  -0.047655   0.043917
    24  H   -0.024847  -0.005003   0.005735   0.023743   0.051819  -0.058421
    25  H   -0.015543  -0.006331   0.002939   0.020713   0.033193  -0.039618
    26  H    0.017427   0.026842   0.267459   0.044407  -0.046606  -0.003073
    27  H   -0.000241   0.002147   0.023950   0.084018   0.000288  -0.011939
    28  H    0.000061  -0.000032   0.000319  -0.003718   0.003403   0.000471
    29  H   -0.000095   0.000385   0.008464   0.013948  -0.004733  -0.000463
               7          8          9         10         11         12
     1  C    0.143944  -0.748900   0.175803  -0.713642  -0.063225  -1.503026
     2  C   -0.935888   0.313159  -0.092708   0.111922   0.074675  -0.217699
     3  C    0.007844   0.438498  -0.118510   0.025735   0.032838  -2.544290
     4  C   -0.094317  -0.043682  -0.228330  -0.031007  -0.086765  -1.282325
     5  C    0.175421   0.013555   0.027370   0.315515   0.077789   1.758209
     6  C    0.688806   0.043160   0.110098   0.220186  -0.172777  -0.036577
     7  O    8.240026   0.052149   0.001885  -0.019321   0.000704   0.010658
     8  O    0.052149   8.413280   0.027530  -0.002306  -0.000048  -0.031579
     9  C    0.001885   0.027530   5.067357  -0.000098   0.000995  -0.028826
    10  O   -0.019321  -0.002306  -0.000098   8.570001   0.041308   0.005752
    11  C    0.000704  -0.000048   0.000995   0.041308   5.019480   0.010446
    12  C    0.010658  -0.031579  -0.028826   0.005752   0.010446  10.381560
    13  C   -0.000073  -0.004537  -0.008050  -0.004144  -0.007639  -1.592592
    14  C    0.000515  -0.000280  -0.000721  -0.000129  -0.004001   0.608721
    15  O    0.000000   0.000001  -0.000005  -0.000000  -0.000035  -0.145790
    16  O    0.000001  -0.000006   0.000074  -0.000002   0.000051   0.116496
    17  H   -0.000659  -0.013409  -0.001670   0.000145  -0.000045   0.137270
    18  H   -0.000452   0.000157   0.000032  -0.014837   0.002733  -0.038708
    19  H    0.174345  -0.003185  -0.000412   0.049382   0.004911   0.001262
    20  H   -0.000887  -0.075113   0.424238  -0.000003   0.000007  -0.001338
    21  H    0.000114  -0.034397   0.395764   0.000002  -0.000016   0.001797
    22  H    0.000121  -0.034396   0.399359   0.000002  -0.000011   0.004507
    23  H    0.000053  -0.000001   0.000007  -0.066862   0.415367   0.000112
    24  H   -0.000204  -0.000001  -0.000004  -0.040350   0.407228  -0.000321
    25  H   -0.000226   0.000000  -0.000012  -0.040352   0.405477  -0.000401
    26  H   -0.000017   0.000090   0.000743   0.000041   0.000074   0.235528
    27  H   -0.000006   0.000003   0.000018   0.000137   0.000430   0.024421
    28  H   -0.000000   0.000000  -0.000000  -0.000000  -0.000004   0.059972
    29  H   -0.000000  -0.000000   0.000013  -0.000000   0.000003  -0.003002
              13         14         15         16         17         18
     1  C   -0.079037  -0.039191   0.000914  -0.003334   0.024525   0.009726
     2  C   -0.570154   0.026888   0.000795   0.001872  -0.084292  -0.010444
     3  C   -1.549126  -0.761020   0.004837  -0.008950   0.033754   0.055705
     4  C    0.106240  -1.101065   0.030735  -0.003577   0.164673   0.254120
     5  C    0.045372   0.258666  -0.008282  -0.011326   0.026379   0.122036
     6  C   -0.190477   0.147241   0.001929  -0.006546  -0.005222  -0.113434
     7  O   -0.000073   0.000515   0.000000   0.000001  -0.000659  -0.000452
     8  O   -0.004537  -0.000280   0.000001  -0.000006  -0.013409   0.000157
     9  C   -0.008050  -0.000721  -0.000005   0.000074  -0.001670   0.000032
    10  O   -0.004144  -0.000129  -0.000000  -0.000002   0.000145  -0.014837
    11  C   -0.007639  -0.004001  -0.000035   0.000051  -0.000045   0.002733
    12  C   -1.592592   0.608721  -0.145790   0.116496   0.137270  -0.038708
    13  C   11.923938  -1.674360   0.317912  -0.150117   0.028843   0.022475
    14  C   -1.674360   7.638823  -0.063251   0.200108  -0.000291   0.018761
    15  O    0.317912  -0.063251   8.156905  -0.096844   0.000001   0.000087
    16  O   -0.150117   0.200108  -0.096844   8.203194  -0.000158   0.000051
    17  H    0.028843  -0.000291   0.000001  -0.000158   0.515658  -0.000114
    18  H    0.022475   0.018761   0.000087   0.000051  -0.000114   0.535552
    19  H    0.000693   0.000035   0.000000  -0.000000   0.000003  -0.000030
    20  H    0.000012  -0.000004   0.000000  -0.000000   0.000088   0.000000
    21  H    0.000034  -0.000031   0.000000  -0.000001  -0.000746   0.000000
    22  H   -0.000039   0.000044  -0.000000   0.000001  -0.000759   0.000000
    23  H    0.000210   0.000054   0.000000  -0.000000  -0.000000   0.000090
    24  H   -0.000135  -0.000476  -0.000001   0.000000   0.000000  -0.000597
    25  H   -0.000742  -0.000322   0.000001  -0.000000   0.000000  -0.000703
    26  H   -0.193492  -0.049149   0.000899  -0.006583   0.003142  -0.000032
    27  H    0.284982  -0.086679  -0.010749   0.007505  -0.000001   0.000887
    28  H   -0.089600   0.045917   0.216729  -0.002713   0.000000  -0.000000
    29  H    0.055034  -0.048506  -0.003438   0.210225  -0.000000   0.000000
              19         20         21         22         23         24
     1  C    0.200058   0.067409  -0.039353  -0.043563   0.031110  -0.024847
     2  C    0.309003   0.056330  -0.092873  -0.091356   0.006306  -0.005003
     3  C    0.023459  -0.099202   0.097010   0.109901  -0.002784   0.005735
     4  C    0.000095  -0.012666   0.037029   0.019132  -0.009961   0.023743
     5  C   -0.051734  -0.001692   0.002848   0.002647  -0.047655   0.051819
     6  C   -0.490590   0.010829  -0.010558  -0.009072   0.043917  -0.058421
     7  O    0.174345  -0.000887   0.000114   0.000121   0.000053  -0.000204
     8  O   -0.003185  -0.075113  -0.034397  -0.034396  -0.000001  -0.000001
     9  C   -0.000412   0.424238   0.395764   0.399359   0.000007  -0.000004
    10  O    0.049382  -0.000003   0.000002   0.000002  -0.066862  -0.040350
    11  C    0.004911   0.000007  -0.000016  -0.000011   0.415367   0.407228
    12  C    0.001262  -0.001338   0.001797   0.004507   0.000112  -0.000321
    13  C    0.000693   0.000012   0.000034  -0.000039   0.000210  -0.000135
    14  C    0.000035  -0.000004  -0.000031   0.000044   0.000054  -0.000476
    15  O    0.000000   0.000000   0.000000  -0.000000   0.000000  -0.000001
    16  O   -0.000000  -0.000000  -0.000001   0.000001  -0.000000   0.000000
    17  H    0.000003   0.000088  -0.000746  -0.000759  -0.000000   0.000000
    18  H   -0.000030   0.000000   0.000000   0.000000   0.000090  -0.000597
    19  H    0.352915  -0.000002   0.000000   0.000000  -0.000093   0.000043
    20  H   -0.000002   0.481515  -0.023508  -0.023547  -0.000000   0.000000
    21  H    0.000000  -0.023508   0.538147  -0.041833   0.000000  -0.000000
    22  H    0.000000  -0.023547  -0.041833   0.538013   0.000000  -0.000000
    23  H   -0.000093  -0.000000   0.000000   0.000000   0.479356  -0.023135
    24  H    0.000043   0.000000  -0.000000  -0.000000  -0.023135   0.527018
    25  H    0.000043   0.000000  -0.000000  -0.000000  -0.023083  -0.039172
    26  H   -0.000000   0.000000  -0.000001  -0.000002  -0.000000  -0.000000
    27  H   -0.000000  -0.000000   0.000000  -0.000000  -0.000000  -0.000006
    28  H    0.000000   0.000000   0.000000  -0.000000  -0.000000  -0.000000
    29  H   -0.000000  -0.000000  -0.000000   0.000000   0.000000   0.000000
              25         26         27         28         29
     1  C   -0.015543   0.017427  -0.000241   0.000061  -0.000095
     2  C   -0.006331   0.026842   0.002147  -0.000032   0.000385
     3  C    0.002939   0.267459   0.023950   0.000319   0.008464
     4  C    0.020713   0.044407   0.084018  -0.003718   0.013948
     5  C    0.033193  -0.046606   0.000288   0.003403  -0.004733
     6  C   -0.039618  -0.003073  -0.011939   0.000471  -0.000463
     7  O   -0.000226  -0.000017  -0.000006  -0.000000  -0.000000
     8  O    0.000000   0.000090   0.000003   0.000000  -0.000000
     9  C   -0.000012   0.000743   0.000018  -0.000000   0.000013
    10  O   -0.040352   0.000041   0.000137  -0.000000  -0.000000
    11  C    0.405477   0.000074   0.000430  -0.000004   0.000003
    12  C   -0.000401   0.235528   0.024421   0.059972  -0.003002
    13  C   -0.000742  -0.193492   0.284982  -0.089600   0.055034
    14  C   -0.000322  -0.049149  -0.086679   0.045917  -0.048506
    15  O    0.000001   0.000899  -0.010749   0.216729  -0.003438
    16  O   -0.000000  -0.006583   0.007505  -0.002713   0.210225
    17  H    0.000000   0.003142  -0.000001   0.000000  -0.000000
    18  H   -0.000703  -0.000032   0.000887  -0.000000   0.000000
    19  H    0.000043  -0.000000  -0.000000   0.000000  -0.000000
    20  H    0.000000   0.000000  -0.000000   0.000000  -0.000000
    21  H   -0.000000  -0.000001   0.000000   0.000000  -0.000000
    22  H   -0.000000  -0.000002  -0.000000  -0.000000   0.000000
    23  H   -0.023083  -0.000000  -0.000000  -0.000000   0.000000
    24  H   -0.039172  -0.000000  -0.000006  -0.000000   0.000000
    25  H    0.526997   0.000000  -0.000002   0.000000  -0.000000
    26  H    0.000000   0.507321   0.003131   0.000011  -0.000051
    27  H   -0.000002   0.003131   0.490103   0.000021  -0.000170
    28  H    0.000000   0.000011   0.000021   0.373478   0.002885
    29  H   -0.000000  -0.000051  -0.000170   0.002885   0.373085
 Mulliken charges:
               1
     1  C   -0.298357
     2  C    0.394717
     3  C    0.130692
     4  C   -0.332203
     5  C   -0.113513
     6  C    0.243987
     7  O   -0.444536
     8  O   -0.309740
     9  C   -0.151939
    10  O   -0.407074
    11  C   -0.159953
    12  C    0.069761
    13  C   -0.671431
    14  C    0.883702
    15  O   -0.403349
    16  O   -0.449424
    17  H    0.172886
    18  H    0.156939
    19  H    0.429797
    20  H    0.197533
    21  H    0.170571
    22  H    0.170850
    23  H    0.196993
    24  H    0.177085
    25  H    0.177144
    26  H    0.191893
    27  H    0.187752
    28  H    0.392801
    29  H    0.396416
 Sum of Mulliken charges =   1.00000
 Mulliken charges with hydrogens summed into heavy atoms:
               1
     1  C   -0.298357
     2  C    0.394717
     3  C    0.303578
     4  C   -0.332203
     5  C    0.043426
     6  C    0.243987
     7  O   -0.014739
     8  O   -0.309740
     9  C    0.387015
    10  O   -0.407074
    11  C    0.391269
    12  C    0.261654
    13  C   -0.483679
    14  C    0.883702
    15  O   -0.010548
    16  O   -0.053008
 Electronic spatial extent (au):  <R**2>=           5042.8317
 Charge=              1.0000 electrons
 Dipole moment (field-independent basis, Debye):
    X=            -10.0164    Y=             -0.0821    Z=              0.0432  Tot=             10.0168
 Quadrupole moment (field-independent basis, Debye-Ang):
   XX=             -9.1773   YY=            -55.6676   ZZ=            -93.9557
   XY=             11.5454   XZ=              0.1257   YZ=             -1.2181
 Traceless Quadrupole moment (field-independent basis, Debye-Ang):
   XX=             43.7562   YY=             -2.7340   ZZ=            -41.0222
   XY=             11.5454   XZ=              0.1257   YZ=             -1.2181
 Octapole moment (field-independent basis, Debye-Ang**2):
  XXX=           -447.1836  YYY=              8.3455  ZZZ=             -0.2761  XYY=             41.8686
  XXY=            -39.9667  XXZ=             -2.7862  XZZ=             -1.4781  YZZ=              0.4497
  YYZ=              1.1663  XYZ=              5.2539
 Hexadecapole moment (field-independent basis, Debye-Ang**3):
 XXXX=          -1320.6862 YYYY=          -1410.0742 ZZZZ=           -108.6174 XXXY=            390.6598
 XXXZ=             24.5745 YYYX=             11.0307 YYYZ=             -4.0316 ZZZX=              0.5862
 ZZZY=             -0.1766 XXYY=           -784.4378 XXZZ=           -729.3831 YYZZ=           -334.0036
 XXYZ=            -30.2232 YYXZ=             -5.7618 ZZXY=              5.3407
 N-N= 1.075652666158D+03 E-N=-4.007897794981D+03  KE= 7.954600217069D+02
 R6APFD:  NTU= -4 IXU= 1 FactS= 1.050
 Calling FoFJK, ICntrl=      2127 FMM=F ISym2X=0 I1Cent= 0 IOpClX= 0 NMat=1 NMatS=1 NMatT=0.
 ***** Axes restored to original set *****
 -------------------------------------------------------------------
 Center     Atomic                   Forces (Hartrees/Bohr)
 Number     Number              X              Y              Z
 -------------------------------------------------------------------
      1        6          -0.005498980    0.002287442    0.000043988
      2        6          -0.003317867   -0.005624653   -0.000029962
      3        6           0.003436312   -0.000110800   -0.000020080
      4        6           0.000254082    0.000600686    0.000036092
      5        6           0.003022352   -0.000495728   -0.000027275
      6        6          -0.001169631    0.005953921    0.000020479
      7        8           0.000581684   -0.000606109   -0.000000599
      8        8          -0.001059613    0.001772487   -0.000000472
      9        6           0.000300524    0.001605877    0.000016324
     10        8          -0.000972705   -0.001474820   -0.000013552
     11        6          -0.000329719   -0.001700588   -0.000001838
     12        6          -0.000256296   -0.000791301   -0.000049385
     13        6          -0.001398347    0.000448377   -0.000065999
     14        6           0.005234956   -0.001913184    0.000087889
     15        8           0.002124237    0.003915305   -0.000368670
     16        8          -0.000284816   -0.003913814    0.000363922
     17        1           0.000459500   -0.001279156   -0.000010886
     18        1           0.000969231    0.000942169    0.000012031
     19        1           0.001144201   -0.000821855   -0.000007538
     20        1          -0.000670725   -0.000103091    0.000001673
     21        1           0.000347356   -0.000342611   -0.000659344
     22        1           0.000352184   -0.000352475    0.000651760
     23        1          -0.000589403    0.000297165    0.000004050
     24        1           0.000418852    0.000170168    0.000641263
     25        1           0.000414889    0.000174911   -0.000640512
     26        1           0.000379318   -0.001136343   -0.000001444
     27        1          -0.000122054    0.001321378    0.000027206
     28        1          -0.002000422    0.000111039   -0.000143371
     29        1          -0.001769100    0.001065603    0.000134249
 -------------------------------------------------------------------
 Cartesian Forces:  Max     0.005953921 RMS     0.001662324

 GradGradGradGradGradGradGradGradGradGradGradGradGradGradGradGradGradGrad
 Berny optimization.
 FormGI is forming the generalized inverse of G from B-inverse, IUseBI=4.
 Internal  Forces:  Max     0.005188189 RMS     0.001267883
 Search for a local minimum.
 Step number   1 out of a maximum of  135
 All quantities printed in internal units (Hartrees-Bohrs-Radians)
 Mixed Optimization -- RFO/linear search
 Second derivative matrix not updated -- first step.
 ITU=  0
     Eigenvalues ---    0.01365   0.01407   0.01864   0.01899   0.01989
     Eigenvalues ---    0.01989   0.02061   0.02101   0.02121   0.02172
     Eigenvalues ---    0.02193   0.02225   0.02251   0.02280   0.02289
     Eigenvalues ---    0.02322   0.02333   0.02476   0.02549   0.02733
     Eigenvalues ---    0.02739   0.02786   0.10121   0.10176   0.10704
     Eigenvalues ---    0.10716   0.16000   0.16000   0.16000   0.16000
     Eigenvalues ---    0.16000   0.16000   0.16000   0.16000   0.16000
     Eigenvalues ---    0.16000   0.16000   0.16000   0.16000   0.22000
     Eigenvalues ---    0.22000   0.23476   0.23484   0.24999   0.25000
     Eigenvalues ---    0.25000   0.25000   0.25000   0.25000   0.25000
     Eigenvalues ---    0.25000   0.25000   0.34227   0.34227   0.34328
     Eigenvalues ---    0.34329   0.35059   0.35071   0.35107   0.35690
     Eigenvalues ---    0.35828   0.35871   0.39686   0.41287   0.41757
     Eigenvalues ---    0.42232   0.42874   0.43352   0.44395   0.47214
     Eigenvalues ---    0.47717   0.48828   0.49961   0.52762   0.53542
     Eigenvalues ---    0.53595   0.54522   0.57050   0.61621   0.61731
     Eigenvalues ---    0.62611
 RFO step:  Lambda=-5.55941510D-04 EMin= 1.36478162D-02
 Linear search not attempted -- first point.
 Iteration  1 RMS(Cart)=  0.01533619 RMS(Int)=  0.00004610
 Iteration  2 RMS(Cart)=  0.00008464 RMS(Int)=  0.00000098
 Iteration  3 RMS(Cart)=  0.00000000 RMS(Int)=  0.00000098
 Variable       Old X    -DE/DX   Delta X   Delta X   Delta X     New X
                                 (Linear)    (Quad)   (Total)
    R1        2.66725   0.00280   0.00000   0.00645   0.00645   2.67370
    R2        2.67629   0.00286   0.00000   0.00668   0.00668   2.68296
    R3        2.49680  -0.00194   0.00000  -0.00314  -0.00314   2.49366
    R4        2.60841   0.00519   0.00000   0.01057   0.01057   2.61898
    R5        2.53354  -0.00130   0.00000  -0.00227  -0.00227   2.53127
    R6        2.68049   0.00241   0.00000   0.00559   0.00559   2.68608
    R7        2.04570   0.00136   0.00000   0.00380   0.00380   2.04950
    R8        2.67974   0.00231   0.00000   0.00535   0.00535   2.68509
    R9        2.65985   0.00205   0.00000   0.00461   0.00461   2.66446
   R10        2.59341   0.00493   0.00000   0.00975   0.00975   2.60316
   R11        2.04284   0.00134   0.00000   0.00374   0.00374   2.04657
   R12        2.55559  -0.00174   0.00000  -0.00319  -0.00319   2.55240
   R13        1.83876  -0.00101   0.00000  -0.00191  -0.00191   1.83685
   R14        2.68629  -0.00067   0.00000  -0.00159  -0.00159   2.68470
   R15        2.05579   0.00062   0.00000   0.00177   0.00177   2.05756
   R16        2.06949   0.00080   0.00000   0.00233   0.00233   2.07182
   R17        2.06949   0.00080   0.00000   0.00234   0.00234   2.07182
   R18        2.69233  -0.00094   0.00000  -0.00226  -0.00226   2.69007
   R19        2.05560   0.00061   0.00000   0.00174   0.00174   2.05734
   R20        2.06779   0.00077   0.00000   0.00224   0.00224   2.07003
   R21        2.06780   0.00077   0.00000   0.00224   0.00224   2.07003
   R22        2.62242   0.00205   0.00000   0.00429   0.00429   2.62671
   R23        2.05501   0.00119   0.00000   0.00339   0.00339   2.05840
   R24        2.61067   0.00336   0.00000   0.00688   0.00688   2.61754
   R25        2.04352   0.00133   0.00000   0.00370   0.00370   2.04722
   R26        2.48932   0.00285   0.00000   0.00454   0.00454   2.49386
   R27        2.49596   0.00237   0.00000   0.00383   0.00383   2.49980
   R28        1.83151  -0.00190   0.00000  -0.00355  -0.00355   1.82796
   R29        1.83103  -0.00196   0.00000  -0.00365  -0.00365   1.82738
    A1        2.10748   0.00031   0.00000   0.00142   0.00142   2.10889
    A2        2.07725  -0.00066   0.00000  -0.00274  -0.00274   2.07451
    A3        2.09846   0.00035   0.00000   0.00132   0.00132   2.09978
    A4        2.06801  -0.00045   0.00000  -0.00172  -0.00171   2.06629
    A5        2.00910  -0.00247   0.00000  -0.00992  -0.00992   1.99918
    A6        2.20608   0.00293   0.00000   0.01163   0.01163   2.21772
    A7        2.11272   0.00011   0.00000   0.00040   0.00040   2.11311
    A8        2.09679  -0.00009   0.00000  -0.00040  -0.00040   2.09639
    A9        2.07368  -0.00002   0.00000   0.00000   0.00000   2.07368
   A10        2.09278   0.00027   0.00000   0.00089   0.00089   2.09367
   A11        2.05318  -0.00025   0.00000  -0.00089  -0.00089   2.05229
   A12        2.13721  -0.00002   0.00000   0.00000   0.00001   2.13722
   A13        2.07954  -0.00004   0.00000  -0.00030  -0.00030   2.07924
   A14        2.10443  -0.00013   0.00000  -0.00081  -0.00081   2.10362
   A15        2.09922   0.00018   0.00000   0.00111   0.00111   2.10033
   A16        2.10585  -0.00019   0.00000  -0.00069  -0.00069   2.10516
   A17        1.96127  -0.00239   0.00000  -0.00958  -0.00958   1.95169
   A18        2.21607   0.00258   0.00000   0.01027   0.01027   2.22634
   A19        1.90893  -0.00181   0.00000  -0.01127  -0.01127   1.89766
   A20        2.06787  -0.00050   0.00000  -0.00199  -0.00199   2.06588
   A21        1.84447  -0.00056   0.00000  -0.00396  -0.00396   1.84051
   A22        1.93551   0.00030   0.00000   0.00213   0.00213   1.93764
   A23        1.93560   0.00031   0.00000   0.00215   0.00215   1.93775
   A24        1.91144  -0.00002   0.00000  -0.00061  -0.00061   1.91082
   A25        1.91137  -0.00002   0.00000  -0.00062  -0.00062   1.91075
   A26        1.92376  -0.00003   0.00000   0.00067   0.00067   1.92443
   A27        2.07514  -0.00049   0.00000  -0.00196  -0.00196   2.07317
   A28        1.84852  -0.00052   0.00000  -0.00360  -0.00360   1.84491
   A29        1.92874   0.00023   0.00000   0.00166   0.00166   1.93039
   A30        1.92867   0.00023   0.00000   0.00165   0.00165   1.93032
   A31        1.91404   0.00001   0.00000  -0.00034  -0.00034   1.91369
   A32        1.91413   0.00001   0.00000  -0.00034  -0.00034   1.91380
   A33        1.92816   0.00001   0.00000   0.00079   0.00078   1.92894
   A34        2.22533  -0.00055   0.00000  -0.00248  -0.00248   2.22285
   A35        2.02464   0.00038   0.00000   0.00189   0.00189   2.02653
   A36        2.03322   0.00017   0.00000   0.00058   0.00058   2.03380
   A37        2.11403   0.00109   0.00000   0.00496   0.00496   2.11899
   A38        2.14861  -0.00051   0.00000  -0.00223  -0.00223   2.14638
   A39        2.02055  -0.00059   0.00000  -0.00274  -0.00274   2.01781
   A40        2.07088  -0.00228   0.00000  -0.00909  -0.00909   2.06180
   A41        2.11317  -0.00160   0.00000  -0.00638  -0.00638   2.10678
   A42        2.09910   0.00388   0.00000   0.01547   0.01547   2.11457
   A43        2.01484  -0.00115   0.00000  -0.00715  -0.00715   2.00769
   A44        2.00759  -0.00117   0.00000  -0.00728  -0.00728   2.00031
    D1       -0.00118   0.00001   0.00000   0.00030   0.00030  -0.00089
    D2        3.14033   0.00000   0.00000   0.00012   0.00012   3.14046
    D3        3.14136   0.00000   0.00000   0.00020   0.00019   3.14155
    D4       -0.00031  -0.00000   0.00000   0.00002   0.00002  -0.00029
    D5        0.00014  -0.00001   0.00000  -0.00029  -0.00029  -0.00015
    D6       -3.14008  -0.00000   0.00000  -0.00012  -0.00012  -3.14020
    D7        3.14077  -0.00000   0.00000  -0.00019  -0.00019   3.14058
    D8        0.00055  -0.00000   0.00000  -0.00002  -0.00002   0.00053
    D9        3.14068   0.00000   0.00000   0.00007   0.00007   3.14075
   D10        0.00004  -0.00000   0.00000  -0.00004  -0.00004   0.00000
   D11       -0.00049   0.00000   0.00000   0.00001   0.00001  -0.00049
   D12       -3.14156   0.00000   0.00000  -0.00001  -0.00001  -3.14157
   D13        3.14119   0.00000   0.00000   0.00021   0.00021   3.14139
   D14        0.00011   0.00000   0.00000   0.00019   0.00019   0.00031
   D15        3.13985   0.00001   0.00000   0.00044   0.00044   3.14029
   D16       -0.00183   0.00001   0.00000   0.00025   0.00025  -0.00158
   D17        0.00318  -0.00001   0.00000  -0.00032  -0.00032   0.00287
   D18        3.14027   0.00000   0.00000   0.00021   0.00021   3.14048
   D19       -3.13892  -0.00001   0.00000  -0.00031  -0.00030  -3.13923
   D20       -0.00184   0.00000   0.00000   0.00022   0.00022  -0.00162
   D21       -0.00418   0.00001   0.00000   0.00032   0.00032  -0.00385
   D22        3.13768   0.00000   0.00000   0.00010   0.00010   3.13779
   D23       -3.14104  -0.00000   0.00000  -0.00023  -0.00023  -3.14126
   D24        0.00082  -0.00001   0.00000  -0.00045  -0.00045   0.00038
   D25        3.13531  -0.00001   0.00000  -0.00052  -0.00052   3.13479
   D26       -0.00737  -0.00001   0.00000  -0.00031  -0.00031  -0.00768
   D27       -0.01091   0.00000   0.00000   0.00002   0.00002  -0.01089
   D28        3.12959   0.00000   0.00000   0.00023   0.00023   3.12982
   D29        0.00254  -0.00000   0.00000  -0.00002  -0.00002   0.00252
   D30       -3.14064  -0.00001   0.00000  -0.00024  -0.00024  -3.14089
   D31       -3.13932   0.00000   0.00000   0.00020   0.00020  -3.13912
   D32        0.00068  -0.00000   0.00000  -0.00002  -0.00002   0.00066
   D33       -3.13994  -0.00001   0.00000  -0.00034  -0.00034  -3.14028
   D34        0.00313  -0.00000   0.00000  -0.00014  -0.00014   0.00299
   D35       -3.14041  -0.00000   0.00000  -0.00007  -0.00007  -3.14048
   D36       -1.07054  -0.00020   0.00000  -0.00200  -0.00201  -1.07255
   D37        1.07293   0.00020   0.00000   0.00186   0.00186   1.07480
   D38        3.13995   0.00000   0.00000   0.00000   0.00000   3.13995
   D39       -1.07148  -0.00017   0.00000  -0.00163  -0.00163  -1.07311
   D40        1.06811   0.00017   0.00000   0.00163   0.00163   1.06974
   D41        3.12290  -0.00000   0.00000  -0.00010  -0.00010   3.12280
   D42       -0.02113   0.00000   0.00000   0.00009   0.00009  -0.02104
   D43       -0.01760  -0.00001   0.00000  -0.00031  -0.00031  -0.01791
   D44        3.12156  -0.00000   0.00000  -0.00012  -0.00012   3.12144
   D45        3.06091  -0.00005   0.00000  -0.00190  -0.00190   3.05901
   D46       -0.09007  -0.00004   0.00000  -0.00195  -0.00195  -0.09202
   D47       -0.07842  -0.00006   0.00000  -0.00207  -0.00207  -0.08049
   D48        3.05378  -0.00004   0.00000  -0.00212  -0.00212   3.05166
   D49        2.90863  -0.00015   0.00000  -0.00512  -0.00512   2.90351
   D50       -0.22365  -0.00013   0.00000  -0.00495  -0.00495  -0.22860
   D51        2.85558  -0.00018   0.00000  -0.00660  -0.00660   2.84899
   D52       -0.29555  -0.00020   0.00000  -0.00678  -0.00678  -0.30233
         Item               Value     Threshold  Converged?
 Maximum Force            0.005188     0.000450     NO 
 RMS     Force            0.001268     0.000300     NO 
 Maximum Displacement     0.060993     0.001800     NO 
 RMS     Displacement     0.015318     0.001200     NO 
 Predicted change in Energy=-2.785125D-04
 GradGradGradGradGradGradGradGradGradGradGradGradGradGradGradGradGradGrad

                          Input orientation:                          
 ---------------------------------------------------------------------
 Center     Atomic      Atomic             Coordinates (Angstroms)
 Number     Number       Type             X           Y           Z
 ---------------------------------------------------------------------
      1          6           0       -2.387875    0.197030    0.001073
      2          6           0       -1.917600   -1.137371   -0.006377
      3          6           0       -0.548673   -1.353592   -0.010779
      4          6           0        0.365918   -0.265508   -0.008502
      5          6           0       -0.119871    1.069716    0.001915
      6          6           0       -1.479912    1.288503    0.005054
      7          8           0       -3.689563    0.413608    0.005266
      8          8           0       -2.881829   -2.067151   -0.008071
      9          6           0       -2.499985   -3.435525   -0.017072
     10          8           0       -2.122750    2.476359    0.013801
     11          6           0       -1.351719    3.672989    0.017134
     12          6           0        1.742673   -0.569740   -0.011902
     13          6           0        2.804659    0.327050   -0.018059
     14          6           0        4.118832   -0.110210    0.001373
     15          8           0        5.076402    0.792013   -0.101833
     16          8           0        4.401122   -1.396066    0.130920
     17          1           0       -0.157569   -2.365151   -0.016533
     18          1           0        0.568701    1.905615    0.007281
     19          1           0       -3.846317    1.372887    0.010955
     20          1           0       -3.432835   -3.997046   -0.017994
     21          1           0       -1.926466   -3.677810   -0.919503
     22          1           0       -1.921903   -3.688492    0.879500
     23          1           0       -2.073097    4.488370    0.022498
     24          1           0       -0.727987    3.727152    0.915995
     25          1           0       -0.732415    3.734935   -0.884285
     26          1           0        1.999758   -1.628222   -0.008544
     27          1           0        2.668932    1.401631   -0.040107
     28          1           0        5.962839    0.475383    0.121045
     29          1           0        5.304198   -1.637061   -0.117032
 ---------------------------------------------------------------------
                    Distance matrix (angstroms):
                    1          2          3          4          5
     1  C    0.000000
     2  C    1.414863   0.000000
     3  C    2.405666   1.385905   0.000000
     4  C    2.792384   2.444301   1.421411   0.000000
     5  C    2.430108   2.846600   2.460986   1.420888   0.000000
     6  C    1.419763   2.465069   2.801450   2.412928   1.377530
     7  O    1.319590   2.354893   3.603948   4.111972   3.629489
     8  O    2.317453   1.339490   2.439835   3.713998   4.179527
     9  C    3.634330   2.370823   2.853437   4.273463   5.095341
    10  O    2.294732   3.619605   4.140875   3.702945   2.447511
    11  C    3.627144   4.843587   5.090401   4.296824   2.880055
    12  C    4.201134   3.704029   2.421712   1.409972   2.481345
    13  C    5.194197   4.944128   3.750926   2.509716   3.017421
    14  C    6.513956   6.123205   4.830295   3.756139   4.399867
    15  O    7.488659   7.255873   6.021077   4.828635   5.204722
    16  O    6.974618   6.325506   4.952005   4.192907   5.151320
    17  H    3.396961   2.145986   1.084549   2.163933   3.435123
    18  H    3.414768   3.929585   3.445472   2.180629   1.082999
    19  H    1.873444   3.165698   4.278857   4.519695   3.738770
    20  H    4.322334   3.236327   3.912326   5.324941   6.053776
    21  H    4.009331   2.699575   2.850629   4.210553   5.162538
    22  H    4.010740   2.700558   2.851336   4.211828   5.163140
    23  H    4.302923   5.627963   6.037673   5.343136   3.937348
    24  H    4.006754   5.092105   5.167690   4.241775   2.875294
    25  H    4.005144   5.090653   5.166225   4.239914   2.874709
    26  H    4.752153   3.947991   2.563186   2.127539   3.431007
    27  H    5.198467   5.242513   4.236165   2.843277   2.808800
    28  H    8.356213   8.044783   6.764785   5.647232   6.112838
    29  H    7.908591   7.239910   5.860694   5.126358   6.063110
                    6          7          8          9         10
     6  C    0.000000
     7  O    2.376552   0.000000
     8  O    3.636751   2.608980   0.000000
     9  C    4.832958   4.028824   1.420681   0.000000
    10  O    1.350673   2.590351   4.606535   5.923988   0.000000
    11  C    2.387960   4.011137   5.940630   7.200740   1.423525
    12  C    3.720001   5.520548   4.860892   5.119853   4.921471
    13  C    4.391182   6.494841   6.169964   6.503554   5.375864
    14  C    5.770819   7.825946   7.269042   7.407213   6.756319
    15  O    6.575955   8.774782   8.456775   8.676456   7.394469
    16  O    6.466013   8.291556   7.315125   7.197678   7.587509
    17  H    3.885646   4.494103   2.740524   2.575386   5.225235
    18  H    2.139543   4.512084   5.262059   6.159967   2.751308
    19  H    2.367917   0.972019   3.572739   4.993418   2.046544
    20  H    5.634844   4.418180   2.007037   1.088814   6.604718
    21  H    5.071339   4.550099   2.082702   1.096361   6.227630
    22  H    5.072523   4.551497   2.082783   1.096362   6.228576
    23  H    3.254430   4.383714   6.605288   7.935484   2.012642
    24  H    2.709652   4.536512   6.250351   7.437374   2.079375
    25  H    2.708265   4.535112   6.249154   7.435849   2.079327
    26  H    4.540438   6.044637   4.901280   4.849134   5.817487
    27  H    4.150632   6.434960   6.545565   7.079287   4.911025
    28  H    7.487935   9.653295   9.203766   9.323823   8.330196
    29  H    7.389044   9.225396   8.198042   8.009352   8.490989
                   11         12         13         14         15
    11  C    0.000000
    12  C    5.251367   0.000000
    13  C    5.335919   1.389995   0.000000
    14  C    6.651299   2.420223   1.385144   0.000000
    15  O    7.045205   3.602250   2.320350   1.319696   0.000000
    16  O    7.668341   2.787574   2.353724   1.322836   2.301709
    17  H    6.155182   2.614276   4.002841   4.834530   6.113052
    18  H    2.609928   2.739701   2.737156   4.082526   4.644500
    19  H    3.393159   5.917021   6.732764   8.102054   8.942318
    20  H    7.947434   6.207443   7.589739   8.493265   9.764693
    21  H    7.432487   4.893508   6.263789   7.079648   8.347937
    22  H    7.433719   4.893907   6.266624   7.075711   8.367449
    23  H    1.088697   6.336068   6.411765   7.712805   8.049462
    24  H    1.095412   5.042662   4.991267   6.249283   6.583460
    25  H    1.095414   5.041561   4.987477   6.253329   6.558610
    26  H    6.271834   1.089261   2.114485   2.606710   3.915607
    27  H    4.618223   2.178315   1.083343   2.095135   2.484221
    28  H    7.983624   4.349686   3.164720   1.938454   0.967317
    29  H    8.515625   3.719501   3.180443   1.936591   2.439779
                   16         17         18         19         20
    16  O    0.000000
    17  H    4.662889   0.000000
    18  H    5.060023   4.332144   0.000000
    19  H    8.700675   5.251719   4.447044   0.000000
    20  H    8.255796   3.659297   7.131222   5.385906   0.000000
    21  H    6.807945   2.380636   6.185420   5.482802   1.784314
    22  H    6.767292   2.380542   6.185297   5.484095   1.784269
    23  H    8.749506   7.116285   3.694584   3.584784   8.593765
    24  H    7.291877   6.189600   2.413537   4.010692   8.237219
    25  H    7.328780   6.188254   2.415410   4.009627   8.235669
    26  H    2.416588   2.279733   3.812634   6.571426   5.926591
    27  H    3.294971   4.709385   2.160375   6.515513   8.147255
    28  H    2.437494   6.748848   5.581688   9.850746  10.406760
    29  H    0.967008   5.510998   5.915314   9.633696   9.050695
                   21         22         23         24         25
    21  H    0.000000
    22  H    1.799040   0.000000
    23  H    8.221639   8.223039   0.000000
    24  H    7.722620   7.511228   1.785248   0.000000
    25  H    7.508380   7.722246   1.785315   1.800303   0.000000
    26  H    4.521713   4.518048   7.348592   6.080740   6.082363
    27  H    6.905920   6.915981   5.658509   4.226257   4.210239
    28  H    8.976240   8.948870   8.982764   7.481518   7.514107
    29  H    7.555866   7.577465   9.589830   8.138131   8.117124
                   26         27         28         29
    26  H    0.000000
    27  H    3.103031   0.000000
    28  H    4.488649   3.425453   0.000000
    29  H    3.306232   4.022958   2.225513   0.000000
 Stoichiometry    C11H13O5(1+)
 Framework group  C1[X(C11H13O5)]
 Deg. of freedom    81
 Full point group                 C1      NOp   1
 Largest Abelian subgroup         C1      NOp   1
 Largest concise Abelian subgroup C1      NOp   1
                         Standard orientation:                         
 ---------------------------------------------------------------------
 Center     Atomic      Atomic             Coordinates (Angstroms)
 Number     Number       Type             X           Y           Z
 ---------------------------------------------------------------------
      1          6           0        2.390195    0.200924   -0.001098
      2          6           0        1.921918   -1.134179    0.006352
      3          6           0        0.553316   -1.352449    0.010754
      4          6           0       -0.362903   -0.265735    0.008478
      5          6           0        0.120888    1.070214   -0.001939
      6          6           0        1.480600    1.291037   -0.005078
      7          8           0        3.691558    0.419450   -0.005290
      8          8           0        2.887538   -2.062515    0.008047
      9          6           0        2.507742   -3.431459    0.017047
     10          8           0        2.121659    2.479854   -0.013825
     11          6           0        1.348838    3.675328   -0.017159
     12          6           0       -1.739200   -0.572027    0.011877
     13          6           0       -2.802528    0.323172    0.018034
     14          6           0       -4.116045   -0.116054   -0.001397
     15          8           0       -5.074964    0.784735    0.101809
     16          8           0       -4.396410   -1.402331   -0.130944
     17          1           0        0.163726   -2.364592    0.016508
     18          1           0       -0.568934    1.905082   -0.007306
     19          1           0        3.846876    1.378963   -0.010979
     20          1           0        3.441432   -3.991583    0.017970
     21          1           0        1.934586   -3.674602    0.919479
     22          1           0        1.930039   -3.685291   -0.879524
     23          1           0        2.068995    4.491788   -0.022522
     24          1           0        0.725026    3.728558   -0.916020
     25          1           0        0.729442    3.736347    0.884261
     26          1           0       -1.994701   -1.630893    0.008520
     27          1           0       -2.668409    1.397955    0.040083
     28          1           0       -5.960926    0.466778   -0.121070
     29          1           0       -5.299124   -1.644678    0.117007
 ---------------------------------------------------------------------
 Rotational constants (GHZ):      0.7157930      0.2747558      0.1991325
 Standard basis: 6-31+G(d,p) (6D, 7F)
 There are   369 symmetry adapted cartesian basis functions of A   symmetry.
 There are   369 symmetry adapted basis functions of A   symmetry.
   369 basis functions,   603 primitive gaussians,   369 cartesian basis functions
    59 alpha electrons       59 beta electrons
       nuclear repulsion energy      1074.3321237255 Hartrees.
 NAtoms=   29 NActive=   29 NUniq=   29 SFac= 1.00D+00 NAtFMM=   60 NAOKFM=F Big=F
 Integral buffers will be    131072 words long.
 Raffenetti 2 integral format.
 Two-electron integral symmetry is turned on.
 R6APFD:  NTU= -4 IXU= 1 FactS= 1.050
 Nuclear repulsion after empirical dispersion term =     1074.3118049960 Hartrees.
 One-electron integrals computed using PRISM.
 NBasis=   369 RedAO= T EigKep=  1.42D-06  NBF=   369
 NBsUse=   367 1.00D-06 EigRej=  7.70D-07 NBFU=   367
 Initial guess from the checkpoint file:  "lwAPFDSAYang.chk"
 B after Tr=     0.000000    0.000000    0.000000
         Rot=    1.000000   -0.000040    0.000010   -0.000652 Ang=  -0.07 deg.
 ExpMin= 4.38D-02 ExpMax= 5.48D+03 ExpMxC= 8.25D+02 IAcc=2 IRadAn=         4 AccDes= 0.00D+00
 Harris functional with IExCor= 3731 and IRadAn=       4 diagonalized for initial guess.
 HarFok:  IExCor= 3731 AccDes= 0.00D+00 IRadAn=         4 IDoV= 1 UseB2=F ITyADJ=14
 ICtDFT=  3500011 ScaDFX=  1.000000  1.000000  1.000000  1.000000
 FoFCou: FMM=F IPFlag=           0 FMFlag=      100000 FMFlg1=           0
         NFxFlg=           0 DoJE=T BraDBF=F KetDBF=T FulRan=T
         wScrn=  0.000000 ICntrl=     500 IOpCl=  0 I1Cent=   200000004 NGrid=           0
         NMat0=    1 NMatS0=      1 NMatT0=    0 NMatD0=    1 NMtDS0=    0 NMtDT0=    0
 Petite list used in FoFCou.
 Requested convergence on RMS density matrix=1.00D-08 within 128 cycles.
[...]
 240,-0.00003799,-0.00000976,0.00000275,-0.00003953,0.00003571,-0.00000
 720,0.00002990,0.00002326,0.00000013,0.00052590,0.00033017,0.00000299,
 -0.00003111,-0.00019906,-0.00000071,0.00000618,-0.00001085,0.,-0.00000
 352,-0.00000218,-0.00000129,-0.00000351,-0.00000214,0.00000130,0.19222
 937,0.00129699,-0.00133740,-0.00001159,-0.00037480,0.00008046,-0.00000
 063,-0.00002195,-0.00000257,0.00000174,0.00050511,-0.00001908,-0.00000
 422,-0.00082104,0.00015125,-0.00000037,-0.00429434,-0.00173639,0.00000
 385,-0.00021978,0.00023562,0.00000318,-0.00001444,-0.00029583,-0.00000
 108,-0.00005135,0.00005716,0.00000051,0.01488380,-0.03480538,-0.000219
 72,0.13918306,-0.19796766,-0.00100477,-0.00032741,-0.00015401,0.000002
 46,0.00026863,0.00001486,0.00000368,-0.00030014,0.00009041,0.00000044,
 0.00016762,0.00008675,-0.00002254,0.00006208,-0.00010976,0.00001945,0.
 00002323,0.00001229,0.00000010,0.00021584,0.00018691,0.00000422,0.0001
 0452,-0.00024675,-0.00000284,0.00000320,-0.00001951,-0.00000007,0.0000
 0873,-0.00000704,0.00000023,0.00000874,-0.00000708,-0.00000033,-0.1482
 7961,0.22868250,0.00000607,-0.00000687,0.00032306,-0.00000099,0.000000
 18,-0.00004399,-0.00000144,-0.00000093,-0.00000112,0.00000356,0.000000
 91,0.00013068,-0.00000369,-0.00000091,0.00024440,-0.00001962,-0.000008
 86,0.00051266,-0.00000183,0.00000160,-0.00013197,-0.00000007,-0.000001
 23,-0.00002800,-0.00000011,0.00000017,-0.00000457,0.00005646,-0.000140
 88,-0.00009991,0.00096857,-0.00103316,-0.05063113,-0.00000179,-0.00000
 180,0.00003845,0.00000079,0.00000127,0.00001158,-0.00000073,0.00000060
 ,0.00000203,0.00000082,0.00000074,0.00000167,-0.00000025,-0.00000049,-
 0.00000254,0.00000009,0.00000022,-0.00002021,0.00000153,0.00000168,-0.
 00048040,0.00000092,-0.00000240,0.00020827,0.00000001,-0.00000012,0.00
 000317,0.00000243,-0.00000098,-0.00000054,-0.00000236,0.00000092,-0.00
 000054,-0.00102664,0.00120740,0.04662587,-0.00022153,-0.00067571,0.000
 04415,0.00004957,0.00026094,0.00005323,0.00007990,-0.00027202,-0.00000
 726,0.00020677,0.00014741,-0.00031041,0.00024952,-0.00057511,0.0002214
 6,-0.00058373,0.00364925,0.00048101,0.00004445,-0.00031721,0.00013905,
 -0.00006315,-0.00021511,-0.00000483,-0.00002383,0.00009177,-0.00001475
 ,-0.01194255,-0.01052688,-0.01117724,-0.13059996,-0.00034210,-0.120395
 20,-0.00033130,-0.00020618,0.00003296,0.00036074,0.00003856,-0.0000166
 3,-0.00047686,0.00013535,-0.00001339,0.00025561,0.00011805,-0.00003213
 ,0.00012743,-0.00019690,0.00003879,0.00001357,0.00000020,0.00001937,-0
 .00006415,0.00060914,0.00058433,0.00058176,0.00045800,-0.00028567,-0.0
 0000581,-0.00000898,-0.00000234,0.00001232,-0.00001173,0.00000615,0.00
 001361,-0.00000816,-0.00000513,-0.00932758,-0.00090281,-0.01789842,0.1
 3994600,-0.00124579,-0.00110392,0.00065447,-0.00042970,0.00037435,0.00
 013423,0.00030480,0.00021931,0.00005252,0.00046118,-0.00039847,0.00038
 010,0.00089074,0.00062601,0.00026964,-0.00351011,0.00590803,-0.0019622
 1,0.00068359,-0.00068170,0.00003603,-0.00001321,-0.00012293,-0.0000338
 5,-0.00000029,0.00002687,-0.00004141,-0.02222811,-0.01365976,-0.023613
 23,0.00342668,-0.04964928,0.00187854,-0.00033390,-0.00017775,-0.000003
 90,0.00019634,0.00002303,0.00001805,-0.00019733,0.00010367,-0.00000148
 ,0.00011707,0.00006030,-0.00002279,0.00003343,-0.00009663,0.00001834,0
 .00002391,0.00000804,-0.00003457,0.00073480,-0.00124891,-0.00137257,0.
 00064266,0.00052992,-0.00025413,0.00000167,-0.00000336,-0.00000066,0.0
 0000145,-0.00002163,0.00000065,0.00000135,-0.00000473,0.00000518,0.011
 56947,0.00344379,0.02010096,0.00701186,0.05443482,-0.00010444,-0.00054
 806,-0.00022803,-0.00023637,0.00008843,-0.00003165,0.00011083,0.000048
 98,-0.00003349,0.00049550,0.00015753,-0.00013264,-0.00099726,-0.000426
 09,-0.00014580,-0.00044976,0.00131567,0.00064520,0.00027099,0.00007486
 ,0.00003476,0.00011709,0.00007956,0.00001284,0.00001081,-0.00003426,0.
 00000227,0.00355659,-0.00229527,0.00854576,-0.12354917,-0.00319336,-0.
 23843096,-0.00014343,-0.00012983,0.00002578,0.00006502,-0.00004483,0.0
 0000237,-0.00001280,-0.00001120,0.00000693,0.00002959,0.00004438,0.000
 00296,-0.00003287,0.00003582,-0.00000245,0.00003827,0.00003974,0.00000
 259,0.00074774,-0.00040040,-0.00010340,0.00004560,0.00009725,-0.000005
 63,0.00000207,0.00000045,-0.00000039,-0.00000701,0.00000344,-0.0000011
 3,-0.00000786,-0.00000189,0.00000144,0.00234354,0.00011523,0.00182365,
 0.13312091,0.00431067,0.24656633,-0.00021980,-0.00067149,-0.00005639,0
 .00004973,0.00026218,-0.00004802,0.00008161,-0.00027297,0.00000034,0.0
 0020078,0.00014229,0.00031727,0.00024828,-0.00057538,-0.00022957,-0.00
 057436,0.00364922,-0.00043447,0.00004197,-0.00031541,-0.00014287,-0.00
 006305,-0.00021506,0.00000384,-0.00002393,0.00009147,0.00001561,-0.011
 93498,-0.01064207,0.01114778,-0.12976652,-0.00158663,0.12000732,-0.000
 32858,-0.00020404,-0.00003640,0.00035913,0.00004110,0.00002069,-0.0004
 7385,0.00013267,0.00000487,0.00025609,0.00011913,-0.00003114,0.0001254
 0,-0.00019457,0.00003069,0.00001354,-0.00000006,-0.00001961,-0.0000672
 2,0.00061247,-0.00057924,0.00058273,0.00045441,0.00028914,-0.00000580,
 -0.00000899,0.00000225,0.00001367,-0.00000807,0.00000502,0.00001232,-0
 .00001165,-0.00000633,-0.00926756,-0.00109448,0.01791719,0.01179605,0.
 00187555,-0.01546973,0.13904264,-0.00125363,-0.00109928,-0.00066304,-0
 .00043226,0.00037789,-0.00012569,0.00030666,0.00022256,-0.00004707,0.0
 0046837,-0.00039930,-0.00038829,0.00087890,0.00063180,-0.00025595,-0.0
 0350059,0.00591109,0.00203119,0.00068826,-0.00068210,-0.00004546,-0.00
 001323,-0.00012302,0.00003294,-0.00000015,0.00002643,0.00004134,-0.022
 11846,-0.01394349,0.02344890,0.00213726,-0.04971016,0.00010010,-0.0003
 4013,-0.00018209,0.00000193,0.00019515,0.00002550,-0.00000825,-0.00019
 671,0.00010122,0.00000325,0.00011506,0.00005993,-0.00001618,0.00003483
 ,-0.00009498,0.00000969,0.00002432,0.00000834,0.00003436,0.00073257,-0
 .00127306,0.00135974,0.00064391,0.00052824,0.00025730,0.00000171,-0.00
 000338,0.00000056,0.00000123,-0.00000484,-0.00000529,0.00000150,-0.000
 02162,-0.00000080,0.01151921,0.00365678,-0.02011746,0.00171709,0.00138
 082,0.00069443,0.00840052,0.05457619,0.00009132,0.00054343,-0.00023227
 ,0.00023204,-0.00008570,-0.00003389,-0.00010975,-0.00004461,-0.0000366
 0,-0.00048716,-0.00016174,-0.00013503,0.00100297,0.00044050,-0.0001520
 7,0.00041040,-0.00127041,0.00066075,-0.00026375,-0.00008172,0.00003493
 ,-0.00011698,-0.00008015,0.00001304,-0.00001076,0.00003409,0.00000317,
 -0.00371217,0.00208974,0.00878278,0.12320276,0.00519112,-0.23922501,0.
 00014002,0.00012666,0.00002717,-0.00006607,0.00004800,-0.00000666,0.00
 001408,0.00001557,-0.00001040,-0.00003311,-0.00004191,0.00001502,0.000
 03637,-0.00003736,0.00000343,-0.00003785,-0.00003923,0.00000286,-0.000
 73313,0.00038247,-0.00008746,-0.00004066,-0.00009331,-0.00000479,-0.00
 000203,-0.00000046,-0.00000040,0.00000783,0.00000187,0.00000136,0.0000
 0698,-0.00000351,-0.00000118,-0.00218909,-0.00009138,0.00156324,0.0153
 8779,-0.00049210,-0.01850686,-0.13267199,-0.00636821,0.24736373,-0.000
 04567,0.00029441,-0.00000670,0.00020892,-0.00061227,-0.00002069,-0.000
 01102,0.00231055,0.00006059,-0.00519855,0.02995131,-0.00014732,-0.0053
 1270,-0.00084261,-0.00005497,0.00037203,0.00164280,0.00000828,0.000140
 67,-0.00023553,0.00000648,0.00005453,-0.00003998,-0.00000348,-0.000049
 41,0.00009457,0.00000272,-0.00059531,-0.00001456,0.00001415,-0.0000391
 7,-0.00010504,-0.00000008,-0.07305509,0.06374838,-0.00013672,0.0080182
 3,-0.02516533,0.00024258,0.00091103,-0.00378350,0.00014676,0.00032942,
 0.00072837,-0.00006946,-0.00305219,0.00136549,-0.00068180,-0.00129213,
 -0.00121325,-0.00000767,0.00011726,-0.00004267,-0.00000313,0.00005785,
 0.00008179,0.00000177,0.00003210,-0.00002611,-0.00000001,-0.00000925,-
 0.00000448,-0.00005602,-0.00000933,-0.00000828,0.00005586,0.00000270,0
 .00000649,0.00000022,0.00000583,-0.00000650,-0.00000504,0.00000605,-0.
 00000605,0.00000419,0.08194137,0.00028904,-0.00008076,0.00001300,-0.00
 026591,0.00056463,-0.00000468,-0.00207221,0.00151181,-0.00007499,0.000
 09275,-0.00479938,0.00011076,0.00068023,0.00098734,0.00011986,-0.00045
 976,-0.00053282,-0.00002389,-0.00019586,0.00011625,-0.00000068,-0.0000
 2450,-0.00015111,0.00000711,0.00000285,0.00004948,-0.00000141,0.000132
 21,0.00013145,-0.00001470,-0.00002474,-0.00002424,0.00000152,0.0639446
 6,-0.32502689,0.00091739,0.00497970,-0.01772444,0.00027761,0.00078649,
 -0.00216883,0.00019277,-0.00016160,0.00023271,-0.00002351,0.00108189,0
 .00143782,-0.00012492,0.00012465,0.00047697,0.00000685,-0.00010486,0.0
 0008711,0.00000410,-0.00001555,-0.00005169,0.00000022,0.00000334,-0.00
 000690,0.00000026,-0.00000299,-0.00000781,-0.00001651,-0.00000426,-0.0
 0000870,0.00001661,0.00000908,0.00000491,-0.00000028,-0.00000463,0.000
 01077,0.00001792,-0.00000543,0.00001213,-0.00001768,-0.06642811,0.3444
 9588,-0.00004829,-0.00001566,0.00052916,0.00000777,-0.00003147,0.00039
 724,-0.00003970,-0.00001352,-0.00395172,0.00026465,-0.00015929,0.00689
 742,-0.00000415,0.00000633,0.00569733,0.00006004,0.00003601,0.00009904
 ,0.00004636,-0.00001244,-0.00017343,0.00000651,0.00001594,0.00022705,0
 .00000323,-0.00000877,0.00002191,0.00000108,-0.00001973,-0.00098302,0.
 00000647,0.00000776,0.00010045,-0.00055240,0.00096975,-0.04588960,0.00
 060403,0.00019111,0.00709979,-0.00018916,0.00039075,-0.00439136,0.0003
 7087,-0.00009221,0.00002307,-0.00086820,-0.00051059,0.00048348,-0.0000
 1129,-0.00000323,0.00038248,-0.00000200,0.00000700,-0.00000391,-0.0000
 0263,0.00000774,-0.00003455,0.00000078,0.00000045,-0.00001019,0.000003
 31,-0.00002141,-0.00002259,-0.00000617,0.00002233,-0.00002165,0.000000
 04,-0.00000097,-0.00001370,0.00001288,-0.00001560,0.00000340,-0.000014
 57,0.00001446,0.00000340,0.00031024,-0.00132562,0.02684201,0.00030577,
 -0.00034465,0.00001570,-0.00054953,0.00052866,-0.00000123,0.00064108,0
 .00035502,-0.00002084,-0.00026477,0.00106088,0.00006687,-0.00069472,-0
 .00125431,-0.00003163,-0.00018956,0.00041615,0.00001707,-0.00018153,0.
 00018734,-0.00001083,0.00015052,0.00014388,0.00000137,0.00003878,-0.00
 009872,-0.00000057,0.00013387,-0.00006191,-0.00000028,-0.00003486,-0.0
 0006411,0.00000081,0.01079401,-0.02500924,0.00052509,-0.06287356,0.035
 47112,-0.00116898,0.00007844,0.03127175,-0.00108332,-0.00017184,-0.000
 17078,0.00010921,-0.00654156,0.00152858,0.00096930,0.00014008,0.000154
 77,-0.00000153,-0.00116961,0.00083608,0.00006612,-0.00006590,-0.000071
 50,0.00000116,-0.00000040,0.00000598,0.00000020,-0.00001094,-0.0000016
 6,0.00001010,-0.00001103,-0.00000116,-0.00001003,0.00004010,0.00001400
 ,-0.00000106,-0.00001508,0.00002333,0.00005614,-0.00001743,0.00002829,
 -0.00005769,-0.00361676,-0.00248645,-0.00008523,0.06394436,0.00006317,
 -0.00015578,-0.00000765,-0.00011362,0.00003598,-0.00000708,-0.00003353
 ,-0.00007487,-0.00000903,0.00139181,-0.00013114,-0.00009636,0.00058919
 ,0.00015357,-0.00000674,-0.00012546,0.00054352,-0.00001073,0.00009520,
 0.00003132,0.00000874,0.00001559,0.00006137,0.00000159,0.00001731,-0.0
 0004077,0.00000077,-0.00003145,-0.00022230,-0.00000051,0.00006770,0.00
 012068,-0.00000202,0.00209694,-0.01498809,0.00031396,0.04317602,-0.347
 48581,0.00722736,-0.00136416,-0.00820203,0.00040238,-0.00140239,0.0004
 5406,-0.00016372,0.00074633,0.00141996,-0.00049097,0.00003225,0.000100
 43,0.00000309,0.00051650,0.00094073,0.00001612,-0.00001542,0.00001699,
 -0.00000119,-0.00000155,0.00000413,0.00000002,-0.00000226,0.00000016,0
 .00000727,-0.00000209,0.00000046,-0.00000745,-0.00000230,-0.00000837,0
 .00000073,0.00000431,0.00000294,-0.00002983,0.00000512,0.00000191,0.00
 003205,-0.00215071,-0.00001265,0.00016068,-0.04345470,0.36725208,-0.00
 007966,0.00003572,-0.00031969,0.00005692,-0.00007252,-0.00008709,-0.00
 011496,-0.00005872,-0.00006672,0.00024124,-0.00008770,-0.00331703,-0.0
 0003480,0.00010215,-0.00035883,0.00003328,0.00001406,-0.00041965,0.000
 04938,-0.00002338,0.00024567,0.00000168,0.00001929,0.00004113,0.000000
 84,-0.00000679,0.00002623,-0.00000427,-0.00002547,0.00005874,0.0000092
 7,0.00001179,0.00019369,-0.00051922,-0.00003696,0.00245474,-0.00042578
 ,0.00712962,-0.03193050,-0.00071785,0.00100524,-0.00012450,0.00058812,
 0.00001625,-0.00233068,-0.00030136,-0.00093410,0.00477892,-0.00000196,
 -0.00000098,0.00011951,0.00006377,-0.00002965,0.00125437,0.00000004,0.
 00001043,0.00001127,-0.00000012,0.00000091,-0.00000082,0.00000158,0.00
 000173,-0.00000436,-0.00000202,0.00000126,-0.00000522,-0.00000151,-0.0
 0000147,-0.00003062,0.00002263,-0.00001472,-0.00004324,-0.00002081,0.0
 0001209,-0.00003474,0.00009826,-0.00010121,0.00659455,0.00141839,-0.00
 774159,0.02255226,-0.00168054,0.00026912,0.00001328,0.00019863,-0.0014
 9963,-0.00001253,-0.00101786,-0.00049512,-0.00010026,0.00221769,-0.000
 82147,0.00001109,-0.00059472,0.00083047,0.00003896,0.00068064,0.001297
 01,0.00001310,0.00147541,-0.00046096,-0.00000994,0.00037493,0.00077385
 ,0.00002005,0.00006958,-0.00035228,-0.00000587,0.00011313,-0.00088955,
 -0.00000420,0.00019585,0.00035074,-0.00000354,-0.00431961,-0.00052605,
 0.00065309,0.00472412,-0.00393812,-0.00063180,-0.03782285,0.01375694,-
 0.00662891,-0.42011419,0.12335904,-0.11066394,0.00546661,0.00365869,0.
 00058523,-0.00004355,0.00001189,-0.00000588,-0.00005164,0.00001359,-0.
 00001189,-0.00010379,0.00026969,0.00000093,0.00001676,0.00002491,0.000
 00048,-0.00003507,0.00003793,-0.00000175,-0.00003572,0.00003680,0.0000
 0287,0.00001134,-0.00002725,0.00000023,-0.00004849,-0.00001882,0.00000
 372,-0.00004898,-0.00001805,-0.00000212,-0.00012507,-0.00006541,-0.000
 07943,0.00039070,-0.00004334,-0.00022077,0.44860669,0.00017622,-0.0000
 3700,-0.00001422,-0.00004270,0.00018504,0.00001845,0.00011713,0.000114
 90,-0.00006632,-0.00040186,-0.00014074,-0.00030824,0.00016312,-0.00017
 326,0.00001277,-0.00014830,-0.00009101,0.00001276,-0.00014430,0.000039
 14,-0.00000020,-0.00003998,-0.00012202,0.00001647,-0.00002500,0.000072
 13,-0.00000249,0.00001093,-0.00000198,0.00000471,0.00000467,0.00000316
 ,0.00000824,-0.00022350,0.00105469,0.00074603,-0.00233391,-0.00329004,
 0.00122093,-0.03618922,0.00925643,-0.00968524,0.17180923,-0.09528318,0
 .05614261,0.00160792,0.00020038,0.00099895,-0.00001412,-0.00001646,-0.
 00000876,-0.00001209,0.00002368,0.00000290,0.00000512,-0.00002181,0.00
 000279,0.00000004,-0.00000535,0.00000056,0.00000331,-0.00000486,-0.000
 00785,0.00000244,-0.00000638,0.00000723,0.00000431,0.00000171,-0.00000
 040,0.,0.00000604,-0.00000160,-0.00000097,0.00000587,-0.00000152,-0.00
 004157,-0.00000518,0.00010201,-0.00017388,0.00023068,-0.00006404,-0.13
 304256,0.09144575,0.00056899,-0.00009495,-0.00000785,-0.00012627,0.000
 52027,0.00007833,0.00041479,0.00019031,-0.00038148,-0.00082266,0.00027
 925,-0.00060723,0.00028943,-0.00034358,0.00011392,-0.00028581,-0.00040
 483,0.00001740,-0.00047460,0.00014867,-0.00002115,-0.00009948,-0.00025
 379,0.00005104,-0.00002588,0.00011723,0.00001357,-0.00001028,0.0002429
 7,-0.00000216,-0.00005459,-0.00009814,0.00002943,0.00214871,0.00056800
 ,0.00254723,-0.00076848,0.00105015,0.00307024,0.00992394,-0.00103873,-
 0.00355866,-0.12792079,0.04730880,-0.03891385,0.00020576,0.00089867,-0
 .00328907,0.00000227,-0.00001324,-0.00002241,0.00000235,0.00001880,-0.
 00001240,0.00002617,-0.00008884,0.00001286,-0.00000325,-0.00000921,0.0
 0000231,0.00001178,-0.00001354,-0.00000727,0.00000610,-0.00001287,0.00
 000026,-0.00000065,0.00000873,0.00000100,0.00001154,0.00000858,-0.0000
 0185,0.00001166,0.00000778,-0.00000707,-0.00006419,-0.00000737,0.00012
 316,-0.00005204,0.00004926,-0.00092777,0.11751356,-0.04748989,0.039614
 32,-0.00140032,0.00026574,0.00001373,0.00017731,-0.00124796,-0.0000150
 4,-0.00077612,-0.00046915,0.00001104,0.00189532,-0.00026831,-0.0001017
 4,-0.00057572,0.00071438,-0.00010556,0.00056467,0.00105213,0.00002620,
 0.00122841,-0.00038777,-0.00000766,0.00032702,0.00065902,-0.00000529,0
 .00005887,-0.00030537,0.00000845,0.00007825,-0.00070975,0.00000322,0.0
 0015726,0.00028105,0.00000160,-0.00292490,-0.00149171,0.00018848,0.006
 88127,0.00099831,0.00142475,-0.01283576,0.00326550,-0.00019830,0.00127
 947,-0.00457050,0.00009048,-0.44588202,0.12202732,0.13547195,-0.000035
 48,0.00001319,0.00001178,-0.00004225,-0.00001133,-0.00000340,-0.000083
 70,0.00022385,0.00000363,0.00001461,0.00002136,-0.00000083,-0.00003119
 ,0.00003094,-0.00000243,-0.00003069,0.00003220,-0.00000018,0.00000734,
 -0.00002263,0.00000012,-0.00003911,-0.00001612,0.00000132,-0.00003793,
 -0.00001560,-0.00000243,0.00021366,0.00019537,0.00020498,-0.00024864,-
 0.00007448,-0.00014028,0.00150001,-0.00107044,-0.00042810,0.45056034,0
 .00081447,-0.00011165,-0.00006348,-0.00000332,0.00072272,0.00002642,0.
 00035788,0.00029396,0.00003066,-0.00086640,0.00044739,-0.00030849,0.00
 017837,-0.00040661,0.00005391,-0.00034695,-0.00052204,0.00000946,-0.00
 070200,0.00020486,0.00002569,-0.00023878,-0.00050684,-0.00000388,-0.00
 006795,0.00025955,0.00000527,-0.00008543,0.00035936,0.00000417,-0.0000
 5900,-0.00013015,0.00000099,0.00050318,0.00044514,-0.00022778,-0.00376
 226,-0.00552895,0.00075892,0.05070271,-0.01711972,-0.01267933,-0.00250
 175,0.00414785,0.00116354,0.07583251,-0.06097585,-0.01881950,0.0000309
 5,0.00001684,0.00001370,0.00002595,0.00001710,0.00003220,0.00005804,-0
 .00011325,-0.00000164,-0.00001113,-0.00001536,-0.00000050,0.00002156,-
 0.00001772,-0.00001133,0.00002170,-0.00001742,0.00000793,-0.00000340,0
 .00001141,-0.00000062,0.00002160,0.00001037,-0.00000776,0.00002116,0.0
 0001062,0.00000551,0.00050237,0.00048214,0.00029823,0.00116725,-0.0000
 4918,0.00083875,-0.00249207,-0.00344030,-0.00154851,-0.11911924,0.0815
 2574,-0.00054099,0.00013985,-0.00000705,0.00011464,-0.00053193,-0.0000
 2134,-0.00037071,-0.00019595,-0.00009764,0.00083227,-0.00009428,0.0001
 3156,-0.00028571,0.00035032,0.00013953,0.00022578,0.00040422,-0.000103
 93,0.00047693,-0.00015937,0.00002489,0.00010650,0.00024855,-0.00001591
 ,0.00002416,-0.00011296,0.00004040,0.00000512,-0.00026407,-0.00003603,
 0.00007009,0.00011366,0.00003872,-0.00155611,-0.00088919,-0.00067285,0
 .00228672,0.00276818,0.00213532,-0.01014364,0.00600911,-0.00301147,0.0
 0017671,0.00086860,-0.00308586,0.14599811,-0.03788970,-0.04682869,-0.0
 0000527,0.00001031,0.00004291,0.00000108,-0.00003128,0.00010544,-0.000
 02412,0.00009117,0.00000587,0.00000464,0.00000852,-0.00000018,-0.00000
 832,0.00001362,-0.00000518,-0.00001202,0.00001192,-0.00000863,0.000000
 85,-0.00000923,-0.00000050,-0.00001285,-0.00000475,-0.00000877,-0.0000
 1254,-0.00000838,-0.00000047,0.00030520,0.00005144,-0.00002919,-0.0007
 3228,0.00035082,0.00167035,-0.00047378,-0.00164666,0.00208515,-0.13645
 049,0.03039747,0.04751355\\-0.00001049,0.00000678,0.00000218,-0.000075
 47,-0.00014105,0.00000187,0.00000241,0.00002319,-0.00000191,-0.0000108
 2,0.00003935,0.00000078,-0.00000230,-0.00004634,-0.00000234,-0.0000350
 6,0.00013859,0.00000172,0.00005961,-0.00000211,0.00000020,0.00007097,0
 .00009921,-0.00000522,0.00000006,-0.00004922,0.00000348,0.00003616,-0.
 00010203,-0.00000455,-0.00000428,0.00001448,0.00000178,0.00000223,-0.0
 0001076,0.00000417,0.00007012,-0.00002870,-0.00000316,-0.00014170,-0.0
 0003424,0.00000077,0.00005021,0.00007680,0.00000111,-0.00001050,0.0000
 1718,0.00000358,0.00000616,0.00001497,0.00000074,-0.00000645,-0.000010
 02,0.00000157,-0.00001860,-0.00000234,-0.00000031,0.00000955,0.0000049
 4,0.00000059,-0.00000102,0.00000191,0.00000241,0.00000013,0.00000297,-
 0.00000250,-0.00000142,-0.00001063,-0.00000072,-0.00000417,-0.00000117
 ,-0.00000283,-0.00000464,-0.00000066,0.00000150,0.00000392,0.00000680,
 0.00000190,-0.00000174,-0.00000344,-0.00000135,0.00000830,-0.00000575,
 -0.00000307,0.00000883,0.00000129,-0.00000238\\\@


 STEINBACH'S GUIDELINES FOR SYSTEMS PROGRAMMING:
 NEVER TEST FOR AN ERROR CONDITION YOU DON'T KNOW HOW
 TO HANDLE.
 Job cpu time:       0 days  2 hours 20 minutes 38.9 seconds.
 File lengths (MBytes):  RWF=    391 Int=      0 D2E=      0 Chk=     11 Scr=      1
 Normal termination of Gaussian 09 at Mon May 20 00:04:32 2024.
