 Entering Gaussian System, Link 0=g09
 Input=b3lypSAgd3.gjf
 Output=b3lypSAgd3.log
 Initial command:
 /home/c612/g09E/g09/l1.exe "/mnt/ja_sm883/scratch/Gau-225518.inp" -scrdir="/mnt/ja_sm883/scratch/"
 Default is to use a total of  18 processors:
                               18 via shared-memory
                                1 via Linda
 Entering Link 1 = /home/c612/g09E/g09/l1.exe PID=    225520.
  
 Copyright (c) 1988,1990,1992,1993,1995,1998,2003,2009,2015,
            Gaussian, Inc.  All Rights Reserved.
  
 This is part of the Gaussian(R) 09 program.  It is based on
 the Gaussian(R) 03 system (copyright 2003, Gaussian, Inc.),
 the Gaussian(R) 98 system (copyright 1998, Gaussian, Inc.),
 the Gaussian(R) 94 system (copyright 1995, Gaussian, Inc.),
 the Gaussian 92(TM) system (copyright 1992, Gaussian, Inc.),
 the Gaussian 90(TM) system (copyright 1990, Gaussian, Inc.),
 the Gaussian 88(TM) system (copyright 1988, Gaussian, Inc.),
 the Gaussian 86(TM) system (copyright 1986, Carnegie Mellon
 University), and the Gaussian 82(TM) system (copyright 1983,
 Carnegie Mellon University). Gaussian is a federally registered
 trademark of Gaussian, Inc.
  
 This software contains proprietary and confidential information,
 including trade secrets, belonging to Gaussian, Inc.
  
 This software is provided under written license and may be
 used, copied, transmitted, or stored only in accord with that
 written license.
  
 The following legend is applicable only to US Government
 contracts under FAR:
  
                    RESTRICTED RIGHTS LEGEND
  
 Use, reproduction and disclosure by the US Government is
 subject to restrictions as set forth in subparagraphs (a)
 and (c) of the Commercial Computer Software - Restricted
 Rights clause in FAR 52.227-19.
  
 Gaussian, Inc.
 340 Quinnipiac St., Bldg. 40, Wallingford CT 06492
  
  
 ---------------------------------------------------------------
 Warning -- This program may not be used in any manner that
 competes with the business of Gaussian, Inc. or will provide
 assistance to any competitor of Gaussian, Inc.  The licensee
 of this program is prohibited from giving any competitor of
 Gaussian, Inc. access to this program.  By using this program,
 the user acknowledges that Gaussian, Inc. is engaged in the
 business of creating and licensing software in the field of
 computational chemistry and represents and warrants to the
 licensee that it is not a competitor of Gaussian, Inc. and that
 it will not use this program in any manner prohibited above.
 ---------------------------------------------------------------
  

 Cite this work as:
 Gaussian 09, Revision E.01,
 M. J. Frisch, G. W. Trucks, H. B. Schlegel, G. E. Scuseria, 
 M. A. Robb, J. R. Cheeseman, G. Scalmani, V. Barone, B. Mennucci, 
 G. A. Petersson, H. Nakatsuji, M. Caricato, X. Li, H. P. Hratchian, 
 A. F. Izmaylov, J. Bloino, G. Zheng, J. L. Sonnenberg, M. Hada, 
 M. Ehara, K. Toyota, R. Fukuda, J. Hasegawa, M. Ishida, T. Nakajima, 
 Y. Honda, O. Kitao, H. Nakai, T. Vreven, J. A. Montgomery, Jr., 
 J. E. Peralta, F. Ogliaro, M. Bearpark, J. J. Heyd, E. Brothers, 
 K. N. Kudin, V. N. Staroverov, T. Keith, R. Kobayashi, J. Normand, 
 K. Raghavachari, A. Rendell, J. C. Burant, S. S. Iyengar, J. Tomasi, 
 M. Cossi, N. Rega, J. M. Millam, M. Klene, J. E. Knox, J. B. Cross, 
 V. Bakken, C. Adamo, J. Jaramillo, R. Gomperts, R. E. Stratmann, 
 O. Yazyev, A. J. Austin, R. Cammi, C. Pomelli, J. W. Ochterski, 
 R. L. Martin, K. Morokuma, V. G. Zakrzewski, G. A. Voth, 
 P. Salvador, J. J. Dannenberg, S. Dapprich, A. D. Daniels, 
 O. Farkas, J. B. Foresman, J. V. Ortiz, J. Cioslowski, 
 and D. J. Fox, Gaussian, Inc., Wallingford CT, 2013.
 
 ******************************************
 Gaussian 09:  ES64L-G09RevE.01 30-Nov-2015
                19-Jun-2024 
 ******************************************
 %chk=b3lypSAgd3.chk
 ----------------------------
 # opt freq b3lyp/6-31+g(d,p)
 ----------------------------
 1/14=-1,18=20,19=15,26=3,38=1/1,3;
 2/9=110,12=2,17=6,18=5,40=1/2;
 3/5=1,6=6,7=111,11=2,16=1,25=1,30=1,71=1,74=-5/1,2,3;
 4//1;
 5/5=2,38=5/2;
 6/7=2,8=2,9=2,10=2,28=1/1;
 7//1,2,3,16;
 1/14=-1,18=20,19=15,26=3/3(2);
 2/9=110/2;
 99//99;
 2/9=110/2;
 3/5=1,6=6,7=111,11=2,16=1,25=1,30=1,71=1,74=-5/1,2,3;
 4/5=5,16=3,69=1/1;
 5/5=2,38=5/2;
 7//1,2,3,16;
 1/14=-1,18=20,19=15,26=3/3(-5);
 2/9=110/2;
 6/7=2,8=2,9=2,10=2,19=2,28=1/1;
 99/9=1/99;
 ----------
 [No Title]
 ----------
 Symbolic Z-matrix:
 Charge =  0 Multiplicity = 1
 C                    -1.49971   1.21048  -0.00125 
 C                    -1.76489  -0.11605  -0.00083 
 C                    -0.72976  -0.97677  -0.00049 
 C                     0.55453  -0.57817  -0.00062 
 C                     0.7556    0.74948  -0.00096 
 C                    -0.22752   1.6725   -0.00122 
 O                    -2.57685   2.04253  -0.00135 
 O                    -3.0886   -0.49936  -0.00078 
 C                    -3.41651  -1.86962  -0.00029 
 O                     0.20199   2.98357  -0.00141 
 C                    -0.67518   4.08104  -0.00049 
 C                     1.53887  -1.50403  -0.00038 
 C                     2.8678   -1.28973  -0.00103 
 C                     3.81135  -2.27194  -0.00076 
 O                     5.13194  -1.96573  -0.00176 
 O                     3.54601  -3.45473   0.00035 
 H                    -0.9371   -2.05813  -0.00015 
 H                     1.7804    1.15333  -0.00095 
 H                    -2.28118   2.96025   0.00126 
 H                    -4.52673  -1.95161  -0.0004 
 H                    -3.03585  -2.36094  -0.92343 
 H                    -3.03606  -2.36021   0.92333 
 H                    -0.05435   5.00536  -0.00081 
 H                    -1.28416   4.09242  -0.9318 
 H                    -1.2826    4.09204   0.93185 
 H                     1.22076  -2.56191   0.00031 
 H                     3.2857   -0.27092  -0.00195 
 H                     5.63591  -2.7955   -0.0015 
 

 GradGradGradGradGradGradGradGradGradGradGradGradGradGradGradGradGradGrad
 Berny optimization.
 Initialization pass.
                           ----------------------------
                           !    Initial Parameters    !
                           ! (Angstroms and Degrees)  !
 --------------------------                            --------------------------
 ! Name  Definition              Value          Derivative Info.                !
 --------------------------------------------------------------------------------
 ! R1    R(1,2)                  1.3528         estimate D2E/DX2                !
 ! R2    R(1,6)                  1.3535         estimate D2E/DX2                !
 ! R3    R(1,7)                  1.3611         estimate D2E/DX2                !
 ! R4    R(2,3)                  1.3462         estimate D2E/DX2                !
 ! R5    R(2,8)                  1.3781         estimate D2E/DX2                !
 ! R6    R(3,4)                  1.3447         estimate D2E/DX2                !
 ! R7    R(3,17)                 1.1011         estimate D2E/DX2                !
 ! R8    R(4,5)                  1.3428         estimate D2E/DX2                !
 ! R9    R(4,12)                 1.3513         estimate D2E/DX2                !
 ! R10   R(5,6)                  1.3485         estimate D2E/DX2                !
 ! R11   R(5,18)                 1.1015         estimate D2E/DX2                !
 ! R12   R(6,10)                 1.3796         estimate D2E/DX2                !
 ! R13   R(7,19)                 0.9642         estimate D2E/DX2                !
 ! R14   R(8,9)                  1.409          estimate D2E/DX2                !
 ! R15   R(9,20)                 1.1132         estimate D2E/DX2                !
 ! R16   R(9,21)                 1.1129         estimate D2E/DX2                !
 ! R17   R(9,22)                 1.1129         estimate D2E/DX2                !
 ! R18   R(10,11)                1.4049         estimate D2E/DX2                !
 ! R19   R(11,23)                1.1135         estimate D2E/DX2                !
 ! R20   R(11,24)                1.1128         estimate D2E/DX2                !
 ! R21   R(11,25)                1.1128         estimate D2E/DX2                !
 ! R22   R(12,13)                1.3461         estimate D2E/DX2                !
 ! R23   R(12,26)                1.1047         estimate D2E/DX2                !
 ! R24   R(13,14)                1.362          estimate D2E/DX2                !
 ! R25   R(13,27)                1.1012         estimate D2E/DX2                !
 ! R26   R(14,15)                1.3556         estimate D2E/DX2                !
 ! R27   R(14,16)                1.2122         estimate D2E/DX2                !
 ! R28   R(15,28)                0.9708         estimate D2E/DX2                !
 ! A1    A(2,1,6)              121.2643         estimate D2E/DX2                !
 ! A2    A(2,1,7)              116.3802         estimate D2E/DX2                !
 ! A3    A(6,1,7)              122.3555         estimate D2E/DX2                !
 ! A4    A(1,2,3)              118.4392         estimate D2E/DX2                !
 ! A5    A(1,2,8)              117.4542         estimate D2E/DX2                !
 ! A6    A(3,2,8)              124.1066         estimate D2E/DX2                !
 ! A7    A(2,3,4)              123.0138         estimate D2E/DX2                !
 ! A8    A(2,3,17)             118.8894         estimate D2E/DX2                !
 ! A9    A(4,3,17)             118.0967         estimate D2E/DX2                !
 ! A10   A(3,4,5)              115.8544         estimate D2E/DX2                !
 ! A11   A(3,4,12)             119.5113         estimate D2E/DX2                !
 ! A12   A(5,4,12)             124.6342         estimate D2E/DX2                !
 ! A13   A(4,5,6)              124.5823         estimate D2E/DX2                !
 ! A14   A(4,5,18)             120.1203         estimate D2E/DX2                !
 ! A15   A(6,5,18)             115.2975         estimate D2E/DX2                !
 ! A16   A(1,6,5)              116.8461         estimate D2E/DX2                !
 ! A17   A(1,6,10)             128.0986         estimate D2E/DX2                !
 ! A18   A(5,6,10)             115.0554         estimate D2E/DX2                !
 ! A19   A(1,7,19)             109.8268         estimate D2E/DX2                !
 ! A20   A(2,8,9)              119.6075         estimate D2E/DX2                !
 ! A21   A(8,9,20)             107.6813         estimate D2E/DX2                !
 ! A22   A(8,9,21)             110.4548         estimate D2E/DX2                !
 ! A23   A(8,9,22)             110.4535         estimate D2E/DX2                !
 ! A24   A(20,9,21)            107.9709         estimate D2E/DX2                !
 ! A25   A(20,9,22)            107.9717         estimate D2E/DX2                !
 ! A26   A(21,9,22)            112.1413         estimate D2E/DX2                !
 ! A27   A(6,10,11)            123.2271         estimate D2E/DX2                !
 ! A28   A(10,11,23)           107.4785         estimate D2E/DX2                !
 ! A29   A(10,11,24)           110.4333         estimate D2E/DX2                !
 ! A30   A(10,11,25)           110.4299         estimate D2E/DX2                !
 ! A31   A(23,11,24)           107.2413         estimate D2E/DX2                !
 ! A32   A(23,11,25)           107.2402         estimate D2E/DX2                !
 ! A33   A(24,11,25)           113.7264         estimate D2E/DX2                !
 ! A34   A(4,12,13)            127.5932         estimate D2E/DX2                !
 ! A35   A(4,12,26)            116.5099         estimate D2E/DX2                !
 ! A36   A(13,12,26)           115.897          estimate D2E/DX2                !
 ! A37   A(12,13,14)           124.6894         estimate D2E/DX2                !
 ! A38   A(12,13,27)           121.4632         estimate D2E/DX2                !
 ! A39   A(14,13,27)           113.8474         estimate D2E/DX2                !
 ! A40   A(13,14,15)           120.7951         estimate D2E/DX2                !
 ! A41   A(13,14,16)           123.5059         estimate D2E/DX2                !
 ! A42   A(15,14,16)           115.699          estimate D2E/DX2                !
 ! A43   A(14,15,28)           108.2181         estimate D2E/DX2                !
 ! D1    D(6,1,2,3)             -0.0058         estimate D2E/DX2                !
 ! D2    D(6,1,2,8)            179.9944         estimate D2E/DX2                !
 ! D3    D(7,1,2,3)           -179.989          estimate D2E/DX2                !
 ! D4    D(7,1,2,8)              0.0112         estimate D2E/DX2                !
 ! D5    D(2,1,6,5)              0.0099         estimate D2E/DX2                !
 ! D6    D(2,1,6,10)          -179.989          estimate D2E/DX2                !
 ! D7    D(7,1,6,5)            179.992          estimate D2E/DX2                !
 ! D8    D(7,1,6,10)            -0.0068         estimate D2E/DX2                !
 ! D9    D(2,1,7,19)           179.8158         estimate D2E/DX2                !
 ! D10   D(6,1,7,19)            -0.1672         estimate D2E/DX2                !
 ! D11   D(1,2,3,4)             -0.0036         estimate D2E/DX2                !
 ! D12   D(1,2,3,17)          -179.9995         estimate D2E/DX2                !
 ! D13   D(8,2,3,4)            179.9962         estimate D2E/DX2                !
 ! D14   D(8,2,3,17)             0.0004         estimate D2E/DX2                !
 ! D15   D(1,2,8,9)           -179.9978         estimate D2E/DX2                !
 ! D16   D(3,2,8,9)              0.0024         estimate D2E/DX2                !
 ! D17   D(2,3,4,5)              0.008          estimate D2E/DX2                !
 ! D18   D(2,3,4,12)          -179.9942         estimate D2E/DX2                !
 ! D19   D(17,3,4,5)          -179.9961         estimate D2E/DX2                !
 ! D20   D(17,3,4,12)            0.0017         estimate D2E/DX2                !
 ! D21   D(3,4,5,6)             -0.0034         estimate D2E/DX2                !
 ! D22   D(3,4,5,18)           179.9916         estimate D2E/DX2                !
 ! D23   D(12,4,5,6)           179.9989         estimate D2E/DX2                !
 ! D24   D(12,4,5,18)           -0.006          estimate D2E/DX2                !
 ! D25   D(3,4,12,13)          179.9697         estimate D2E/DX2                !
 ! D26   D(3,4,12,26)           -0.022          estimate D2E/DX2                !
 ! D27   D(5,4,12,13)           -0.0327         estimate D2E/DX2                !
 ! D28   D(5,4,12,26)          179.9756         estimate D2E/DX2                !
 ! D29   D(4,5,6,1)             -0.0052         estimate D2E/DX2                !
 ! D30   D(4,5,6,10)           179.9938         estimate D2E/DX2                !
 ! D31   D(18,5,6,1)           179.9995         estimate D2E/DX2                !
 ! D32   D(18,5,6,10)           -0.0015         estimate D2E/DX2                !
 ! D33   D(1,6,10,11)            0.0574         estimate D2E/DX2                !
 ! D34   D(5,6,10,11)         -179.9414         estimate D2E/DX2                !
 ! D35   D(2,8,9,20)          -179.9965         estimate D2E/DX2                !
 ! D36   D(2,8,9,21)           -62.3171         estimate D2E/DX2                !
 ! D37   D(2,8,9,22)            62.3238         estimate D2E/DX2                !
 ! D38   D(6,10,11,23)         179.9952         estimate D2E/DX2                !
 ! D39   D(6,10,11,24)         -63.3303         estimate D2E/DX2                !
 ! D40   D(6,10,11,25)          63.3238         estimate D2E/DX2                !
 ! D41   D(4,12,13,14)        -179.9984         estimate D2E/DX2                !
 ! D42   D(4,12,13,27)          -0.0054         estimate D2E/DX2                !
 ! D43   D(26,12,13,14)         -0.0066         estimate D2E/DX2                !
 ! D44   D(26,12,13,27)        179.9864         estimate D2E/DX2                !
 ! D45   D(12,13,14,15)        179.9855         estimate D2E/DX2                !
 ! D46   D(12,13,14,16)         -0.0139         estimate D2E/DX2                !
 ! D47   D(27,13,14,15)         -0.0079         estimate D2E/DX2                !
 ! D48   D(27,13,14,16)        179.9926         estimate D2E/DX2                !
 ! D49   D(13,14,15,28)       -179.9915         estimate D2E/DX2                !
 ! D50   D(16,14,15,28)          0.008          estimate D2E/DX2                !
 --------------------------------------------------------------------------------
 Trust Radius=3.00D-01 FncErr=1.00D-07 GrdErr=1.00D-06
 Number of steps in this run=    131 maximum allowed number of steps=    168.
 GradGradGradGradGradGradGradGradGradGradGradGradGradGradGradGradGradGrad

                          Input orientation:                          
 ---------------------------------------------------------------------
 Center     Atomic      Atomic             Coordinates (Angstroms)
 Number     Number       Type             X           Y           Z
 ---------------------------------------------------------------------
      1          6           0       -1.499708    1.210479   -0.001253
      2          6           0       -1.764887   -0.116050   -0.000828
      3          6           0       -0.729759   -0.976768   -0.000488
      4          6           0        0.554528   -0.578174   -0.000623
      5          6           0        0.755602    0.749475   -0.000956
      6          6           0       -0.227518    1.672503   -0.001222
      7          8           0       -2.576846    2.042532   -0.001351
      8          8           0       -3.088604   -0.499362   -0.000775
      9          6           0       -3.416510   -1.869624   -0.000292
     10          8           0        0.201990    2.983566   -0.001408
     11          6           0       -0.675176    4.081038   -0.000492
     12          6           0        1.538870   -1.504031   -0.000378
     13          6           0        2.867796   -1.289732   -0.001026
     14          6           0        3.811346   -2.271941   -0.000760
     15          8           0        5.131940   -1.965726   -0.001758
     16          8           0        3.546005   -3.454730    0.000345
     17          1           0       -0.937104   -2.058132   -0.000150
     18          1           0        1.780404    1.153325   -0.000946
     19          1           0       -2.281176    2.960245    0.001256
     20          1           0       -4.526733   -1.951609   -0.000401
     21          1           0       -3.035846   -2.360937   -0.923431
     22          1           0       -3.036064   -2.360210    0.923325
     23          1           0       -0.054350    5.005359   -0.000809
     24          1           0       -1.284155    4.092421   -0.931801
     25          1           0       -1.282595    4.092036    0.931847
     26          1           0        1.220759   -2.561905    0.000307
     27          1           0        3.285695   -0.270924   -0.001954
     28          1           0        5.635911   -2.795496   -0.001504
 ---------------------------------------------------------------------
                    Distance matrix (angstroms):
                    1          2          3          4          5
     1  C    0.000000
     2  C    1.352775   0.000000
     3  C    2.318808   1.346226   0.000000
     4  C    2.723815   2.365004   1.344719   0.000000
     5  C    2.301944   2.664957   2.277326   1.342789   0.000000
     6  C    1.353489   2.358479   2.696458   2.382676   1.348520
     7  O    1.361080   2.306242   3.539478   4.083332   3.574522
     8  O    2.334127   1.378098   2.406671   3.643984   4.041969
     9  C    3.627832   2.408917   2.831223   4.175762   4.926073
    10  O    2.457563   3.670998   4.068464   3.579145   2.301662
    11  C    2.986631   4.336245   5.058101   4.818758   3.625802
    12  C    4.074496   3.583476   2.329095   1.351348   2.385749
    13  C    5.032509   4.779046   3.611142   2.420232   2.935937
    14  C    6.350948   5.978481   4.722193   3.670928   4.297270
    15  O    7.353029   7.140555   5.944540   4.783095   5.150209
    16  O    6.871928   6.273146   4.941908   4.150122   5.045958
    17  H    3.316676   2.111139   1.101063   2.101248   3.278401
    18  H    3.280610   3.765687   3.292144   2.121523   1.101505
    19  H    1.916345   3.119319   4.231663   4.534493   3.756265
    20  H    4.377406   3.316183   3.920118   5.263605   5.932868
    21  H    3.995641   2.739717   2.843551   4.113466   4.990060
    22  H    3.995629   2.739745   2.843657   4.113597   4.990107
    23  H    4.060810   5.399515   6.020135   5.616634   4.332271
    24  H    3.036111   4.336939   5.183761   5.105125   4.025217
    25  H    3.036640   4.337105   5.183401   5.104447   4.024560
    26  H    4.651002   3.859571   2.513400   2.092619   3.343891
    27  H    5.009455   5.052956   4.077020   2.748395   2.728110
    28  H    8.183208   7.870911   6.620387   5.544093   6.031935
                    6          7          8          9         10
     6  C    0.000000
     7  O    2.378290   0.000000
     8  O    3.592048   2.592898   0.000000
     9  C    4.766166   4.001250   1.408950   0.000000
    10  O    1.379624   2.933850   4.791534   6.053676   0.000000
    11  C    2.449783   2.787805   5.177325   6.551739   1.404943
    12  C    3.634625   5.432976   4.735280   4.968848   4.682497
    13  C    4.284368   6.383425   6.008609   6.311004   5.036626
    14  C    5.645446   7.708675   7.123998   7.239044   6.375563
    15  O    6.477693   8.688585   8.350303   8.548990   6.985692
    16  O    6.366160   8.228560   7.263074   7.140671   7.254936
    17  H    3.797519   4.416356   2.656825   2.486562   5.168777
    18  H    2.073957   4.447057   5.141849   6.012166   2.416852
    19  H    2.424004   0.964170   3.552580   4.961514   2.483277
    20  H    5.622939   4.444685   2.043829   1.113246   6.834967
    21  H    5.000581   4.522328   2.078350   1.112870   6.316441
    22  H    5.000549   4.522172   2.078335   1.112871   6.316333
    23  H    3.337352   3.891186   6.285591   7.653072   2.037979
    24  H    2.799725   2.595926   5.020689   6.400049   2.074564
    25  H    2.799633   2.597385   5.021194   6.400302   2.074527
    26  H    4.475234   5.968471   4.777520   4.688658   5.638275
    27  H    4.014919   6.302497   6.378391   6.890239   4.483407
    28  H    7.371758   9.531836   9.021607   9.099646   7.932531
                   11         12         13         14         15
    11  C    0.000000
    12  C    6.007911   0.000000
    13  C    6.434114   1.346094   0.000000
    14  C    7.777482   2.398715   1.361992   0.000000
    15  O    8.383672   3.622612   2.362904   1.355632   0.000000
    16  O    8.637486   2.798896   2.268741   1.212187   2.175391
    17  H    6.144755   2.537218   3.881714   4.753261   6.069748
    18  H    3.821175   2.668310   2.674126   3.982107   4.578348
    19  H    1.958422   5.875586   6.676393   8.030853   8.900533
    20  H    7.157326   6.082094   7.424092   8.344230   9.658683
    21  H    6.922689   4.744928   6.070527   6.909651   8.229119
    22  H    6.922204   4.745133   6.070907   6.910047   8.229683
    23  H    1.113461   6.701530   6.940253   8.240310   8.688707
    24  H    1.112799   6.336978   6.860948   8.205856   8.873128
    25  H    1.112805   6.336061   6.859987   8.204767   8.872111
    26  H    6.908203   1.104668   2.081143   2.606765   3.956358
    27  H    5.884562   2.138213   1.101186   2.068908   2.506187
    28  H    9.333624   4.295769   3.151156   1.898196   0.970827
                   16         17         18         19         20
    16  O    0.000000
    17  H    4.695610   0.000000
    18  H    4.934726   4.206936   0.000000
    19  H    8.666484   5.195252   4.445379   0.000000
    20  H    8.211484   3.591209   7.029978   5.400818   0.000000
    21  H    6.735763   2.312760   6.033016   5.453398   1.800633
    22  H    6.735985   2.312940   6.033040   5.452276   1.800644
    23  H    9.194328   7.118438   4.266672   3.023450   8.270527
    24  H    9.008820   6.230387   4.346987   1.773829   6.921858
    25  H    9.007594   6.229972   4.346043   1.773165   6.922367
    26  H    2.490764   2.215888   3.757145   6.538936   5.779803
    27  H    3.194431   4.585428   2.072290   6.436654   7.991166
    28  H    2.191415   6.614245   5.518888   9.788198  10.197621
                   21         22         23         24         25
    21  H    0.000000
    22  H    1.846756   0.000000
    23  H    8.000179   7.999766   0.000000
    24  H    6.686877   6.938813   1.792379   0.000000
    25  H    6.939511   6.686270   1.792370   1.863649   0.000000
    26  H    4.360317   4.360411   7.673942   7.171016   7.170040
    27  H    6.721544   6.722045   6.244603   6.386464   6.385662
    28  H    8.731447   8.732006   9.655693   9.807964   9.806884
                   26         27         28
    26  H    0.000000
    27  H    3.084244   0.000000
    28  H    4.421327   3.449200   0.000000
 Stoichiometry    C11H12O5
 Framework group  C1[X(C11H12O5)]
 Deg. of freedom    78
 Full point group                 C1      NOp   1
 Largest Abelian subgroup         C1      NOp   1
 Largest concise Abelian subgroup C1      NOp   1
                         Standard orientation:                         
 ---------------------------------------------------------------------
 Center     Atomic      Atomic             Coordinates (Angstroms)
 Number     Number       Type             X           Y           Z
 ---------------------------------------------------------------------
      1          6           0        2.164163   -0.126322   -0.000459
      2          6           0        1.659121    1.128641   -0.000034
      3          6           0        0.321595    1.281447    0.000306
      4          6           0       -0.534319    0.244296    0.000171
      5          6           0        0.024962   -0.976477   -0.000162
      6          6           0        1.353125   -1.209904   -0.000428
      7          8           0        3.521124   -0.232131   -0.000557
      8          8           0        2.556393    2.174613    0.000019
      9          6           0        2.079859    3.500530    0.000502
     10          8           0        1.712229   -2.541973   -0.000614
     11          6           0        3.047347   -2.979382    0.000302
     12          6           0       -1.865054    0.479420    0.000416
     13          6           0       -2.859294   -0.428025   -0.000232
     14          6           0       -4.186784   -0.123410    0.000034
     15          8           0       -5.123688   -1.103179   -0.000964
     16          8           0       -4.612929    1.011401    0.001139
     17          1           0       -0.097488    2.299636    0.000644
     18          1           0       -0.611010   -1.875840   -0.000152
     19          1           0        3.776651   -1.161821    0.002050
     20          1           0        2.963652    4.177455    0.000393
     21          1           0        1.492215    3.702936   -0.922637
     22          1           0        1.492796    3.702447    0.924119
     23          1           0        3.034497   -4.092768   -0.000015
     24          1           0        3.563003   -2.655216   -0.931007
     25          1           0        3.561487   -2.655748    0.932641
     26          1           0       -2.178610    1.538654    0.001101
     27          1           0       -2.650619   -1.509258   -0.001160
     28          1           0       -5.999937   -0.685215   -0.000710
 ---------------------------------------------------------------------
 Rotational constants (GHZ):      0.7965831      0.2726297      0.2036820
 Standard basis: 6-31+G(d,p) (6D, 7F)
 There are   364 symmetry adapted cartesian basis functions of A   symmetry.
 There are   364 symmetry adapted basis functions of A   symmetry.
   364 basis functions,   596 primitive gaussians,   364 cartesian basis functions
    59 alpha electrons       59 beta electrons
       nuclear repulsion energy      1074.7456495122 Hartrees.
 NAtoms=   28 NActive=   28 NUniq=   28 SFac= 1.00D+00 NAtFMM=   60 NAOKFM=F Big=F
 Integral buffers will be    131072 words long.
 Raffenetti 2 integral format.
 Two-electron integral symmetry is turned on.
 One-electron integrals computed using PRISM.
 NBasis=   364 RedAO= T EigKep=  1.14D-06  NBF=   364
 NBsUse=   361 1.00D-06 EigRej=  8.70D-07 NBFU=   361
 ExpMin= 4.38D-02 ExpMax= 5.48D+03 ExpMxC= 8.25D+02 IAcc=2 IRadAn=         4 AccDes= 0.00D+00
 Harris functional with IExCor=  402 and IRadAn=       4 diagonalized for initial guess.
 HarFok:  IExCor=  402 AccDes= 0.00D+00 IRadAn=         4 IDoV= 1 UseB2=F ITyADJ=14
 ICtDFT=  3500011 ScaDFX=  1.000000  1.000000  1.000000  1.000000
 FoFCou: FMM=F IPFlag=           0 FMFlag=      100000 FMFlg1=           0
         NFxFlg=           0 DoJE=T BraDBF=F KetDBF=T FulRan=T
         wScrn=  0.000000 ICntrl=     500 IOpCl=  0 I1Cent=   200000004 NGrid=           0
         NMat0=    1 NMatS0=      1 NMatT0=    0 NMatD0=    1 NMtDS0=    0 NMtDT0=    0
 Petite list used in FoFCou.
 Requested convergence on RMS density matrix=1.00D-08 within 128 cycles.
 Requested convergence on MAX density matrix=1.00D-06.
 Requested convergence on             energy=1.00D-06.
 No special actions if energy rises.
 SCF Done:  E(RB3LYP) =  -802.479147180     A.U. after   15 cycles
            NFock= 15  Conv=0.98D-08     -V/T= 2.0074

 **********************************************************************

            Population analysis using the SCF density.

 **********************************************************************

 Orbital symmetries:
       Occupied  (A) (A) (A) (A) (A) (A) (A) (A) (A) (A) (A) (A)
                 (A) (A) (A) (A) (A) (A) (A) (A) (A) (A) (A) (A)
                 (A) (A) (A) (A) (A) (A) (A) (A) (A) (A) (A) (A)
                 (A) (A) (A) (A) (A) (A) (A) (A) (A) (A) (A) (A)
                 (A) (A) (A) (A) (A) (A) (A) (A) (A) (A) (A)
       Virtual   (A) (A) (A) (A) (A) (A) (A) (A) (A) (A) (A) (A)
                 (A) (A) (A) (A) (A) (A) (A) (A) (A) (A) (A) (A)
                 (A) (A) (A) (A) (A) (A) (A) (A) (A) (A) (A) (A)
                 (A) (A) (A) (A) (A) (A) (A) (A) (A) (A) (A) (A)
                 (A) (A) (A) (A) (A) (A) (A) (A) (A) (A) (A) (A)
                 (A) (A) (A) (A) (A) (A) (A) (A) (A) (A) (A) (A)
                 (A) (A) (A) (A) (A) (A) (A) (A) (A) (A) (A) (A)
                 (A) (A) (A) (A) (A) (A) (A) (A) (A) (A) (A) (A)
                 (A) (A) (A) (A) (A) (A) (A) (A) (A) (A) (A) (A)
                 (A) (A) (A) (A) (A) (A) (A) (A) (A) (A) (A) (A)
                 (A) (A) (A) (A) (A) (A) (A) (A) (A) (A) (A) (A)
                 (A) (A) (A) (A) (A) (A) (A) (A) (A) (A) (A) (A)
                 (A) (A) (A) (A) (A) (A) (A) (A) (A) (A) (A) (A)
                 (A) (A) (A) (A) (A) (A) (A) (A) (A) (A) (A) (A)
                 (A) (A) (A) (A) (A) (A) (A) (A) (A) (A) (A) (A)
                 (A) (A) (A) (A) (A) (A) (A) (A) (A) (A) (A) (A)
                 (A) (A) (A) (A) (A) (A) (A) (A) (A) (A) (A) (A)
                 (A) (A) (A) (A) (A) (A) (A) (A) (A) (A) (A) (A)
                 (A) (A) (A) (A) (A) (A) (A) (A) (A) (A) (A) (A)
                 (A) (A) (A) (A) (A) (A) (A) (A) (A) (A) (A) (A)
                 (A) (A) (A) (A) (A) (A) (A) (A) (A) (A) (A) (A)
                 (A) (A) (A) (A) (A) (A) (A) (A) (A) (A) (A) (A)
                 (A) (A) (A) (A) (A) (A) (A) (A) (A) (A) (A) (A)
                 (A) (A) (A) (A) (A) (A) (A) (A) (A) (A) (A) (A)
                 (A) (A) (A) (A) (A) (A) (A) (A) (A) (A) (A) (A)
                 (A) (A)
 The electronic state is 1-A.
 Alpha  occ. eigenvalues --  -19.20926 -19.19814 -19.19327 -19.18775 -19.12057
 Alpha  occ. eigenvalues --  -10.30327 -10.28238 -10.26603 -10.26506 -10.25794
 Alpha  occ. eigenvalues --  -10.25572 -10.21529 -10.19755 -10.19674 -10.19433
 Alpha  occ. eigenvalues --  -10.19385  -1.10654  -1.10265  -1.08505  -1.06793
 Alpha  occ. eigenvalues --   -0.99937  -0.91106  -0.83791  -0.79745  -0.77857
 Alpha  occ. eigenvalues --   -0.72949  -0.71575  -0.69469  -0.64687  -0.62768
 Alpha  occ. eigenvalues --   -0.58317  -0.56628  -0.55074  -0.53594  -0.52171
 Alpha  occ. eigenvalues --   -0.51070  -0.49659  -0.48427  -0.47568  -0.46799
 Alpha  occ. eigenvalues --   -0.46551  -0.44718  -0.44157  -0.44095  -0.42144
 Alpha  occ. eigenvalues --   -0.41525  -0.40082  -0.39035  -0.38625  -0.37076
 Alpha  occ. eigenvalues --   -0.36646  -0.35061  -0.34510  -0.34034  -0.31304
 Alpha  occ. eigenvalues --   -0.28052  -0.26446  -0.24418  -0.22437
 Alpha virt. eigenvalues --   -0.08044  -0.01461  -0.00611   0.00219   0.00891
 Alpha virt. eigenvalues --    0.01198   0.01917   0.02035   0.02951   0.03744
 Alpha virt. eigenvalues --    0.03798   0.04424   0.04865   0.05988   0.06380
 Alpha virt. eigenvalues --    0.06396   0.07353   0.08234   0.08653   0.08791
 Alpha virt. eigenvalues --    0.09233   0.09867   0.10339   0.10474   0.11587
 Alpha virt. eigenvalues --    0.12010   0.12151   0.12711   0.14004   0.14315
 Alpha virt. eigenvalues --    0.14549   0.14918   0.14958   0.15903   0.17018
 Alpha virt. eigenvalues --    0.17536   0.18138   0.18948   0.18998   0.19071
 Alpha virt. eigenvalues --    0.19249   0.19257   0.20232   0.20511   0.21153
 Alpha virt. eigenvalues --    0.21271   0.21974   0.22772   0.23071   0.23337
 Alpha virt. eigenvalues --    0.23728   0.24378   0.25355   0.25565   0.25721
 Alpha virt. eigenvalues --    0.26226   0.27043   0.27524   0.27638   0.28090
 Alpha virt. eigenvalues --    0.28613   0.29268   0.29477   0.30622   0.30679
 Alpha virt. eigenvalues --    0.30776   0.31023   0.31305   0.31966   0.32865
 Alpha virt. eigenvalues --    0.33916   0.34548   0.34635   0.35022   0.36310
 Alpha virt. eigenvalues --    0.36734   0.37860   0.38293   0.38514   0.39448
 Alpha virt. eigenvalues --    0.40395   0.40915   0.42585   0.43504   0.45246
 Alpha virt. eigenvalues --    0.45868   0.47403   0.49155   0.50155   0.52695
 Alpha virt. eigenvalues --    0.55528   0.59512   0.61983   0.64860   0.65023
 Alpha virt. eigenvalues --    0.65360   0.67332   0.68819   0.68939   0.69553
 Alpha virt. eigenvalues --    0.70290   0.71014   0.72062   0.72819   0.74923
 Alpha virt. eigenvalues --    0.74960   0.76306   0.76601   0.77613   0.78746
 Alpha virt. eigenvalues --    0.80374   0.80541   0.81832   0.85705   0.85971
 Alpha virt. eigenvalues --    0.86327   0.87079   0.88742   0.89825   0.90501
 Alpha virt. eigenvalues --    0.93150   0.95425   0.96011   0.97756   0.99332
 Alpha virt. eigenvalues --    1.00598   1.01272   1.04306   1.04884   1.06840
 Alpha virt. eigenvalues --    1.10177   1.11308   1.11789   1.13647   1.14729
 Alpha virt. eigenvalues --    1.15437   1.16769   1.16918   1.17594   1.18649
 Alpha virt. eigenvalues --    1.19506   1.19949   1.22007   1.22968   1.22980
 Alpha virt. eigenvalues --    1.23900   1.24042   1.25169   1.26272   1.26783
 Alpha virt. eigenvalues --    1.28031   1.28968   1.29612   1.30273   1.31991
 Alpha virt. eigenvalues --    1.33890   1.33967   1.34852   1.36393   1.37138
 Alpha virt. eigenvalues --    1.37652   1.38368   1.39068   1.40216   1.41461
 Alpha virt. eigenvalues --    1.43417   1.44551   1.47197   1.47694   1.50405
 Alpha virt. eigenvalues --    1.51013   1.53983   1.54941   1.57876   1.58462
 Alpha virt. eigenvalues --    1.59502   1.61389   1.67092   1.68908   1.71929
 Alpha virt. eigenvalues --    1.75185   1.79325   1.79988   1.81233   1.81505
 Alpha virt. eigenvalues --    1.82274   1.83468   1.85252   1.85423   1.86834
 Alpha virt. eigenvalues --    1.89205   1.89782   1.91101   1.91716   1.92514
 Alpha virt. eigenvalues --    1.93309   1.93503   1.94333   1.97489   1.97529
 Alpha virt. eigenvalues --    1.98188   1.99389   2.00023   2.00634   2.02963
 Alpha virt. eigenvalues --    2.03732   2.04144   2.04824   2.07691   2.09532
 Alpha virt. eigenvalues --    2.10164   2.10510   2.13697   2.14116   2.15238
 Alpha virt. eigenvalues --    2.17099   2.20097   2.22353   2.24084   2.24724
 Alpha virt. eigenvalues --    2.28338   2.29721   2.31790   2.34911   2.36214
 Alpha virt. eigenvalues --    2.41292   2.42081   2.43081   2.44987   2.45648
 Alpha virt. eigenvalues --    2.48333   2.49670   2.50305   2.51160   2.51382
 Alpha virt. eigenvalues --    2.56136   2.56251   2.56579   2.57804   2.61158
 Alpha virt. eigenvalues --    2.61205   2.62897   2.64600   2.64705   2.65975
 Alpha virt. eigenvalues --    2.67389   2.68061   2.69237   2.72665   2.75511
 Alpha virt. eigenvalues --    2.76414   2.77115   2.80052   2.80697   2.81946
 Alpha virt. eigenvalues --    2.82009   2.83078   2.84687   2.85137   2.88670
 Alpha virt. eigenvalues --    2.92172   2.94515   2.97311   3.02404   3.06023
 Alpha virt. eigenvalues --    3.08734   3.14265   3.16335   3.16429   3.18437
 Alpha virt. eigenvalues --    3.19785   3.22008   3.23896   3.28547   3.33301
 Alpha virt. eigenvalues --    3.34672   3.37446   3.40984   3.43079   3.45534
 Alpha virt. eigenvalues --    3.46549   3.49374   3.60899   3.63310   3.68214
 Alpha virt. eigenvalues --    3.86873   4.17752   4.22924   4.32175   4.34228
 Alpha virt. eigenvalues --    4.40111   4.43357   4.44659   4.46861   4.52930
 Alpha virt. eigenvalues --    4.58781   4.61811   4.63214   4.71418   4.77215
 Alpha virt. eigenvalues --    4.92011   5.46052
          Condensed to atoms (all electrons):
               1          2          3          4          5          6
     1  C   39.516477 -18.171014  -7.055885  -0.600385  -7.042285   4.719841
     2  C  -18.171014  42.032464   1.453215  -3.952884   0.103191 -15.261851
     3  C   -7.055885   1.453215  15.605547   3.801190  -1.655251  -3.273528
     4  C   -0.600385  -3.952884   3.801190  11.808943  -1.603642  -0.166648
     5  C   -7.042285   0.103191  -1.655251  -1.603642  12.504686   1.485787
     6  C    4.719841 -15.261851  -3.273528  -0.166648   1.485787  19.580077
     7  O    0.211486  -1.452285   0.008224  -0.029337   0.192720   0.922007
     8  O   -0.858004   0.399242   0.373525   0.090987  -0.030319   0.033444
     9  C    0.223593  -0.055342  -0.340108  -0.061652   0.038381   0.060312
    10  O    0.528859   0.104332   0.020861  -0.047146  -0.609561  -0.066867
    11  C   -0.265273  -0.276263  -0.018397   0.038377   0.136829   0.292737
    12  C   -5.140401   1.074165  -0.949557  -2.589042   2.023483  -1.777914
    13  C   -0.087544  -1.147864  -2.130069  -0.804968   1.285608   0.193441
    14  C   -0.321212   0.298183   0.000701  -0.804187  -0.391198  -0.089233
    15  O   -0.000004   0.002270   0.012237   0.050290  -0.010451  -0.000604
    16  O    0.001939  -0.000382   0.034729   0.111792   0.008816   0.001417
    17  H    0.028389  -0.298507   0.410972   0.078362  -0.003041  -0.000435
    18  H    0.032374   0.028714   0.055113   0.118060   0.179246  -0.098577
    19  H    0.021533   0.572358   0.029152  -0.013098  -0.022377  -0.571163
    20  H    0.130528   0.115252  -0.205794  -0.028098  -0.003953   0.015492
    21  H   -0.063636  -0.142381   0.142994   0.039460   0.009854  -0.009209
    22  H   -0.064188  -0.141840   0.142991   0.039429   0.009874  -0.009260
    23  H   -0.071210  -0.006776  -0.000978   0.002527   0.019102   0.070005
    24  H    0.071666   0.008023   0.002197  -0.002485  -0.015090  -0.070134
    25  H    0.071619   0.009329   0.002150  -0.002429  -0.014695  -0.071319
    26  H    0.024942   0.032589   0.104598  -0.000103   0.014590  -0.001160
    27  H    0.006348   0.001779   0.018268   0.080666  -0.003677   0.005722
    28  H    0.000050  -0.000058   0.000776  -0.002188   0.002268   0.000124
               7          8          9         10         11         12
     1  C    0.211486  -0.858004   0.223593   0.528859  -0.265273  -5.140401
     2  C   -1.452285   0.399242  -0.055342   0.104332  -0.276263   1.074165
     3  C    0.008224   0.373525  -0.340108   0.020861  -0.018397  -0.949557
     4  C   -0.029337   0.090987  -0.061652  -0.047146   0.038377  -2.589042
     5  C    0.192720  -0.030319   0.038381  -0.609561   0.136829   2.023483
     6  C    0.922007   0.033444   0.060312  -0.066867   0.292737  -1.777914
     7  O    8.561251   0.044655  -0.010280  -0.034978  -0.011482   0.026652
     8  O    0.044655   8.542806   0.015474  -0.001104   0.000823  -0.032735
     9  C   -0.010280   0.015474   5.027046   0.000408  -0.000157   0.001259
    10  O   -0.034978  -0.001104   0.000408   8.694478   0.006338  -0.028191
    11  C   -0.011482   0.000823  -0.000157   0.006338   5.058698  -0.020777
    12  C    0.026652  -0.032735   0.001259  -0.028191  -0.020777  14.048982
    13  C    0.000347   0.000581   0.000844   0.007178   0.007343  -3.293421
    14  C    0.001417  -0.000548   0.001186  -0.002868  -0.000738   1.934204
    15  O    0.000000   0.000000  -0.000003  -0.000006  -0.000006   0.069944
    16  O    0.000000   0.000003   0.000034   0.000002   0.000004   0.182596
    17  H   -0.001077  -0.016375   0.004944   0.000212   0.000252   0.057239
    18  H   -0.000636   0.000164   0.000099  -0.020801  -0.005161  -0.008578
    19  H    0.128848  -0.004179   0.001222   0.002331   0.030374   0.007687
    20  H   -0.001061  -0.077181   0.417338  -0.000003   0.000030  -0.005696
    21  H    0.000082  -0.041856   0.407343   0.000004  -0.000027   0.008411
    22  H    0.000084  -0.041849   0.407386   0.000004  -0.000028   0.008437
    23  H    0.003554   0.000005   0.000023  -0.070978   0.410582  -0.000084
    24  H   -0.017061  -0.000119  -0.000096  -0.047269   0.398307  -0.000283
    25  H   -0.017239  -0.000124  -0.000095  -0.047241   0.397733  -0.000244
    26  H   -0.000011   0.000049  -0.000307   0.000018  -0.000030   0.289060
    27  H   -0.000007   0.000005   0.000016   0.000023  -0.000022  -0.033157
    28  H   -0.000000   0.000000   0.000000   0.000000   0.000000   0.002455
              13         14         15         16         17         18
     1  C   -0.087544  -0.321212  -0.000004   0.001939   0.028389   0.032374
     2  C   -1.147864   0.298183   0.002270  -0.000382  -0.298507   0.028714
     3  C   -2.130069   0.000701   0.012237   0.034729   0.410972   0.055113
     4  C   -0.804968  -0.804187   0.050290   0.111792   0.078362   0.118060
     5  C    1.285608  -0.391198  -0.010451   0.008816  -0.003041   0.179246
     6  C    0.193441  -0.089233  -0.000604   0.001417  -0.000435  -0.098577
     7  O    0.000347   0.001417   0.000000   0.000000  -0.001077  -0.000636
     8  O    0.000581  -0.000548   0.000000   0.000003  -0.016375   0.000164
     9  C    0.000844   0.001186  -0.000003   0.000034   0.004944   0.000099
    10  O    0.007178  -0.002868  -0.000006   0.000002   0.000212  -0.020801
    11  C    0.007343  -0.000738  -0.000006   0.000004   0.000252  -0.005161
    12  C   -3.293421   1.934204   0.069944   0.182596   0.057239  -0.008578
    13  C   17.238817  -4.104479  -0.105277  -0.407476   0.025128  -0.026377
    14  C   -4.104479   8.155023  -0.022964   0.380963  -0.003561   0.029107
    15  O   -0.105277  -0.022964   8.505900  -0.197103   0.000002   0.000196
    16  O   -0.407476   0.380963  -0.197103   8.416420  -0.000071   0.000040
    17  H    0.025128  -0.003561   0.000002  -0.000071   0.590979  -0.000215
    18  H   -0.026377   0.029107   0.000196   0.000040  -0.000215   0.595443
    19  H    0.000657   0.000091   0.000000   0.000000   0.000007  -0.000013
    20  H   -0.000005  -0.000000   0.000000  -0.000000   0.000110  -0.000000
    21  H    0.000076  -0.000074  -0.000000   0.000000  -0.000913   0.000000
    22  H    0.000070  -0.000070  -0.000000   0.000000  -0.000913   0.000000
    23  H   -0.000342  -0.000015   0.000000  -0.000000   0.000000  -0.000043
    24  H    0.000165   0.000006  -0.000000   0.000000  -0.000000   0.000008
    25  H    0.000167   0.000007  -0.000000   0.000000  -0.000000   0.000008
    26  H   -0.146509  -0.032518   0.000674  -0.004790   0.004755  -0.000051
    27  H    0.206891   0.005970  -0.006250   0.007263   0.000003   0.001469
    28  H    0.059344  -0.034309   0.202024   0.011724  -0.000000  -0.000000
              19         20         21         22         23         24
     1  C    0.021533   0.130528  -0.063636  -0.064188  -0.071210   0.071666
     2  C    0.572358   0.115252  -0.142381  -0.141840  -0.006776   0.008023
     3  C    0.029152  -0.205794   0.142994   0.142991  -0.000978   0.002197
     4  C   -0.013098  -0.028098   0.039460   0.039429   0.002527  -0.002485
     5  C   -0.022377  -0.003953   0.009854   0.009874   0.019102  -0.015090
     6  C   -0.571163   0.015492  -0.009209  -0.009260   0.070005  -0.070134
     7  O    0.128848  -0.001061   0.000082   0.000084   0.003554  -0.017061
     8  O   -0.004179  -0.077181  -0.041856  -0.041849   0.000005  -0.000119
     9  C    0.001222   0.417338   0.407343   0.407386   0.000023  -0.000096
    10  O    0.002331  -0.000003   0.000004   0.000004  -0.070978  -0.047269
    11  C    0.030374   0.000030  -0.000027  -0.000028   0.410582   0.398307
    12  C    0.007687  -0.005696   0.008411   0.008437  -0.000084  -0.000283
    13  C    0.000657  -0.000005   0.000076   0.000070  -0.000342   0.000165
    14  C    0.000091  -0.000000  -0.000074  -0.000070  -0.000015   0.000006
    15  O    0.000000   0.000000  -0.000000  -0.000000   0.000000  -0.000000
    16  O    0.000000  -0.000000   0.000000   0.000000  -0.000000   0.000000
    17  H    0.000007   0.000110  -0.000913  -0.000913   0.000000  -0.000000
    18  H   -0.000013  -0.000000   0.000000   0.000000  -0.000043   0.000008
    19  H    0.451222  -0.000002   0.000001   0.000001  -0.001322   0.010671
    20  H   -0.000002   0.551412  -0.029299  -0.029301  -0.000000   0.000000
    21  H    0.000001  -0.029299   0.578484  -0.041027   0.000000  -0.000000
    22  H    0.000001  -0.029301  -0.041027   0.578487   0.000000   0.000000
    23  H   -0.001322  -0.000000   0.000000   0.000000   0.537139  -0.028193
    24  H    0.010671   0.000000  -0.000000   0.000000  -0.028193   0.588601
    25  H    0.010814   0.000000   0.000000  -0.000000  -0.028203  -0.046967
    26  H   -0.000000   0.000000  -0.000005  -0.000005   0.000000  -0.000000
    27  H   -0.000000   0.000000  -0.000000  -0.000000   0.000000  -0.000000
    28  H   -0.000000   0.000000   0.000000   0.000000   0.000000  -0.000000
              25         26         27         28
     1  C    0.071619   0.024942   0.006348   0.000050
     2  C    0.009329   0.032589   0.001779  -0.000058
     3  C    0.002150   0.104598   0.018268   0.000776
     4  C   -0.002429  -0.000103   0.080666  -0.002188
     5  C   -0.014695   0.014590  -0.003677   0.002268
     6  C   -0.071319  -0.001160   0.005722   0.000124
     7  O   -0.017239  -0.000011  -0.000007  -0.000000
     8  O   -0.000124   0.000049   0.000005   0.000000
     9  C   -0.000095  -0.000307   0.000016   0.000000
    10  O   -0.047241   0.000018   0.000023   0.000000
    11  C    0.397733  -0.000030  -0.000022   0.000000
    12  C   -0.000244   0.289060  -0.033157   0.002455
    13  C    0.000167  -0.146509   0.206891   0.059344
    14  C    0.000007  -0.032518   0.005970  -0.034309
    15  O   -0.000000   0.000674  -0.006250   0.202024
    16  O    0.000000  -0.004790   0.007263   0.011724
    17  H   -0.000000   0.004755   0.000003  -0.000000
    18  H    0.000008  -0.000051   0.001469  -0.000000
    19  H    0.010814  -0.000000  -0.000000  -0.000000
    20  H    0.000000   0.000000   0.000000   0.000000
    21  H    0.000000  -0.000005  -0.000000   0.000000
    22  H   -0.000000  -0.000005  -0.000000   0.000000
    23  H   -0.028203   0.000000   0.000000   0.000000
    24  H   -0.046967  -0.000000  -0.000000  -0.000000
    25  H    0.588836  -0.000000  -0.000000  -0.000000
    26  H   -0.000000   0.550796   0.004542   0.000002
    27  H   -0.000000   0.004542   0.579301  -0.000062
    28  H   -0.000000   0.000002  -0.000062   0.381772
 Mulliken charges:
               1
     1  C    0.151397
     2  C    0.672343
     3  C   -0.589875
     4  C    0.448209
     5  C   -0.608893
     6  C    0.087495
     7  O   -0.525873
     8  O   -0.397367
     9  C   -0.138868
    10  O   -0.388035
    11  C   -0.180069
    12  C    0.145507
    13  C   -0.772327
    14  C    1.001117
    15  O   -0.500871
    16  O   -0.547922
    17  H    0.123753
    18  H    0.120412
    19  H    0.345186
    20  H    0.150231
    21  H    0.141717
    22  H    0.141717
    23  H    0.165207
    24  H    0.148054
    25  H    0.147890
    26  H    0.158875
    27  H    0.124910
    28  H    0.376077
 Sum of Mulliken charges =  -0.00000
 Mulliken charges with hydrogens summed into heavy atoms:
               1
     1  C    0.151397
     2  C    0.672343
     3  C   -0.466122
     4  C    0.448209
     5  C   -0.488481
     6  C    0.087495
     7  O   -0.180687
     8  O   -0.397367
     9  C    0.294797
    10  O   -0.388035
    11  C    0.281083
    12  C    0.304382
    13  C   -0.647417
    14  C    1.001117
    15  O   -0.124794
    16  O   -0.547922
 Electronic spatial extent (au):  <R**2>=           5004.7630
 Charge=              0.0000 electrons
 Dipole moment (field-independent basis, Debye):
    X=              4.3068    Y=             -1.6925    Z=              0.0036  Tot=              4.6274
 Quadrupole moment (field-independent basis, Debye-Ang):
   XX=            -98.9090   YY=            -80.9651   ZZ=            -95.0109
   XY=             -4.5811   XZ=              0.0258   YZ=             -0.0091
 Traceless Quadrupole moment (field-independent basis, Debye-Ang):
   XX=             -7.2806   YY=             10.6632   ZZ=             -3.3825
   XY=             -4.5811   XZ=              0.0258   YZ=             -0.0091
 Octapole moment (field-independent basis, Debye-Ang**2):
  XXX=             11.6730  YYY=             15.8386  ZZZ=              0.0007  XYY=             69.7692
  XXY=            -82.9941  XXZ=              0.0196  XZZ=              2.1159  YZZ=             -1.3137
  YYZ=              0.0167  XYZ=              0.0029
 Hexadecapole moment (field-independent basis, Debye-Ang**3):
 XXXX=          -4126.2828 YYYY=          -1526.8434 ZZZZ=           -114.2779 XXXY=             -2.0896
 XXXZ=              0.4994 YYYX=            -13.7670 YYYZ=             -0.1201 ZZZX=              0.0140
 ZZZY=             -0.1211 XXYY=          -1001.9181 XXZZ=           -770.8397 YYZZ=           -314.6728
 XXYZ=             -0.2135 YYXZ=              0.0480 ZZXY=             -5.7329
 N-N= 1.074745649512D+03 E-N=-4.023163853868D+03  KE= 7.965737259394D+02
 Calling FoFJK, ICntrl=      2127 FMM=F ISym2X=0 I1Cent= 0 IOpClX= 0 NMat=1 NMatS=1 NMatT=0.
 ***** Axes restored to original set *****
 -------------------------------------------------------------------
 Center     Atomic                   Forces (Hartrees/Bohr)
 Number     Number              X              Y              Z
 -------------------------------------------------------------------
      1        6          -0.049268954    0.051233817    0.000030237
      2        6          -0.042553898   -0.035824365   -0.000012076
      3        6          -0.037591644   -0.074003789    0.000013367
      4        6          -0.022088111    0.026281663   -0.000004596
      5        6           0.072059677    0.047068356   -0.000007879
      6        6           0.020013464    0.027520575   -0.000000858
      7        8          -0.013402518    0.003726408    0.000004456
      8        8           0.001803013    0.017222596   -0.000004077
      9        6          -0.004649837   -0.012712463    0.000005114
     10        8           0.009079986   -0.004332054   -0.000019321
     11        6          -0.001918679    0.015574122   -0.000026771
     12        6           0.057498150   -0.073973832    0.000019739
     13        6          -0.018574249    0.085448568   -0.000055002
     14        6           0.050877963   -0.070756922    0.000027291
     15        8           0.009077121    0.032646457   -0.000033151
     16        8          -0.015312891   -0.040637801    0.000039305
     17        1           0.001419392    0.009806140   -0.000001066
     18        1          -0.009066790   -0.003312493    0.000000306
     19        1          -0.006412201   -0.004750133   -0.000019334
     20        1           0.013206727    0.005316742    0.000000480
     21        1          -0.001631813    0.000220202    0.010423274
     22        1          -0.001629902    0.000210147   -0.010424912
     23        1          -0.005494809   -0.012628652    0.000010466
     24        1           0.001945160    0.004365145    0.008744961
     25        1           0.001918660    0.004368253   -0.008724434
     26        1           0.004872017    0.008338083   -0.000002289
     27        1          -0.007457946   -0.005451126    0.000009000
     28        1          -0.006717088   -0.000963642    0.000007770
 -------------------------------------------------------------------
 Cartesian Forces:  Max     0.085448568 RMS     0.025390210

 GradGradGradGradGradGradGradGradGradGradGradGradGradGradGradGradGradGrad
 Berny optimization.
 FormGI is forming the generalized inverse of G from B-inverse, IUseBI=4.
 Internal  Forces:  Max     0.098869953 RMS     0.020468287
 Search for a local minimum.
 Step number   1 out of a maximum of  131
 All quantities printed in internal units (Hartrees-Bohrs-Radians)
 Mixed Optimization -- RFO/linear search
 Second derivative matrix not updated -- first step.
 ITU=  0
     Eigenvalues ---    0.01573   0.01626   0.01961   0.01981   0.02207
     Eigenvalues ---    0.02279   0.02498   0.02581   0.02592   0.02614
     Eigenvalues ---    0.02631   0.02704   0.02721   0.02732   0.02767
     Eigenvalues ---    0.02775   0.02796   0.02802   0.02808   0.02810
     Eigenvalues ---    0.02827   0.10128   0.10171   0.10672   0.10760
     Eigenvalues ---    0.16000   0.16000   0.16000   0.16000   0.16000
     Eigenvalues ---    0.16000   0.16000   0.16000   0.16000   0.16000
     Eigenvalues ---    0.16000   0.16000   0.22000   0.22000   0.23430
     Eigenvalues ---    0.23476   0.25000   0.25000   0.25000   0.25000
     Eigenvalues ---    0.25000   0.25000   0.25000   0.25000   0.25000
     Eigenvalues ---    0.32236   0.32259   0.32298   0.32298   0.32305
     Eigenvalues ---    0.32305   0.33171   0.33516   0.33551   0.33565
     Eigenvalues ---    0.44169   0.44811   0.49171   0.49350   0.49452
     Eigenvalues ---    0.49545   0.52547   0.52730   0.53208   0.53840
     Eigenvalues ---    0.54586   0.54593   0.54736   0.55479   0.55613
     Eigenvalues ---    0.55861   0.56274   0.98930
 RFO step:  Lambda=-8.89389013D-02 EMin= 1.57338697D-02
 Linear search not attempted -- first point.
 Maximum step size (   0.300) exceeded in Quadratic search.
    -- Step size scaled by   0.726
 Iteration  1 RMS(Cart)=  0.09436909 RMS(Int)=  0.00192376
 Iteration  2 RMS(Cart)=  0.00290248 RMS(Int)=  0.00005747
 Iteration  3 RMS(Cart)=  0.00000321 RMS(Int)=  0.00005742
 Iteration  4 RMS(Cart)=  0.00000000 RMS(Int)=  0.00005742
 Variable       Old X    -DE/DX   Delta X   Delta X   Delta X     New X
                                 (Linear)    (Quad)   (Total)
    R1        2.55637   0.06185   0.00000   0.07044   0.07048   2.62685
    R2        2.55772   0.07261   0.00000   0.08313   0.08316   2.64088
    R3        2.57207   0.01505   0.00000   0.01774   0.01774   2.58981
    R4        2.54400   0.04787   0.00000   0.05356   0.05357   2.59756
    R5        2.60423  -0.00967   0.00000  -0.01204  -0.01204   2.59219
    R6        2.54115   0.07295   0.00000   0.08173   0.08170   2.62285
    R7        2.08071  -0.00990   0.00000  -0.01693  -0.01693   2.06378
    R8        2.53750   0.06812   0.00000   0.07600   0.07596   2.61347
    R9        2.55368   0.09887   0.00000   0.11283   0.11283   2.66651
   R10        2.54833   0.05006   0.00000   0.05677   0.05676   2.60510
   R11        2.08154  -0.00965   0.00000  -0.01652  -0.01652   2.06502
   R12        2.60711   0.00871   0.00000   0.01089   0.01089   2.61800
   R13        1.82202  -0.00649   0.00000  -0.00742  -0.00742   1.81460
   R14        2.66253   0.00554   0.00000   0.00758   0.00758   2.67011
   R15        2.10373  -0.01356   0.00000  -0.02393  -0.02393   2.07980
   R16        2.10302  -0.00930   0.00000  -0.01640  -0.01640   2.08662
   R17        2.10302  -0.00930   0.00000  -0.01640  -0.01640   2.08662
   R18        2.65496   0.01134   0.00000   0.01533   0.01533   2.67029
   R19        2.10414  -0.01355   0.00000  -0.02392  -0.02392   2.08022
   R20        2.10289  -0.00834   0.00000  -0.01470  -0.01470   2.08819
   R21        2.10290  -0.00831   0.00000  -0.01465  -0.01465   2.08824
   R22        2.54375   0.01178   0.00000   0.01321   0.01321   2.55696
   R23        2.08752  -0.00939   0.00000  -0.01621  -0.01621   2.07132
   R24        2.57379   0.08376   0.00000   0.09900   0.09900   2.67279
   R25        2.08094  -0.00787   0.00000  -0.01347  -0.01347   2.06747
   R26        2.56177   0.00945   0.00000   0.01094   0.01094   2.57272
   R27        2.29070   0.04301   0.00000   0.02896   0.02896   2.31966
   R28        1.83460  -0.00266   0.00000  -0.00311  -0.00311   1.83148
    A1        2.11646  -0.01163   0.00000  -0.02598  -0.02591   2.09055
    A2        2.03122  -0.01503   0.00000  -0.03168  -0.03172   1.99950
    A3        2.13551   0.02667   0.00000   0.05766   0.05762   2.19313
    A4        2.06715   0.01201   0.00000   0.02497   0.02501   2.09217
    A5        2.04996  -0.01317   0.00000  -0.02785  -0.02787   2.02210
    A6        2.16607   0.00116   0.00000   0.00287   0.00285   2.16892
    A7        2.14700  -0.00666   0.00000  -0.01486  -0.01489   2.13211
    A8        2.07501   0.00286   0.00000   0.00606   0.00607   2.08108
    A9        2.06118   0.00380   0.00000   0.00881   0.00882   2.07000
   A10        2.02204   0.00323   0.00000   0.00882   0.00875   2.03080
   A11        2.08587  -0.00179   0.00000  -0.00478  -0.00475   2.08112
   A12        2.17528  -0.00144   0.00000  -0.00404  -0.00400   2.17127
   A13        2.17437  -0.00612   0.00000  -0.01269  -0.01273   2.16164
   A14        2.09649   0.00331   0.00000   0.00708   0.00710   2.10359
   A15        2.01232   0.00281   0.00000   0.00561   0.00563   2.01795
   A16        2.03935   0.00916   0.00000   0.01973   0.01976   2.05911
   A17        2.23574   0.01297   0.00000   0.02774   0.02772   2.26346
   A18        2.00810  -0.02213   0.00000  -0.04747  -0.04748   1.96062
   A19        1.91684   0.00847   0.00000   0.02469   0.02469   1.94153
   A20        2.08754  -0.00619   0.00000  -0.01326  -0.01326   2.07428
   A21        1.87939  -0.00746   0.00000  -0.02151  -0.02144   1.85795
   A22        1.92780   0.00501   0.00000   0.01447   0.01448   1.94228
   A23        1.92778   0.00501   0.00000   0.01448   0.01449   1.94227
   A24        1.88445   0.00169   0.00000   0.00519   0.00525   1.88970
   A25        1.88446   0.00169   0.00000   0.00519   0.00525   1.88971
   A26        1.95723  -0.00622   0.00000  -0.01860  -0.01864   1.93859
   A27        2.15072   0.02735   0.00000   0.05859   0.05859   2.20931
   A28        1.87585  -0.00704   0.00000  -0.02184  -0.02176   1.85409
   A29        1.92742   0.00761   0.00000   0.02289   0.02273   1.95015
   A30        1.92736   0.00760   0.00000   0.02286   0.02270   1.95007
   A31        1.87171  -0.00189   0.00000  -0.00686  -0.00678   1.86493
   A32        1.87169  -0.00190   0.00000  -0.00689  -0.00681   1.86488
   A33        1.98490  -0.00528   0.00000  -0.01312  -0.01343   1.97147
   A34        2.22692   0.00737   0.00000   0.01733   0.01733   2.24425
   A35        2.03348  -0.00132   0.00000  -0.00177  -0.00177   2.03171
   A36        2.02278  -0.00605   0.00000  -0.01556  -0.01556   2.00722
   A37        2.17624  -0.00956   0.00000  -0.02246  -0.02246   2.15378
   A38        2.11993  -0.00025   0.00000  -0.00343  -0.00343   2.11650
   A39        1.98701   0.00981   0.00000   0.02589   0.02589   2.01291
   A40        2.10827  -0.03954   0.00000  -0.08472  -0.08472   2.02355
   A41        2.15558   0.01285   0.00000   0.02752   0.02752   2.18311
   A42        2.01933   0.02670   0.00000   0.05720   0.05720   2.07653
   A43        1.88876  -0.01145   0.00000  -0.03341  -0.03341   1.85535
    D1       -0.00010   0.00001   0.00000   0.00004   0.00004  -0.00006
    D2        3.14149   0.00001   0.00000   0.00004   0.00004   3.14153
    D3       -3.14140  -0.00002   0.00000  -0.00009  -0.00009  -3.14149
    D4        0.00020  -0.00002   0.00000  -0.00010  -0.00010   0.00010
    D5        0.00017  -0.00001   0.00000  -0.00005  -0.00005   0.00012
    D6       -3.14140  -0.00002   0.00000  -0.00011  -0.00011  -3.14151
    D7        3.14145   0.00001   0.00000   0.00008   0.00008   3.14154
    D8       -0.00012   0.00000   0.00000   0.00002   0.00002  -0.00010
    D9        3.13838   0.00001   0.00000   0.00004   0.00005   3.13842
   D10       -0.00292  -0.00001   0.00000  -0.00008  -0.00008  -0.00300
   D11       -0.00006  -0.00000   0.00000  -0.00000  -0.00000  -0.00007
   D12       -3.14158  -0.00000   0.00000  -0.00002  -0.00002   3.14159
   D13        3.14153  -0.00000   0.00000   0.00000   0.00000   3.14153
   D14        0.00001  -0.00000   0.00000  -0.00001  -0.00001  -0.00000
   D15       -3.14155  -0.00000   0.00000  -0.00001  -0.00001  -3.14156
   D16        0.00004  -0.00000   0.00000  -0.00001  -0.00001   0.00003
   D17        0.00014  -0.00000   0.00000  -0.00002  -0.00002   0.00012
   D18       -3.14149  -0.00000   0.00000  -0.00001  -0.00001  -3.14150
   D19       -3.14153  -0.00000   0.00000  -0.00001  -0.00001  -3.14153
   D20        0.00003   0.00000   0.00000   0.00001   0.00001   0.00004
   D21       -0.00006   0.00000   0.00000   0.00001   0.00001  -0.00005
   D22        3.14145   0.00000   0.00000   0.00003   0.00003   3.14148
   D23        3.14157  -0.00000   0.00000  -0.00001  -0.00001   3.14157
   D24       -0.00011   0.00000   0.00000   0.00002   0.00002  -0.00009
   D25        3.14106   0.00000   0.00000   0.00000   0.00000   3.14107
   D26       -0.00038  -0.00000   0.00000  -0.00002  -0.00002  -0.00040
   D27       -0.00057   0.00000   0.00000   0.00002   0.00002  -0.00055
   D28        3.14117   0.00000   0.00000   0.00000   0.00000   3.14117
   D29       -0.00009   0.00000   0.00000   0.00002   0.00002  -0.00007
   D30        3.14148   0.00001   0.00000   0.00008   0.00008   3.14156
   D31        3.14158   0.00000   0.00000   0.00000   0.00000   3.14159
   D32       -0.00003   0.00001   0.00000   0.00006   0.00006   0.00003
   D33        0.00100   0.00000   0.00000   0.00003   0.00003   0.00103
   D34       -3.14057  -0.00000   0.00000  -0.00003  -0.00003  -3.14060
   D35       -3.14153  -0.00000   0.00000  -0.00000  -0.00000  -3.14154
   D36       -1.08764   0.00043   0.00000   0.00163   0.00154  -1.08610
   D37        1.08776  -0.00043   0.00000  -0.00164  -0.00155   1.08620
   D38        3.14151  -0.00001   0.00000  -0.00005  -0.00005   3.14146
   D39       -1.10532  -0.00221   0.00000  -0.00846  -0.00876  -1.11408
   D40        1.10521   0.00221   0.00000   0.00842   0.00871   1.11392
   D41       -3.14156  -0.00000   0.00000  -0.00001  -0.00001  -3.14157
   D42       -0.00009   0.00000   0.00000   0.00000   0.00000  -0.00009
   D43       -0.00012   0.00000   0.00000   0.00001   0.00001  -0.00011
   D44        3.14135   0.00000   0.00000   0.00002   0.00002   3.14138
   D45        3.14134   0.00000   0.00000   0.00002   0.00002   3.14136
   D46       -0.00024   0.00000   0.00000   0.00001   0.00001  -0.00023
   D47       -0.00014   0.00000   0.00000   0.00001   0.00001  -0.00013
   D48        3.14146   0.00000   0.00000   0.00000   0.00000   3.14147
   D49       -3.14144  -0.00000   0.00000  -0.00002  -0.00002  -3.14146
   D50        0.00014  -0.00000   0.00000  -0.00002  -0.00002   0.00012
         Item               Value     Threshold  Converged?
 Maximum Force            0.098870     0.000450     NO 
 RMS     Force            0.020468     0.000300     NO 
 Maximum Displacement     0.441550     0.001800     NO 
 RMS     Displacement     0.093969     0.001200     NO 
 Predicted change in Energy=-4.514442D-02
 GradGradGradGradGradGradGradGradGradGradGradGradGradGradGradGradGradGrad

                          Input orientation:                          
 ---------------------------------------------------------------------
 Center     Atomic      Atomic             Coordinates (Angstroms)
 Number     Number       Type             X           Y           Z
 ---------------------------------------------------------------------
      1          6           0       -1.594808    1.226277   -0.001148
      2          6           0       -1.826015   -0.144430   -0.000770
      3          6           0       -0.764549   -1.017779   -0.000466
      4          6           0        0.552502   -0.579843   -0.000601
      5          6           0        0.744102    0.789807   -0.000913
      6          6           0       -0.283316    1.708955   -0.001148
      7          8           0       -2.729137    1.995354   -0.001299
      8          8           0       -3.142721   -0.529043   -0.000726
      9          6           0       -3.450090   -1.908167   -0.000309
     10          8           0        0.178711    3.015027   -0.001399
     11          6           0       -0.610115    4.187408   -0.000552
     12          6           0        1.595032   -1.530744   -0.000390
     13          6           0        2.931290   -1.318014   -0.001027
     14          6           0        3.885880   -2.361673   -0.000747
     15          8           0        5.191192   -1.974852   -0.001771
     16          8           0        3.620839   -3.560231    0.000324
     17          1           0       -0.958122   -2.092591   -0.000165
     18          1           0        1.753218    1.209109   -0.000928
     19          1           0       -2.514834    2.931376    0.001277
     20          1           0       -4.548139   -1.982803   -0.000411
     21          1           0       -3.069314   -2.403958   -0.910496
     22          1           0       -3.069510   -2.403353    0.910290
     23          1           0        0.095026    5.032717   -0.000934
     24          1           0       -1.214945    4.274339   -0.921255
     25          1           0       -1.213407    4.273952    0.921231
     26          1           0        1.293644   -2.584587    0.000269
     27          1           0        3.345043   -0.305212   -0.001911
     28          1           0        5.716357   -2.789413   -0.001550
 ---------------------------------------------------------------------
                    Distance matrix (angstroms):
                    1          2          3          4          5
     1  C    0.000000
     2  C    1.390070   0.000000
     3  C    2.392721   1.374572   0.000000
     4  C    2.805888   2.418042   1.387952   0.000000
     5  C    2.379287   2.734649   2.354442   1.382987   0.000000
     6  C    1.397494   2.411422   2.768874   2.436635   1.378558
     7  O    1.370468   2.322565   3.597024   4.171426   3.676511
     8  O    2.340338   1.371729   2.427873   3.695573   4.104481
     9  C    3.642363   2.397579   2.829297   4.217249   4.987015
    10  O    2.518928   3.741804   4.141650   3.614251   2.295925
    11  C    3.120564   4.499249   5.207477   4.906971   3.657540
    12  C    4.216189   3.691264   2.414696   1.411057   2.471648
    13  C    5.192204   4.899924   3.708014   2.490689   3.037549
    14  C    6.550674   6.127146   4.840717   3.779726   4.450011
    15  O    7.503134   7.252010   6.032151   4.843913   5.236406
    16  O    7.079098   6.429301   5.069091   4.277546   5.215213
    17  H    3.379387   2.132738   1.092105   2.137848   3.347505
    18  H    3.348070   3.826615   3.361276   2.154546   1.092762
    19  H    1.937477   3.151993   4.319644   4.662318   3.899614
    20  H    4.361234   3.284748   3.904718   5.290069   5.974545
    21  H    4.022398   2.734750   2.839294   4.156063   5.056642
    22  H    4.022396   2.734783   2.839390   4.156186   5.056698
    23  H    4.164676   5.522070   6.111249   5.631173   4.292270
    24  H    3.206490   4.554803   5.390475   5.247338   4.102056
    25  H    3.206957   4.554940   5.390121   5.246669   4.101396
    26  H    4.781824   3.960636   2.586706   2.137356   3.418850
    27  H    5.171807   5.173557   4.170911   2.806013   2.822049
    28  H    8.341397   7.992704   6.718693   5.616725   6.126511
                    6          7          8          9         10
     6  C    0.000000
     7  O    2.462532   0.000000
     8  O    3.631092   2.558053   0.000000
     9  C    4.807497   3.969541   1.412961   0.000000
    10  O    1.385386   3.081447   4.857195   6.116048   0.000000
    11  C    2.499906   3.048828   5.353411   6.724693   1.413055
    12  C    3.744842   5.579589   4.842491   5.059220   4.761303
    13  C    4.415455   6.558876   6.125039   6.408611   5.133414
    14  C    5.826852   7.920993   7.263592   7.349975   6.530850
    15  O    6.598536   8.859692   8.458397   8.641540   7.072754
    16  O    6.557953   8.437222   7.411737   7.261360   7.421742
    17  H    3.860974   4.455087   2.686477   2.498783   5.232605
    18  H    2.096978   4.550790   5.195324   6.065627   2.395916
    19  H    2.544404   0.960244   3.516922   4.929085   2.694846
    20  H    5.640726   4.374301   2.022033   1.100582   6.879057
    21  H    5.050223   4.505143   2.085277   1.104192   6.382909
    22  H    5.050214   4.505050   2.085270   1.104193   6.382864
    23  H    3.345226   4.147465   6.435540   7.793825   2.019425
    24  H    2.880231   2.886671   5.257012   6.638328   2.091478
    25  H    2.880114   2.887993   5.257472   6.638567   2.091442
    26  H    4.573982   6.095788   4.889438   4.791718   5.709532
    27  H    4.149923   6.495250   6.491625   6.981640   4.587989
    28  H    7.498760   9.706718   9.142896   9.208711   8.022285
                   11         12         13         14         15
    11  C    0.000000
    12  C    6.128617   0.000000
    13  C    6.546085   1.353086   0.000000
    14  C    7.943830   2.436889   1.414378   0.000000
    15  O    8.463369   3.623479   2.353421   1.361422   0.000000
    16  O    8.827620   2.867526   2.345850   1.227513   2.231466
    17  H    6.289635   2.614243   3.965791   4.851470   6.150442
    18  H    3.802053   2.744416   2.788227   4.159174   4.685859
    19  H    2.281573   6.066426   6.907792   8.305752   9.135312
    20  H    7.319805   6.159781   7.508915   8.442524   9.739334
    21  H    7.093784   4.831865   6.165522   7.014567   8.321411
    22  H    7.093404   4.832053   6.165879   7.014925   8.321939
    23  H    1.100804   6.732685   6.955299   8.309487   8.664694
    24  H    1.105021   6.514826   7.022287   8.420357   8.996468
    25  H    1.105050   6.513924   7.021336   8.419280   8.995463
    26  H    7.034502   1.096093   2.070289   2.601803   3.944954
    27  H    5.985559   2.136462   1.094057   2.126390   2.489169
    28  H    9.418083   4.309242   3.149859   1.879789   0.969180
                   16         17         18         19         20
    16  O    0.000000
    17  H    4.808415   0.000000
    18  H    5.121973   4.272305   0.000000
    19  H    8.932382   5.259620   4.602443   0.000000
    20  H    8.319884   3.591695   7.063668   5.318222   0.000000
    21  H    6.850161   2.320082   6.094127   5.441008   1.786771
    22  H    6.850341   2.320228   6.094169   5.439972   1.786780
    23  H    9.288170   7.202718   4.167683   3.350673   8.412877
    24  H    9.252816   6.438336   4.364932   2.084305   7.149124
    25  H    9.251617   6.437935   4.364000   2.083876   7.149604
    26  H    2.523434   2.304888   3.821432   6.703011   5.872697
    27  H    3.266682   4.659609   2.197061   6.694302   8.069488
    28  H    2.232792   6.710755   5.629800  10.023969  10.296140
                   21         22         23         24         25
    21  H    0.000000
    22  H    1.820786   0.000000
    23  H    8.132926   8.132635   0.000000
    24  H    6.930978   7.168371   1.771483   0.000000
    25  H    7.168967   6.930486   1.771471   1.842487   0.000000
    26  H    4.460664   4.460728   7.711032   7.361189   7.360233
    27  H    6.809863   6.810344   6.249488   6.527709   6.526898
    28  H    8.840971   8.841490   9.632502   9.939085   9.938022
                   26         27         28
    26  H    0.000000
    27  H    3.066561   0.000000
    28  H    4.427454   3.434296   0.000000
 Stoichiometry    C11H12O5
 Framework group  C1[X(C11H12O5)]
 Deg. of freedom    78
 Full point group                 C1      NOp   1
 Largest Abelian subgroup         C1      NOp   1
 Largest concise Abelian subgroup C1      NOp   1
                         Standard orientation:                         
 ---------------------------------------------------------------------
 Center     Atomic      Atomic             Coordinates (Angstroms)
 Number     Number       Type             X           Y           Z
 ---------------------------------------------------------------------
      1          6           0        2.252718   -0.104921   -0.000369
      2          6           0        1.697130    1.169291    0.000010
      3          6           0        0.330896    1.320461    0.000313
      4          6           0       -0.532643    0.233856    0.000178
      5          6           0        0.055535   -1.017823   -0.000133
      6          6           0        1.418290   -1.225955   -0.000368
      7          8           0        3.622976   -0.128948   -0.000519
      8          8           0        2.589526    2.211055    0.000053
      9          6           0        2.093115    3.533944    0.000470
     10          8           0        1.745260   -2.572203   -0.000619
     11          6           0        3.046629   -3.122805    0.000227
     12          6           0       -1.925409    0.460319    0.000390
     13          6           0       -2.928126   -0.448196   -0.000248
     14          6           0       -4.297949   -0.095991    0.000033
     15          8           0       -5.179596   -1.133376   -0.000991
     16          8           0       -4.731111    1.052556    0.001104
     17          1           0       -0.094477    2.326319    0.000614
     18          1           0       -0.560323   -1.920512   -0.000149
     19          1           0        3.955129   -1.029912    0.002056
     20          1           0        2.971833    4.196618    0.000369
     21          1           0        1.503261    3.740997   -0.909717
     22          1           0        1.503756    3.740597    0.911070
     23          1           0        2.918169   -4.216089   -0.000155
     24          1           0        3.600632   -2.865013   -0.920476
     25          1           0        3.599132   -2.865529    0.922010
     26          1           0       -2.249035    1.507547    0.001048
     27          1           0       -2.721026   -1.522472   -0.001131
     28          1           0       -6.064597   -0.738302   -0.000771
 ---------------------------------------------------------------------
 Rotational constants (GHZ):      0.7631051      0.2622068      0.1956627
 Standard basis: 6-31+G(d,p) (6D, 7F)
 There are   364 symmetry adapted cartesian basis functions of A   symmetry.
 There are   364 symmetry adapted basis functions of A   symmetry.
   364 basis functions,   596 primitive gaussians,   364 cartesian basis functions
    59 alpha electrons       59 beta electrons
       nuclear repulsion energy      1055.0014220221 Hartrees.
 NAtoms=   28 NActive=   28 NUniq=   28 SFac= 1.00D+00 NAtFMM=   60 NAOKFM=F Big=F
 Integral buffers will be    131072 words long.
 Raffenetti 2 integral format.
 Two-electron integral symmetry is turned on.
 One-electron integrals computed using PRISM.
 NBasis=   364 RedAO= T EigKep=  1.26D-06  NBF=   364
 NBsUse=   362 1.00D-06 EigRej=  4.25D-07 NBFU=   362
 Initial guess from the checkpoint file:  "b3lypSAgd3.chk"
 B after Tr=     0.000000   -0.000000   -0.000000
         Rot=    1.000000   -0.000001    0.000003   -0.000418 Ang=  -0.05 deg.
 ExpMin= 4.38D-02 ExpMax= 5.48D+03 ExpMxC= 8.25D+02 IAcc=2 IRadAn=         4 AccDes= 0.00D+00
 Harris functional with IExCor=  402 and IRadAn=       4 diagonalized for initial guess.
 HarFok:  IExCor=  402 AccDes= 0.00D+00 IRadAn=         4 IDoV= 1 UseB2=F ITyADJ=14
 ICtDFT=  3500011 ScaDFX=  1.000000  1.000000  1.000000  1.000000
 FoFCou: FMM=F IPFlag=           0 FMFlag=      100000 FMFlg1=           0
         NFxFlg=           0 DoJE=T BraDBF=F KetDBF=T FulRan=T
         wScrn=  0.000000 ICntrl=     500 IOpCl=  0 I1Cent=   200000004 NGrid=           0
         NMat0=    1 NMatS0=      1 NMatT0=    0 NMatD0=    1 NMtDS0=    0 NMtDT0=    0
 Petite list used in FoFCou.
 Requested convergence on RMS density matrix=1.00D-08 within 128 cycles.
 Requested convergence on MAX density matrix=1.00D-06.
 Requested convergence on             energy=1.00D-06.
 No special actions if energy rises.
 SCF Done:  E(RB3LYP) =  -802.518962824     A.U. after   14 cycles
            NFock= 14  Conv=0.75D-08     -V/T= 2.0087
 Calling FoFJK, ICntrl=      2127 FMM=F ISym2X=0 I1Cent= 0 IOpClX= 0 NMat=1 NMatS=1 NMatT=0.
 ***** Axes restored to original set *****
 -------------------------------------------------------------------
 Center     Atomic                   Forces (Hartrees/Bohr)
 Number     Number              X              Y              Z
 -------------------------------------------------------------------
      1        6          -0.015209794    0.025890450    0.000034116
      2        6          -0.012973294   -0.015543078   -0.000010112
      3        6          -0.011381379   -0.031127657   -0.000000583
      4        6          -0.014861500    0.017676889   -0.000003228
      5        6           0.030990252    0.012059423   -0.000000233
      6        6           0.002003737    0.008286521    0.000001601
      7        8          -0.000815644    0.001218564   -0.000011742
      8        8           0.003854535    0.009708609   -0.000000428
      9        6          -0.004642944   -0.007806274    0.000001910
     10        8           0.002480322   -0.004998269   -0.000016368
     11        6          -0.003996625    0.004414542    0.000004430
     12        6           0.025630875   -0.031354376    0.000004618
     13        6          -0.010639908    0.043291340   -0.000026522
     14        6           0.016368536   -0.043752636    0.000024582
     15        8          -0.001387253    0.013135898   -0.000011188
     16        8          -0.001812729   -0.002206759    0.000000370
     17        1           0.001099612    0.005093739   -0.000000036
     18        1          -0.004598473   -0.001968351    0.000000082
     19        1           0.000755864    0.002595358   -0.000004475
     20        1           0.005733487    0.002586529    0.000000523
     21        1           0.000140106    0.000316216    0.005051997
     22        1           0.000141139    0.000311990   -0.005052851
     23        1          -0.001970197   -0.005740620    0.000002228
     24        1          -0.000951944   -0.000251793    0.004975590
     25        1          -0.000960616   -0.000248313   -0.004976283
     26        1           0.000374027    0.003948198    0.000001524
     27        1          -0.002967842   -0.003680650    0.000006270
     28        1          -0.000402350   -0.001855490    0.000004208
 -------------------------------------------------------------------
 Cartesian Forces:  Max     0.043752636 RMS     0.011262449

 GradGradGradGradGradGradGradGradGradGradGradGradGradGradGradGradGradGrad
 Berny optimization.
 Using GEDIIS/GDIIS optimizer.
[...]
 -0.00006047,0.00000163,0.00009630,0.00008889,-0.00427925,-0.00457646,0
 .00712276,0.07706370,-0.08784016,-0.22843124,-0.00001463,0.00013261,0.
 00002541,0.00003068,-0.00003174,-0.00000428,0.00000564,-0.00012514,0.0
 0003465,-0.00004205,0.00004686,0.00000496,-0.00003348,-0.00009172,-0.0
 0000897,0.00003690,0.00002113,0.00000388,0.00003331,0.00006960,0.00001
 694,-0.00036876,0.00060189,-0.00013443,0.00000913,0.00006233,0.0000157
 3,-0.00001942,0.00004024,-0.00002124,-0.00072453,0.00163060,0.00169144
 ,-0.08413424,0.10083034,0.23972591,-0.00010012,-0.00089828,-0.00039271
 ,0.00262555,0.00000061,0.00157857,0.00029846,0.00085311,0.00022109,-0.
 00054555,-0.00041667,-0.00050866,0.00002396,0.00062271,-0.00002123,0.0
 0065074,-0.00026763,-0.00012218,-0.00029322,0.00025609,0.00011770,0.00
 405837,-0.00615818,0.00894608,-0.08741044,0.04015082,-0.07936937,-0.00
 005021,0.00011672,0.00004414,0.00004031,-0.00004925,-0.00000504,-0.000
 03555,-0.00001344,0.00005524,0.00006845,-0.00002428,-0.00002655,-0.000
 11819,0.00011073,0.00000364,0.00007138,-0.00001385,-0.00000011,0.00003
 694,-0.00007533,-0.00000236,-0.00142316,-0.00058355,0.00132508,-0.0000
 0205,0.00001502,0.00007706,-0.00003663,-0.00003236,-0.00003825,-0.0087
 4126,0.01297303,-0.02690250,0.00457181,-0.00483665,0.01085709,0.086362
 12,-0.00086576,-0.00127412,-0.00056443,0.00770769,0.00262520,0.0010129
 0,-0.00058135,0.00073753,-0.00041226,-0.00042336,-0.00009489,-0.000143
 17,-0.00048066,0.00036341,0.00007959,0.00088047,0.00008754,-0.00023416
 ,0.00000029,-0.00002833,0.00002711,0.00338507,-0.03555158,0.02760018,0
 .03693987,-0.09100933,0.08403576,-0.00011448,-0.00017474,0.00008211,-0
 .00007217,0.00007205,0.00002139,0.00015973,-0.00017764,0.00000595,-0.0
 0024361,0.00011970,-0.00003315,0.00019652,-0.00025251,0.00001305,-0.00
 011482,0.00002341,-0.00000396,-0.00003417,0.00016272,-0.00000656,-0.00
 049613,0.00022379,0.00049540,-0.00000961,0.00002030,0.00000628,-0.0001
 3137,0.00006613,0.00001888,0.00085389,0.00207686,-0.00056367,-0.004837
 41,0.00875733,-0.01062033,-0.04175789,0.11322343,0.00040348,0.00023341
 ,-0.00026848,-0.00187964,-0.00054535,0.00067046,-0.00028564,0.00110016
 ,-0.00000318,0.00018398,-0.00047550,-0.00006421,0.00010928,-0.00004859
 ,-0.00002829,-0.00016163,0.00002885,-0.00006201,-0.00000176,-0.0000963
 4,0.00008820,0.00427923,0.00457778,0.00712159,-0.07707150,0.08783502,-
 0.22842415,0.00001470,-0.00013232,0.00002559,-0.00003020,0.00003123,-0
 .00000414,-0.00000548,0.00012512,0.00003420,0.00004233,-0.00004723,0.0
 0000497,0.00003381,0.00009180,-0.00000879,-0.00003697,-0.00002126,0.00
 000405,-0.00003347,-0.00006961,0.00001700,0.00036880,-0.00060214,-0.00
 013418,-0.00000896,-0.00006227,0.00001575,0.00001954,-0.00004039,-0.00
 002074,0.00072446,-0.00163146,0.00169278,-0.01085836,0.01062022,-0.020
 34562,0.08414332,-0.10082561,0.23971851,-0.00206053,0.00194995,-0.0000
 0137,0.00025671,-0.00034598,0.00000026,-0.00010667,0.00003802,-0.00000
 011,-0.00017758,-0.00012278,0.00000002,0.00051399,0.00091384,-0.000000
 03,-0.00142586,0.00288719,0.00000007,0.00042959,-0.00163342,0.00000493
 ,0.00004110,-0.00000082,-0.00000017,0.00006363,0.00008433,0.00000003,0
 .01290230,0.02851192,-0.00000811,-0.16003152,-0.14563626,0.00005289,-0
 .00005088,0.00015199,0.00000001,0.00010763,-0.00003666,-0.00000007,-0.
 00007591,0.00009701,0.00000003,0.00004179,-0.00000731,0.,0.00000701,-0
 .00005956,0.00000002,0.00002034,-0.00001102,0.00000001,-0.00003506,-0.
 00003937,0.,0.00128481,0.00039792,-0.00000708,-0.00000332,0.00000675,0
 .,0.00000276,-0.00001868,-0.00000788,0.00000276,-0.00001868,0.00000787
 ,0.16780472,0.00106919,-0.00125854,0.00000045,0.00004142,0.00036010,-0
 .00000016,-0.00002122,-0.00011579,-0.00000011,0.00044604,-0.00009607,0
 .00000026,-0.00076348,-0.00113340,-0.00000017,0.00349157,0.00090862,-0
 .00000055,-0.00025352,0.00165843,0.00000052,-0.00026904,-0.00020600,0.
 00000002,-0.00000018,0.00010466,-0.00000001,-0.00824328,-0.03810335,0.
 00000921,-0.13167743,-0.20680266,0.00006025,-0.00026422,-0.00002011,0.
 00000007,0.00019805,-0.00009619,0.,-0.00024612,0.00019166,-0.00000003,
 0.00015393,-0.00000727,-0.00000009,0.00006200,-0.00011489,0.00000002,-
 0.00000394,-0.00001872,-0.00000002,0.00005092,0.00002801,-0.00000003,-
 0.00074446,-0.00105307,0.00000020,-0.00001756,-0.00001480,0.,0.0000091
 6,-0.00001319,0.00000118,0.00000916,-0.00001319,-0.00000114,0.13825178
 ,0.24090692,0.00000173,-0.00000092,-0.00027332,-0.00000043,0.00000020,
 -0.00006125,0.00000012,-0.00000005,0.00004428,-0.00000010,0.00000034,-
 0.00010177,0.00000002,-0.00000076,0.00015561,0.00000020,0.00000037,0.0
 0050723,-0.00000060,0.00000042,0.00128201,-0.00000004,0.,-0.00000402,-
 0.00000014,-0.00000018,-0.00000233,-0.00000218,-0.00000379,0.00148333,
 0.00004887,0.00006985,-0.04998567,0.00000009,-0.00000007,-0.00001904,-
 0.00000025,0.00000007,0.00000110,0.00000009,-0.00000013,0.00000491,-0.
 00000007,0.00000002,-0.00000853,0.,0.00000011,-0.00000163,-0.00000002,
 0.00000008,0.00001212,-0.00000010,0.00000006,0.00002227,-0.00000621,-0
 .00000444,-0.00205010,0.00000010,0.00000004,0.00000041,-0.00000054,-0.
 00000002,0.00000069,0.00000046,0.00000008,0.00000069,-0.00005627,-0.00
 006973,0.04716895,-0.00062961,0.00158713,0.00015616,-0.00026923,-0.000
 27476,0.00000477,0.00020302,0.00036051,0.00001332,-0.00007748,-0.00026
 048,0.00026315,-0.00020280,0.00110807,0.00007413,-0.00054067,-0.004635
 59,-0.00000571,-0.00035195,-0.00182689,0.00081955,0.00035577,0.0002330
 7,-0.00000718,-0.00001027,-0.00012452,-0.00000053,-0.01736734,0.014992
 87,-0.01507350,-0.12240873,-0.00056329,-0.10914365,0.00020555,-0.00003
 654,-0.00000319,-0.00021828,0.00009056,-0.00000237,0.00027868,-0.00024
 444,-0.00000164,-0.00016793,0.00001977,0.00000859,-0.00007090,0.000162
 89,0.00000428,0.00001128,0.00001151,-0.00007189,0.00012025,-0.00010422
 ,-0.00013562,-0.00007142,-0.00150349,0.00015680,0.00002540,0.00001258,
 0.00000161,-0.00001102,0.00001805,-0.00000514,-0.00001498,0.00001284,0
 .00000920,-0.00974696,-0.00063876,-0.01826198,0.13839263,0.00106246,-0
 .00112496,-0.00044524,0.00005532,0.00008257,-0.00002258,-0.00012407,-0
 .00020309,-0.00003058,0.00005952,0.00039286,-0.00023084,0.00033703,-0.
 00127726,-0.00037690,0.00170731,0.00544783,0.00194317,-0.00216416,0.00
 087831,0.00063619,-0.00012623,-0.00003739,-0.00003355,-0.00000704,0.00
 000446,0.00002295,0.02542170,-0.01182780,0.02319179,-0.00324700,-0.049
 92425,-0.00145877,0.00002093,-0.00007093,0.00003400,-0.00000123,0.0000
 0315,-0.00008286,-0.00004617,0.00002416,0.00002310,0.00002766,-0.00000
 527,0.00000614,0.00001971,-0.00002527,-0.00000360,-0.00002010,0.000004
 42,-0.00000981,-0.00017790,0.00008979,0.00024049,-0.00167965,-0.002061
 83,0.00145070,-0.00000665,-0.00000259,0.00000098,0.00000967,0.00000238
 ,0.00000257,-0.00000054,0.00000151,-0.00000810,-0.01269621,0.00246600,
 -0.02128255,-0.00705647,0.05569143,-0.00244747,0.00246234,-0.00054092,
 0.00011075,-0.00051540,0.00003359,-0.00010568,0.00020036,0.00003150,0.
 00014991,-0.00026195,-0.00003549,0.00006273,0.00051152,-0.00015937,-0.
 00004187,-0.00162580,0.00035415,0.00056541,-0.00306770,0.00173133,0.00
 015919,0.00002888,0.00000896,0.00004886,0.00006607,-0.00000583,-0.0006
 8607,0.00651279,0.00797253,-0.11190717,-0.00014481,-0.22948683,-0.0000
 6935,0.00009350,-0.00000040,0.00007604,-0.00004049,0.00001776,-0.00003
 110,0.00003464,-0.00000709,0.00002018,0.00000590,0.00000281,-0.0000040
 9,-0.00000725,0.00000368,0.00002494,-0.00001635,-0.00002653,0.00006163
 ,-0.00007754,0.00002894,0.00182777,0.00248484,-0.00246184,0.00000398,0
 .00000708,-0.00000200,-0.00000129,-0.00001517,-0.00000948,0.00000404,-
 0.00002191,0.00001263,0.00083797,-0.00049801,0.00091655,0.12628523,-0.
 00484929,0.24044444,-0.00063276,0.00159117,-0.00016083,-0.00026989,-0.
 00027579,-0.00000244,0.00020339,0.00036080,-0.00001347,-0.00007738,-0.
 00026136,-0.00026291,-0.00020338,0.00110958,-0.00007495,-0.00054168,-0
 .00464306,0.00000779,-0.00035067,-0.00182987,-0.00081393,0.00035617,0.
 00023313,0.00000651,-0.00001043,-0.00012455,0.00000065,-0.01736218,0.0
 1500999,0.01508685,-0.12220350,-0.00053828,0.10900653,0.00020511,-0.00
 003607,0.00000262,-0.00021834,0.00009045,0.00000246,0.00027846,-0.0002
 4433,0.00000195,-0.00016782,0.00001982,-0.00000829,-0.00007087,0.00016
 302,-0.00000433,0.00001137,0.00001164,0.00007214,0.00012025,-0.0001042
 8,0.00013572,-0.00006850,-0.00150487,-0.00015654,0.00002567,0.00001271
 ,-0.00000158,-0.00001507,0.00001283,-0.00000937,-0.00001111,0.00001807
 ,0.00000504,-0.00973840,-0.00063288,0.01827719,0.01252484,-0.00135861,
 -0.01495304,0.13817446,0.00106086,-0.00112104,0.00044510,0.00005565,0.
 00008172,0.00002357,-0.00012465,-0.00020251,0.00003006,0.00005974,0.00
 039319,0.00023117,0.00033787,-0.00127715,0.00037703,0.00170530,0.00544
 721,-0.00194388,-0.00216472,0.00087806,-0.00063227,-0.00012619,-0.0000
 3736,0.00003285,-0.00000723,0.00000455,-0.00002294,0.02540201,-0.01183
 527,-0.02320064,-0.00320245,-0.04992362,0.00138499,0.00002077,-0.00007
 069,-0.00003407,-0.00000092,0.00000312,0.00008280,-0.00004649,0.000024
 32,-0.00002308,0.00002779,-0.00000525,-0.00000617,0.00001978,-0.000025
 46,0.00000360,-0.00002008,0.00000443,0.00000987,-0.00017773,0.00008964
 ,-0.00024046,-0.00168372,-0.00207137,-0.00145638,-0.00000653,-0.000002
 50,-0.00000100,-0.00000053,0.00000148,0.00000812,0.00000967,0.00000238
 ,-0.00000256,-0.01268214,0.00247233,0.02129100,-0.00135391,0.00148269,
 -0.00126957,-0.00709284,0.05569814,0.00245038,-0.00246717,-0.00054207,
 -0.00010995,0.00051727,0.00003551,0.00010575,-0.00020048,0.00003149,-0
 .00015050,0.00026193,-0.00003543,-0.00006252,-0.00051279,-0.00015920,0
 .00004368,0.00163246,0.00035411,-0.00056732,0.00306944,0.00173175,-0.0
 0015977,-0.00002909,0.00000845,-0.00004889,-0.00006596,-0.00000580,0.0
 0069913,-0.00652837,0.00797116,0.11178223,0.00009064,-0.22958813,0.000
 06924,-0.00009384,-0.00000050,-0.00007555,0.00004067,0.00001772,0.0000
 3080,-0.00003439,-0.00000703,-0.00002005,-0.00000592,0.00000288,0.0000
 0419,0.00000678,0.00000368,-0.00002499,0.00001623,-0.00002668,-0.00006
 175,0.00007776,0.00002883,-0.00183774,-0.00249469,-0.00245471,-0.00000
 409,-0.00000711,-0.00000202,-0.00000396,0.00002189,0.00001263,0.000001
 32,0.00001511,-0.00000951,-0.00082301,0.00049784,0.00089124,0.01494065
 ,0.00126631,-0.01881371,-0.12616860,0.00492907,0.24056468,-0.00009296,
 -0.00011383,-0.00000065,-0.00002210,0.00004632,0.00000095,0.00110672,0
 .00198035,-0.00000026,0.00692355,0.02213344,-0.00000709,-0.00403583,0.
 00197808,0.00000056,0.00097340,0.00075719,-0.00000054,-0.00001631,-0.0
 0007294,-0.00000001,0.00001294,-0.00011601,-0.00000007,-0.00001375,0.0
 0008428,0.00000004,-0.00034739,0.00022696,0.00000005,0.00003004,0.0000
 7525,0.,-0.08018186,-0.07521445,0.00003325,-0.00810387,-0.03323695,0.0
 0001568,-0.00219446,-0.00461781,0.00000073,0.00155260,0.00104877,-0.00
 000088,0.00183535,0.00219492,-0.00000119,-0.00070505,-0.00022854,0.000
 00012,0.00009543,0.00002325,-0.00000013,0.00002331,0.00000319,0.000000
 07,0.00001834,-0.00002801,0.00000002,-0.00001278,-0.00000307,-0.000042
 27,-0.00001280,-0.00000308,0.00004215,-0.00002147,0.00002583,0.0000000
 3,-0.00000436,0.00000984,-0.00000346,-0.00000433,0.00000986,0.00000348
 ,0.08840042,-0.00007763,0.00023160,-0.00000052,0.00015657,0.00008631,0
 .00000052,-0.00198524,0.00118736,-0.00000089,-0.00669158,-0.01760056,0
 .00000731,0.00340140,-0.00035235,0.00000169,-0.00094817,-0.00037541,-0
 .00000080,0.00019175,-0.00002785,0.00000020,0.00013797,0.00013007,-0.0
 0000004,0.00000150,-0.00015201,0.00000007,0.00034693,-0.00027320,-0.00
 000009,-0.00007634,0.00000701,0.00000012,-0.07659195,-0.30854269,0.000
 10609,-0.00354008,-0.00381374,0.00000475,0.00127594,-0.00074941,-0.000
 00223,-0.00066411,-0.00005279,0.00000050,0.00131417,0.00025274,-0.0000
 0053,0.00108029,0.00058233,0.00000042,-0.00012981,0.00010943,0.0000000
 7,-0.00002980,0.00002370,-0.00000003,-0.00000826,0.00002532,0.,0.00000
 715,0.00001599,0.00003009,0.00000715,0.00001600,-0.00003023,0.00001688
 ,-0.00002954,0.00000002,0.00001651,-0.00001195,0.00000593,0.00001659,-
 0.00001193,-0.00000597,0.08271278,0.32846949,-0.00000085,0.00000006,0.
 00009746,-0.00000013,-0.00000065,0.00011402,-0.00000036,-0.00000060,-0
 .00160897,0.00000430,-0.00000350,0.00447673,-0.00000056,0.00000129,0.0
 0276380,0.00000205,-0.00000053,-0.00001207,0.00000041,-0.00000032,-0.0
 0001179,-0.00000004,0.00000006,-0.00000553,-0.00000002,-0.00000003,0.0
 0007023,-0.00000019,-0.00000007,-0.00017045,-0.00000008,-0.00000004,-0
 .00009944,0.00002971,0.00010773,-0.04467102,0.00000955,0.00001261,0.00
 761907,-0.00000326,0.00000059,-0.00758818,0.00000059,-0.00000019,0.000
 39839,-0.00000063,-0.00000099,0.00017557,-0.00000043,0.00000012,0.0003
 3403,0.00000003,0.,-0.00000207,0.00000005,0.00000007,-0.00000726,0.000
 00003,0.,-0.00001348,-0.00001342,-0.00001230,-0.00002116,0.00001339,0.
 00001234,-0.00002113,-0.00000002,0.,0.00000178,-0.00001094,0.00001939,
 -0.00000138,0.00001095,-0.00001934,-0.00000133,-0.00004492,-0.00011895
 ,0.02791690,0.00000962,-0.00007735,0.00000032,-0.00017950,0.00017143,-
 0.00000071,0.00022723,0.00000509,-0.00000010,0.00122718,-0.00000387,-0
 .00000216,-0.00087400,-0.00040850,0.00000003,0.00021833,0.00051083,-0.
 00000004,0.00009676,0.00003485,0.00000002,0.00030192,0.00016869,0.0000
 0002,-0.00002520,-0.00016591,0.00000002,-0.00000178,-0.00015891,0.0000
 0004,-0.00007701,0.00013774,0.00000007,-0.00641358,-0.03094829,0.00001
 425,-0.10209150,-0.10525868,0.00005836,0.01122797,0.01766043,-0.000009
 55,-0.00102381,0.00026574,-0.00000013,-0.00297223,0.00530277,-0.000000
 04,0.00020861,0.00010933,0.00000005,-0.00063114,0.00156623,0.00000118,
 -0.00003428,0.00001655,0.00000009,0.00000577,0.00001380,-0.00000002,-0
 .00000625,0.00001705,0.00002021,-0.00000625,0.00001704,-0.00002014,0.0
 0000255,-0.00001510,0.00000001,0.00002361,-0.00001509,0.00001210,0.000
 02369,-0.00001513,-0.00001228,-0.00504089,0.00006258,0.00000465,0.1053
 0512,-0.00001107,-0.00003173,0.00000098,-0.00005145,-0.00014974,-0.000
 00237,-0.00023120,0.00004609,-0.00000022,0.00061367,-0.00102583,-0.000
 00174,0.00080845,-0.00000991,-0.00000087,0.00006540,0.00030338,0.00000
 135,0.00007674,-0.00003736,0.00000018,0.00000371,0.00005879,0.00000018
 ,-0.00000147,-0.00003147,-0.00000004,-0.00001849,-0.00001246,-0.000000
 06,-0.00000539,0.00000339,-0.00000003,-0.00192016,0.00044058,0.0000020
 9,-0.10165075,-0.29756104,0.00012422,-0.01579218,-0.01721011,0.0000108
 4,0.00080750,0.00195408,-0.00000146,0.00435410,-0.00370071,0.00000084,
 0.00000476,0.00003802,-0.00000002,0.00144815,-0.00029945,-0.00000018,0
 .00000079,0.00001385,-0.00000005,0.00000130,0.00000341,-0.00000005,-0.
 00000004,0.00000242,0.00000639,-0.00000006,0.00000240,-0.00000611,-0.0
 0000103,-0.00000212,0.,0.00000127,0.00000077,-0.00000202,0.00000131,0.
 00000064,0.00000179,0.00026734,0.00084325,0.00000315,0.11136112,0.3161
 2342,0.00000082,0.00000099,-0.00033405,0.00000059,-0.00000122,-0.00004
 860,-0.00000133,0.00000009,-0.00000436,-0.00000084,-0.00000272,-0.0056
 0516,0.00000141,0.00000034,-0.00008649,-0.00000197,-0.00000013,-0.0003
 6318,-0.00000002,-0.00000004,0.00025466,-0.00000025,0.,0.00001872,0.00
 000009,0.00000019,0.00003057,0.00000011,0.00000006,0.00002114,0.000000
 16,-0.00000020,0.00001640,0.00000207,0.00001151,0.00450792,0.00005882,
 0.00012609,-0.03488492,0.00000168,0.00000131,0.00044312,-0.00000003,-0
 .00000128,-0.00077448,0.00000027,0.00000047,0.00284328,-0.00000019,-0.
 00000014,0.00012530,0.00000095,-0.00000097,0.00110453,-0.00000009,0.00
 000003,0.00001891,-0.00000014,-0.00000005,-0.00000167,-0.00000100,-0.0
 0000076,-0.00000701,0.00000109,0.00000076,-0.00000704,0.,0.00000003,0.
 00001028,-0.00000950,-0.00000199,-0.00000573,0.00000943,0.00000201,-0.
 00000571,0.00000432,0.00000248,0.01007070,-0.00006617,-0.00013685,0.02
 293849,-0.00030262,0.00018310,-0.00000017,-0.00022505,-0.00026809,0.00
 000009,-0.00019052,0.00006814,-0.00000020,-0.00015939,-0.00067125,-0.0
 0000023,0.00008744,0.00009676,0.,0.00026146,0.00026513,-0.00000003,0.0
 0032245,-0.00028695,0.00000030,0.00018922,0.00011160,-0.00000003,-0.00
 003526,-0.00007416,0.00000001,-0.00002335,-0.00029463,0.00000006,-0.00
 008895,0.00011833,0.00000002,-0.00144984,0.00197222,0.00000044,-0.0044
 6989,-0.00511026,0.00000596,-0.03905477,0.04705177,-0.00000082,-0.1799
 8082,0.17908001,-0.00000148,0.00989876,-0.00151197,-0.00000569,-0.0000
 3162,0.00000180,0.00000002,-0.00000724,0.00003181,-0.00000002,0.000001
 77,0.00006937,-0.00000014,0.00001850,0.00000054,0.,-0.00000933,0.00001
 310,-0.00000656,-0.00000933,0.00001311,0.00000655,-0.00000753,-0.00001
 787,0.00000001,0.00002291,-0.00000401,-0.00000014,0.00002292,-0.000004
 03,0.00000011,-0.00016190,-0.00000320,0.00000011,0.00049907,-0.0001323
 3,-0.00000027,0.21488291,0.00008873,-0.00006553,0.00000028,0.00006492,
 0.00009640,-0.00000043,0.00007799,0.00002141,-0.00000036,-0.00022097,0
 .00020830,-0.00000016,-0.00001301,-0.00010571,-0.00000005,-0.00008657,
 -0.00003325,0.00000035,-0.00009285,0.00007765,-0.00000008,-0.00007915,
 -0.00005618,0.00000006,0.00001087,0.00004963,-0.00000002,0.00000074,0.
 00004495,-0.00000002,0.00001964,-0.00002144,-0.00000005,0.00012377,0.0
 0028608,0.00000048,-0.00216848,0.00049646,0.00000222,-0.00324955,0.015
 69062,-0.00000284,0.22790119,-0.35766632,0.00003847,-0.00137769,-0.005
 51299,0.00000028,-0.00000158,-0.00000761,-0.00000003,0.00000202,0.0000
 0603,0.00000001,0.00000098,-0.00001651,0.00000003,-0.00000556,-0.00000
 163,0.,0.00000311,-0.00000536,-0.00000256,0.00000311,-0.00000536,0.000
 00263,0.00000236,0.00000217,-0.00000001,-0.00000429,0.00000025,-0.0000
 0058,-0.00000432,0.00000024,0.00000059,0.00005704,0.00001284,0.0000001
 1,-0.00035443,0.00023744,0.,-0.22069803,0.34626743,0.00000026,0.000000
 52,-0.00002894,0.00000057,-0.00000015,0.00010524,-0.00000018,-0.000000
 32,-0.00017118,0.00000031,-0.00000007,-0.00064967,-0.00000012,0.000000
 14,0.00002437,-0.00000107,0.00000007,0.00004303,-0.00000016,0.00000005
 ,-0.00000928,-0.00000026,-0.00000006,0.00000101,0.00000019,0.00000022,
 0.00002330,0.,0.00000023,-0.00001773,0.00000027,-0.00000027,0.00001409
 ,0.00000097,-0.00000073,0.00074917,0.00000450,0.00000373,0.00498194,0.
 00001900,-0.00002403,0.00397634,-0.00002050,0.00005842,-0.01576166,-0.
 00000565,0.00000082,-0.00574144,-0.00000005,-0.00000009,-0.00001073,0.
 00000008,0.,-0.00000853,0.00000009,-0.00000015,0.00000793,-0.00000029,
 -0.00000010,0.00000085,0.00000054,-0.00000234,-0.00000484,-0.00000035,
 0.00000232,-0.00000495,0.,0.00000003,0.00000422,-0.00000461,-0.0000011
 0,-0.00000227,0.00000445,0.00000111,-0.00000230,0.00000003,0.,0.000196
 57,-0.00000010,0.00000005,-0.00027564,0.00000207,-0.00003832,0.0125611
 0\\-0.00012949,0.00000322,0.00000022,0.00002535,0.00007820,0.00000100,
 0.00007166,-0.00000799,-0.00000123,-0.00006400,-0.00002786,-0.00000025
 ,-0.00005114,0.00006905,0.00000192,0.00012584,-0.00003461,0.00000223,0
 .00007384,-0.00004554,-0.00000238,0.00000536,-0.00001520,-0.00000006,-
 0.00005729,-0.00000129,0.00000005,-0.00003205,-0.00000015,-0.00000551,
 0.00000285,-0.00001413,0.00000332,0.00000570,-0.00003497,-0.00000088,0
 .00002228,0.00004049,-0.00000314,-0.00005365,-0.00004812,0.00000776,-0
 .00000032,-0.00002150,-0.00000287,0.00002888,0.00006574,-0.00000263,0.
 00001515,0.00001227,0.00000018,-0.00000015,-0.00001171,0.00000044,-0.0
 0000730,-0.00000265,0.00000155,0.00000210,-0.00000831,0.00000002,0.000
 00969,-0.00000400,0.00000608,0.00000961,-0.00000401,-0.00000624,-0.000
 00133,-0.00000769,-0.00000023,-0.00000016,0.00000295,-0.00000329,-0.00
 000137,0.00000023,0.00000257,-0.00000619,0.00001706,0.00000102,-0.0000
 0343,-0.00001231,0.00000033,0.00000956,0.00001283,0.00000003\\\@


 REALITY IS FOR PEOPLE WHO CAN'T FACE SCIENCE FICTION.
 Job cpu time:       0 days  0 hours 50 minutes 18.8 seconds.
 File lengths (MBytes):  RWF=    374 Int=      0 D2E=      0 Chk=     11 Scr=      1
 Normal termination of Gaussian 09 at Wed Jun 19 14:11:21 2024.
