 Entering Gaussian System, Link 0=g09
 Input=B3PW91SAYang.gjf
 Output=B3PW91SAYang.log
 Initial command:
 /home/phzd/g09E/g09/l1.exe "/home/phzd/g09E/scratch/Gau-1281314.inp" -scrdir="/home/phzd/g09E/scratch/"
 Default is to use a total of  18 processors:
                               18 via shared-memory
                                1 via Linda
 Entering Link 1 = /home/phzd/g09E/g09/l1.exe PID=   1281316.
  
 Copyright (c) 1988,1990,1992,1993,1995,1998,2003,2009,2015,
            Gaussian, Inc.  All Rights Reserved.
  
 This is part of the Gaussian(R) 09 program.  It is based on
 the Gaussian(R) 03 system (copyright 2003, Gaussian, Inc.),
 the Gaussian(R) 98 system (copyright 1998, Gaussian, Inc.),
 the Gaussian(R) 94 system (copyright 1995, Gaussian, Inc.),
 the Gaussian 92(TM) system (copyright 1992, Gaussian, Inc.),
 the Gaussian 90(TM) system (copyright 1990, Gaussian, Inc.),
 the Gaussian 88(TM) system (copyright 1988, Gaussian, Inc.),
 the Gaussian 86(TM) system (copyright 1986, Carnegie Mellon
 University), and the Gaussian 82(TM) system (copyright 1983,
 Carnegie Mellon University). Gaussian is a federally registered
 trademark of Gaussian, Inc.
  
 This software contains proprietary and confidential information,
 including trade secrets, belonging to Gaussian, Inc.
  
 This software is provided under written license and may be
 used, copied, transmitted, or stored only in accord with that
 written license.
  
 The following legend is applicable only to US Government
 contracts under FAR:
  
                    RESTRICTED RIGHTS LEGEND
  
 Use, reproduction and disclosure by the US Government is
 subject to restrictions as set forth in subparagraphs (a)
 and (c) of the Commercial Computer Software - Restricted
 Rights clause in FAR 52.227-19.
  
 Gaussian, Inc.
 340 Quinnipiac St., Bldg. 40, Wallingford CT 06492
  
  
 ---------------------------------------------------------------
 Warning -- This program may not be used in any manner that
 competes with the business of Gaussian, Inc. or will provide
 assistance to any competitor of Gaussian, Inc.  The licensee
 of this program is prohibited from giving any competitor of
 Gaussian, Inc. access to this program.  By using this program,
 the user acknowledges that Gaussian, Inc. is engaged in the
 business of creating and licensing software in the field of
 computational chemistry and represents and warrants to the
 licensee that it is not a competitor of Gaussian, Inc. and that
 it will not use this program in any manner prohibited above.
 ---------------------------------------------------------------
  

 Cite this work as:
 Gaussian 09, Revision E.01,
 M. J. Frisch, G. W. Trucks, H. B. Schlegel, G. E. Scuseria, 
 M. A. Robb, J. R. Cheeseman, G. Scalmani, V. Barone, B. Mennucci, 
 G. A. Petersson, H. Nakatsuji, M. Caricato, X. Li, H. P. Hratchian, 
 A. F. Izmaylov, J. Bloino, G. Zheng, J. L. Sonnenberg, M. Hada, 
 M. Ehara, K. Toyota, R. Fukuda, J. Hasegawa, M. Ishida, T. Nakajima, 
 Y. Honda, O. Kitao, H. Nakai, T. Vreven, J. A. Montgomery, Jr., 
 J. E. Peralta, F. Ogliaro, M. Bearpark, J. J. Heyd, E. Brothers, 
 K. N. Kudin, V. N. Staroverov, T. Keith, R. Kobayashi, J. Normand, 
 K. Raghavachari, A. Rendell, J. C. Burant, S. S. Iyengar, J. Tomasi, 
 M. Cossi, N. Rega, J. M. Millam, M. Klene, J. E. Knox, J. B. Cross, 
 V. Bakken, C. Adamo, J. Jaramillo, R. Gomperts, R. E. Stratmann, 
 O. Yazyev, A. J. Austin, R. Cammi, C. Pomelli, J. W. Ochterski, 
 R. L. Martin, K. Morokuma, V. G. Zakrzewski, G. A. Voth, 
 P. Salvador, J. J. Dannenberg, S. Dapprich, A. D. Daniels, 
 O. Farkas, J. B. Foresman, J. V. Ortiz, J. Cioslowski, 
 and D. J. Fox, Gaussian, Inc., Wallingford CT, 2013.
 
 ******************************************
 Gaussian 09:  ES64L-G09RevE.01 30-Nov-2015
                14-Dec-2024 
 ******************************************
 %chk=B3PW91SAYang.chk
 -----------------------------
 # opt freq b3pw91/6-31+g(d,p)
 -----------------------------
 1/14=-1,18=20,19=15,26=3,38=1/1,3;
 2/9=110,12=2,17=6,18=5,40=1/2;
 3/5=1,6=6,7=111,11=2,16=1,25=1,30=1,71=1,74=-6/1,2,3;
 4//1;
 5/5=2,38=5/2;
 6/7=2,8=2,9=2,10=2,28=1/1;
 7//1,2,3,16;
 1/14=-1,18=20,19=15,26=3/3(2);
 2/9=110/2;
 99//99;
 2/9=110/2;
 3/5=1,6=6,7=111,11=2,16=1,25=1,30=1,71=1,74=-6/1,2,3;
 4/5=5,16=3,69=1/1;
 5/5=2,38=5/2;
 7//1,2,3,16;
 1/14=-1,18=20,19=15,26=3/3(-5);
 2/9=110/2;
 6/7=2,8=2,9=2,10=2,19=2,28=1/1;
 99/9=1/99;
 ----------
 [No Title]
 ----------
 Symbolic Z-matrix:
 Charge =  1 Multiplicity = 1
 C                     2.39471   0.1985   -0.00194 
 C                     1.92026  -1.13397   0.00605 
 C                     0.55416  -1.34838   0.01341 
 C                    -0.35499  -0.2577    0.01248 
 C                     0.13117   1.07581   0.00096 
 C                     1.4898    1.2919   -0.00417 
 O                     3.69797   0.40617  -0.00834 
 O                     2.8758   -2.07338   0.00551 
 C                     2.46758  -3.43358   0.01341 
 O                     2.12297   2.48561  -0.01349 
 C                     1.32952   3.66757  -0.01477 
 C                    -1.73394  -0.55838   0.01567 
 C                    -2.79159   0.34074   0.01803 
 C                    -4.10237  -0.11141  -0.00182 
 O                    -5.07379   0.77044   0.08406 
 O                    -4.37436  -1.39642  -0.11609 
 H                     0.16035  -2.35838   0.01999 
 H                    -0.55403   1.91398  -0.00316 
 H                     3.87923   1.36113  -0.01435 
 H                     3.38569  -4.01701   0.01111 
 H                     1.88985  -3.66029   0.9163 
 H                     1.8805   -3.66798  -0.88143 
 H                     2.03132   4.49872  -0.02021 
 H                     0.70377   3.70496  -0.91221 
 H                     0.71023   3.71112   0.88689 
 H                    -1.99331  -1.61622   0.01434 
 H                    -2.66437   1.41506   0.03536 
 H                    -5.96033   0.43501  -0.11562 
 H                    -5.28347  -1.64595   0.10595 
 

 GradGradGradGradGradGradGradGradGradGradGradGradGradGradGradGradGradGrad
 Berny optimization.
 Initialization pass.
                           ----------------------------
                           !    Initial Parameters    !
                           ! (Angstroms and Degrees)  !
 --------------------------                            --------------------------
 ! Name  Definition              Value          Derivative Info.                !
 --------------------------------------------------------------------------------
 ! R1    R(1,2)                  1.4144         estimate D2E/DX2                !
 ! R2    R(1,6)                  1.4193         estimate D2E/DX2                !
 ! R3    R(1,7)                  1.3197         estimate D2E/DX2                !
 ! R4    R(2,3)                  1.3828         estimate D2E/DX2                !
 ! R5    R(2,8)                  1.34           estimate D2E/DX2                !
 ! R6    R(3,4)                  1.4199         estimate D2E/DX2                !
 ! R7    R(3,17)                 1.0841         estimate D2E/DX2                !
 ! R8    R(4,5)                  1.4194         estimate D2E/DX2                !
 ! R9    R(4,12)                 1.4114         estimate D2E/DX2                !
 ! R10   R(5,6)                  1.3757         estimate D2E/DX2                !
 ! R11   R(5,18)                 1.0826         estimate D2E/DX2                !
 ! R12   R(6,10)                 1.3513         estimate D2E/DX2                !
 ! R13   R(7,19)                 0.972          estimate D2E/DX2                !
 ! R14   R(8,9)                  1.4202         estimate D2E/DX2                !
 ! R15   R(9,20)                 1.0878         estimate D2E/DX2                !
 ! R16   R(9,21)                 1.0956         estimate D2E/DX2                !
 ! R17   R(9,22)                 1.0956         estimate D2E/DX2                !
 ! R18   R(10,11)                1.4236         estimate D2E/DX2                !
 ! R19   R(11,23)                1.0878         estimate D2E/DX2                !
 ! R20   R(11,24)                1.0947         estimate D2E/DX2                !
 ! R21   R(11,25)                1.0947         estimate D2E/DX2                !
 ! R22   R(12,13)                1.3882         estimate D2E/DX2                !
 ! R23   R(12,26)                1.0892         estimate D2E/DX2                !
 ! R24   R(13,14)                1.3867         estimate D2E/DX2                !
 ! R25   R(13,27)                1.082          estimate D2E/DX2                !
 ! R26   R(14,15)                1.3148         estimate D2E/DX2                !
 ! R27   R(14,16)                1.3184         estimate D2E/DX2                !
 ! R28   R(15,28)                0.9687         estimate D2E/DX2                !
 ! R29   R(16,29)                0.9685         estimate D2E/DX2                !
 ! A1    A(2,1,6)              120.7891         estimate D2E/DX2                !
 ! A2    A(2,1,7)              118.6541         estimate D2E/DX2                !
 ! A3    A(6,1,7)              120.5568         estimate D2E/DX2                !
 ! A4    A(1,2,3)              118.5201         estimate D2E/DX2                !
 ! A5    A(1,2,8)              114.9122         estimate D2E/DX2                !
 ! A6    A(3,2,8)              126.5677         estimate D2E/DX2                !
 ! A7    A(2,3,4)              120.8928         estimate D2E/DX2                !
 ! A8    A(2,3,17)             120.2223         estimate D2E/DX2                !
 ! A9    A(4,3,17)             118.885          estimate D2E/DX2                !
 ! A10   A(3,4,5)              120.1558         estimate D2E/DX2                !
 ! A11   A(3,4,12)             117.5124         estimate D2E/DX2                !
 ! A12   A(5,4,12)             122.3309         estimate D2E/DX2                !
 ! A13   A(4,5,6)              119.068          estimate D2E/DX2                !
 ! A14   A(4,5,18)             120.7045         estimate D2E/DX2                !
 ! A15   A(6,5,18)             120.2275         estimate D2E/DX2                !
 ! A16   A(1,6,5)              120.5739         estimate D2E/DX2                !
 ! A17   A(1,6,10)             112.4458         estimate D2E/DX2                !
 ! A18   A(5,6,10)             126.9803         estimate D2E/DX2                !
 ! A19   A(1,7,19)             109.8029         estimate D2E/DX2                !
 ! A20   A(2,8,9)              117.8059         estimate D2E/DX2                !
 ! A21   A(8,9,20)             105.7286         estimate D2E/DX2                !
 ! A22   A(8,9,21)             110.7535         estimate D2E/DX2                !
 ! A23   A(8,9,22)             110.7567         estimate D2E/DX2                !
 ! A24   A(20,9,21)            109.6213         estimate D2E/DX2                !
 ! A25   A(20,9,22)            109.6203         estimate D2E/DX2                !
 ! A26   A(21,9,22)            110.2582         estimate D2E/DX2                !
 ! A27   A(6,10,11)            118.1834         estimate D2E/DX2                !
 ! A28   A(10,11,23)           105.9493         estimate D2E/DX2                !
 ! A29   A(10,11,24)           110.3463         estimate D2E/DX2                !
 ! A30   A(10,11,25)           110.3401         estimate D2E/DX2                !
 ! A31   A(23,11,24)           109.7903         estimate D2E/DX2                !
 ! A32   A(23,11,25)           109.7972         estimate D2E/DX2                !
 ! A33   A(24,11,25)           110.5181         estimate D2E/DX2                !
 ! A34   A(4,12,13)            127.331          estimate D2E/DX2                !
 ! A35   A(4,12,26)            116.0769         estimate D2E/DX2                !
 ! A36   A(13,12,26)           116.592          estimate D2E/DX2                !
 ! A37   A(12,13,14)           120.5947         estimate D2E/DX2                !
 ! A38   A(12,13,27)           123.6118         estimate D2E/DX2                !
 ! A39   A(14,13,27)           115.7934         estimate D2E/DX2                !
 ! A40   A(13,14,15)           118.6038         estimate D2E/DX2                !
 ! A41   A(13,14,16)           120.9327         estimate D2E/DX2                !
 ! A42   A(15,14,16)           120.4609         estimate D2E/DX2                !
 ! A43   A(14,15,28)           115.4973         estimate D2E/DX2                !
 ! A44   A(14,16,29)           115.1429         estimate D2E/DX2                !
 ! D1    D(6,1,2,3)             -0.0826         estimate D2E/DX2                !
 ! D2    D(6,1,2,8)            179.9124         estimate D2E/DX2                !
 ! D3    D(7,1,2,3)            179.9691         estimate D2E/DX2                !
 ! D4    D(7,1,2,8)             -0.036          estimate D2E/DX2                !
 ! D5    D(2,1,6,5)             -0.0224         estimate D2E/DX2                !
 ! D6    D(2,1,6,10)          -179.9326         estimate D2E/DX2                !
 ! D7    D(7,1,6,5)            179.925          estimate D2E/DX2                !
 ! D8    D(7,1,6,10)             0.0148         estimate D2E/DX2                !
 ! D9    D(2,1,7,19)           179.941          estimate D2E/DX2                !
 ! D10   D(6,1,7,19)            -0.0075         estimate D2E/DX2                !
 ! D11   D(1,2,3,4)              0.023          estimate D2E/DX2                !
 ! D12   D(1,2,3,17)          -179.9782         estimate D2E/DX2                !
 ! D13   D(8,2,3,4)           -179.9713         estimate D2E/DX2                !
 ! D14   D(8,2,3,17)             0.0275         estimate D2E/DX2                !
 ! D15   D(1,2,8,9)            179.9954         estimate D2E/DX2                !
 ! D16   D(3,2,8,9)             -0.0101         estimate D2E/DX2                !
 ! D17   D(2,3,4,5)              0.1387         estimate D2E/DX2                !
 ! D18   D(2,3,4,12)           179.7877         estimate D2E/DX2                !
 ! D19   D(17,3,4,5)          -179.8601         estimate D2E/DX2                !
 ! D20   D(17,3,4,12)           -0.2111         estimate D2E/DX2                !
 ! D21   D(3,4,5,6)             -0.2413         estimate D2E/DX2                !
 ! D22   D(3,4,5,18)           179.7958         estimate D2E/DX2                !
 ! D23   D(12,4,5,6)          -179.8729         estimate D2E/DX2                !
 ! D24   D(12,4,5,18)            0.1642         estimate D2E/DX2                !
 ! D25   D(3,4,12,13)          179.8664         estimate D2E/DX2                !
 ! D26   D(3,4,12,26)           -0.2503         estimate D2E/DX2                !
 ! D27   D(5,4,12,13)           -0.4927         estimate D2E/DX2                !
 ! D28   D(5,4,12,26)          179.3906         estimate D2E/DX2                !
 ! D29   D(4,5,6,1)              0.183          estimate D2E/DX2                !
 ! D30   D(4,5,6,10)          -179.9208         estimate D2E/DX2                !
 ! D31   D(18,5,6,1)          -179.8539         estimate D2E/DX2                !
 ! D32   D(18,5,6,10)            0.0423         estimate D2E/DX2                !
 ! D33   D(1,6,10,11)         -179.9125         estimate D2E/DX2                !
 ! D34   D(5,6,10,11)            0.1842         estimate D2E/DX2                !
 ! D35   D(2,8,9,20)           179.9788         estimate D2E/DX2                !
 ! D36   D(2,8,9,21)           -61.3496         estimate D2E/DX2                !
 ! D37   D(2,8,9,22)            61.3066         estimate D2E/DX2                !
 ! D38   D(6,10,11,23)         179.8623         estimate D2E/DX2                !
 ! D39   D(6,10,11,24)         -61.3513         estimate D2E/DX2                !
 ! D40   D(6,10,11,25)          61.071          estimate D2E/DX2                !
 ! D41   D(4,12,13,14)         178.9012         estimate D2E/DX2                !
 ! D42   D(4,12,13,27)          -1.1252         estimate D2E/DX2                !
 ! D43   D(26,12,13,14)         -0.9815         estimate D2E/DX2                !
 ! D44   D(26,12,13,27)        178.992          estimate D2E/DX2                !
 ! D45   D(12,13,14,15)        175.8825         estimate D2E/DX2                !
 ! D46   D(12,13,14,16)         -4.7074         estimate D2E/DX2                !
 ! D47   D(27,13,14,15)         -4.0931         estimate D2E/DX2                !
 ! D48   D(27,13,14,16)        175.3171         estimate D2E/DX2                !
 ! D49   D(13,14,15,28)        167.9075         estimate D2E/DX2                !
 ! D50   D(16,14,15,28)        -11.5055         estimate D2E/DX2                !
 ! D51   D(13,14,16,29)        164.8678         estimate D2E/DX2                !
 ! D52   D(15,14,16,29)        -15.733          estimate D2E/DX2                !
 --------------------------------------------------------------------------------
 Trust Radius=3.00D-01 FncErr=1.00D-07 GrdErr=1.00D-06
 Number of steps in this run=    135 maximum allowed number of steps=    174.
 GradGradGradGradGradGradGradGradGradGradGradGradGradGradGradGradGradGrad

                          Input orientation:                          
 ---------------------------------------------------------------------
 Center     Atomic      Atomic             Coordinates (Angstroms)
 Number     Number       Type             X           Y           Z
 ---------------------------------------------------------------------
      1          6           0        2.394712    0.198495   -0.001939
      2          6           0        1.920259   -1.133975    0.006054
      3          6           0        0.554162   -1.348383    0.013409
      4          6           0       -0.354985   -0.257704    0.012482
      5          6           0        0.131171    1.075810    0.000960
      6          6           0        1.489798    1.291897   -0.004165
      7          8           0        3.697965    0.406167   -0.008344
      8          8           0        2.875801   -2.073378    0.005512
      9          6           0        2.467579   -3.433578    0.013408
     10          8           0        2.122974    2.485609   -0.013491
     11          6           0        1.329518    3.667573   -0.014767
     12          6           0       -1.733940   -0.558382    0.015666
     13          6           0       -2.791590    0.340743    0.018029
     14          6           0       -4.102374   -0.111408   -0.001823
     15          8           0       -5.073789    0.770441    0.084059
     16          8           0       -4.374363   -1.396422   -0.116092
     17          1           0        0.160352   -2.358379    0.019985
     18          1           0       -0.554031    1.913977   -0.003157
     19          1           0        3.879232    1.361128   -0.014348
     20          1           0        3.385686   -4.017015    0.011111
     21          1           0        1.889851   -3.660294    0.916299
     22          1           0        1.880498   -3.667976   -0.881432
     23          1           0        2.031324    4.498719   -0.020209
     24          1           0        0.703770    3.704964   -0.912206
     25          1           0        0.710228    3.711119    0.886892
     26          1           0       -1.993310   -1.616223    0.014342
     27          1           0       -2.664370    1.415056    0.035357
     28          1           0       -5.960326    0.435012   -0.115622
     29          1           0       -5.283471   -1.645953    0.105948
 ---------------------------------------------------------------------
                    Distance matrix (angstroms):
                    1          2          3          4          5
     1  C    0.000000
     2  C    1.414442   0.000000
     3  C    2.404307   1.382840   0.000000
     4  C    2.787321   2.438161   1.419905   0.000000
     5  C    2.427614   2.843240   2.460851   1.419415   0.000000
     6  C    1.419296   2.463789   2.801214   2.409308   1.375713
     7  O    1.319711   2.352123   3.600336   4.107014   3.629122
     8  O    2.322264   1.339977   2.432219   3.706035   4.177368
     9  C    3.632836   2.363850   2.830053   4.248887   5.078734
    10  O    2.303229   3.625309   4.142631   3.696853   2.440291
    11  C    3.628954   4.837796   5.075607   4.271544   2.855437
    12  C    4.197492   3.699266   2.420644   1.411359   2.479806
    13  C    5.188291   4.937252   3.747963   2.509026   3.013826
    14  C    6.504473   6.108831   4.818056   3.750271   4.396862
    15  O    7.490863   7.249110   6.014004   4.830043   5.214572
    16  O    6.955370   6.301275   4.930460   4.179547   5.140571
    17  H    3.395652   2.143976   1.084076   2.162976   3.434366
    18  H    3.411446   3.925838   3.445484   2.180840   1.082609
    19  H    1.885648   3.172307   4.289325   4.533203   3.758936
    20  H    4.330442   3.234103   3.890904   5.303305   6.043909
    21  H    3.998537   2.685472   2.818547   4.175379   5.134343
    22  H    3.998440   2.685214   2.817875   4.174497   5.132472
    23  H    4.315589   5.633850   6.030899   5.321569   3.915014
    24  H    3.997899   5.073300   5.139597   4.204610   2.841512
    25  H    3.995752   5.070995   5.136720   4.201289   2.839901
    26  H    4.748495   3.943178   2.561514   2.128306   3.429379
    27  H    5.203434   5.245688   4.242172   2.851650   2.816260
    28  H    8.359158   8.036177   6.755420   5.649435   6.126218
    29  H    7.897349   7.222591   5.845945   5.121127   6.061136
                    6          7          8          9         10
     6  C    0.000000
     7  O    2.379188   0.000000
     8  O    3.639529   2.612334   0.000000
     9  C    4.825607   4.032117   1.420159   0.000000
    10  O    1.351276   2.608582   4.620765   5.929271   0.000000
    11  C    2.381100   4.030676   5.945580   7.191823   1.423592
    12  C    3.717043   5.516931   4.852322   5.091122   4.913504
    13  C    4.385826   6.489938   6.160151   6.473359   5.362311
    14  C    5.765558   7.817494   7.248745   7.362155   6.745338
    15  O    6.584859   8.779801   8.443308   8.634292   7.398967
    16  O    6.451974   8.271845   7.282715   7.139954   7.569417
    17  H    3.884910   4.489791   2.730403   2.545465   5.226588
    18  H    2.136404   4.511429   5.259546   6.142210   2.737376
    19  H    2.390458   0.972031   3.578142   4.998274   2.085402
    20  H    5.637302   4.434235   2.009413   1.087807   6.624135
    21  H    5.052870   4.545365   2.078445   1.095619   6.220207
    22  H    5.051988   4.545779   2.078471   1.095603   6.219222
    23  H    3.252263   4.418916   6.626180   7.944355   2.015206
    24  H    2.695417   4.545793   6.240926   7.411246   2.075730
    25  H    2.693390   4.544307   6.239146   7.409315   2.075672
    26  H    4.537570   6.039966   4.890533   4.816878   5.811161
    27  H    4.156181   6.441977   6.547027   7.060215   4.905826
    28  H    7.500068   9.658930   9.186067   9.274277   8.339971
    29  H    7.383784   9.213601   8.171077   7.955058   8.481715
                   11         12         13         14         15
    11  C    0.000000
    12  C    5.219617   0.000000
    13  C    5.296452   1.388184   0.000000
    14  C    6.617123   2.410305   1.386719   0.000000
    15  O    7.028903   3.595141   2.323238   1.314793   0.000000
    16  O    7.628143   2.773356   2.353912   1.318445   2.285728
    17  H    6.138424   2.613111   3.999903   4.818733   6.098348
    18  H    2.573517   2.739543   2.735358   4.085698   4.662992
    19  H    3.438129   5.932379   6.748489   8.116314   8.973025
    20  H    7.954960   6.178409   7.559685   8.445412   9.720482
    21  H    7.408002   4.854365   6.223430   7.024550   8.295560
    22  H    7.407089   4.851651   6.221516   7.015529   8.306252
    23  H    1.087826   6.304980   6.367945   7.673061   8.024560
    24  H    1.094694   4.997949   4.939723   6.204233   6.556230
    25  H    1.094717   4.996162   4.937316   6.209884   6.538118
    26  H    6.241837   1.089175   2.113523   2.590923   3.897483
    27  H    4.585574   2.181867   1.081958   2.097458   2.494634
    28  H    7.975052   4.343548   3.172954   1.939977   0.968676
    29  H    8.484088   3.713507   3.188128   1.939441   2.425573
                   16         17         18         19         20
    16  O    0.000000
    17  H    4.637620   0.000000
    18  H    5.056326   4.331732   0.000000
    19  H    8.702658   5.259846   4.467615   0.000000
    20  H    8.191584   3.626835   7.120270   5.400802   0.000000
    21  H    6.740276   2.342974   6.155522   5.480732   1.784415
    22  H    6.698432   2.342328   6.152763   5.480754   1.784391
    23  H    8.706016   7.107879   3.655850   3.641329   8.622819
    24  H    7.241918   6.158605   2.369824   4.047626   8.226430
    25  H    7.276401   6.155704   2.370708   4.046885   8.224909
    26  H    2.394731   2.277957   3.812367   6.584238   5.890451
    27  H    3.294150   4.713608   2.168856   6.544013   8.130877
    28  H    2.422691   6.729348   5.606069   9.883565  10.352997
    29  H    0.968527   5.490915   5.920524   9.644280   8.988059
                   21         22         23         24         25
    21  H    0.000000
    22  H    1.797772   0.000000
    23  H    8.213803   8.213365   0.000000
    24  H    7.680966   7.466316   1.785527   0.000000
    25  H    7.465260   7.677730   1.785621   1.799120   0.000000
    26  H    4.480033   4.474203   7.320614   6.037198   6.037469
    27  H    6.875767   6.879938   5.617972   4.181617   4.169524
    28  H    8.914128   8.882539   8.966007   7.465742   7.498947
    29  H    7.494717   7.509058   9.554011   8.094196   8.076665
                   26         27         28         29
    26  H    0.000000
    27  H    3.104741   0.000000
    28  H    4.467849   3.441890   0.000000
    29  H    3.291570   4.029200   2.199464   0.000000
 Stoichiometry    C11H13O5(1+)
 Framework group  C1[X(C11H13O5)]
 Deg. of freedom    81
 Full point group                 C1      NOp   1
 Largest Abelian subgroup         C1      NOp   1
 Largest concise Abelian subgroup C1      NOp   1
                         Standard orientation:                         
 ---------------------------------------------------------------------
 Center     Atomic      Atomic             Coordinates (Angstroms)
 Number     Number       Type             X           Y           Z
 ---------------------------------------------------------------------
      1          6           0        2.394712    0.198495   -0.001939
      2          6           0        1.920259   -1.133975    0.006054
      3          6           0        0.554162   -1.348383    0.013409
      4          6           0       -0.354985   -0.257704    0.012482
      5          6           0        0.131171    1.075810    0.000960
      6          6           0        1.489798    1.291897   -0.004165
      7          8           0        3.697965    0.406167   -0.008344
      8          8           0        2.875801   -2.073378    0.005512
      9          6           0        2.467579   -3.433578    0.013408
     10          8           0        2.122974    2.485609   -0.013491
     11          6           0        1.329518    3.667573   -0.014767
     12          6           0       -1.733940   -0.558382    0.015666
     13          6           0       -2.791590    0.340743    0.018029
     14          6           0       -4.102374   -0.111408   -0.001823
     15          8           0       -5.073789    0.770441    0.084059
     16          8           0       -4.374363   -1.396422   -0.116092
     17          1           0        0.160352   -2.358379    0.019985
     18          1           0       -0.554031    1.913977   -0.003157
     19          1           0        3.879232    1.361128   -0.014348
     20          1           0        3.385686   -4.017015    0.011111
     21          1           0        1.889851   -3.660294    0.916299
     22          1           0        1.880498   -3.667976   -0.881432
     23          1           0        2.031324    4.498719   -0.020209
     24          1           0        0.703770    3.704964   -0.912206
     25          1           0        0.710228    3.711119    0.886892
     26          1           0       -1.993310   -1.616223    0.014342
     27          1           0       -2.664370    1.415056    0.035357
     28          1           0       -5.960326    0.435012   -0.115622
     29          1           0       -5.283471   -1.645953    0.105948
 ---------------------------------------------------------------------
 Rotational constants (GHZ):      0.7165377      0.2761681      0.1999124
 Standard basis: 6-31+G(d,p) (6D, 7F)
 There are   369 symmetry adapted cartesian basis functions of A   symmetry.
 There are   369 symmetry adapted basis functions of A   symmetry.
   369 basis functions,   603 primitive gaussians,   369 cartesian basis functions
    59 alpha electrons       59 beta electrons
       nuclear repulsion energy      1075.6586877033 Hartrees.
 NAtoms=   29 NActive=   29 NUniq=   29 SFac= 1.00D+00 NAtFMM=   60 NAOKFM=F Big=F
 Integral buffers will be    131072 words long.
 Raffenetti 2 integral format.
 Two-electron integral symmetry is turned on.
 One-electron integrals computed using PRISM.
 NBasis=   369 RedAO= T EigKep=  1.39D-06  NBF=   369
 NBsUse=   367 1.00D-06 EigRej=  7.75D-07 NBFU=   367
 ExpMin= 4.38D-02 ExpMax= 5.48D+03 ExpMxC= 8.25D+02 IAcc=2 IRadAn=         4 AccDes= 0.00D+00
 Harris functional with IExCor=  408 and IRadAn=       4 diagonalized for initial guess.
 HarFok:  IExCor=  408 AccDes= 0.00D+00 IRadAn=         4 IDoV= 1 UseB2=F ITyADJ=14
 ICtDFT=  3500011 ScaDFX=  1.000000  1.000000  1.000000  1.000000
 FoFCou: FMM=F IPFlag=           0 FMFlag=      100000 FMFlg1=           0
         NFxFlg=           0 DoJE=T BraDBF=F KetDBF=T FulRan=T
         wScrn=  0.000000 ICntrl=     500 IOpCl=  0 I1Cent=   200000004 NGrid=           0
         NMat0=    1 NMatS0=      1 NMatT0=    0 NMatD0=    1 NMtDS0=    0 NMtDT0=    0
 Petite list used in FoFCou.
 Requested convergence on RMS density matrix=1.00D-08 within 128 cycles.
 Requested convergence on MAX density matrix=1.00D-06.
 Requested convergence on             energy=1.00D-06.
 No special actions if energy rises.
 SCF Done:  E(RB3PW91) =  -802.580442895     A.U. after   16 cycles
            NFock= 16  Conv=0.55D-08     -V/T= 2.0089

 **********************************************************************

            Population analysis using the SCF density.

 **********************************************************************

 Orbital symmetries:
       Occupied  (A) (A) (A) (A) (A) (A) (A) (A) (A) (A) (A) (A)
                 (A) (A) (A) (A) (A) (A) (A) (A) (A) (A) (A) (A)
                 (A) (A) (A) (A) (A) (A) (A) (A) (A) (A) (A) (A)
                 (A) (A) (A) (A) (A) (A) (A) (A) (A) (A) (A) (A)
                 (A) (A) (A) (A) (A) (A) (A) (A) (A) (A) (A)
       Virtual   (A) (A) (A) (A) (A) (A) (A) (A) (A) (A) (A) (A)
                 (A) (A) (A) (A) (A) (A) (A) (A) (A) (A) (A) (A)
                 (A) (A) (A) (A) (A) (A) (A) (A) (A) (A) (A) (A)
                 (A) (A) (A) (A) (A) (A) (A) (A) (A) (A) (A) (A)
                 (A) (A) (A) (A) (A) (A) (A) (A) (A) (A) (A) (A)
                 (A) (A) (A) (A) (A) (A) (A) (A) (A) (A) (A) (A)
                 (A) (A) (A) (A) (A) (A) (A) (A) (A) (A) (A) (A)
                 (A) (A) (A) (A) (A) (A) (A) (A) (A) (A) (A) (A)
                 (A) (A) (A) (A) (A) (A) (A) (A) (A) (A) (A) (A)
                 (A) (A) (A) (A) (A) (A) (A) (A) (A) (A) (A) (A)
                 (A) (A) (A) (A) (A) (A) (A) (A) (A) (A) (A) (A)
                 (A) (A) (A) (A) (A) (A) (A) (A) (A) (A) (A) (A)
                 (A) (A) (A) (A) (A) (A) (A) (A) (A) (A) (A) (A)
                 (A) (A) (A) (A) (A) (A) (A) (A) (A) (A) (A) (A)
                 (A) (A) (A) (A) (A) (A) (A) (A) (A) (A) (A) (A)
                 (A) (A) (A) (A) (A) (A) (A) (A) (A) (A) (A) (A)
                 (A) (A) (A) (A) (A) (A) (A) (A) (A) (A) (A) (A)
                 (A) (A) (A) (A) (A) (A) (A) (A) (A) (A) (A) (A)
                 (A) (A) (A) (A) (A) (A) (A) (A) (A) (A) (A) (A)
                 (A) (A) (A) (A) (A) (A) (A) (A) (A) (A) (A) (A)
                 (A) (A) (A) (A) (A) (A) (A) (A) (A) (A) (A) (A)
                 (A) (A) (A) (A) (A) (A) (A) (A) (A) (A) (A) (A)
                 (A) (A) (A) (A) (A) (A) (A) (A) (A) (A) (A) (A)
                 (A) (A) (A) (A) (A) (A) (A) (A) (A) (A) (A) (A)
                 (A) (A) (A) (A) (A) (A) (A) (A) (A) (A) (A) (A)
                 (A) (A) (A) (A) (A) (A) (A) (A)
 The electronic state is 1-A.
 Alpha  occ. eigenvalues --  -19.37848 -19.37743 -19.31992 -19.31816 -19.29812
 Alpha  occ. eigenvalues --  -10.49748 -10.39360 -10.38184 -10.37507 -10.36339
 Alpha  occ. eigenvalues --  -10.34719 -10.33782 -10.33686 -10.33205 -10.32549
 Alpha  occ. eigenvalues --  -10.32332  -1.32001  -1.24164  -1.23803  -1.20986
 Alpha  occ. eigenvalues --   -1.19607  -1.01259  -0.97422  -0.91842  -0.90303
 Alpha  occ. eigenvalues --   -0.85666  -0.84848  -0.81565  -0.80286  -0.78383
 Alpha  occ. eigenvalues --   -0.74024  -0.71543  -0.70506  -0.68021  -0.65923
 Alpha  occ. eigenvalues --   -0.64507  -0.64197  -0.63169  -0.61294  -0.60942
 Alpha  occ. eigenvalues --   -0.60032  -0.58941  -0.57883  -0.55667  -0.55376
 Alpha  occ. eigenvalues --   -0.55174  -0.54829  -0.53315  -0.53139  -0.52085
 Alpha  occ. eigenvalues --   -0.50758  -0.49368  -0.47834  -0.47815  -0.46364
 Alpha  occ. eigenvalues --   -0.45638  -0.42024  -0.36562  -0.34530
 Alpha virt. eigenvalues --   -0.24339  -0.14926  -0.13806  -0.12265  -0.09267
 Alpha virt. eigenvalues --   -0.09087  -0.08928  -0.08127  -0.07213  -0.06107
 Alpha virt. eigenvalues --   -0.05526  -0.05285  -0.04596  -0.03812  -0.03710
 Alpha virt. eigenvalues --   -0.03161  -0.02499  -0.01459  -0.01392  -0.00875
 Alpha virt. eigenvalues --   -0.00689   0.00602   0.01127   0.01519   0.01697
 Alpha virt. eigenvalues --    0.01821   0.03129   0.03686   0.03781   0.03926
 Alpha virt. eigenvalues --    0.04294   0.04447   0.04825   0.05431   0.05556
 Alpha virt. eigenvalues --    0.05997   0.06148   0.07032   0.07470   0.07603
 Alpha virt. eigenvalues --    0.08021   0.08261   0.08550   0.09769   0.10326
 Alpha virt. eigenvalues --    0.10669   0.11315   0.11626   0.11909   0.12344
 Alpha virt. eigenvalues --    0.12974   0.13246   0.13949   0.14609   0.15158
 Alpha virt. eigenvalues --    0.15674   0.15844   0.15929   0.16015   0.16415
 Alpha virt. eigenvalues --    0.16537   0.17534   0.18008   0.18230   0.19036
 Alpha virt. eigenvalues --    0.19268   0.20181   0.20883   0.21276   0.21689
 Alpha virt. eigenvalues --    0.22668   0.22966   0.23242   0.23634   0.23961
 Alpha virt. eigenvalues --    0.25121   0.25469   0.25850   0.26325   0.27142
 Alpha virt. eigenvalues --    0.27178   0.28355   0.29120   0.29793   0.30826
 Alpha virt. eigenvalues --    0.31819   0.32590   0.34818   0.35546   0.36222
 Alpha virt. eigenvalues --    0.36605   0.38671   0.41244   0.45154   0.46609
 Alpha virt. eigenvalues --    0.49938   0.53460   0.54237   0.54406   0.54985
 Alpha virt. eigenvalues --    0.57173   0.57806   0.58131   0.58991   0.59772
 Alpha virt. eigenvalues --    0.59971   0.60494   0.61747   0.62427   0.63227
 Alpha virt. eigenvalues --    0.63656   0.64135   0.66013   0.66891   0.68638
 Alpha virt. eigenvalues --    0.73109   0.73954   0.75064   0.77101   0.78947
 Alpha virt. eigenvalues --    0.80082   0.80494   0.81235   0.81800   0.82089
 Alpha virt. eigenvalues --    0.83335   0.85124   0.89707   0.90243   0.91993
 Alpha virt. eigenvalues --    0.93555   0.94146   0.95406   0.96870   0.97518
 Alpha virt. eigenvalues --    0.98801   0.99958   1.01565   1.02095   1.02907
 Alpha virt. eigenvalues --    1.04704   1.04750   1.05908   1.06505   1.07132
 Alpha virt. eigenvalues --    1.07525   1.08329   1.09203   1.10122   1.10360
 Alpha virt. eigenvalues --    1.11602   1.11858   1.13054   1.13879   1.14359
 Alpha virt. eigenvalues --    1.15096   1.15912   1.16769   1.17638   1.18818
 Alpha virt. eigenvalues --    1.19195   1.20103   1.21080   1.22712   1.23777
 Alpha virt. eigenvalues --    1.25095   1.25994   1.26958   1.28549   1.30239
 Alpha virt. eigenvalues --    1.33713   1.33753   1.35531   1.38692   1.40878
 Alpha virt. eigenvalues --    1.41736   1.43314   1.44592   1.45686   1.46602
 Alpha virt. eigenvalues --    1.48581   1.49917   1.54025   1.55699   1.58044
 Alpha virt. eigenvalues --    1.61163   1.62397   1.65360   1.67223   1.67848
 Alpha virt. eigenvalues --    1.70204   1.70415   1.71166   1.73909   1.74388
 Alpha virt. eigenvalues --    1.74832   1.76645   1.77445   1.79398   1.79787
 Alpha virt. eigenvalues --    1.80678   1.82216   1.83279   1.85126   1.85509
 Alpha virt. eigenvalues --    1.86718   1.89716   1.90074   1.91181   1.92685
 Alpha virt. eigenvalues --    1.94349   1.95691   1.96085   1.96622   1.98335
 Alpha virt. eigenvalues --    2.01075   2.02132   2.03385   2.04646   2.05878
 Alpha virt. eigenvalues --    2.07176   2.09756   2.10543   2.13175   2.13368
 Alpha virt. eigenvalues --    2.15745   2.18857   2.19286   2.22951   2.24142
 Alpha virt. eigenvalues --    2.25270   2.28064   2.29849   2.33334   2.34410
 Alpha virt. eigenvalues --    2.35946   2.36491   2.38407   2.39893   2.39957
 Alpha virt. eigenvalues --    2.41754   2.42225   2.43789   2.44912   2.47188
 Alpha virt. eigenvalues --    2.48034   2.49365   2.50617   2.52122   2.52325
 Alpha virt. eigenvalues --    2.54734   2.56077   2.56651   2.58676   2.59057
 Alpha virt. eigenvalues --    2.60656   2.61771   2.63805   2.66084   2.67997
 Alpha virt. eigenvalues --    2.70605   2.71987   2.72506   2.73412   2.74738
 Alpha virt. eigenvalues --    2.76309   2.77651   2.80677   2.84423   2.85376
 Alpha virt. eigenvalues --    2.86970   2.94834   2.96356   3.03252   3.06327
 Alpha virt. eigenvalues --    3.08238   3.08893   3.13083   3.14762   3.17047
 Alpha virt. eigenvalues --    3.24790   3.29188   3.29994   3.31451   3.32282
 Alpha virt. eigenvalues --    3.32852   3.36861   3.38348   3.43118   3.44968
 Alpha virt. eigenvalues --    3.49331   3.63196   4.07009   4.12029   4.17077
 Alpha virt. eigenvalues --    4.22336   4.24429   4.28294   4.29612   4.34410
 Alpha virt. eigenvalues --    4.37355   4.41869   4.46806   4.51159   4.55958
 Alpha virt. eigenvalues --    4.68569   4.72810   5.22124
          Condensed to atoms (all electrons):
               1          2          3          4          5          6
     1  C   25.991984  -1.035724  -8.293958   0.851692  -8.147392  -0.421649
     2  C   -1.035724  19.683862  -0.527355  -2.334124  -0.802474  -8.123788
     3  C   -8.293958  -0.527355  25.058912  -0.834444  -1.144508  -4.516609
     4  C    0.851692  -2.334124  -0.834444  15.643828  -2.719511  -2.138735
     5  C   -8.147392  -0.802474  -1.144508  -2.719511  14.887017   1.201275
     6  C   -0.421649  -8.123788  -4.516609  -2.138735   1.201275  19.680348
     7  O    0.111106  -0.923822   0.003921  -0.093379   0.184129   0.695281
     8  O   -0.760584   0.296202   0.468272  -0.047812   0.013869   0.042088
     9  C    0.179544  -0.088728  -0.117903  -0.234543   0.024384   0.111623
    10  O   -0.713103   0.113186   0.022601  -0.031151   0.326372   0.205713
    11  C   -0.068611   0.075401   0.034588  -0.093837   0.079408  -0.167684
    12  C   -1.468223  -0.271542  -2.532654  -1.242915   1.786092  -0.055139
    13  C   -0.096916  -0.572700  -1.626109   0.026867   0.084878  -0.177839
    14  C   -0.047644   0.039733  -0.705976  -1.088355   0.268709   0.121046
    15  O    0.000857   0.000941   0.005703   0.031932  -0.007336   0.001800
    16  O   -0.003313   0.001731  -0.008054   0.003069  -0.013297  -0.006669
    17  H    0.025208  -0.103934   0.052434   0.169932   0.021744  -0.005870
    18  H    0.003984  -0.008614   0.067544   0.266210   0.120694  -0.126369
    19  H    0.196896   0.303158   0.021867   0.000769  -0.050448  -0.481261
    20  H    0.067961   0.058821  -0.100910  -0.012139  -0.001701   0.010843
    21  H   -0.039194  -0.089654   0.094352   0.036548   0.002626  -0.010662
    22  H   -0.043678  -0.089935   0.109186   0.018600   0.002455  -0.009241
    23  H    0.031148   0.006320  -0.002986  -0.010122  -0.048875   0.047279
    24  H   -0.025366  -0.005214   0.005390   0.023550   0.050963  -0.056777
    25  H   -0.016529  -0.006513   0.002519   0.020784   0.033077  -0.038511
    26  H    0.018083   0.027625   0.278174   0.054020  -0.053159  -0.003018
    27  H   -0.000147   0.001846   0.029765   0.105476  -0.013786  -0.014778
    28  H    0.000056  -0.000029   0.000278  -0.003788   0.003199   0.000442
    29  H   -0.000090   0.000362   0.008007   0.012786  -0.004262  -0.000413
               7          8          9         10         11         12
     1  C    0.111106  -0.760584   0.179544  -0.713103  -0.068611  -1.468223
     2  C   -0.923822   0.296202  -0.088728   0.113186   0.075401  -0.271542
     3  C    0.003921   0.468272  -0.117903   0.022601   0.034588  -2.532654
     4  C   -0.093379  -0.047812  -0.234543  -0.031151  -0.093837  -1.242915
     5  C    0.184129   0.013869   0.024384   0.326372   0.079408   1.786092
     6  C    0.695281   0.042088   0.111623   0.205713  -0.167684  -0.055139
     7  O    8.250400   0.051996   0.001788  -0.021133   0.000576   0.011907
     8  O    0.051996   8.415790   0.026074  -0.002384   0.000025  -0.033939
     9  C    0.001788   0.026074   5.062543  -0.000079   0.001044  -0.033301
    10  O   -0.021133  -0.002384  -0.000079   8.570374   0.040823   0.006363
    11  C    0.000576   0.000025   0.001044   0.040823   5.014008   0.010587
    12  C    0.011907  -0.033939  -0.033301   0.006363   0.010587  10.360458
    13  C    0.000338  -0.004655  -0.008224  -0.005209  -0.008450  -1.623107
    14  C    0.000570  -0.000336  -0.000594  -0.000207  -0.003455   0.642907
    15  O    0.000000   0.000001  -0.000005  -0.000001  -0.000031  -0.130252
    16  O    0.000001  -0.000006   0.000073  -0.000002   0.000054   0.107763
    17  H   -0.000684  -0.013444  -0.001488   0.000144  -0.000064   0.133378
    18  H   -0.000446   0.000157   0.000054  -0.015310   0.003746  -0.043878
    19  H    0.171679  -0.003258  -0.000428   0.049170   0.005138   0.001323
    20  H   -0.000931  -0.076297   0.423058  -0.000003   0.000008  -0.001391
    21  H    0.000110  -0.034928   0.395426   0.000002  -0.000018   0.001627
    22  H    0.000119  -0.034954   0.399150   0.000002  -0.000011   0.004452
    23  H    0.000033  -0.000001   0.000007  -0.067874   0.414022   0.000161
    24  H   -0.000206  -0.000001  -0.000005  -0.040907   0.406935  -0.000127
    25  H   -0.000223   0.000000  -0.000014  -0.040974   0.405075  -0.000115
    26  H   -0.000018   0.000099   0.000787   0.000041   0.000066   0.234984
    27  H   -0.000006   0.000003   0.000022   0.000142   0.000413   0.017663
    28  H    0.000000   0.000000  -0.000000  -0.000000  -0.000004   0.057238
    29  H   -0.000000  -0.000000   0.000013  -0.000000   0.000003  -0.001983
              13         14         15         16         17         18
     1  C   -0.096916  -0.047644   0.000857  -0.003313   0.025208   0.003984
     2  C   -0.572700   0.039733   0.000941   0.001731  -0.103934  -0.008614
     3  C   -1.626109  -0.705976   0.005703  -0.008054   0.052434   0.067544
     4  C    0.026867  -1.088355   0.031932   0.003069   0.169932   0.266210
     5  C    0.084878   0.268709  -0.007336  -0.013297   0.021744   0.120694
     6  C   -0.177839   0.121046   0.001800  -0.006669  -0.005870  -0.126369
     7  O    0.000338   0.000570   0.000000   0.000001  -0.000684  -0.000446
     8  O   -0.004655  -0.000336   0.000001  -0.000006  -0.013444   0.000157
     9  C   -0.008224  -0.000594  -0.000005   0.000073  -0.001488   0.000054
    10  O   -0.005209  -0.000207  -0.000001  -0.000002   0.000144  -0.015310
    11  C   -0.008450  -0.003455  -0.000031   0.000054  -0.000064   0.003746
    12  C   -1.623107   0.642907  -0.130252   0.107763   0.133378  -0.043878
    13  C   11.965053  -1.586909   0.311001  -0.116806   0.030576   0.020204
    14  C   -1.586909   7.504681  -0.082748   0.164660  -0.000544   0.017052
    15  O    0.311001  -0.082748   8.162312  -0.094333   0.000001   0.000074
    16  O   -0.116806   0.164660  -0.094333   8.206216  -0.000177   0.000059
    17  H    0.030576  -0.000544   0.000001  -0.000177   0.523719  -0.000115
    18  H    0.020204   0.017052   0.000074   0.000059  -0.000115   0.544337
    19  H    0.000668   0.000033   0.000000  -0.000000   0.000004  -0.000030
    20  H    0.000010  -0.000004   0.000000  -0.000000   0.000091   0.000000
    21  H    0.000003  -0.000024   0.000000  -0.000001  -0.000780   0.000000
    22  H   -0.000031   0.000045  -0.000000   0.000002  -0.000792   0.000000
    23  H    0.000209   0.000056   0.000000  -0.000000  -0.000000   0.000095
    24  H   -0.000172  -0.000491  -0.000001   0.000000   0.000000  -0.000632
    25  H   -0.000727  -0.000311   0.000001  -0.000000   0.000000  -0.000728
    26  H   -0.211225  -0.048216   0.000954  -0.007644   0.003147  -0.000033
    27  H    0.282572  -0.089053  -0.011206   0.007501  -0.000002   0.000856
    28  H   -0.087522   0.049533   0.213123  -0.004421   0.000000  -0.000000
    29  H    0.046550  -0.037678  -0.005261   0.207331  -0.000000   0.000000
              19         20         21         22         23         24
     1  C    0.196896   0.067961  -0.039194  -0.043678   0.031148  -0.025366
     2  C    0.303158   0.058821  -0.089654  -0.089935   0.006320  -0.005214
     3  C    0.021867  -0.100910   0.094352   0.109186  -0.002986   0.005390
     4  C    0.000769  -0.012139   0.036548   0.018600  -0.010122   0.023550
     5  C   -0.050448  -0.001701   0.002626   0.002455  -0.048875   0.050963
     6  C   -0.481261   0.010843  -0.010662  -0.009241   0.047279  -0.056777
     7  O    0.171679  -0.000931   0.000110   0.000119   0.000033  -0.000206
     8  O   -0.003258  -0.076297  -0.034928  -0.034954  -0.000001  -0.000001
     9  C   -0.000428   0.423058   0.395426   0.399150   0.000007  -0.000005
    10  O    0.049170  -0.000003   0.000002   0.000002  -0.067874  -0.040907
    11  C    0.005138   0.000008  -0.000018  -0.000011   0.414022   0.406935
    12  C    0.001323  -0.001391   0.001627   0.004452   0.000161  -0.000127
    13  C    0.000668   0.000010   0.000003  -0.000031   0.000209  -0.000172
    14  C    0.000033  -0.000004  -0.000024   0.000045   0.000056  -0.000491
    15  O    0.000000   0.000000   0.000000  -0.000000   0.000000  -0.000001
    16  O   -0.000000  -0.000000  -0.000001   0.000002  -0.000000   0.000000
    17  H    0.000004   0.000091  -0.000780  -0.000792  -0.000000   0.000000
    18  H   -0.000030   0.000000   0.000000   0.000000   0.000095  -0.000632
    19  H    0.355802  -0.000002   0.000000   0.000000  -0.000085   0.000041
    20  H   -0.000002   0.485695  -0.023534  -0.023558  -0.000000   0.000000
    21  H    0.000000  -0.023534   0.543044  -0.041828   0.000000  -0.000000
    22  H    0.000000  -0.023558  -0.041828   0.542946   0.000000  -0.000000
    23  H   -0.000085  -0.000000   0.000000   0.000000   0.483214  -0.023146
    24  H    0.000041   0.000000  -0.000000  -0.000000  -0.023146   0.532225
    25  H    0.000041   0.000000  -0.000000  -0.000000  -0.023078  -0.039279
    26  H   -0.000000   0.000000  -0.000001  -0.000002  -0.000000  -0.000000
    27  H   -0.000000  -0.000000   0.000000  -0.000000  -0.000000  -0.000007
    28  H    0.000000   0.000000   0.000000  -0.000000  -0.000000  -0.000000
    29  H   -0.000000  -0.000000  -0.000000   0.000000   0.000000   0.000000
              25         26         27         28         29
     1  C   -0.016529   0.018083  -0.000147   0.000056  -0.000090
     2  C   -0.006513   0.027625   0.001846  -0.000029   0.000362
     3  C    0.002519   0.278174   0.029765   0.000278   0.008007
     4  C    0.020784   0.054020   0.105476  -0.003788   0.012786
     5  C    0.033077  -0.053159  -0.013786   0.003199  -0.004262
     6  C   -0.038511  -0.003018  -0.014778   0.000442  -0.000413
     7  O   -0.000223  -0.000018  -0.000006   0.000000  -0.000000
     8  O    0.000000   0.000099   0.000003   0.000000  -0.000000
     9  C   -0.000014   0.000787   0.000022  -0.000000   0.000013
    10  O   -0.040974   0.000041   0.000142  -0.000000  -0.000000
    11  C    0.405075   0.000066   0.000413  -0.000004   0.000003
    12  C   -0.000115   0.234984   0.017663   0.057238  -0.001983
    13  C   -0.000727  -0.211225   0.282572  -0.087522   0.046550
    14  C   -0.000311  -0.048216  -0.089053   0.049533  -0.037678
    15  O    0.000001   0.000954  -0.011206   0.213123  -0.005261
    16  O   -0.000000  -0.007644   0.007501  -0.004421   0.207331
    17  H    0.000000   0.003147  -0.000002   0.000000  -0.000000
    18  H   -0.000728  -0.000033   0.000856  -0.000000   0.000000
    19  H    0.000041  -0.000000  -0.000000   0.000000  -0.000000
    20  H    0.000000   0.000000  -0.000000   0.000000  -0.000000
    21  H   -0.000000  -0.000001   0.000000   0.000000  -0.000000
    22  H   -0.000000  -0.000002  -0.000000  -0.000000   0.000000
    23  H   -0.023078  -0.000000  -0.000000  -0.000000   0.000000
    24  H   -0.039279  -0.000000  -0.000007  -0.000000   0.000000
    25  H    0.532258   0.000000  -0.000004   0.000000  -0.000000
    26  H    0.000000   0.515852   0.003193   0.000010  -0.000060
    27  H   -0.000004   0.003193   0.497022   0.000011  -0.000176
    28  H    0.000000   0.000010   0.000011   0.376928   0.003720
    29  H   -0.000000  -0.000060  -0.000176   0.003720   0.375293
 Mulliken charges:
               1
     1  C   -0.296398
     2  C    0.374963
     3  C    0.147955
     4  C   -0.381211
     5  C   -0.084144
     6  C    0.237275
     7  O   -0.443106
     8  O   -0.301976
     9  C   -0.140276
    10  O   -0.396598
    11  C   -0.149753
    12  C    0.061662
    13  C   -0.642327
    14  C    0.883520
    15  O   -0.397525
    16  O   -0.443737
    17  H    0.167515
    18  H    0.151089
    19  H    0.428922
    20  H    0.193982
    21  H    0.166885
    22  H    0.167074
    23  H    0.193621
    24  H    0.173226
    25  H    0.173249
    26  H    0.186343
    27  H    0.182681
    28  H    0.391225
    29  H    0.395861
 Sum of Mulliken charges =   1.00000
 Mulliken charges with hydrogens summed into heavy atoms:
               1
     1  C   -0.296398
     2  C    0.374963
     3  C    0.315470
     4  C   -0.381211
     5  C    0.066946
     6  C    0.237275
     7  O   -0.014185
     8  O   -0.301976
     9  C    0.387665
    10  O   -0.396598
    11  C    0.390343
    12  C    0.248006
    13  C   -0.459646
    14  C    0.883520
    15  O   -0.006300
    16  O   -0.047876
 Electronic spatial extent (au):  <R**2>=           5039.3127
 Charge=              1.0000 electrons
 Dipole moment (field-independent basis, Debye):
    X=            -10.0388    Y=             -0.1057    Z=              0.0388  Tot=             10.0394
 Quadrupole moment (field-independent basis, Debye-Ang):
   XX=             -8.4681   YY=            -55.8338   ZZ=            -93.7703
   XY=             11.7559   XZ=              0.1220   YZ=             -1.1121
 Traceless Quadrupole moment (field-independent basis, Debye-Ang):
   XX=             44.2226   YY=             -3.1431   ZZ=            -41.0796
   XY=             11.7559   XZ=              0.1220   YZ=             -1.1121
 Octapole moment (field-independent basis, Debye-Ang**2):
  XXX=           -447.6603  YYY=              7.9015  ZZZ=             -0.3331  XYY=             40.7590
  XXY=            -40.7599  XXZ=             -2.7914  XZZ=             -1.4820  YZZ=              0.4139
  YYZ=              1.0608  XYZ=              4.7962
 Hexadecapole moment (field-independent basis, Debye-Ang**3):
 XXXX=          -1298.0840 YYYY=          -1410.1306 ZZZZ=           -107.8482 XXXY=            400.0548
 XXXZ=             23.6437 YYYX=             11.0656 YYYZ=             -3.5673 ZZZX=              0.6272
 ZZZY=             -0.1669 XXYY=           -784.2735 XXZZ=           -727.3559 YYZZ=           -332.8339
 XXYZ=            -27.5468 YYXZ=             -5.5089 ZZXY=              5.4138
 N-N= 1.075658687703D+03 E-N=-4.008179438898D+03  KE= 7.955348363895D+02
 Calling FoFJK, ICntrl=      2127 FMM=F ISym2X=0 I1Cent= 0 IOpClX= 0 NMat=1 NMatS=1 NMatT=0.
 ***** Axes restored to original set *****
 -------------------------------------------------------------------
 Center     Atomic                   Forces (Hartrees/Bohr)
 Number     Number              X              Y              Z
 -------------------------------------------------------------------
      1        6           0.000286479    0.001139470   -0.000016532
      2        6           0.001101118   -0.001398668    0.000022177
      3        6          -0.000284623   -0.000459423    0.000022306
      4        6          -0.002236211   -0.000420898   -0.000088966
      5        6          -0.000055309    0.000404652    0.000034168
      6        6           0.000591304    0.001105445   -0.000004890
      7        8           0.003398800   -0.000492206   -0.000018434
      8        8           0.000001050    0.001217415   -0.000000499
      9        6          -0.000459564   -0.001004228    0.000023120
     10        8           0.000639523   -0.001359185    0.000007943
     11        6          -0.000358180    0.000626453    0.000004266
     12        6           0.002049023    0.000052742    0.000107091
     13        6          -0.002040112   -0.002036990    0.000004385
     14        6           0.001552534    0.001064465   -0.000056971
     15        8          -0.004190293    0.005325787    0.000745150
     16        8          -0.000668437   -0.005878984   -0.000733005
     17        1          -0.000053848    0.000252660   -0.000004195
     18        1           0.000005166   -0.000449759   -0.000001707
     19        1          -0.001081541    0.000737107    0.000006944
     20        1           0.000696470   -0.000593980    0.000001038
     21        1          -0.000081099   -0.000768141    0.000322165
     22        1          -0.000086636   -0.000774672   -0.000323062
     23        1           0.000387561    0.000715653   -0.000004901
     24        1          -0.000324260    0.000774438   -0.000355983
     25        1          -0.000309007    0.000787236    0.000340989
     26        1           0.000207306    0.000605823    0.000011121
     27        1           0.000133167    0.000329647   -0.000046644
     28        1           0.000681779   -0.000324073   -0.000099706
     29        1           0.000497841    0.000822214    0.000102628
 -------------------------------------------------------------------
 Cartesian Forces:  Max     0.005878984 RMS     0.001249128

 GradGradGradGradGradGradGradGradGradGradGradGradGradGradGradGradGradGrad
 Berny optimization.
 FormGI is forming the generalized inverse of G from B-inverse, IUseBI=4.
 Internal  Forces:  Max     0.005995730 RMS     0.001337784
 Search for a local minimum.
 Step number   1 out of a maximum of  135
 All quantities printed in internal units (Hartrees-Bohrs-Radians)
 Mixed Optimization -- RFO/linear search
 Second derivative matrix not updated -- first step.
 ITU=  0
     Eigenvalues ---    0.01380   0.01425   0.01841   0.01865   0.01938
     Eigenvalues ---    0.01957   0.02033   0.02072   0.02092   0.02141
     Eigenvalues ---    0.02163   0.02194   0.02245   0.02245   0.02254
     Eigenvalues ---    0.02264   0.02336   0.02486   0.02531   0.02754
     Eigenvalues ---    0.02771   0.02819   0.10158   0.10215   0.10714
     Eigenvalues ---    0.10725   0.16000   0.16000   0.16000   0.16000
     Eigenvalues ---    0.16000   0.16000   0.16000   0.16000   0.16000
     Eigenvalues ---    0.16000   0.16000   0.16000   0.16000   0.22000
     Eigenvalues ---    0.22000   0.23476   0.23485   0.24999   0.24999
     Eigenvalues ---    0.25000   0.25000   0.25000   0.25000   0.25000
     Eigenvalues ---    0.25000   0.25000   0.34171   0.34173   0.34273
     Eigenvalues ---    0.34276   0.34908   0.35065   0.35067   0.35506
     Eigenvalues ---    0.35681   0.35759   0.39424   0.41023   0.41924
     Eigenvalues ---    0.42436   0.42521   0.42979   0.43789   0.46763
     Eigenvalues ---    0.47636   0.47894   0.49384   0.52964   0.53648
     Eigenvalues ---    0.53679   0.54751   0.57210   0.62003   0.62320
     Eigenvalues ---    0.63247
 RFO step:  Lambda=-6.70255080D-04 EMin= 1.37970910D-02
 Linear search not attempted -- first point.
 Iteration  1 RMS(Cart)=  0.02433088 RMS(Int)=  0.00013866
 Iteration  2 RMS(Cart)=  0.00024374 RMS(Int)=  0.00000672
 Iteration  3 RMS(Cart)=  0.00000004 RMS(Int)=  0.00000672
 Variable       Old X    -DE/DX   Delta X   Delta X   Delta X     New X
                                 (Linear)    (Quad)   (Total)
    R1        2.67291   0.00296   0.00000   0.00694   0.00694   2.67985
    R2        2.68208   0.00192   0.00000   0.00458   0.00458   2.68666
    R3        2.49389   0.00233   0.00000   0.00375   0.00375   2.49764
    R4        2.61319   0.00224   0.00000   0.00463   0.00463   2.61782
    R5        2.53219   0.00140   0.00000   0.00244   0.00244   2.53463
    R6        2.68323   0.00194   0.00000   0.00447   0.00447   2.68770
    R7        2.04861  -0.00021   0.00000  -0.00060  -0.00060   2.04800
    R8        2.68231   0.00186   0.00000   0.00426   0.00426   2.68657
    R9        2.66708   0.00174   0.00000   0.00397   0.00397   2.67105
   R10        2.59972   0.00222   0.00000   0.00442   0.00442   2.60414
   R11        2.04583  -0.00035   0.00000  -0.00099  -0.00099   2.04485
   R12        2.55354   0.00138   0.00000   0.00252   0.00252   2.55607
   R13        1.83687   0.00052   0.00000   0.00098   0.00098   1.83785
   R14        2.68371   0.00300   0.00000   0.00706   0.00706   2.69078
   R15        2.05566   0.00090   0.00000   0.00258   0.00258   2.05823
   R16        2.07042   0.00047   0.00000   0.00137   0.00137   2.07179
   R17        2.07039   0.00048   0.00000   0.00140   0.00140   2.07179
   R18        2.69020   0.00273   0.00000   0.00651   0.00651   2.69671
   R19        2.05569   0.00080   0.00000   0.00227   0.00227   2.05796
   R20        2.06867   0.00050   0.00000   0.00146   0.00146   2.07013
   R21        2.06872   0.00049   0.00000   0.00141   0.00141   2.07013
   R22        2.62329   0.00264   0.00000   0.00554   0.00554   2.62882
   R23        2.05824  -0.00064   0.00000  -0.00183  -0.00183   2.05641
   R24        2.62052   0.00168   0.00000   0.00349   0.00349   2.62401
   R25        2.04460   0.00035   0.00000   0.00096   0.00096   2.04557
   R26        2.48460   0.00600   0.00000   0.00947   0.00947   2.49407
   R27        2.49150   0.00501   0.00000   0.00803   0.00803   2.49953
   R28        1.83053  -0.00049   0.00000  -0.00092  -0.00092   1.82961
   R29        1.83025  -0.00066   0.00000  -0.00122  -0.00122   1.82903
    A1        2.10817  -0.00018   0.00000  -0.00055  -0.00055   2.10762
    A2        2.07091   0.00103   0.00000   0.00401   0.00401   2.07492
    A3        2.10411  -0.00085   0.00000  -0.00346  -0.00346   2.10065
    A4        2.06857  -0.00056   0.00000  -0.00217  -0.00217   2.06640
    A5        2.00560   0.00002   0.00000   0.00005   0.00005   2.00564
    A6        2.20902   0.00054   0.00000   0.00212   0.00212   2.21115
    A7        2.10998   0.00108   0.00000   0.00459   0.00459   2.11457
    A8        2.09827  -0.00039   0.00000  -0.00138  -0.00138   2.09690
    A9        2.07493  -0.00069   0.00000  -0.00321  -0.00321   2.07172
   A10        2.09711  -0.00109   0.00000  -0.00485  -0.00485   2.09226
   A11        2.05098  -0.00011   0.00000  -0.00020  -0.00021   2.05077
   A12        2.13508   0.00121   0.00000   0.00507   0.00507   2.14014
   A13        2.07813   0.00085   0.00000   0.00341   0.00341   2.08154
   A14        2.10669  -0.00071   0.00000  -0.00348  -0.00348   2.10321
   A15        2.09837  -0.00014   0.00000   0.00007   0.00007   2.09844
   A16        2.10441  -0.00009   0.00000  -0.00042  -0.00042   2.10399
   A17        1.96255  -0.00134   0.00000  -0.00532  -0.00532   1.95723
   A18        2.21622   0.00143   0.00000   0.00574   0.00574   2.22197
   A19        1.91642  -0.00220   0.00000  -0.01370  -0.01370   1.90273
   A20        2.05610   0.00392   0.00000   0.01565   0.01565   2.07175
   A21        1.84531  -0.00027   0.00000  -0.00256  -0.00256   1.84276
   A22        1.93301   0.00087   0.00000   0.00588   0.00586   1.93888
   A23        1.93307   0.00087   0.00000   0.00588   0.00587   1.93894
   A24        1.91325  -0.00056   0.00000  -0.00433  -0.00433   1.90892
   A25        1.91324  -0.00056   0.00000  -0.00434  -0.00434   1.90890
   A26        1.92437  -0.00038   0.00000  -0.00081  -0.00084   1.92353
   A27        2.06269   0.00449   0.00000   0.01791   0.01791   2.08060
   A28        1.84916  -0.00028   0.00000  -0.00266  -0.00266   1.84650
   A29        1.92591   0.00095   0.00000   0.00638   0.00636   1.93227
   A30        1.92580   0.00096   0.00000   0.00646   0.00644   1.93224
   A31        1.91620  -0.00062   0.00000  -0.00482  -0.00482   1.91138
   A32        1.91632  -0.00063   0.00000  -0.00486  -0.00486   1.91146
   A33        1.92890  -0.00038   0.00000  -0.00068  -0.00071   1.92819
   A34        2.22235   0.00151   0.00000   0.00683   0.00683   2.22918
   A35        2.02592  -0.00081   0.00000  -0.00377  -0.00377   2.02216
   A36        2.03491  -0.00070   0.00000  -0.00306  -0.00306   2.03185
   A37        2.10478   0.00393   0.00000   0.01780   0.01780   2.12257
   A38        2.15743  -0.00206   0.00000  -0.00950  -0.00950   2.14793
   A39        2.02098  -0.00187   0.00000  -0.00830  -0.00830   2.01268
   A40        2.07003  -0.00127   0.00000  -0.00508  -0.00508   2.06495
   A41        2.11067   0.00015   0.00000   0.00060   0.00060   2.11128
   A42        2.10244   0.00112   0.00000   0.00448   0.00448   2.10692
   A43        2.01581  -0.00104   0.00000  -0.00645  -0.00645   2.00935
   A44        2.00962  -0.00129   0.00000  -0.00805  -0.00805   2.00158
    D1       -0.00144   0.00001   0.00000   0.00055   0.00055  -0.00089
    D2        3.14006   0.00001   0.00000   0.00071   0.00071   3.14078
    D3        3.14105   0.00001   0.00000   0.00023   0.00023   3.14128
    D4       -0.00063   0.00001   0.00000   0.00040   0.00040  -0.00023
    D5       -0.00039  -0.00000   0.00000  -0.00008  -0.00008  -0.00047
    D6       -3.14042  -0.00000   0.00000  -0.00013  -0.00013  -3.14054
    D7        3.14028   0.00001   0.00000   0.00025   0.00025   3.14053
    D8        0.00026   0.00000   0.00000   0.00020   0.00020   0.00046
    D9        3.14056   0.00001   0.00000   0.00036   0.00036   3.14093
   D10       -0.00013   0.00000   0.00000   0.00004   0.00004  -0.00009
   D11        0.00040  -0.00001   0.00000  -0.00042  -0.00042  -0.00002
   D12       -3.14121   0.00000   0.00000   0.00013   0.00013  -3.14108
   D13       -3.14109  -0.00001   0.00000  -0.00060  -0.00061   3.14149
   D14        0.00048  -0.00000   0.00000  -0.00006  -0.00006   0.00042
   D15        3.14151  -0.00001   0.00000  -0.00031  -0.00031   3.14120
   D16       -0.00018  -0.00000   0.00000  -0.00013  -0.00013  -0.00031
   D17        0.00242  -0.00000   0.00000  -0.00018  -0.00017   0.00225
   D18        3.13789   0.00004   0.00000   0.00170   0.00170   3.13958
   D19       -3.13915  -0.00002   0.00000  -0.00072  -0.00072  -3.13987
   D20       -0.00368   0.00002   0.00000   0.00116   0.00116  -0.00253
   D21       -0.00421   0.00001   0.00000   0.00064   0.00064  -0.00357
   D22        3.13803   0.00001   0.00000   0.00042   0.00042   3.13845
   D23       -3.13937  -0.00002   0.00000  -0.00131  -0.00131  -3.14068
   D24        0.00287  -0.00003   0.00000  -0.00153  -0.00153   0.00133
   D25        3.13926  -0.00005   0.00000  -0.00264  -0.00265   3.13661
   D26       -0.00437  -0.00002   0.00000  -0.00120  -0.00121  -0.00558
   D27       -0.00860  -0.00002   0.00000  -0.00076  -0.00076  -0.00936
   D28        3.13096   0.00001   0.00000   0.00068   0.00068   3.13164
   D29        0.00319  -0.00001   0.00000  -0.00050  -0.00051   0.00269
   D30       -3.14021  -0.00001   0.00000  -0.00046  -0.00046  -3.14067
   D31       -3.13904  -0.00001   0.00000  -0.00028  -0.00028  -3.13933
   D32        0.00074  -0.00001   0.00000  -0.00024  -0.00024   0.00050
   D33       -3.14007  -0.00000   0.00000  -0.00004  -0.00004  -3.14010
   D34        0.00321  -0.00000   0.00000  -0.00008  -0.00008   0.00313
   D35        3.14122   0.00000   0.00000   0.00021   0.00021   3.14143
   D36       -1.07075  -0.00036   0.00000  -0.00335  -0.00337  -1.07412
   D37        1.07000   0.00037   0.00000   0.00377   0.00380   1.07380
   D38        3.13919   0.00001   0.00000   0.00042   0.00042   3.13961
   D39       -1.07078  -0.00040   0.00000  -0.00348  -0.00350  -1.07429
   D40        1.06589   0.00041   0.00000   0.00433   0.00436   1.07025
   D41        3.12242   0.00003   0.00000   0.00146   0.00146   3.12387
   D42       -0.01964   0.00000   0.00000   0.00012   0.00012  -0.01952
   D43       -0.01713   0.00000   0.00000   0.00001   0.00001  -0.01712
   D44        3.12400  -0.00003   0.00000  -0.00132  -0.00132   3.12268
   D45        3.06973  -0.00011   0.00000  -0.00460  -0.00460   3.06512
   D46       -0.08216  -0.00007   0.00000  -0.00334  -0.00334  -0.08550
   D47       -0.07144  -0.00008   0.00000  -0.00337  -0.00336  -0.07480
   D48        3.05986  -0.00005   0.00000  -0.00210  -0.00210   3.05776
   D49        2.93054  -0.00007   0.00000  -0.00249  -0.00249   2.92805
   D50       -0.20081  -0.00011   0.00000  -0.00372  -0.00372  -0.20453
   D51        2.87749  -0.00011   0.00000  -0.00397  -0.00397   2.87352
   D52       -0.27459  -0.00008   0.00000  -0.00274  -0.00273  -0.27733
         Item               Value     Threshold  Converged?
 Maximum Force            0.005996     0.000450     NO 
 RMS     Force            0.001338     0.000300     NO 
 Maximum Displacement     0.087470     0.001800     NO 
 RMS     Displacement     0.024445     0.001200     NO 
 Predicted change in Energy=-3.360514D-04
 GradGradGradGradGradGradGradGradGradGradGradGradGradGradGradGradGradGrad

                          Input orientation:                          
 ---------------------------------------------------------------------
 Center     Atomic      Atomic             Coordinates (Angstroms)
 Number     Number       Type             X           Y           Z
 ---------------------------------------------------------------------
      1          6           0        2.394167    0.199596   -0.001439
      2          6           0        1.919758   -1.136790    0.005897
      3          6           0        0.550974   -1.349927    0.011020
      4          6           0       -0.363376   -0.260519    0.009040
      5          6           0        0.125534    1.074403   -0.001079
      6          6           0        1.486053    1.293494   -0.004569
      7          8           0        3.698336    0.414075   -0.006013
      8          8           0        2.877080   -2.076220    0.007200
      9          6           0        2.490417   -3.446590    0.014917
     10          8           0        2.124408    2.485967   -0.012904
     11          6           0        1.354951    3.687785   -0.015177
     12          6           0       -1.743294   -0.566593    0.012087
     13          6           0       -2.812501    0.323337    0.016438
     14          6           0       -4.128365   -0.119703   -0.001875
     15          8           0       -5.092150    0.777034    0.092279
     16          8           0       -4.411755   -1.406177   -0.121012
     17          1           0        0.157442   -2.359691    0.017147
     18          1           0       -0.561013    1.910793   -0.005605
     19          1           0        3.861836    1.372767   -0.011399
     20          1           0        3.420678   -4.013075    0.014385
     21          1           0        1.917120   -3.689648    0.917260
     22          1           0        1.910970   -3.698103   -0.881158
     23          1           0        2.077611    4.502476   -0.020039
     24          1           0        0.731077    3.746669   -0.913709
     25          1           0        0.735837    3.753080    0.886198
     26          1           0       -1.994656   -1.625370    0.010286
     27          1           0       -2.686197    1.398238    0.035710
     28          1           0       -5.980384    0.448630   -0.109171
     29          1           0       -5.322228   -1.642296    0.107203
 ---------------------------------------------------------------------
                    Distance matrix (angstroms):
                    1          2          3          4          5
     1  C    0.000000
     2  C    1.418113   0.000000
     3  C    2.408016   1.385289   0.000000
     4  C    2.795685   2.445519   1.422269   0.000000
     5  C    2.431457   2.847572   2.461406   1.421672   0.000000
     6  C    1.421722   2.468702   2.803977   2.415683   1.378051
     7  O    1.321695   2.359801   3.608030   4.117378   3.633314
     8  O    2.326504   1.341266   2.436860   3.714476   4.183002
     9  C    3.647493   2.379267   2.856126   4.277291   5.102187
    10  O    2.302258   3.628581   4.146124   3.705770   2.447069
    11  C    3.639728   4.857569   5.101530   4.306081   2.888154
    12  C    4.207827   3.707171   2.424309   1.413458   2.487078
    13  C    5.208168   4.952409   3.756701   2.517768   3.032565
    14  C    6.530343   6.133052   4.838370   3.767638   4.418319
    15  O    7.509138   7.268909   6.031203   4.841978   5.226984
    16  O    6.993810   6.338512   4.964803   4.209373   5.172490
    17  H    3.399005   2.145081   1.083757   2.162832   3.434291
    18  H    3.414864   3.929646   3.445153   2.180337   1.082088
    19  H    1.878957   3.173301   4.286650   4.529950   3.748210
    20  H    4.335963   3.244356   3.915045   5.329237   6.061407
    21  H    4.024650   2.710660   2.856908   4.217162   5.171974
    22  H    4.024853   2.710584   2.856484   4.216881   5.170990
    23  H    4.314548   5.641534   6.048323   5.352138   3.944952
    24  H    4.022416   5.109482   5.182938   4.255214   2.888007
    25  H    4.020597   5.107585   5.180809   4.252840   2.887047
    26  H    4.753147   3.944790   2.560488   2.126945   3.432799
    27  H    5.219983   5.257574   4.246445   2.854415   2.830557
    28  H    8.378945   8.058477   6.775536   5.662830   6.138852
    29  H    7.933922   7.260314   5.881260   5.148705   6.088537
                    6          7          8          9         10
     6  C    0.000000
     7  O    2.380667   0.000000
     8  O    3.645554   2.622252   0.000000
     9  C    4.845361   4.045274   1.423897   0.000000
    10  O    1.352612   2.601928   4.623901   5.943902   0.000000
    11  C    2.397902   4.026004   5.961638   7.224230   1.427038
    12  C    3.726778   5.529319   4.860746   5.120420   4.927256
    13  C    4.406723   6.511507   6.174892   6.506404   5.389888
    14  C    5.789544   7.844883   7.273535   7.407884   6.773980
    15  O    6.599156   8.798525   8.465041   8.679879   7.416887
    16  O    6.487366   8.312648   7.320691   7.198732   7.608015
    17  H    3.887343   4.498027   2.734390   2.573738   5.229747
    18  H    2.138115   4.514667   5.264686   6.165484   2.746336
    19  H    2.377115   0.972549   3.586865   5.010757   2.063461
    20  H    5.648257   4.435896   2.011705   1.089170   6.627111
    21  H    5.085990   4.567900   2.086357   1.096344   6.248712
    22  H    5.085764   4.568431   2.086397   1.096343   6.248370
    23  H    3.263089   4.397950   6.627151   7.959855   2.017065
    24  H    2.722975   4.553539   6.273710   7.463284   2.083792
    25  H    2.721370   4.552076   6.272025   7.461430   2.083768
    26  H    4.542611   6.047293   4.892555   4.840738   5.819821
    27  H    4.173759   6.460075   6.559171   7.090143   4.932285
    28  H    7.514813   9.679331   9.211030   9.324302   8.357491
    29  H    7.415122   9.252678   8.211391   8.018816   8.515243
                   11         12         13         14         15
    11  C    0.000000
    12  C    5.263041   0.000000
    13  C    5.356134   1.391114   0.000000
    14  C    6.675620   2.426617   1.388567   0.000000
    15  O    7.074541   3.609238   2.325595   1.319804   0.000000
    16  O    7.695099   2.800590   2.359603   1.322694   2.296702
    17  H    6.164985   2.613049   4.002400   4.835913   6.115792
    18  H    2.613181   2.745093   2.754941   4.104745   4.671851
    19  H    3.412300   5.931201   6.756393   8.128399   8.974381
    20  H    7.973164   6.208450   7.593220   8.493919   9.768288
    21  H    7.457345   4.896064   6.267762   7.080763   8.352347
    22  H    7.457239   4.894680   6.268081   7.074719   8.367683
    23  H    1.089028   6.347898   6.432708   7.738153   8.080656
    24  H    1.095466   5.058047   5.014112   6.276500   6.613677
    25  H    1.095465   5.056652   5.011019   6.280731   6.591857
    26  H    6.280934   1.088208   2.113378   2.611493   3.920808
    27  H    4.644943   2.179492   1.082468   2.094137   2.485499
    28  H    8.019233   4.358705   3.172847   1.940229   0.968189
    29  H    8.544557   3.738309   3.189151   1.937910   2.430291
                   16         17         18         19         20
    16  O    0.000000
    17  H    4.669672   0.000000
    18  H    5.083682   4.330558   0.000000
    19  H    8.728508   5.258763   4.455457   0.000000
    20  H    8.255983   3.658196   7.137680   5.403941   0.000000
    21  H    6.807856   2.382321   6.193364   5.502034   1.783389
    22  H    6.768131   2.381839   6.191688   5.502370   1.783375
    23  H    8.776916   7.125852   3.698563   3.602584   8.620883
    24  H    7.323176   6.203482   2.421692   4.031281   8.264922
    25  H    7.357316   6.201271   2.423046   4.030315   8.263268
    26  H    2.430566   2.273940   3.815761   6.579346   5.918361
    27  H    3.296492   4.712607   2.186510   6.548252   8.159454
    28  H    2.429207   6.750965   5.614110   9.885994  10.406827
    29  H    0.967882   5.527165   5.941913   9.667042   9.059118
                   21         22         23         24         25
    21  H    0.000000
    22  H    1.798449   0.000000
    23  H    8.247132   8.247350   0.000000
    24  H    7.749707   7.537761   1.784109   0.000000
    25  H    7.535954   7.747555   1.784158   1.799925   0.000000
    26  H    4.515068   4.510522   7.357634   6.094439   6.095124
    27  H    6.917676   6.924398   5.686235   4.253738   4.240156
    28  H    8.974936   8.947895   9.020693   7.521174   7.551011
    29  H    7.566769   7.584349   9.619357   8.168580   8.149666
                   26         27         28         29
    26  H    0.000000
    27  H    3.101787   0.000000
    28  H    4.494638   3.431387   0.000000
    29  H    3.329026   4.024751   2.202716   0.000000
 Stoichiometry    C11H13O5(1+)
 Framework group  C1[X(C11H13O5)]
 Deg. of freedom    81
 Full point group                 C1      NOp   1
 Largest Abelian subgroup         C1      NOp   1
 Largest concise Abelian subgroup C1      NOp   1
                         Standard orientation:                         
 ---------------------------------------------------------------------
 Center     Atomic      Atomic             Coordinates (Angstroms)
 Number     Number       Type             X           Y           Z
 ---------------------------------------------------------------------
      1          6           0        2.398947    0.195732   -0.001398
      2          6           0        1.921698   -1.139643    0.005938
      3          6           0        0.552463   -1.349868    0.011061
      4          6           0       -0.359568   -0.258518    0.009081
      5          6           0        0.132179    1.075361   -0.001037
      6          6           0        1.493161    1.291558   -0.004527
      7          8           0        3.703569    0.407437   -0.005972
      8          8           0        2.877020   -2.081106    0.007242
      9          6           0        2.487443   -3.450651    0.014958
     10          8           0        2.134050    2.482670   -0.012863
     11          6           0        1.367152    3.686123   -0.015136
     12          6           0       -1.740134   -0.561657    0.012128
     13          6           0       -2.807446    0.330544    0.016479
     14          6           0       -4.124249   -0.109696   -0.001833
     15          8           0       -5.086125    0.789088    0.092321
     16          8           0       -4.410374   -1.395565   -0.120971
     17          1           0        0.156785   -2.358794    0.017189
     18          1           0       -0.552587    1.913208   -0.005563
     19          1           0        3.869107    1.365778   -0.011358
     20          1           0        3.416498   -4.019113    0.014427
     21          1           0        1.913630   -3.692490    0.917302
     22          1           0        1.907463   -3.700931   -0.881117
     23          1           0        2.091542    4.499275   -0.019998
     24          1           0        0.743404    3.746333   -0.913668
     25          1           0        0.748177    3.752734    0.886239
     26          1           0       -1.993747   -1.619897    0.010328
     27          1           0       -2.678856    1.405175    0.035752
     28          1           0       -5.975055    0.462574   -0.109129
     29          1           0       -5.321347   -1.629747    0.107245
 ---------------------------------------------------------------------
 Rotational constants (GHZ):      0.7114567      0.2737273      0.1982441
 Standard basis: 6-31+G(d,p) (6D, 7F)
 There are   369 symmetry adapted cartesian basis functions of A   symmetry.
 There are   369 symmetry adapted basis functions of A   symmetry.
   369 basis functions,   603 primitive gaussians,   369 cartesian basis functions
    59 alpha electrons       59 beta electrons
       nuclear repulsion energy      1072.3857320976 Hartrees.
 NAtoms=   29 NActive=   29 NUniq=   29 SFac= 1.00D+00 NAtFMM=   60 NAOKFM=F Big=F
 Integral buffers will be    131072 words long.
 Raffenetti 2 integral format.
 Two-electron integral symmetry is turned on.
 One-electron integrals computed using PRISM.
 NBasis=   369 RedAO= T EigKep=  1.44D-06  NBF=   369
 NBsUse=   367 1.00D-06 EigRej=  7.88D-07 NBFU=   367
 Initial guess from the checkpoint file:  "B3PW91SAYang.chk"
 B after Tr=    -0.000000    0.000000    0.000000
         Rot=    1.000000   -0.000074    0.000008    0.000940 Ang=  -0.11 deg.
 ExpMin= 4.38D-02 ExpMax= 5.48D+03 ExpMxC= 8.25D+02 IAcc=2 IRadAn=         4 AccDes= 0.00D+00
 Harris functional with IExCor=  408 and IRadAn=       4 diagonalized for initial guess.
 HarFok:  IExCor=  408 AccDes= 0.00D+00 IRadAn=         4 IDoV= 1 UseB2=F ITyADJ=14
 ICtDFT=  3500011 ScaDFX=  1.000000  1.000000  1.000000  1.000000
 FoFCou: FMM=F IPFlag=           0 FMFlag=      100000 FMFlg1=           0
         NFxFlg=           0 DoJE=T BraDBF=F KetDBF=T FulRan=T
         wScrn=  0.000000 ICntrl=     500 IOpCl=  0 I1Cent=   200000004 NGrid=           0
         NMat0=    1 NMatS0=      1 NMatT0=    0 NMatD0=    1 NMtDS0=    0 NMtDT0=    0
 Petite list used in FoFCou.
 Requested convergence on RMS density matrix=1.00D-08 within 128 cycles.
 Requested convergence on MAX density matrix=1.00D-06.
 Requested convergence on             energy=1.00D-06.
 No special actions if energy rises.
 SCF Done:  E(RB3PW91) =  -802.580733791     A.U. after   12 cycles
            NFock= 12  Conv=0.75D-08     -V/T= 2.0090
[...]
 000219,-0.00003618,0.00000849,0.00000247,-0.00003863,-0.00003470,-0.00
 000667,0.00002988,-0.00002369,0.00000011,0.00051808,-0.00034639,0.0000
 0208,-0.00003573,0.00020815,-0.00000052,0.00000623,0.00001080,0.,-0.00
 000351,0.00000207,-0.00000128,-0.00000350,0.00000204,0.00000125,0.1915
 6753,-0.00129473,-0.00132239,0.00001063,0.00036613,0.00007757,-0.00000
 014,0.00002506,-0.00000721,-0.00000129,-0.00049859,-0.00001460,0.00000
 440,0.00079661,0.00011751,0.00000020,0.00421943,-0.00173375,-0.0000047
 0,0.00022893,0.00022003,-0.00000280,0.00001478,-0.00029672,0.00000106,
 0.00005148,0.00005866,-0.00000043,-0.01457692,-0.03477182,0.00019794,-
 0.13830007,-0.19641850,0.00095781,0.00032221,-0.00015184,-0.00000252,-
 0.00026775,0.00001148,-0.00000312,0.00030341,0.00009272,-0.00000070,-0
 .00017029,0.00008693,0.00002221,-0.00006375,-0.00011251,-0.00001920,-0
 .00002296,0.00001171,-0.00000008,-0.00022130,0.00017599,-0.00000341,-0
 .00009382,-0.00025467,0.00000257,-0.00000319,-0.00001963,0.00000005,-0
 .00000906,-0.00000729,-0.00000022,-0.00000906,-0.00000733,0.00000029,0
 .14732074,0.22714050,0.00000472,0.00000520,0.00031436,-0.00000067,-0.0
 0000010,-0.00004021,-0.00000146,0.00000070,-0.00000110,0.00000315,-0.0
 0000089,0.00012844,-0.00000248,0.00000051,0.00024857,-0.00001576,0.000
 00421,0.00050557,-0.00000160,-0.00000107,-0.00012585,-0.00000011,0.000
 00102,-0.00002737,-0.00000007,-0.00000014,-0.00000459,0.00003883,0.000
 10655,-0.00005512,0.00092750,0.00099271,-0.05066731,-0.00000151,0.0000
 0162,0.00003866,0.00000067,-0.00000109,0.00001160,-0.00000066,-0.00000
 067,0.00000169,0.00000073,-0.00000065,0.00000172,-0.00000028,0.0000003
 9,-0.00000244,0.00000007,-0.00000019,-0.00001969,0.00000106,-0.0000010
 8,-0.00047521,0.00000090,0.00000199,0.00020622,0.00000001,0.00000010,0
 .00000307,0.00000241,0.00000103,-0.00000056,-0.00000234,-0.00000098,-0
 .00000055,-0.00098397,-0.00113887,0.04664825,-0.00021328,0.00068358,0.
 00004139,0.00005639,-0.00025417,0.00005236,0.00006902,0.00027366,-0.00
 000688,0.00020649,-0.00016636,-0.00030914,0.00028553,0.00058968,0.0002
 2480,-0.00057930,-0.00368939,0.00046879,0.00003984,0.00031752,0.000134
 48,-0.00006428,0.00021691,-0.00000392,-0.00002446,-0.00009287,-0.00001
 469,-0.01560357,0.01384460,-0.01340869,-0.13009039,0.00043950,-0.11988
 403,-0.00032903,0.00020133,0.00003264,0.00035591,-0.00003751,-0.000014
 91,-0.00047665,-0.00013783,-0.00001240,0.00025657,-0.00011800,-0.00003
 133,0.00012713,0.00019749,0.00003761,0.00001352,0.00000036,0.00001969,
 0.00005890,-0.00043043,0.00048794,0.00056724,-0.00044830,-0.00028377,-
 0.00000586,0.00000924,-0.00000233,0.00001262,0.00001174,0.00000598,0.0
 0001390,0.00000827,-0.00000490,-0.00936705,0.00084273,-0.01794255,0.14
 299413,0.00122284,-0.00112310,-0.00064076,0.00043018,0.00036876,-0.000
 13479,-0.00030255,0.00020904,-0.00005011,-0.00045699,-0.00038992,-0.00
 036920,-0.00088967,0.00063018,-0.00025953,0.00344410,0.00600362,0.0019
 0890,-0.00066568,-0.00067219,-0.00003381,0.00001166,-0.00012353,0.0000
 3276,0.00000061,0.00002675,0.00004118,0.02539426,-0.01661114,0.0254942
 7,-0.00320215,-0.04950212,-0.00153564,0.00032573,-0.00018296,0.0000047
 5,-0.00020054,0.00001757,-0.00001685,0.00020309,0.00010440,0.00000136,
 -0.00012214,0.00006254,0.00002288,-0.00003575,-0.00009977,-0.00001824,
 -0.00002389,0.00000808,0.00003459,-0.00054621,-0.00101554,0.00124100,-
 0.00062814,0.00052417,0.00025358,-0.00000155,-0.00000351,0.00000073,-0
 .00000161,-0.00002138,-0.00000077,-0.00000143,-0.00000477,-0.00000496,
 -0.01159762,0.00346475,-0.02004888,-0.01049485,0.05687930,-0.00010229,
 0.00054111,-0.00022214,-0.00022814,-0.00008077,-0.00003011,0.00010180,
 -0.00004484,-0.00003336,0.00048955,-0.00016089,-0.00013411,-0.00096697
 ,0.00043374,-0.00010729,-0.00044959,-0.00135812,0.00066247,0.00026268,
 -0.00007280,0.00003598,0.00011394,-0.00007772,0.00001264,0.00001042,0.
 00003331,0.00000215,0.00115446,0.00446364,0.00694147,-0.12294129,0.003
 31628,-0.23757448,-0.00014027,0.00012950,0.00002659,0.00006684,0.00004
 742,0.00000220,-0.00001623,0.00001002,0.00000697,0.00003228,-0.0000449
 3,0.00000301,-0.00003116,-0.00003318,-0.00000201,0.00003786,-0.0000395
 5,0.00000320,0.00064746,0.00026717,-0.00005836,0.00004149,-0.00009158,
 -0.00000573,0.00000202,-0.00000052,-0.00000039,-0.00000688,-0.00000342
 ,-0.00000118,-0.00000758,0.00000183,0.00000158,0.00227441,-0.00013883,
 0.00180064,0.13504536,-0.00644510,0.24720552,-0.00021117,0.00067976,-0
 .00005229,0.00005673,-0.00025543,-0.00004717,0.00007062,0.00027463,-0.
 00000031,0.00020065,-0.00016136,0.00031438,0.00028551,0.00058963,-0.00
 023165,-0.00057094,-0.00368697,-0.00042625,0.00003691,0.00031574,-0.00
 013788,-0.00006434,0.00021694,0.00000308,-0.00002454,-0.00009263,0.000
 01544,-0.01555753,0.01394694,0.01338127,-0.12906015,0.00150672,0.11941
 175,-0.00032667,0.00019911,-0.00003593,0.00035445,-0.00003943,0.000019
 45,-0.00047403,-0.00013537,0.00000481,0.00025722,-0.00011907,-0.000030
 85,0.00012506,0.00019533,0.00002983,0.00001340,0.00000063,-0.00001981,
 0.00005495,-0.00043255,-0.00048563,0.00056818,-0.00044490,0.00028618,-
 0.00000586,0.00000924,0.00000227,0.00001396,0.00000819,0.00000481,0.00
 001263,0.00001168,-0.00000612,-0.00929336,0.00100987,0.01797375,0.0117
 9711,-0.00187666,-0.01544482,0.14184302,0.00122984,-0.00111896,0.00064
 787,0.00043201,0.00037189,0.00012716,-0.00030417,0.00021149,0.00004559
 ,-0.00046220,-0.00039076,0.00037688,-0.00087933,0.00063502,0.00024825,
 0.00343309,0.00600789,-0.00197185,-0.00066930,-0.00067227,0.00004229,0
 .00001184,-0.00012370,-0.00003207,0.00000049,0.00002645,-0.00004123,0.
 02527578,-0.01688797,-0.02537674,-0.00208963,-0.04956080,-0.00017812,0
 .00033108,-0.00018648,-0.00000268,-0.00019985,0.00001975,0.00000729,0.
 00020284,0.00010213,-0.00000329,-0.00012038,0.00006218,0.00001624,-0.0
 0003718,-0.00009842,-0.00001007,-0.00002429,0.00000824,-0.00003431,-0.
 00054460,-0.00103475,-0.00123177,-0.00062929,0.00052239,-0.00025566,-0
 .00000160,-0.00000355,-0.00000063,-0.00000133,-0.00000485,0.00000502,-
 0.00000167,-0.00002134,0.00000100,-0.01152715,0.00364983,0.02007790,-0
 .00173983,0.00142229,-0.00067054,-0.01169397,0.05703549,0.00009155,-0.
 00053786,-0.00022561,0.00022405,0.00007874,-0.00003341,-0.00010090,0.0
 0004082,-0.00003534,-0.00048283,0.00016450,-0.00013405,0.00097097,-0.0
 0044643,-0.00011367,0.00041656,0.00132154,0.00067333,-0.00025652,0.000
 07826,0.00003645,-0.00011365,0.00007793,0.00001307,-0.00001033,-0.0000
 3302,0.00000313,-0.00128964,-0.00429303,0.00716125,0.12250345,-0.00505
 116,-0.23858372,0.00013770,-0.00012684,0.00002679,-0.00006788,-0.00004
 993,-0.00000564,0.00001792,-0.00001419,-0.00000953,-0.00003595,0.00004
 251,0.00001522,0.00003438,0.00003431,0.00000289,-0.00003746,0.00003904
 ,0.00000345,-0.00063623,-0.00025362,-0.00004643,-0.00003797,0.00008868
 ,-0.00000520,-0.00000200,0.00000050,-0.00000041,0.00000754,-0.00000182
 ,0.00000141,0.00000683,0.00000345,-0.00000126,-0.00212573,0.00011667,0
 .00155392,0.01533311,0.00049647,-0.01848752,-0.13449109,0.00823969,0.2
 4822875,-0.00004462,-0.00029798,-0.00000464,0.00019095,0.00059649,-0.0
 0001983,0.00021520,-0.00230071,0.00005583,-0.00527787,-0.02992930,-0.0
 0011928,-0.00530764,0.00083164,-0.00004669,0.00037273,-0.00162879,0.00
 000590,0.00013303,0.00023212,0.00000568,0.00004306,0.00004622,-0.00000
 338,-0.00005743,-0.00009384,0.00000254,-0.00060202,-0.00000291,0.00001
 313,-0.00004191,0.00010842,-0.00000008,-0.07216736,-0.06226723,-0.0000
 6426,0.00779758,0.02533863,0.00020575,0.00103354,0.00358982,0.00013232
 ,0.00031889,-0.00069462,-0.00006547,-0.00225064,-0.00138965,-0.0006111
 6,-0.00097568,0.00107670,-0.00000396,0.00012004,0.00003522,-0.00000290
 ,0.00005860,-0.00008033,0.00000149,0.00003201,0.00002591,-0.00000005,-
 0.00001194,0.00000688,-0.00005657,-0.00001193,0.00001043,0.00005641,0.
 00000286,-0.00000702,0.00000022,0.00000654,0.00000584,-0.00000462,0.00
 000679,0.00000536,0.00000387,0.07996752,-0.00027287,-0.00008336,-0.000
 01241,0.00026181,0.00055785,0.00000302,0.00215012,0.00152827,0.0000670
 5,-0.00016679,-0.00504360,-0.00009837,-0.00071965,0.00098867,-0.000106
 25,0.00044643,-0.00053042,0.00002231,0.00017992,0.00011275,0.00000075,
 0.00001690,-0.00013965,-0.00000634,-0.00000301,0.00004218,0.00000137,-
 0.00014133,0.00012068,0.00001316,0.00002293,-0.00002151,-0.00000140,-0
 .06256628,-0.32489381,-0.00061681,-0.00473254,-0.01772837,-0.00023799,
 -0.00095772,-0.00207199,-0.00018005,0.00019400,0.00022013,0.00001993,-
 0.00104184,0.00146304,0.00010912,-0.00026137,0.00047472,-0.00000554,0.
 00009738,0.00007350,-0.00000362,0.00001653,-0.00004997,-0.00000001,-0.
 00000321,-0.00000636,-0.00000023,0.00000583,-0.00000794,0.00001568,0.0
 0000700,-0.00000869,-0.00001574,-0.00000929,0.00000444,0.00000025,0.00
 000482,0.00001041,-0.00001777,0.00000558,0.00001166,0.00001753,0.06510
 015,0.34451570,-0.00003441,0.00001257,0.00051376,0.00000396,0.00002170
 ,0.00040282,-0.00003260,0.00001056,-0.00393456,0.00021794,0.00015763,0
 .00671559,0.00001004,-0.00000268,0.00569538,0.00004474,-0.00002354,0.0
 0009814,0.00003450,0.00000884,-0.00016524,0.00000613,-0.00001286,0.000
 22520,0.00000275,0.00000703,0.00002347,0.00000128,0.00001448,-0.000970
 89,0.00000521,-0.00000564,0.00010161,-0.00040345,-0.00068585,-0.045402
 88,0.00052143,-0.00014667,0.00692576,-0.00015680,-0.00037214,-0.004372
 96,0.00034097,0.00010387,0.00003096,-0.00077701,0.00047655,0.00048474,
 -0.00000855,0.00000181,0.00034273,-0.00000212,-0.00000629,-0.00000746,
 -0.00000222,-0.00000551,-0.00003524,0.00000071,-0.00000033,-0.00001021
 ,0.00000261,0.00002260,-0.00002226,-0.00000520,-0.00002315,-0.00002155
 ,0.00000007,0.00000081,-0.00001373,0.00001363,0.00001417,0.00000356,-0
 .00001504,-0.00001363,0.00000342,0.00018879,0.00097006,0.02667849,0.00
 028807,0.00033191,0.00001347,-0.00052685,-0.00050246,-0.00000190,0.000
 59911,-0.00032292,-0.00001800,-0.00015579,-0.00102719,0.00006696,-0.00
 056912,0.00121883,-0.00002887,-0.00019797,-0.00041189,0.00001576,-0.00
 016752,-0.00018049,-0.00000951,0.00014527,-0.00014123,0.00000112,0.000
 03829,0.00009678,-0.00000046,0.00011939,0.00005387,-0.00000026,-0.0000
 4270,0.00005790,0.00000071,0.01055263,0.02499229,0.00045299,-0.0622454
 7,-0.03366102,-0.00100747,-0.00006267,-0.03138797,-0.00099483,0.000269
 33,0.00025619,0.00008611,-0.00653304,-0.00149624,0.00095714,0.00013587
 ,-0.00015197,-0.00000158,-0.00211710,-0.00112856,0.00008051,-0.0000640
 8,0.00006792,0.00000100,-0.00000066,-0.00000608,0.00000020,-0.00001057
 ,0.00000134,0.00001020,-0.00001066,0.00000089,-0.00001010,0.00003870,-
 0.00001357,-0.00000088,-0.00001987,-0.00002705,0.00005561,-0.00002215,
 -0.00003144,-0.00005665,-0.00362473,0.00248184,-0.00007993,0.06407669,
 -0.00006831,-0.00014585,0.00000549,0.00011176,0.00003960,0.00000641,0.
 00004654,-0.00007552,0.00000820,-0.00138211,-0.00007745,0.00008348,-0.
 00051903,0.00021067,0.00000383,0.00013369,0.00050580,0.00000834,-0.000
 08257,0.00003220,-0.00000692,-0.00001192,0.00005598,-0.00000121,-0.000
 01692,-0.00003831,-0.00000075,0.00002899,-0.00019941,0.00000059,-0.000
 06520,0.00010808,0.00000144,-0.00210732,-0.01461235,-0.00026398,-0.041
 38502,-0.34692877,-0.00627740,0.00117599,-0.00865146,-0.00038916,0.001
 51448,0.00051290,0.00015315,-0.00081196,0.00138347,0.00048767,-0.00003
 211,0.00009824,-0.00000269,-0.00073398,0.00080370,-0.00000512,0.000014
 47,0.00001438,0.00000099,0.00000177,0.00000396,-0.00000002,0.00000204,
 -0.00000009,-0.00000723,0.00000187,0.00000023,0.00000736,0.00000132,-0
 .00000725,-0.00000057,-0.00001028,0.00000145,0.00002764,-0.00001128,0.
 00000047,-0.00002921,0.00214335,-0.00000718,-0.00014203,0.04195539,0.3
 6680646,-0.00006661,-0.00002837,-0.00031110,0.00004758,0.00005920,-0.0
 0008733,-0.00009805,0.00005053,-0.00005842,0.00020864,0.00007619,-0.00
 327985,-0.00003237,-0.00008546,-0.00033449,0.00003095,-0.00001257,-0.0
 0039290,0.00003994,0.00001903,0.00023742,0.00000115,-0.00001612,0.0000
 3980,0.00000076,0.00000570,0.00002637,-0.00000358,0.00002175,0.0000586
 9,0.00000830,-0.00000991,0.00019064,-0.00045633,0.00004061,0.00234621,
 -0.00032120,-0.00615574,-0.03176052,-0.00065577,-0.00093382,-0.0001759
 6,0.00055087,-0.00002307,-0.00232099,-0.00028658,0.00090740,0.00473927
 ,-0.00000141,0.00000052,0.00011878,0.00007979,0.00002663,0.00118673,-0
 .00000007,-0.00000855,0.00001205,-0.00000016,-0.00000079,-0.00000081,0
 .00000160,-0.00000149,-0.00000443,-0.00000199,-0.00000106,-0.00000518,
 -0.00000132,0.00000125,-0.00002945,0.00002316,0.00001559,-0.00004075,-
 0.00002156,-0.00001314,-0.00003350,0.00009411,0.00009811,0.00661525,0.
 00122205,0.00672447,0.02249279,-0.00162717,-0.00025835,0.00001303,0.00
 018101,0.00145868,-0.00001206,-0.00097057,0.00047076,-0.00010076,0.002
 10033,0.00080165,0.00000901,-0.00056655,-0.00079394,0.00004029,0.00064
 966,-0.00126773,0.00001072,0.00142803,0.00044706,-0.00000957,0.0003635
 2,-0.00076212,0.00001981,0.00006934,0.00034824,-0.00000581,0.00011060,
 0.00087575,-0.00000321,0.00019345,-0.00034831,-0.00000377,-0.00416698,
 0.00044840,0.00065413,0.00446149,0.00400977,-0.00066317,-0.03776426,-0
 .01411489,-0.00659179,-0.41466611,-0.12523633,-0.10823051,0.00573872,-
 0.00396522,0.00060594,-0.00004283,-0.00001265,-0.00000595,-0.00005085,
 -0.00001163,-0.00001137,-0.00010261,-0.00026231,0.00000073,0.00001654,
 -0.00002523,0.00000048,-0.00003502,-0.00003811,-0.00000131,-0.00003570
 ,-0.00003698,0.00000238,0.00001093,0.00002776,0.00000023,-0.00004835,0
 .00001952,0.00000293,-0.00004889,0.00001873,-0.00000132,-0.00012841,0.
 00006568,-0.00007307,0.00037214,0.00003996,-0.00021916,0.44308355,-0.0
 0016426,-0.00003439,0.00001242,0.00003860,0.00017562,-0.00001720,-0.00
 010765,0.00010757,0.00006143,0.00037477,-0.00013749,0.00030279,-0.0001
 5370,-0.00016317,-0.00001225,0.00014124,-0.00008491,-0.00001224,0.0001
 3383,0.00003622,0.00000042,0.00003753,-0.00011795,-0.00001570,0.000025
 07,0.00007023,0.00000261,-0.00001096,-0.00000354,-0.00000463,-0.000004
 81,0.00000380,-0.00000806,0.00026145,0.00102655,-0.00072897,0.00229793
 ,-0.00323032,-0.00116760,0.03594811,0.00916795,0.00944315,-0.17390585,
 -0.09735988,-0.05608432,-0.00173529,0.00050275,-0.00099514,0.00001400,
 -0.00001671,0.00000830,0.00001214,0.00002322,-0.00000231,-0.00000471,-
 0.00002038,-0.00000275,-0.00000021,-0.00000526,-0.00000055,-0.00000323
 ,-0.00000484,0.00000785,-0.00000236,-0.00000632,-0.00000727,-0.0000042
 9,0.00000156,0.00000038,0.00000020,0.00000576,0.00000147,0.00000107,0.
 00000569,0.00000163,0.00003997,-0.00000564,-0.00009757,0.00016583,0.00
 023039,0.00006136,0.13556961,0.09326812,0.00055262,0.00009014,-0.00000
 503,-0.00011765,-0.00050712,0.00007740,0.00039567,-0.00018179,-0.00038
 340,-0.00078083,-0.00026817,-0.00058781,0.00027794,0.00032811,0.000109
 22,-0.00027445,0.00039897,0.00001729,-0.00046080,-0.00014457,-0.000021
 87,-0.00009746,0.00025191,0.00005088,-0.00002622,-0.00011715,0.0000134
 9,-0.00001077,-0.00024154,-0.00000176,-0.00005453,0.00009826,0.0000293
 3,0.00206598,-0.00053511,0.00254138,-0.00071237,-0.00100948,0.00303693
 ,0.00953230,0.00094637,-0.00358176,-0.12513640,-0.04744311,-0.03775972
 ,0.00024303,-0.00088561,-0.00328072,0.00000243,0.00001346,-0.00002225,
 0.00000273,-0.00001822,-0.00001357,0.00002626,0.00008683,0.00001273,-0
 .00000319,0.00000934,0.00000231,0.00001195,0.00001378,-0.00000737,0.00
 000623,0.00001287,0.00000032,-0.00000058,-0.00000881,0.00000101,0.0000
 1154,-0.00000861,-0.00000179,0.00001189,-0.00000807,-0.00000717,-0.000
 06270,0.00000797,0.00011881,-0.00004885,-0.00005227,-0.00092745,0.1150
 7191,0.04759904,0.03851724,-0.00134971,-0.00025335,0.00001317,0.000161
 04,0.00120738,-0.00001396,-0.00073436,0.00044711,0.00001061,0.00178560
 ,0.00025171,-0.00009597,-0.00054822,-0.00068048,-0.00010303,0.00053793
 ,-0.00102419,0.00002489,0.00118348,0.00037419,-0.00000740,0.00031550,-
 0.00064623,-0.00000574,0.00005851,0.00030091,0.00000845,0.00007608,0.0
 0069523,0.00000344,0.00015457,-0.00027765,0.00000134,-0.00279636,0.001
 40762,0.00018255,0.00670765,-0.00099272,0.00138499,-0.01297002,-0.0029
 5494,-0.00008142,0.00135226,0.00470045,0.00007119,-0.44568316,-0.11887
 727,0.13157874,-0.00003500,-0.00001397,0.00001149,-0.00004019,0.000012
 53,-0.00000275,-0.00008238,-0.00021674,0.00000348,0.00001428,-0.000021
 61,-0.00000079,-0.00003095,-0.00003100,-0.00000191,-0.00003051,-0.0000
 3218,-0.00000075,0.00000697,0.00002291,0.00000012,-0.00003876,0.000016
 65,0.00000074,-0.00003758,0.00001614,-0.00000179,0.00020281,-0.0001810
 5,0.00019563,-0.00026455,0.00006638,-0.00014273,0.00147497,0.00103596,
 -0.00042566,0.45061010,-0.00080315,-0.00011049,0.00006330,-0.00000297,
 0.00071713,-0.00002792,-0.00034411,0.00028748,-0.00002593,0.00083097,0
 .00043787,0.00029717,-0.00017197,-0.00039620,-0.00005135,0.00033747,-0
 .00051984,-0.00001217,0.00069207,0.00020304,-0.00002444,0.00023611,-0.
 00050704,0.00000340,0.00006883,0.00026009,-0.00000523,0.00008421,0.000
 36161,-0.00000402,0.00006008,-0.00013248,-0.00000102,-0.00048753,0.000
 43906,0.00021247,0.00370714,-0.00555093,-0.00069885,-0.05067857,-0.016
 99463,0.01232724,0.00244743,0.00468050,-0.00116750,-0.07227740,-0.0591
 7795,0.01727567,-0.00003129,0.00001511,-0.00001327,-0.00002479,0.00001
 770,-0.00002983,-0.00005818,-0.00011269,0.00000150,0.00001106,-0.00001
 582,0.00000045,-0.00002209,-0.00001829,0.00001133,-0.00002217,-0.00001
 811,-0.00000792,0.00000331,0.00001183,0.00000062,-0.00002179,0.0000108
 8,0.00000742,-0.00002145,0.00001098,-0.00000516,-0.00050076,0.00047452
 ,-0.00028481,-0.00119089,-0.00006434,-0.00081827,0.00253223,-0.0034346
 4,0.00157259,0.11564820,0.07912565,-0.00052073,-0.00013080,-0.00001095
 ,0.00010501,0.00051298,-0.00001786,-0.00035015,0.00018592,-0.00009653,
 0.00078535,0.00009070,0.00013148,-0.00026973,-0.00033111,0.00014591,0.
 00021492,-0.00039560,-0.00010257,0.00045926,0.00015325,0.00002513,0.00
 010273,-0.00024436,-0.00001557,0.00002431,0.00011166,0.00004038,0.0000
 0613,0.00026008,-0.00003554,0.00006911,-0.00011235,0.00003901,-0.00148
 044,0.00083750,-0.00069606,0.00219057,-0.00263572,0.00215336,-0.009667
 91,-0.00575331,-0.00311396,0.00015615,-0.00087151,-0.00309690,0.141754
 57,0.03572906,-0.04429107,-0.00000505,-0.00001045,0.00004230,0.0000012
 9,0.00002940,0.00010366,-0.00002420,-0.00008814,0.00000585,0.00000460,
 -0.00000861,-0.00000018,-0.00000832,-0.00001354,-0.00000513,-0.0000121
 9,-0.00001184,-0.00000879,0.00000079,0.00000926,-0.00000054,-0.0000129
 4,0.00000502,-0.00000877,-0.00001251,0.00000861,-0.00000061,0.00029957
 ,-0.00004378,-0.00002271,-0.00070453,-0.00034050,0.00169912,-0.0004987
 4,0.00165367,0.00207332,-0.13260691,-0.02859548,0.04506423\\0.00002575
 ,-0.00012147,-0.00000053,0.00011102,-0.00004879,0.00000188,-0.00001157
 ,0.00009045,0.00000726,-0.00017186,-0.00001945,-0.00000107,0.00009612,
 0.00001789,0.00000654,-0.00010117,0.00007286,-0.00000285,-0.00006803,-
 0.00000795,0.00000018,-0.00005950,0.00012310,-0.00000349,-0.00000622,-
 0.00015364,0.00000121,0.00001715,-0.00010338,0.00000711,-0.00004242,0.
 00010728,-0.00000296,0.00015292,-0.00004405,-0.00002685,-0.00025347,-0
 .00000904,-0.00003225,0.00036052,-0.00001336,0.00011424,-0.00013769,0.
 00011810,-0.00000719,-0.00003847,-0.00003427,-0.00001172,-0.00000058,0
 .00000227,-0.00000378,0.00000951,0.00000555,-0.00000248,0.00003005,0.0
 0002852,0.00000023,-0.00001649,0.00000952,0.00000015,0.00001234,0.0000
 2543,-0.00001002,0.00001356,0.00002589,0.00000811,-0.00000224,-0.00001
 666,-0.00000019,0.00002190,-0.00002203,0.00000945,0.00002258,-0.000022
 34,-0.00000687,-0.00000545,-0.00000787,-0.00000127,0.00004660,-0.00000
 209,-0.00000379,0.00000059,-0.00001057,-0.00001877,-0.00000545,0.00001
 007,-0.00002026\\\@


 A MAN IS EXACTLY AS GREAT AS THE TIDE SURGING
 BENEATH HIM.      - BISMARCK
 Job cpu time:       0 days  1 hours 53 minutes  1.2 seconds.
 File lengths (MBytes):  RWF=    392 Int=      0 D2E=      0 Chk=     11 Scr=      1
 Normal termination of Gaussian 09 at Sat Dec 14 18:39:48 2024.
