 Entering Gaussian System, Link 0=g09
 Input=B3PW91SA.gjf
 Output=B3PW91SA.log
 Initial command:
 /home/phzd/g09E/g09/l1.exe "/home/phzd/g09E/scratch/Gau-1399103.inp" -scrdir="/home/phzd/g09E/scratch/"
 Default is to use a total of  18 processors:
                               18 via shared-memory
                                1 via Linda
 Entering Link 1 = /home/phzd/g09E/g09/l1.exe PID=   1399105.
  
 Copyright (c) 1988,1990,1992,1993,1995,1998,2003,2009,2015,
            Gaussian, Inc.  All Rights Reserved.
  
 This is part of the Gaussian(R) 09 program.  It is based on
 the Gaussian(R) 03 system (copyright 2003, Gaussian, Inc.),
 the Gaussian(R) 98 system (copyright 1998, Gaussian, Inc.),
 the Gaussian(R) 94 system (copyright 1995, Gaussian, Inc.),
 the Gaussian 92(TM) system (copyright 1992, Gaussian, Inc.),
 the Gaussian 90(TM) system (copyright 1990, Gaussian, Inc.),
 the Gaussian 88(TM) system (copyright 1988, Gaussian, Inc.),
 the Gaussian 86(TM) system (copyright 1986, Carnegie Mellon
 University), and the Gaussian 82(TM) system (copyright 1983,
 Carnegie Mellon University). Gaussian is a federally registered
 trademark of Gaussian, Inc.
  
 This software contains proprietary and confidential information,
 including trade secrets, belonging to Gaussian, Inc.
  
 This software is provided under written license and may be
 used, copied, transmitted, or stored only in accord with that
 written license.
  
 The following legend is applicable only to US Government
 contracts under FAR:
  
                    RESTRICTED RIGHTS LEGEND
  
 Use, reproduction and disclosure by the US Government is
 subject to restrictions as set forth in subparagraphs (a)
 and (c) of the Commercial Computer Software - Restricted
 Rights clause in FAR 52.227-19.
  
 Gaussian, Inc.
 340 Quinnipiac St., Bldg. 40, Wallingford CT 06492
  
  
 ---------------------------------------------------------------
 Warning -- This program may not be used in any manner that
 competes with the business of Gaussian, Inc. or will provide
 assistance to any competitor of Gaussian, Inc.  The licensee
 of this program is prohibited from giving any competitor of
 Gaussian, Inc. access to this program.  By using this program,
 the user acknowledges that Gaussian, Inc. is engaged in the
 business of creating and licensing software in the field of
 computational chemistry and represents and warrants to the
 licensee that it is not a competitor of Gaussian, Inc. and that
 it will not use this program in any manner prohibited above.
 ---------------------------------------------------------------
  

 Cite this work as:
 Gaussian 09, Revision E.01,
 M. J. Frisch, G. W. Trucks, H. B. Schlegel, G. E. Scuseria, 
 M. A. Robb, J. R. Cheeseman, G. Scalmani, V. Barone, B. Mennucci, 
 G. A. Petersson, H. Nakatsuji, M. Caricato, X. Li, H. P. Hratchian, 
 A. F. Izmaylov, J. Bloino, G. Zheng, J. L. Sonnenberg, M. Hada, 
 M. Ehara, K. Toyota, R. Fukuda, J. Hasegawa, M. Ishida, T. Nakajima, 
 Y. Honda, O. Kitao, H. Nakai, T. Vreven, J. A. Montgomery, Jr., 
 J. E. Peralta, F. Ogliaro, M. Bearpark, J. J. Heyd, E. Brothers, 
 K. N. Kudin, V. N. Staroverov, T. Keith, R. Kobayashi, J. Normand, 
 K. Raghavachari, A. Rendell, J. C. Burant, S. S. Iyengar, J. Tomasi, 
 M. Cossi, N. Rega, J. M. Millam, M. Klene, J. E. Knox, J. B. Cross, 
 V. Bakken, C. Adamo, J. Jaramillo, R. Gomperts, R. E. Stratmann, 
 O. Yazyev, A. J. Austin, R. Cammi, C. Pomelli, J. W. Ochterski, 
 R. L. Martin, K. Morokuma, V. G. Zakrzewski, G. A. Voth, 
 P. Salvador, J. J. Dannenberg, S. Dapprich, A. D. Daniels, 
 O. Farkas, J. B. Foresman, J. V. Ortiz, J. Cioslowski, 
 and D. J. Fox, Gaussian, Inc., Wallingford CT, 2013.
 
 ******************************************
 Gaussian 09:  ES64L-G09RevE.01 30-Nov-2015
                14-Dec-2024 
 ******************************************
 %chk=B3PW91SA.chk
 -----------------------------
 # opt freq b3pw91/6-31+g(d,p)
 -----------------------------
 1/14=-1,18=20,19=15,26=3,38=1/1,3;
 2/9=110,12=2,17=6,18=5,40=1/2;
 3/5=1,6=6,7=111,11=2,16=1,25=1,30=1,71=1,74=-6/1,2,3;
 4//1;
 5/5=2,38=5/2;
 6/7=2,8=2,9=2,10=2,28=1/1;
 7//1,2,3,16;
 1/14=-1,18=20,19=15,26=3/3(2);
 2/9=110/2;
 99//99;
 2/9=110/2;
 3/5=1,6=6,7=111,11=2,16=1,25=1,30=1,71=1,74=-6/1,2,3;
 4/5=5,16=3,69=1/1;
 5/5=2,38=5/2;
 7//1,2,3,16;
 1/14=-1,18=20,19=15,26=3/3(-5);
 2/9=110/2;
 6/7=2,8=2,9=2,10=2,19=2,28=1/1;
 99/9=1/99;
 ----------
 [No Title]
 ----------
 Symbolic Z-matrix:
 Charge =  0 Multiplicity = 1
 C                     2.27428  -0.11997   0.00084 
 C                     1.69267   1.16946   0.00032 
 C                     0.31597   1.33475   0.00004 
 C                    -0.52777   0.21133   0.00024 
 C                     0.04075  -1.05589   0.00058 
 C                     1.42648  -1.23654   0.0007 
 O                     3.6377   -0.11666   0.00109 
 O                     2.58975   2.18461   0.00024 
 C                     2.0825    3.50295  -0.00024 
 O                     1.788    -2.55962   0.00059 
 C                     3.12728  -2.99867  -0.00148 
 C                    -1.97573   0.43041  -0.00004 
 C                    -2.93936  -0.50262  -0.00018 
 C                    -4.35174  -0.07825  -0.00048 
 O                    -5.19245  -1.13621  -0.00086 
 O                    -4.75701   1.06341  -0.00084 
 H                    -0.12094   2.32603  -0.00028 
 H                    -0.56528  -1.95489   0.00058 
 H                     3.99813  -1.00466   0.00468 
 H                     2.95367   4.15672  -0.00024 
 H                     1.47994   3.69528  -0.89599 
 H                     1.47956   3.69579   0.89516 
 H                     3.07937  -4.08755  -0.00289 
 H                     3.65998  -2.68433  -0.90872 
 H                     3.66187  -2.68708   0.90566 
 H                    -2.30612   1.46905  -0.00017 
 H                    -2.74626  -1.56973  -0.00009 
 H                    -6.09386  -0.78065  -0.00124 
 

 GradGradGradGradGradGradGradGradGradGradGradGradGradGradGradGradGradGrad
 Berny optimization.
 Initialization pass.
                           ----------------------------
                           !    Initial Parameters    !
                           ! (Angstroms and Degrees)  !
 --------------------------                            --------------------------
 ! Name  Definition              Value          Derivative Info.                !
 --------------------------------------------------------------------------------
 ! R1    R(1,2)                  1.4145         estimate D2E/DX2                !
 ! R2    R(1,6)                  1.402          estimate D2E/DX2                !
 ! R3    R(1,7)                  1.3634         estimate D2E/DX2                !
 ! R4    R(2,3)                  1.3866         estimate D2E/DX2                !
 ! R5    R(2,8)                  1.3547         estimate D2E/DX2                !
 ! R6    R(3,4)                  1.405          estimate D2E/DX2                !
 ! R7    R(3,17)                 1.0833         estimate D2E/DX2                !
 ! R8    R(4,5)                  1.3889         estimate D2E/DX2                !
 ! R9    R(4,12)                 1.4644         estimate D2E/DX2                !
 ! R10   R(5,6)                  1.3975         estimate D2E/DX2                !
 ! R11   R(5,18)                 1.0842         estimate D2E/DX2                !
 ! R12   R(6,10)                 1.3716         estimate D2E/DX2                !
 ! R13   R(7,19)                 0.9584         estimate D2E/DX2                !
 ! R14   R(8,9)                  1.4126         estimate D2E/DX2                !
 ! R15   R(9,20)                 1.0892         estimate D2E/DX2                !
 ! R16   R(9,21)                 1.0966         estimate D2E/DX2                !
 ! R17   R(9,22)                 1.0966         estimate D2E/DX2                !
 ! R18   R(10,11)                1.4094         estimate D2E/DX2                !
 ! R19   R(11,23)                1.0899         estimate D2E/DX2                !
 ! R20   R(11,24)                1.098          estimate D2E/DX2                !
 ! R21   R(11,25)                1.0981         estimate D2E/DX2                !
 ! R22   R(12,13)                1.3413         estimate D2E/DX2                !
 ! R23   R(12,26)                1.0899         estimate D2E/DX2                !
 ! R24   R(13,14)                1.4748         estimate D2E/DX2                !
 ! R25   R(13,27)                1.0844         estimate D2E/DX2                !
 ! R26   R(14,15)                1.3513         estimate D2E/DX2                !
 ! R27   R(14,16)                1.2115         estimate D2E/DX2                !
 ! R28   R(15,28)                0.969          estimate D2E/DX2                !
 ! A1    A(2,1,6)              118.5128         estimate D2E/DX2                !
 ! A2    A(2,1,7)              114.1391         estimate D2E/DX2                !
 ! A3    A(6,1,7)              127.3481         estimate D2E/DX2                !
 ! A4    A(1,2,3)              121.1245         estimate D2E/DX2                !
 ! A5    A(1,2,8)              114.2545         estimate D2E/DX2                !
 ! A6    A(3,2,8)              124.6209         estimate D2E/DX2                !
 ! A7    A(2,3,4)              120.0623         estimate D2E/DX2                !
 ! A8    A(2,3,17)             120.632          estimate D2E/DX2                !
 ! A9    A(4,3,17)             119.3058         estimate D2E/DX2                !
 ! A10   A(3,4,5)              118.929          estimate D2E/DX2                !
 ! A11   A(3,4,12)             118.3047         estimate D2E/DX2                !
 ! A12   A(5,4,12)             122.7663         estimate D2E/DX2                !
 ! A13   A(4,5,6)              121.5901         estimate D2E/DX2                !
 ! A14   A(4,5,18)             121.8534         estimate D2E/DX2                !
 ! A15   A(6,5,18)             116.5566         estimate D2E/DX2                !
 ! A16   A(1,6,5)              119.7814         estimate D2E/DX2                !
 ! A17   A(1,6,10)             127.5085         estimate D2E/DX2                !
 ! A18   A(5,6,10)             112.7101         estimate D2E/DX2                !
 ! A19   A(1,7,19)             111.9523         estimate D2E/DX2                !
 ! A20   A(2,8,9)              117.4881         estimate D2E/DX2                !
 ! A21   A(8,9,20)             105.842          estimate D2E/DX2                !
 ! A22   A(8,9,21)             111.1797         estimate D2E/DX2                !
 ! A23   A(8,9,22)             111.1799         estimate D2E/DX2                !
 ! A24   A(20,9,21)            109.5254         estimate D2E/DX2                !
 ! A25   A(20,9,22)            109.5255         estimate D2E/DX2                !
 ! A26   A(21,9,22)            109.5136         estimate D2E/DX2                !
 ! A27   A(6,10,11)            123.433          estimate D2E/DX2                !
 ! A28   A(10,11,23)           105.6317         estimate D2E/DX2                !
 ! A29   A(10,11,24)           111.9029         estimate D2E/DX2                !
 ! A30   A(10,11,25)           111.9017         estimate D2E/DX2                !
 ! A31   A(23,11,24)           107.8332         estimate D2E/DX2                !
 ! A32   A(23,11,25)           107.8155         estimate D2E/DX2                !
 ! A33   A(24,11,25)           111.4168         estimate D2E/DX2                !
 ! A34   A(4,12,13)            127.3205         estimate D2E/DX2                !
 ! A35   A(4,12,26)            116.2497         estimate D2E/DX2                !
 ! A36   A(13,12,26)           116.4299         estimate D2E/DX2                !
 ! A37   A(12,13,14)           119.2004         estimate D2E/DX2                !
 ! A38   A(12,13,27)           123.8184         estimate D2E/DX2                !
 ! A39   A(14,13,27)           116.9812         estimate D2E/DX2                !
 ! A40   A(13,14,15)           111.7484         estimate D2E/DX2                !
 ! A41   A(13,14,16)           126.268          estimate D2E/DX2                !
 ! A42   A(15,14,16)           121.9836         estimate D2E/DX2                !
 ! A43   A(14,15,28)           106.9452         estimate D2E/DX2                !
 ! D1    D(6,1,2,3)              0.0168         estimate D2E/DX2                !
 ! D2    D(6,1,2,8)           -179.9882         estimate D2E/DX2                !
 ! D3    D(7,1,2,3)           -179.9986         estimate D2E/DX2                !
 ! D4    D(7,1,2,8)             -0.0036         estimate D2E/DX2                !
 ! D5    D(2,1,6,5)             -0.0244         estimate D2E/DX2                !
 ! D6    D(2,1,6,10)           179.9717         estimate D2E/DX2                !
 ! D7    D(7,1,6,5)            179.9934         estimate D2E/DX2                !
 ! D8    D(7,1,6,10)            -0.0105         estimate D2E/DX2                !
 ! D9    D(2,1,7,19)           179.7909         estimate D2E/DX2                !
 ! D10   D(6,1,7,19)            -0.2262         estimate D2E/DX2                !
 ! D11   D(1,2,3,4)             -0.0015         estimate D2E/DX2                !
 ! D12   D(1,2,3,17)           179.9953         estimate D2E/DX2                !
 ! D13   D(8,2,3,4)           -179.9959         estimate D2E/DX2                !
 ! D14   D(8,2,3,17)             0.0008         estimate D2E/DX2                !
 ! D15   D(1,2,8,9)           -179.9988         estimate D2E/DX2                !
 ! D16   D(3,2,8,9)             -0.004          estimate D2E/DX2                !
 ! D17   D(2,3,4,5)             -0.0063         estimate D2E/DX2                !
 ! D18   D(2,3,4,12)           179.9986         estimate D2E/DX2                !
 ! D19   D(17,3,4,5)           179.9969         estimate D2E/DX2                !
 ! D20   D(17,3,4,12)            0.0018         estimate D2E/DX2                !
 ! D21   D(3,4,5,6)             -0.0015         estimate D2E/DX2                !
 ! D22   D(3,4,5,18)          -179.9896         estimate D2E/DX2                !
 ! D23   D(12,4,5,6)           179.9933         estimate D2E/DX2                !
 ! D24   D(12,4,5,18)            0.0052         estimate D2E/DX2                !
 ! D25   D(3,4,12,13)          179.9858         estimate D2E/DX2                !
 ! D26   D(3,4,12,26)           -0.0123         estimate D2E/DX2                !
 ! D27   D(5,4,12,13)           -0.0091         estimate D2E/DX2                !
 ! D28   D(5,4,12,26)          179.9929         estimate D2E/DX2                !
 ! D29   D(4,5,6,1)              0.0172         estimate D2E/DX2                !
 ! D30   D(4,5,6,10)          -179.9795         estimate D2E/DX2                !
 ! D31   D(18,5,6,1)          -179.9941         estimate D2E/DX2                !
 ! D32   D(18,5,6,10)            0.0092         estimate D2E/DX2                !
 ! D33   D(1,6,10,11)           -0.1011         estimate D2E/DX2                !
 ! D34   D(5,6,10,11)          179.8952         estimate D2E/DX2                !
 ! D35   D(2,8,9,20)          -179.999          estimate D2E/DX2                !
 ! D36   D(2,8,9,21)           -61.1477         estimate D2E/DX2                !
 ! D37   D(2,8,9,22)            61.1495         estimate D2E/DX2                !
 ! D38   D(6,10,11,23)        -179.8964         estimate D2E/DX2                !
 ! D39   D(6,10,11,24)         -62.8157         estimate D2E/DX2                !
 ! D40   D(6,10,11,25)          63.0446         estimate D2E/DX2                !
 ! D41   D(4,12,13,14)        -179.9987         estimate D2E/DX2                !
 ! D42   D(4,12,13,27)           0.0004         estimate D2E/DX2                !
 ! D43   D(26,12,13,14)         -0.0007         estimate D2E/DX2                !
 ! D44   D(26,12,13,27)        179.9985         estimate D2E/DX2                !
 ! D45   D(12,13,14,15)        179.9875         estimate D2E/DX2                !
 ! D46   D(12,13,14,16)          0.0125         estimate D2E/DX2                !
 ! D47   D(27,13,14,15)         -0.0117         estimate D2E/DX2                !
 ! D48   D(27,13,14,16)       -179.9867         estimate D2E/DX2                !
 ! D49   D(13,14,15,28)       -179.9877         estimate D2E/DX2                !
 ! D50   D(16,14,15,28)         -0.0115         estimate D2E/DX2                !
 --------------------------------------------------------------------------------
 Trust Radius=3.00D-01 FncErr=1.00D-07 GrdErr=1.00D-06
 Number of steps in this run=    131 maximum allowed number of steps=    168.
 GradGradGradGradGradGradGradGradGradGradGradGradGradGradGradGradGradGrad

                          Input orientation:                          
 ---------------------------------------------------------------------
 Center     Atomic      Atomic             Coordinates (Angstroms)
 Number     Number       Type             X           Y           Z
 ---------------------------------------------------------------------
      1          6           0        2.274280   -0.119970    0.000835
      2          6           0        1.692666    1.169463    0.000320
      3          6           0        0.315971    1.334750    0.000041
      4          6           0       -0.527773    0.211334    0.000238
      5          6           0        0.040745   -1.055890    0.000579
      6          6           0        1.426482   -1.236543    0.000698
      7          8           0        3.637702   -0.116658    0.001087
      8          8           0        2.589752    2.184607    0.000244
      9          6           0        2.082505    3.502948   -0.000235
     10          8           0        1.788003   -2.559621    0.000588
     11          6           0        3.127275   -2.998669   -0.001478
     12          6           0       -1.975731    0.430414   -0.000037
     13          6           0       -2.939362   -0.502620   -0.000176
     14          6           0       -4.351738   -0.078247   -0.000481
     15          8           0       -5.192446   -1.136213   -0.000862
     16          8           0       -4.757010    1.063410   -0.000840
     17          1           0       -0.120939    2.326025   -0.000276
     18          1           0       -0.565275   -1.954890    0.000575
     19          1           0        3.998131   -1.004659    0.004678
     20          1           0        2.953667    4.156721   -0.000236
     21          1           0        1.479943    3.695277   -0.895994
     22          1           0        1.479561    3.695785    0.895158
     23          1           0        3.079374   -4.087549   -0.002891
     24          1           0        3.659976   -2.684332   -0.908723
     25          1           0        3.661870   -2.687078    0.905657
     26          1           0       -2.306123    1.469052   -0.000173
     27          1           0       -2.746256   -1.569726   -0.000090
     28          1           0       -6.093859   -0.780645   -0.001242
 ---------------------------------------------------------------------
                    Distance matrix (angstroms):
                    1          2          3          4          5
     1  C    0.000000
     2  C    1.414536   0.000000
     3  C    2.439505   1.386582   0.000000
     4  C    2.821571   2.418338   1.404980   0.000000
     5  C    2.421699   2.771469   2.406431   1.388909   0.000000
     6  C    1.401962   2.420686   2.800854   2.432172   1.397463
     7  O    1.363426   2.331796   3.624980   4.178368   3.717561
     8  O    2.326069   1.354725   2.427414   3.689549   4.122894
     9  C    3.627990   2.365825   2.796735   4.200985   4.995177
    10  O    2.487642   3.730302   4.163292   3.611234   2.305237
    11  C    3.002418   4.408110   5.165458   4.864514   3.647062
    12  C    4.285501   3.742102   2.463681   1.464438   2.505050
    13  C    5.227665   4.924586   3.738064   2.515053   3.031031
    14  C    6.626149   6.171839   4.876891   3.834914   4.499966
    15  O    7.535566   7.260917   6.037244   4.855415   5.233808
    16  O    7.130177   6.450548   5.080233   4.314218   5.244987
    17  H    3.423444   2.151000   1.083290   2.153470   3.385778
    18  H    3.380829   3.854851   3.405632   2.166549   1.084187
    19  H    1.937615   3.168911   4.362472   4.686413   3.957720
    20  H    4.330318   3.242504   3.862766   5.261797   5.971300
    21  H    3.998923   2.688562   2.780251   4.119710   5.044673
    22  H    3.998922   2.688578   2.780227   4.119669   5.044688
    23  H    4.048441   5.436832   6.085863   5.611766   4.292346
    24  H    3.053425   4.421358   5.306717   5.171879   4.071546
    25  H    3.055185   4.423834   5.309452   5.174329   4.073388
    26  H    4.848204   4.009996   2.625531   2.178161   3.447190
    27  H    5.225665   5.216051   4.220570   2.844968   2.833973
    28  H    8.394179   8.027010   6.749875   5.653790   6.140776
                    6          7          8          9         10
     6  C    0.000000
     7  O    2.478636   0.000000
     8  O    3.613511   2.528640   0.000000
     9  C    4.784678   3.939567   1.412559   0.000000
    10  O    1.371580   3.064222   4.811497   6.069718   0.000000
    11  C    2.449039   2.926863   5.211073   6.585026   1.409403
    12  C    3.788641   5.640028   4.890892   5.090162   4.806870
    13  C    4.427103   6.588379   6.147543   6.423685   5.155505
    14  C    5.893172   7.989532   7.301013   7.363725   6.622208
    15  O    6.619689   8.888814   8.461114   8.628252   7.124097
    16  O    6.597375   8.477249   7.431823   7.261564   7.480879
    17  H    3.884122   4.482643   2.714377   2.498062   5.245341
    18  H    2.117338   4.587386   5.204770   6.066196   2.429736
    19  H    2.582085   0.958367   3.486398   4.897772   2.702330
    20  H    5.605318   4.327779   2.005410   1.089193   6.816746
    21  H    5.012960   4.471189   2.077749   1.096565   6.326335
    22  H    5.013057   4.471203   2.077752   1.096566   6.326571
    23  H    3.295497   4.009953   6.291238   7.655678   2.000554
    24  H    2.812763   2.724188   5.067363   6.449512   2.084870
    25  H    2.814243   2.725049   5.069766   6.452244   2.084892
    26  H    4.610053   6.151710   4.947890   4.837023   5.743873
    27  H    4.186019   6.547238   6.524416   7.003496   4.641056
    28  H    7.534147   9.754187   9.175937   9.230498   8.080130
                   11         12         13         14         15
    11  C    0.000000
    12  C    6.148112   0.000000
    13  C    6.560057   1.341319   0.000000
    14  C    8.028979   2.429845   1.474754   0.000000
    15  O    8.525638   3.577929   2.340476   1.351326   0.000000
    16  O    8.869185   2.852402   2.399228   1.211456   2.242308
    17  H    6.237248   2.652092   3.993087   4.866229   6.140625
    18  H    3.837239   2.771112   2.783052   4.226002   4.699037
    19  H    2.175892   6.143817   6.955636   8.401106   9.191520
    20  H    7.157496   6.179347   7.512473   8.444163   9.714644
    21  H    6.951458   4.837742   6.160770   7.003566   8.286455
    22  H    6.952311   4.837671   6.160772   7.003537   8.286539
    23  H    1.089934   6.779829   7.005491   8.443692   8.782562
    24  H    1.098031   6.502964   7.009749   8.473733   9.032511
    25  H    1.098078   6.505504   7.012036   8.476143   9.034704
    26  H    7.034369   1.089921   2.070865   2.564893   3.888222
    27  H    6.044853   2.143425   1.084438   2.191365   2.484307
    28  H    9.484142   4.292510   3.166725   1.878390   0.969007
                   16         17         18         19         20
    16  O    0.000000
    17  H    4.804930   0.000000
    18  H    5.165344   4.303913   0.000000
    19  H    8.996079   5.297190   4.661291   0.000000
    20  H    8.308015   3.578359   7.052286   5.266002   0.000000
    21  H    6.828441   2.289101   6.075454   5.407576   1.785266
    22  H    6.828399   2.289027   6.075505   5.406507   1.785268
    23  H    9.377702   7.167701   4.222761   3.216890   8.245229
    24  H    9.258265   6.342261   4.383110   1.941636   6.937163
    25  H    9.260963   6.345200   4.384521   1.937877   6.939725
    26  H    2.484229   2.347218   3.841085   6.772214   5.906687
    27  H    3.313086   4.697783   2.214730   6.768019   8.079685
    28  H    2.277653   6.732546   5.651911  10.094478  10.307052
                   21         22         23         24         25
    21  H    0.000000
    22  H    1.791152   0.000000
    23  H    7.995511   7.996636   0.000000
    24  H    6.741819   6.979548   1.768233   0.000000
    25  H    6.981490   6.745630   1.768072   1.814383   0.000000
    26  H    4.482507   4.482339   7.738178   7.326008   7.328771
    27  H    6.810555   6.810624   6.346448   6.565651   6.567567
    28  H    8.842903   8.843000   9.751093   9.979221   9.981543
                   26         27         28
    26  H    0.000000
    27  H    3.070487   0.000000
    28  H    4.405460   3.439345   0.000000
 Stoichiometry    C11H12O5
 Framework group  C1[X(C11H12O5)]
 Deg. of freedom    78
 Full point group                 C1      NOp   1
 Largest Abelian subgroup         C1      NOp   1
 Largest concise Abelian subgroup C1      NOp   1
                         Standard orientation:                         
 ---------------------------------------------------------------------
 Center     Atomic      Atomic             Coordinates (Angstroms)
 Number     Number       Type             X           Y           Z
 ---------------------------------------------------------------------
      1          6           0       -2.274280   -0.119970   -0.000835
      2          6           0       -1.692666    1.169463   -0.000320
      3          6           0       -0.315971    1.334750   -0.000041
      4          6           0        0.527773    0.211334   -0.000238
      5          6           0       -0.040745   -1.055890   -0.000579
      6          6           0       -1.426482   -1.236543   -0.000698
      7          8           0       -3.637702   -0.116658   -0.001087
      8          8           0       -2.589752    2.184607   -0.000244
      9          6           0       -2.082505    3.502948    0.000235
     10          8           0       -1.788003   -2.559621   -0.000588
     11          6           0       -3.127275   -2.998669    0.001478
     12          6           0        1.975731    0.430414    0.000037
     13          6           0        2.939362   -0.502620    0.000176
     14          6           0        4.351738   -0.078247    0.000481
     15          8           0        5.192446   -1.136213    0.000862
     16          8           0        4.757010    1.063410    0.000840
     17          1           0        0.120939    2.326025    0.000276
     18          1           0        0.565275   -1.954890   -0.000575
     19          1           0       -3.998131   -1.004659   -0.004678
     20          1           0       -2.953667    4.156721    0.000236
     21          1           0       -1.479943    3.695277    0.895994
     22          1           0       -1.479561    3.695785   -0.895158
     23          1           0       -3.079374   -4.087549    0.002891
     24          1           0       -3.659976   -2.684332    0.908723
     25          1           0       -3.661870   -2.687078   -0.905657
     26          1           0        2.306123    1.469052    0.000173
     27          1           0        2.746256   -1.569726    0.000090
     28          1           0        6.093859   -0.780645    0.001242
 ---------------------------------------------------------------------
 Rotational constants (GHZ):      0.7823870      0.2584437      0.1947613
 Standard basis: 6-31+G(d,p) (6D, 7F)
 There are   364 symmetry adapted cartesian basis functions of A   symmetry.
 There are   364 symmetry adapted basis functions of A   symmetry.
   364 basis functions,   596 primitive gaussians,   364 cartesian basis functions
    59 alpha electrons       59 beta electrons
       nuclear repulsion energy      1054.2121390350 Hartrees.
 NAtoms=   28 NActive=   28 NUniq=   28 SFac= 1.00D+00 NAtFMM=   60 NAOKFM=F Big=F
 Integral buffers will be    131072 words long.
 Raffenetti 2 integral format.
 Two-electron integral symmetry is turned on.
 One-electron integrals computed using PRISM.
 NBasis=   364 RedAO= T EigKep=  1.37D-06  NBF=   364
 NBsUse=   362 1.00D-06 EigRej=  5.19D-07 NBFU=   362
 ExpMin= 4.38D-02 ExpMax= 5.48D+03 ExpMxC= 8.25D+02 IAcc=2 IRadAn=         4 AccDes= 0.00D+00
 Harris functional with IExCor=  408 and IRadAn=       4 diagonalized for initial guess.
 HarFok:  IExCor=  408 AccDes= 0.00D+00 IRadAn=         4 IDoV= 1 UseB2=F ITyADJ=14
 ICtDFT=  3500011 ScaDFX=  1.000000  1.000000  1.000000  1.000000
 FoFCou: FMM=F IPFlag=           0 FMFlag=      100000 FMFlg1=           0
         NFxFlg=           0 DoJE=T BraDBF=F KetDBF=T FulRan=T
         wScrn=  0.000000 ICntrl=     500 IOpCl=  0 I1Cent=   200000004 NGrid=           0
         NMat0=    1 NMatS0=      1 NMatT0=    0 NMatD0=    1 NMtDS0=    0 NMtDT0=    0
 Petite list used in FoFCou.
 Requested convergence on RMS density matrix=1.00D-08 within 128 cycles.
 Requested convergence on MAX density matrix=1.00D-06.
 Requested convergence on             energy=1.00D-06.
 No special actions if energy rises.
 SCF Done:  E(RB3PW91) =  -802.212457494     A.U. after   16 cycles
            NFock= 16  Conv=0.27D-08     -V/T= 2.0089

 **********************************************************************

            Population analysis using the SCF density.

 **********************************************************************

 Orbital symmetries:
       Occupied  (A) (A) (A) (A) (A) (A) (A) (A) (A) (A) (A) (A)
                 (A) (A) (A) (A) (A) (A) (A) (A) (A) (A) (A) (A)
                 (A) (A) (A) (A) (A) (A) (A) (A) (A) (A) (A) (A)
                 (A) (A) (A) (A) (A) (A) (A) (A) (A) (A) (A) (A)
                 (A) (A) (A) (A) (A) (A) (A) (A) (A) (A) (A)
       Virtual   (A) (A) (A) (A) (A) (A) (A) (A) (A) (A) (A) (A)
                 (A) (A) (A) (A) (A) (A) (A) (A) (A) (A) (A) (A)
                 (A) (A) (A) (A) (A) (A) (A) (A) (A) (A) (A) (A)
                 (A) (A) (A) (A) (A) (A) (A) (A) (A) (A) (A) (A)
                 (A) (A) (A) (A) (A) (A) (A) (A) (A) (A) (A) (A)
                 (A) (A) (A) (A) (A) (A) (A) (A) (A) (A) (A) (A)
                 (A) (A) (A) (A) (A) (A) (A) (A) (A) (A) (A) (A)
                 (A) (A) (A) (A) (A) (A) (A) (A) (A) (A) (A) (A)
                 (A) (A) (A) (A) (A) (A) (A) (A) (A) (A) (A) (A)
                 (A) (A) (A) (A) (A) (A) (A) (A) (A) (A) (A) (A)
                 (A) (A) (A) (A) (A) (A) (A) (A) (A) (A) (A) (A)
                 (A) (A) (A) (A) (A) (A) (A) (A) (A) (A) (A) (A)
                 (A) (A) (A) (A) (A) (A) (A) (A) (A) (A) (A) (A)
                 (A) (A) (A) (A) (A) (A) (A) (A) (A) (A) (A) (A)
                 (A) (A) (A) (A) (A) (A) (A) (A) (A) (A) (A) (A)
                 (A) (A) (A) (A) (A) (A) (A) (A) (A) (A) (A) (A)
                 (A) (A) (A) (A) (A) (A) (A) (A) (A) (A) (A) (A)
                 (A) (A) (A) (A) (A) (A) (A) (A) (A) (A) (A) (A)
                 (A) (A) (A) (A) (A) (A) (A) (A) (A) (A) (A) (A)
                 (A) (A) (A) (A) (A) (A) (A) (A) (A) (A) (A) (A)
                 (A) (A) (A) (A) (A) (A) (A) (A) (A) (A) (A) (A)
                 (A) (A) (A) (A) (A) (A) (A) (A) (A) (A) (A) (A)
                 (A) (A) (A) (A) (A) (A) (A) (A) (A) (A) (A) (A)
                 (A) (A) (A) (A) (A) (A) (A) (A) (A) (A) (A) (A)
                 (A) (A) (A) (A) (A) (A) (A) (A) (A) (A) (A) (A)
                 (A) (A) (A)
 The electronic state is 1-A.
 Alpha  occ. eigenvalues --  -19.19533 -19.19091 -19.19056 -19.18565 -19.12838
 Alpha  occ. eigenvalues --  -10.30563 -10.25723 -10.25674 -10.25664 -10.25009
 Alpha  occ. eigenvalues --  -10.23372 -10.20435 -10.20055 -10.18829 -10.18768
 Alpha  occ. eigenvalues --  -10.18521  -1.11392  -1.10376  -1.09058  -1.07322
 Alpha  occ. eigenvalues --   -1.01992  -0.87882  -0.81783  -0.78749  -0.76698
 Alpha  occ. eigenvalues --   -0.72262  -0.71352  -0.68151  -0.63875  -0.62104
 Alpha  occ. eigenvalues --   -0.57799  -0.56163  -0.54322  -0.52789  -0.51380
 Alpha  occ. eigenvalues --   -0.50145  -0.49904  -0.48282  -0.48176  -0.47043
 Alpha  occ. eigenvalues --   -0.45787  -0.45102  -0.43726  -0.42983  -0.42192
 Alpha  occ. eigenvalues --   -0.41039  -0.40400  -0.38601  -0.38064  -0.37232
 Alpha  occ. eigenvalues --   -0.36200  -0.34815  -0.34259  -0.34103  -0.32362
 Alpha  occ. eigenvalues --   -0.28122  -0.27946  -0.23434  -0.21842
 Alpha virt. eigenvalues --   -0.07034  -0.00561  -0.00260   0.01522   0.01829
 Alpha virt. eigenvalues --    0.01967   0.02296   0.03033   0.04160   0.04873
 Alpha virt. eigenvalues --    0.04890   0.05665   0.06035   0.07080   0.07395
 Alpha virt. eigenvalues --    0.07551   0.08240   0.08523   0.09127   0.09799
 Alpha virt. eigenvalues --    0.10453   0.11136   0.11326   0.11518   0.12529
 Alpha virt. eigenvalues --    0.12700   0.13169   0.13449   0.14726   0.14986
 Alpha virt. eigenvalues --    0.15562   0.15715   0.16112   0.16421   0.17217
 Alpha virt. eigenvalues --    0.18335   0.18910   0.19041   0.19356   0.19764
 Alpha virt. eigenvalues --    0.19919   0.20052   0.20573   0.20590   0.21714
 Alpha virt. eigenvalues --    0.21936   0.22506   0.23128   0.23621   0.23668
 Alpha virt. eigenvalues --    0.23931   0.24558   0.24993   0.25966   0.26056
 Alpha virt. eigenvalues --    0.26904   0.27332   0.27399   0.28041   0.28629
 Alpha virt. eigenvalues --    0.28980   0.28996   0.30261   0.30405   0.30737
 Alpha virt. eigenvalues --    0.31175   0.31445   0.31920   0.32403   0.33577
 Alpha virt. eigenvalues --    0.33944   0.34296   0.34899   0.35321   0.35707
 Alpha virt. eigenvalues --    0.36036   0.37271   0.37785   0.38235   0.38999
 Alpha virt. eigenvalues --    0.39300   0.40776   0.42341   0.43355   0.43774
 Alpha virt. eigenvalues --    0.44769   0.45108   0.47113   0.48153   0.49720
 Alpha virt. eigenvalues --    0.51944   0.54055   0.56420   0.60364   0.62785
 Alpha virt. eigenvalues --    0.65660   0.66335   0.66587   0.67616   0.69204
 Alpha virt. eigenvalues --    0.69560   0.70333   0.70486   0.72116   0.72411
 Alpha virt. eigenvalues --    0.73093   0.74306   0.75648   0.76232   0.77358
 Alpha virt. eigenvalues --    0.78971   0.80158   0.80957   0.82019   0.85881
 Alpha virt. eigenvalues --    0.86732   0.87571   0.89288   0.91023   0.91245
 Alpha virt. eigenvalues --    0.91519   0.93117   0.94048   0.96172   0.97460
 Alpha virt. eigenvalues --    0.98882   1.00650   1.02708   1.05249   1.06577
 Alpha virt. eigenvalues --    1.09024   1.09525   1.11667   1.12800   1.13586
 Alpha virt. eigenvalues --    1.15665   1.15687   1.16221   1.16553   1.18333
 Alpha virt. eigenvalues --    1.18445   1.20100   1.20160   1.20659   1.21751
 Alpha virt. eigenvalues --    1.22370   1.23378   1.24481   1.25048   1.25065
 Alpha virt. eigenvalues --    1.27178   1.27232   1.28446   1.29967   1.30775
 Alpha virt. eigenvalues --    1.31252   1.32449   1.33531   1.33813   1.34869
 Alpha virt. eigenvalues --    1.35017   1.36925   1.37513   1.37628   1.39039
 Alpha virt. eigenvalues --    1.39245   1.42359   1.43525   1.45172   1.46653
 Alpha virt. eigenvalues --    1.48500   1.50849   1.52106   1.54234   1.57833
 Alpha virt. eigenvalues --    1.57966   1.58531   1.59960   1.64116   1.66089
 Alpha virt. eigenvalues --    1.69505   1.74621   1.74847   1.76525   1.76800
 Alpha virt. eigenvalues --    1.78540   1.79043   1.80023   1.82527   1.83076
 Alpha virt. eigenvalues --    1.83546   1.85695   1.87741   1.87963   1.90492
 Alpha virt. eigenvalues --    1.91043   1.92321   1.92350   1.95110   1.95514
 Alpha virt. eigenvalues --    1.96148   1.97223   1.97599   1.98480   2.00856
 Alpha virt. eigenvalues --    2.00876   2.02739   2.03514   2.04522   2.05868
 Alpha virt. eigenvalues --    2.08033   2.08552   2.10215   2.11256   2.11422
 Alpha virt. eigenvalues --    2.14276   2.15652   2.19803   2.20335   2.21404
 Alpha virt. eigenvalues --    2.22047   2.25149   2.26949   2.30676   2.31280
 Alpha virt. eigenvalues --    2.34764   2.37780   2.39291   2.40785   2.43457
 Alpha virt. eigenvalues --    2.45242   2.46534   2.46900   2.48060   2.50725
 Alpha virt. eigenvalues --    2.52012   2.52284   2.53862   2.55225   2.56285
 Alpha virt. eigenvalues --    2.60302   2.61030   2.61387   2.62286   2.63374
 Alpha virt. eigenvalues --    2.64210   2.64912   2.67100   2.68690   2.69972
 Alpha virt. eigenvalues --    2.73487   2.73698   2.76336   2.77251   2.78268
 Alpha virt. eigenvalues --    2.78913   2.81575   2.82583   2.82632   2.84259
 Alpha virt. eigenvalues --    2.85415   2.90158   2.90888   2.94552   2.97724
 Alpha virt. eigenvalues --    3.01776   3.05241   3.08350   3.12627   3.15308
 Alpha virt. eigenvalues --    3.18238   3.20278   3.21966   3.24791   3.25293
 Alpha virt. eigenvalues --    3.30260   3.38921   3.40551   3.41409   3.43909
 Alpha virt. eigenvalues --    3.45727   3.47506   3.48473   3.54136   3.59408
 Alpha virt. eigenvalues --    3.63943   3.77151   4.18138   4.23651   4.30083
 Alpha virt. eigenvalues --    4.34761   4.39346   4.41078   4.43887   4.46569
 Alpha virt. eigenvalues --    4.51348   4.57249   4.62132   4.62181   4.68106
 Alpha virt. eigenvalues --    4.75624   4.84529   5.32100
          Condensed to atoms (all electrons):
               1          2          3          4          5          6
     1  C   34.760793 -12.768522 -13.286506   2.898905  -3.740469   2.470278
     2  C  -12.768522  30.503732   0.948958  -2.416046  -0.335795  -9.833213
     3  C  -13.286506   0.948958  31.322842  -2.577367  -4.424056  -3.662870
     4  C    2.898905  -2.416046  -2.577367  13.479452  -0.861383  -0.413777
     5  C   -3.740469  -0.335795  -4.424056  -0.861383  11.190063   1.951268
     6  C    2.470278  -9.833213  -3.662870  -0.413777   1.951268  15.804887
     7  O    0.216591  -1.042561   0.200553  -0.101155   0.082228   0.530689
     8  O   -0.855457   0.381208   0.454300  -0.068520  -0.017322   0.092958
     9  C   -0.016831   0.037192  -0.050006  -0.209376  -0.009541   0.060231
    10  O    0.326411   0.055801  -0.019444   0.007711  -0.391540  -0.038104
    11  C   -0.243947  -0.204647  -0.013615   0.024312   0.089760   0.260242
    12  C   -3.736822   1.068668  -0.824797  -2.651717   1.686816  -1.016897
    13  C   -0.013327  -0.643761  -2.364932  -0.799496   0.913066   0.125497
    14  C   -0.055528   0.047108  -0.462579  -0.805103   0.181340   0.040296
    15  O    0.000423   0.001181   0.017804   0.092521  -0.032160  -0.001618
    16  O   -0.000743  -0.003747   0.054194   0.119589  -0.028136  -0.000042
    17  H    0.041913  -0.195383   0.052458   0.228398   0.054275  -0.015605
    18  H    0.023765   0.001521   0.081483   0.181171   0.144232  -0.105762
    19  H   -0.024194   0.439262   0.023980  -0.001121  -0.007906  -0.410014
    20  H    0.093773   0.053501  -0.113070  -0.012262  -0.003093   0.011190
    21  H   -0.048855  -0.076798   0.088005   0.023843   0.006941  -0.007756
    22  H   -0.048060  -0.076858   0.087417   0.023911   0.006884  -0.007696
    23  H   -0.034889  -0.001938  -0.002977   0.001896  -0.002058   0.061588
    24  H    0.052784   0.010125   0.002313  -0.002898  -0.005944  -0.057998
    25  H    0.056310   0.010423   0.002299  -0.002895  -0.006950  -0.060487
    26  H    0.022833   0.035736   0.203891   0.021580  -0.048232  -0.002921
    27  H   -0.000065   0.001484   0.032947   0.101960  -0.024332  -0.008437
    28  H    0.000055   0.000026  -0.000666  -0.007029   0.004049   0.000179
               7          8          9         10         11         12
     1  C    0.216591  -0.855457  -0.016831   0.326411  -0.243947  -3.736822
     2  C   -1.042561   0.381208   0.037192   0.055801  -0.204647   1.068668
     3  C    0.200553   0.454300  -0.050006  -0.019444  -0.013615  -0.824797
     4  C   -0.101155  -0.068520  -0.209376   0.007711   0.024312  -2.651717
     5  C    0.082228  -0.017322  -0.009541  -0.391540   0.089760   1.686816
     6  C    0.530689   0.092958   0.060231  -0.038104   0.260242  -1.016897
     7  O    8.444388   0.057325  -0.006021  -0.020168   0.008650   0.020407
     8  O    0.057325   8.442362   0.041762  -0.001502   0.001750  -0.036802
     9  C   -0.006021   0.041762   5.084536  -0.000410  -0.000080   0.001698
    10  O   -0.020168  -0.001502  -0.000410   8.578050   0.017574  -0.022829
    11  C    0.008650   0.001750  -0.000080   0.017574   5.049013  -0.014592
    12  C    0.020407  -0.036802   0.001698  -0.022829  -0.014592  11.546739
    13  C   -0.000222  -0.004304  -0.014246   0.009152   0.000650  -1.155213
    14  C    0.000382  -0.000111  -0.000391  -0.000128  -0.000401   0.558155
    15  O    0.000000   0.000001  -0.000001   0.000004  -0.000000  -0.076640
    16  O    0.000001   0.000002   0.000104  -0.000005   0.000006   0.078809
    17  H   -0.000797  -0.014730  -0.004560   0.000174  -0.000005   0.117105
    18  H   -0.000384   0.000148   0.000136  -0.018747  -0.003197  -0.022492
    19  H    0.146903  -0.004842   0.001169   0.005236   0.017680   0.005741
    20  H   -0.001356  -0.086087   0.420261  -0.000004   0.000033  -0.001623
    21  H    0.000136  -0.036717   0.405961   0.000004  -0.000027   0.001923
    22  H    0.000133  -0.036723   0.405845   0.000004  -0.000025   0.001841
    23  H    0.002144   0.000005   0.000014  -0.081166   0.418328   0.000246
    24  H   -0.012398  -0.000127  -0.000070  -0.042138   0.395636  -0.000137
    25  H   -0.012787  -0.000131  -0.000073  -0.042128   0.395162  -0.000157
    26  H   -0.000015   0.000073   0.000406   0.000027   0.000009   0.271455
    27  H   -0.000004   0.000004   0.000044  -0.000016   0.000078  -0.024169
    28  H   -0.000000   0.000000  -0.000001   0.000000  -0.000000   0.031803
              13         14         15         16         17         18
     1  C   -0.013327  -0.055528   0.000423  -0.000743   0.041913   0.023765
     2  C   -0.643761   0.047108   0.001181  -0.003747  -0.195383   0.001521
     3  C   -2.364932  -0.462579   0.017804   0.054194   0.052458   0.081483
     4  C   -0.799496  -0.805103   0.092521   0.119589   0.228398   0.181171
     5  C    0.913066   0.181340  -0.032160  -0.028136   0.054275   0.144232
     6  C    0.125497   0.040296  -0.001618  -0.000042  -0.015605  -0.105762
     7  O   -0.000222   0.000382   0.000000   0.000001  -0.000797  -0.000384
     8  O   -0.004304  -0.000111   0.000001   0.000002  -0.014730   0.000148
     9  C   -0.014246  -0.000391  -0.000001   0.000104  -0.004560   0.000136
    10  O    0.009152  -0.000128   0.000004  -0.000005   0.000174  -0.018747
    11  C    0.000650  -0.000401  -0.000000   0.000006  -0.000005  -0.003197
    12  C   -1.155213   0.558155  -0.076640   0.078809   0.117105  -0.022492
    13  C   11.452640  -1.075624   0.213629  -0.174660   0.037217   0.003249
    14  C   -1.075624   6.756669  -0.208712   0.277038   0.001897   0.019175
    15  O    0.213629  -0.208712   8.400165  -0.144896   0.000001   0.000125
    16  O   -0.174660   0.277038  -0.144896   8.312653  -0.000074   0.000035
    17  H    0.037217   0.001897   0.000001  -0.000074   0.549965  -0.000137
    18  H    0.003249   0.019175   0.000125   0.000035  -0.000137   0.549770
    19  H    0.000422   0.000035   0.000000   0.000000   0.000004  -0.000008
    20  H    0.000103  -0.000001  -0.000000  -0.000000   0.000190  -0.000000
    21  H   -0.000432  -0.000022   0.000000   0.000000  -0.001392   0.000000
    22  H   -0.000429  -0.000023   0.000000   0.000000  -0.001390   0.000000
    23  H   -0.000171  -0.000003   0.000000  -0.000000   0.000000  -0.000036
    24  H    0.000178   0.000005  -0.000000   0.000000  -0.000000   0.000005
    25  H    0.000187   0.000006  -0.000000   0.000000  -0.000000   0.000005
    26  H   -0.186319  -0.018082   0.001227  -0.005009   0.002799  -0.000020
    27  H    0.277407  -0.045181  -0.006082   0.004691  -0.000001   0.001174
    28  H   -0.053253   0.061063   0.190412   0.007806  -0.000000  -0.000000
              19         20         21         22         23         24
     1  C   -0.024194   0.093773  -0.048855  -0.048060  -0.034889   0.052784
     2  C    0.439262   0.053501  -0.076798  -0.076858  -0.001938   0.010125
     3  C    0.023980  -0.113070   0.088005   0.087417  -0.002977   0.002313
     4  C   -0.001121  -0.012262   0.023843   0.023911   0.001896  -0.002898
     5  C   -0.007906  -0.003093   0.006941   0.006884  -0.002058  -0.005944
     6  C   -0.410014   0.011190  -0.007756  -0.007696   0.061588  -0.057998
     7  O    0.146903  -0.001356   0.000136   0.000133   0.002144  -0.012398
     8  O   -0.004842  -0.086087  -0.036717  -0.036723   0.000005  -0.000127
     9  C    0.001169   0.420261   0.405961   0.405845   0.000014  -0.000070
    10  O    0.005236  -0.000004   0.000004   0.000004  -0.081166  -0.042138
    11  C    0.017680   0.000033  -0.000027  -0.000025   0.418328   0.395636
    12  C    0.005741  -0.001623   0.001923   0.001841   0.000246  -0.000137
    13  C    0.000422   0.000103  -0.000432  -0.000429  -0.000171   0.000178
    14  C    0.000035  -0.000001  -0.000022  -0.000023  -0.000003   0.000005
    15  O    0.000000  -0.000000   0.000000   0.000000   0.000000  -0.000000
    16  O    0.000000  -0.000000   0.000000   0.000000  -0.000000   0.000000
    17  H    0.000004   0.000190  -0.001392  -0.001390   0.000000  -0.000000
    18  H   -0.000008  -0.000000   0.000000   0.000000  -0.000036   0.000005
    19  H    0.434071  -0.000003   0.000001   0.000001  -0.000512   0.006622
    20  H   -0.000003   0.525944  -0.026804  -0.026805  -0.000000  -0.000000
    21  H    0.000001  -0.026804   0.558072  -0.044025   0.000000  -0.000000
    22  H    0.000001  -0.026805  -0.044025   0.558067   0.000000   0.000000
    23  H   -0.000512  -0.000000   0.000000   0.000000   0.513383  -0.026878
    24  H    0.006622  -0.000000  -0.000000   0.000000  -0.026878   0.572022
    25  H    0.006912  -0.000000   0.000000  -0.000000  -0.026923  -0.048173
    26  H   -0.000000   0.000000  -0.000002  -0.000002   0.000000  -0.000000
    27  H   -0.000000  -0.000000   0.000000   0.000000   0.000000  -0.000000
    28  H    0.000000   0.000000   0.000000   0.000000   0.000000   0.000000
              25         26         27         28
     1  C    0.056310   0.022833  -0.000065   0.000055
     2  C    0.010423   0.035736   0.001484   0.000026
     3  C    0.002299   0.203891   0.032947  -0.000666
     4  C   -0.002895   0.021580   0.101960  -0.007029
     5  C   -0.006950  -0.048232  -0.024332   0.004049
     6  C   -0.060487  -0.002921  -0.008437   0.000179
     7  O   -0.012787  -0.000015  -0.000004  -0.000000
     8  O   -0.000131   0.000073   0.000004   0.000000
     9  C   -0.000073   0.000406   0.000044  -0.000001
    10  O   -0.042128   0.000027  -0.000016   0.000000
    11  C    0.395162   0.000009   0.000078  -0.000000
    12  C   -0.000157   0.271455  -0.024169   0.031803
    13  C    0.000187  -0.186319   0.277407  -0.053253
    14  C    0.000006  -0.018082  -0.045181   0.061063
    15  O   -0.000000   0.001227  -0.006082   0.190412
    16  O    0.000000  -0.005009   0.004691   0.007806
    17  H   -0.000000   0.002799  -0.000001  -0.000000
    18  H    0.000005  -0.000020   0.001174  -0.000000
    19  H    0.006912  -0.000000  -0.000000   0.000000
    20  H   -0.000000   0.000000  -0.000000   0.000000
    21  H    0.000000  -0.000002   0.000000   0.000000
    22  H   -0.000000  -0.000002   0.000000   0.000000
    23  H   -0.026923   0.000000   0.000000   0.000000
    24  H   -0.048173  -0.000000  -0.000000   0.000000
    25  H    0.572808  -0.000000  -0.000000   0.000000
    26  H   -0.000000   0.524943   0.004051  -0.000007
    27  H   -0.000000   0.004051   0.529883  -0.000065
    28  H    0.000000  -0.000007  -0.000065   0.390521
 Mulliken charges:
               1
     1  C   -0.090617
     2  C    0.003342
     3  C    0.229443
     4  C   -0.275105
     5  C   -0.372003
     6  C    0.233893
     7  O   -0.512661
     8  O   -0.308522
     9  C   -0.147750
    10  O   -0.321818
    11  C   -0.198346
    12  C    0.193482
    13  C   -0.547009
    14  C    0.728722
    15  O   -0.447382
    16  O   -0.497616
    17  H    0.147678
    18  H    0.144790
    19  H    0.360561
    20  H    0.166114
    21  H    0.157943
    22  H    0.157933
    23  H    0.179946
    24  H    0.157073
    25  H    0.156593
    26  H    0.171577
    27  H    0.154629
    28  H    0.375108
 Sum of Mulliken charges =  -0.00000
 Mulliken charges with hydrogens summed into heavy atoms:
               1
     1  C   -0.090617
     2  C    0.003342
     3  C    0.377121
     4  C   -0.275105
     5  C   -0.227214
     6  C    0.233893
     7  O   -0.152099
     8  O   -0.308522
     9  C    0.334241
    10  O   -0.321818
    11  C    0.295267
    12  C    0.365059
    13  C   -0.392379
    14  C    0.728722
    15  O   -0.072274
    16  O   -0.497616
 Electronic spatial extent (au):  <R**2>=           5209.9428
 Charge=             -0.0000 electrons
 Dipole moment (field-independent basis, Debye):
    X=             -3.5082    Y=             -1.7042    Z=             -0.0017  Tot=              3.9003
 Quadrupole moment (field-independent basis, Debye-Ang):
   XX=            -89.7429   YY=            -79.7613   ZZ=            -95.7748
   XY=              3.2120   XZ=              0.0134   YZ=             -0.0011
 Traceless Quadrupole moment (field-independent basis, Debye-Ang):
   XX=             -1.3166   YY=              8.6650   ZZ=             -7.3485
   XY=              3.2120   XZ=              0.0134   YZ=             -0.0011
 Octapole moment (field-independent basis, Debye-Ang**2):
  XXX=              4.1316  YYY=             18.6365  ZZZ=              0.0081  XYY=            -64.6540
  XXY=            -94.0367  XXZ=             -0.0632  XZZ=             -1.4258  YZZ=             -0.8286
  YYZ=              0.0303  XYZ=             -0.0225
 Hexadecapole moment (field-independent basis, Debye-Ang**3):
 XXXX=          -4057.3297 YYYY=          -1524.4205 ZZZZ=           -113.1523 XXXY=            -43.0406
 XXXZ=              0.2683 YYYX=              1.0047 YYYZ=             -0.0639 ZZZX=             -0.2676
 ZZZY=              0.0369 XXYY=          -1025.9927 XXZZ=           -805.1598 YYZZ=           -316.6245
 XXYZ=              0.0484 YYXZ=             -0.1726 ZZXY=              4.8094
 N-N= 1.054212139035D+03 E-N=-3.981349606461D+03  KE= 7.951614469091D+02
 Calling FoFJK, ICntrl=      2127 FMM=F ISym2X=0 I1Cent= 0 IOpClX= 0 NMat=1 NMatS=1 NMatT=0.
 ***** Axes restored to original set *****
 -------------------------------------------------------------------
 Center     Atomic                   Forces (Hartrees/Bohr)
 Number     Number              X              Y              Z
 -------------------------------------------------------------------
      1        6           0.002415018    0.001077091    0.000013598
      2        6           0.000528061    0.001114946   -0.000003358
      3        6           0.000089204    0.000522702   -0.000000976
      4        6          -0.007826939    0.002790843   -0.000002456
      5        6           0.002240115   -0.002906251   -0.000001918
      6        6          -0.001907862   -0.002200085   -0.000028130
      7        8           0.000697337    0.001670203   -0.000006205
      8        8           0.000691744   -0.000095098    0.000000490
      9        6          -0.000399672    0.000092236   -0.000000419
     10        8          -0.000721575   -0.000534474    0.000044504
     11        6          -0.000167396    0.000974976   -0.000041484
     12        6           0.009485827    0.001798688    0.000004340
     13        6          -0.009011096   -0.001475780    0.000016433
     14        6           0.008391299   -0.006485676   -0.000055483
     15        8          -0.002019128   -0.005116112    0.000017112
     16        8          -0.003989221    0.009797748    0.000020332
     17        1          -0.000067888    0.000048173    0.000000748
     18        1          -0.000120922    0.000088878   -0.000001568
     19        1          -0.000887568   -0.001995486    0.000007426
     20        1           0.000628169    0.000767110    0.000000081
     21        1          -0.000212884    0.000889341   -0.000417413
     22        1          -0.000213025    0.000889112    0.000417290
     23        1           0.000365929   -0.000993993    0.000001191
     24        1           0.000932895   -0.000547320   -0.000665250
     25        1           0.000940689   -0.000552939    0.000680250
     26        1           0.000186668   -0.000169341    0.000000125
     27        1           0.000226715   -0.000248126    0.000000698
     28        1          -0.000274493    0.000798635    0.000000042
 -------------------------------------------------------------------
 Cartesian Forces:  Max     0.009797748 RMS     0.002558433

 GradGradGradGradGradGradGradGradGradGradGradGradGradGradGradGradGradGrad
 Berny optimization.
 FormGI is forming the generalized inverse of G from B-inverse, IUseBI=4.
 Internal  Forces:  Max     0.010568310 RMS     0.001666250
 Search for a local minimum.
 Step number   1 out of a maximum of  131
 All quantities printed in internal units (Hartrees-Bohrs-Radians)
 Mixed Optimization -- RFO/linear search
 Second derivative matrix not updated -- first step.
 ITU=  0
     Eigenvalues ---    0.01100   0.01236   0.01484   0.01526   0.01567
     Eigenvalues ---    0.01849   0.01986   0.02041   0.02044   0.02052
     Eigenvalues ---    0.02068   0.02086   0.02107   0.02127   0.02154
     Eigenvalues ---    0.02176   0.02183   0.02191   0.02291   0.02336
     Eigenvalues ---    0.02865   0.09899   0.10136   0.10710   0.10776
     Eigenvalues ---    0.16000   0.16000   0.16000   0.16000   0.16000
     Eigenvalues ---    0.16000   0.16000   0.16000   0.16000   0.16000
     Eigenvalues ---    0.16000   0.16000   0.22000   0.22000   0.23468
     Eigenvalues ---    0.23488   0.25000   0.25000   0.25000   0.25000
     Eigenvalues ---    0.25000   0.25000   0.25000   0.25000   0.25000
     Eigenvalues ---    0.33896   0.33901   0.34065   0.34065   0.34820
     Eigenvalues ---    0.34822   0.34906   0.35177   0.35463   0.35493
     Eigenvalues ---    0.35600   0.36414   0.41104   0.41903   0.43601
     Eigenvalues ---    0.44097   0.44827   0.45107   0.46748   0.47497
     Eigenvalues ---    0.50674   0.52261   0.53580   0.54028   0.54740
     Eigenvalues ---    0.55826   0.56910   0.99271
 RFO step:  Lambda=-7.60776568D-04 EMin= 1.09990747D-02
 Linear search not attempted -- first point.
 Iteration  1 RMS(Cart)=  0.01527034 RMS(Int)=  0.00006497
 Iteration  2 RMS(Cart)=  0.00007394 RMS(Int)=  0.00000937
 Iteration  3 RMS(Cart)=  0.00000000 RMS(Int)=  0.00000937
 Variable       Old X    -DE/DX   Delta X   Delta X   Delta X     New X
                                 (Linear)    (Quad)   (Total)
    R1        2.67309   0.00292   0.00000   0.00674   0.00674   2.67983
    R2        2.64932   0.00346   0.00000   0.00765   0.00765   2.65698
    R3        2.57650  -0.00019   0.00000  -0.00037  -0.00037   2.57614
    R4        2.62026   0.00197   0.00000   0.00409   0.00409   2.62435
    R5        2.56006   0.00223   0.00000   0.00413   0.00413   2.56419
    R6        2.65503   0.00247   0.00000   0.00549   0.00550   2.66052
    R7        2.04712   0.00007   0.00000   0.00020   0.00020   2.04732
    R8        2.62466   0.00403   0.00000   0.00846   0.00846   2.63312
    R9        2.76739  -0.00313   0.00000  -0.00857  -0.00857   2.75882
   R10        2.64082   0.00064   0.00000   0.00140   0.00140   2.64222
   R11        2.04882  -0.00001   0.00000  -0.00002  -0.00002   2.04880
   R12        2.59191   0.00195   0.00000   0.00385   0.00385   2.59576
   R13        1.81105   0.00152   0.00000   0.00271   0.00271   1.81376
   R14        2.66935   0.00253   0.00000   0.00580   0.00580   2.67514
   R15        2.05828   0.00096   0.00000   0.00275   0.00275   2.06103
   R16        2.07221   0.00061   0.00000   0.00180   0.00180   2.07401
   R17        2.07221   0.00061   0.00000   0.00180   0.00180   2.07401
   R18        2.66339   0.00232   0.00000   0.00524   0.00524   2.66863
   R19        2.05968   0.00098   0.00000   0.00280   0.00280   2.06248
   R20        2.07498   0.00085   0.00000   0.00249   0.00249   2.07747
   R21        2.07507   0.00086   0.00000   0.00254   0.00254   2.07761
   R22        2.53473   0.00669   0.00000   0.01174   0.01174   2.54647
   R23        2.05965  -0.00022   0.00000  -0.00062  -0.00062   2.05903
   R24        2.78688  -0.00231   0.00000  -0.00655  -0.00655   2.78033
   R25        2.04929   0.00028   0.00000   0.00080   0.00080   2.05009
   R26        2.55364   0.00481   0.00000   0.00877   0.00877   2.56240
   R27        2.28932   0.01057   0.00000   0.01064   0.01064   2.29996
   R28        1.83116   0.00055   0.00000   0.00102   0.00102   1.83218
    A1        2.06844   0.00053   0.00000   0.00203   0.00203   2.07046
    A2        1.99210   0.00158   0.00000   0.00634   0.00634   1.99845
    A3        2.22264  -0.00211   0.00000  -0.00837  -0.00837   2.21428
    A4        2.11402  -0.00097   0.00000  -0.00405  -0.00405   2.10997
    A5        1.99412   0.00045   0.00000   0.00189   0.00188   1.99600
    A6        2.17505   0.00052   0.00000   0.00216   0.00216   2.17721
    A7        2.09548   0.00108   0.00000   0.00469   0.00469   2.10017
    A8        2.10542  -0.00050   0.00000  -0.00207  -0.00208   2.10335
    A9        2.08228  -0.00059   0.00000  -0.00261  -0.00262   2.07966
   A10        2.07570  -0.00087   0.00000  -0.00366  -0.00366   2.07205
   A11        2.06481  -0.00044   0.00000  -0.00169  -0.00169   2.06312
   A12        2.14268   0.00132   0.00000   0.00534   0.00534   2.14802
   A13        2.12215   0.00047   0.00000   0.00203   0.00203   2.12417
   A14        2.12674  -0.00039   0.00000  -0.00197  -0.00197   2.12477
   A15        2.03430  -0.00008   0.00000  -0.00006  -0.00006   2.03424
   A16        2.09058  -0.00024   0.00000  -0.00104  -0.00104   2.08954
   A17        2.22544   0.00025   0.00000   0.00103   0.00103   2.22647
   A18        1.96716  -0.00001   0.00000   0.00001   0.00001   1.96718
   A19        1.95394  -0.00285   0.00000  -0.01772  -0.01772   1.93621
   A20        2.05055   0.00343   0.00000   0.01366   0.01366   2.06421
   A21        1.84729  -0.00018   0.00000  -0.00206  -0.00206   1.84523
   A22        1.94045   0.00097   0.00000   0.00653   0.00651   1.94696
   A23        1.94046   0.00097   0.00000   0.00652   0.00650   1.94696
   A24        1.91158  -0.00067   0.00000  -0.00509  -0.00509   1.90649
   A25        1.91158  -0.00067   0.00000  -0.00509  -0.00509   1.90649
   A26        1.91137  -0.00046   0.00000  -0.00119  -0.00123   1.91015
   A27        2.15431   0.00249   0.00000   0.00995   0.00995   2.16426
   A28        1.84362  -0.00004   0.00000  -0.00162  -0.00162   1.84200
   A29        1.95307   0.00104   0.00000   0.00720   0.00717   1.96024
   A30        1.95305   0.00104   0.00000   0.00718   0.00714   1.96020
   A31        1.88204  -0.00088   0.00000  -0.00686  -0.00686   1.87518
   A32        1.88174  -0.00089   0.00000  -0.00694  -0.00694   1.87480
   A33        1.94459  -0.00040   0.00000  -0.00026  -0.00031   1.94428
   A34        2.22216   0.00226   0.00000   0.01024   0.01024   2.23240
   A35        2.02894  -0.00126   0.00000  -0.00593  -0.00593   2.02301
   A36        2.03208  -0.00100   0.00000  -0.00431  -0.00431   2.02778
   A37        2.08044   0.00224   0.00000   0.01016   0.01016   2.09060
   A38        2.16104  -0.00130   0.00000  -0.00622  -0.00622   2.15482
   A39        2.04171  -0.00094   0.00000  -0.00394  -0.00394   2.03777
   A40        1.95038  -0.00110   0.00000  -0.00437  -0.00437   1.94601
   A41        2.20379   0.00110   0.00000   0.00438   0.00438   2.20817
   A42        2.12902  -0.00000   0.00000  -0.00001  -0.00001   2.12900
   A43        1.86655  -0.00118   0.00000  -0.00732  -0.00732   1.85922
    D1        0.00029   0.00000   0.00000   0.00008   0.00008   0.00038
    D2       -3.14139   0.00000   0.00000   0.00001   0.00001  -3.14137
    D3       -3.14157   0.00000   0.00000   0.00017   0.00017  -3.14140
    D4       -0.00006   0.00000   0.00000   0.00010   0.00010   0.00003
    D5       -0.00043  -0.00000   0.00000  -0.00012  -0.00012  -0.00054
    D6        3.14110   0.00000   0.00000   0.00006   0.00006   3.14115
    D7        3.14148  -0.00000   0.00000  -0.00022  -0.00022   3.14126
    D8       -0.00018  -0.00000   0.00000  -0.00004  -0.00004  -0.00023
    D9        3.13794  -0.00000   0.00000  -0.00004  -0.00004   3.13791
   D10       -0.00395   0.00000   0.00000   0.00006   0.00006  -0.00389
   D11       -0.00003   0.00000   0.00000   0.00001   0.00001  -0.00002
   D12        3.14151  -0.00000   0.00000  -0.00006  -0.00006   3.14145
   D13       -3.14152   0.00000   0.00000   0.00008   0.00008  -3.14144
   D14        0.00001   0.00000   0.00000   0.00001   0.00001   0.00003
   D15       -3.14157   0.00000   0.00000   0.00005   0.00005  -3.14152
   D16       -0.00007  -0.00000   0.00000  -0.00002  -0.00002  -0.00009
   D17       -0.00011  -0.00000   0.00000  -0.00006  -0.00006  -0.00017
   D18        3.14157  -0.00000   0.00000  -0.00008  -0.00008   3.14149
   D19        3.14154   0.00000   0.00000   0.00001   0.00001   3.14155
   D20        0.00003  -0.00000   0.00000  -0.00001  -0.00001   0.00002
   D21       -0.00003   0.00000   0.00000   0.00002   0.00002  -0.00001
   D22       -3.14141   0.00000   0.00000   0.00003   0.00003  -3.14138
   D23        3.14148   0.00000   0.00000   0.00004   0.00004   3.14152
   D24        0.00009   0.00000   0.00000   0.00005   0.00005   0.00015
   D25        3.14135   0.00000   0.00000   0.00004   0.00004   3.14139
   D26       -0.00021   0.00000   0.00000   0.00006   0.00006  -0.00016
   D27       -0.00016   0.00000   0.00000   0.00002   0.00002  -0.00014
   D28        3.14147   0.00000   0.00000   0.00003   0.00003   3.14150
   D29        0.00030   0.00000   0.00000   0.00007   0.00007   0.00037
   D30       -3.14123  -0.00000   0.00000  -0.00008  -0.00008  -3.14131
   D31       -3.14149   0.00000   0.00000   0.00006   0.00006  -3.14143
   D32        0.00016  -0.00000   0.00000  -0.00009  -0.00009   0.00007
   D33       -0.00177  -0.00002   0.00000  -0.00103  -0.00103  -0.00280
   D34        3.13976  -0.00002   0.00000  -0.00087  -0.00087   3.13890
   D35       -3.14157  -0.00000   0.00000  -0.00000  -0.00000  -3.14158
   D36       -1.06723  -0.00039   0.00000  -0.00383  -0.00385  -1.07108
   D37        1.06726   0.00039   0.00000   0.00383   0.00385   1.07111
   D38       -3.13978   0.00000   0.00000   0.00023   0.00023  -3.13956
   D39       -1.09634  -0.00054   0.00000  -0.00521  -0.00524  -1.10158
   D40        1.10034   0.00055   0.00000   0.00576   0.00579   1.10613
   D41       -3.14157   0.00000   0.00000   0.00005   0.00005  -3.14153
   D42        0.00001   0.00000   0.00000   0.00003   0.00003   0.00004
   D43       -0.00001   0.00000   0.00000   0.00003   0.00003   0.00002
   D44        3.14157   0.00000   0.00000   0.00001   0.00001   3.14158
   D45        3.14137   0.00001   0.00000   0.00095   0.00095  -3.14086
   D46        0.00022  -0.00002   0.00000  -0.00096  -0.00096  -0.00074
   D47       -0.00020   0.00002   0.00000   0.00097   0.00097   0.00076
   D48       -3.14136  -0.00001   0.00000  -0.00095  -0.00095   3.14088
   D49       -3.14138  -0.00001   0.00000  -0.00091  -0.00091   3.14089
   D50       -0.00020   0.00001   0.00000   0.00091   0.00090   0.00070
         Item               Value     Threshold  Converged?
 Maximum Force            0.010568     0.000450     NO 
 RMS     Force            0.001666     0.000300     NO 
 Maximum Displacement     0.064616     0.001800     NO 
 RMS     Displacement     0.015274     0.001200     NO 
 Predicted change in Energy=-3.814210D-04
 GradGradGradGradGradGradGradGradGradGradGradGradGradGradGradGradGradGrad

                          Input orientation:                          
 ---------------------------------------------------------------------
 Center     Atomic      Atomic             Coordinates (Angstroms)
 Number     Number       Type             X           Y           Z
 ---------------------------------------------------------------------
      1          6           0        2.276860   -0.114527    0.001158
      2          6           0        1.690879    1.176846    0.000393
      3          6           0        0.311020    1.333714   -0.000155
      4          6           0       -0.532669    0.206622    0.000021
      5          6           0        0.044355   -1.061674    0.000544
      6          6           0        1.431402   -1.237946    0.000889
      7          8           0        3.640090   -0.116801    0.001868
      8          8           0        2.585205    2.197329    0.000452
      9          6           0        2.089473    3.523317   -0.000191
     10          8           0        1.797755   -2.561807    0.001034
     11          6           0        3.136682   -3.010709   -0.001777
     12          6           0       -1.976124    0.425152   -0.000438
     13          6           0       -2.953850   -0.502155   -0.000587
     14          6           0       -4.362837   -0.078540   -0.001152
     15          8           0       -5.201962   -1.143674   -0.000300
     16          8           0       -4.774821    1.066696   -0.000792
     17          1           0       -0.130107    2.323235   -0.000601
     18          1           0       -0.558704   -1.962652    0.000504
     19          1           0        3.981568   -1.013795    0.005670
     20          1           0        2.969330    4.167810   -0.000032
     21          1           0        1.490516    3.729394   -0.896476
     22          1           0        1.489761    3.729979    0.895454
     23          1           0        3.079637   -4.100633   -0.002953
     24          1           0        3.676474   -2.708051   -0.910395
     25          1           0        3.679437   -2.710541    0.905991
     26          1           0       -2.300158    1.465445   -0.000738
     27          1           0       -2.765058   -1.570463   -0.000337
     28          1           0       -6.102764   -0.785095   -0.000090
 ---------------------------------------------------------------------
                    Distance matrix (angstroms):
                    1          2          3          4          5
     1  C    0.000000
     2  C    1.418104   0.000000
     3  C    2.441706   1.388747   0.000000
     4  C    2.827824   2.426005   1.407888   0.000000
     5  C    2.425111   2.778851   2.410186   1.393389   0.000000
     6  C    1.406011   2.428693   2.805118   2.438104   1.398202
     7  O    1.363233   2.339434   3.631350   4.185274   3.717808
     8  O    2.332328   1.356910   2.432642   3.699196   4.132435
     9  C    3.642668   2.380085   2.820861   4.228013   5.020424
    10  O    2.493736   3.740180   4.169587   3.618711   2.307554
    11  C    3.021121   4.430121   5.182507   4.880098   3.655301
    12  C    4.287088   3.743255   2.460999   1.459904   2.508583
    13  C    5.245053   4.938882   3.745637   2.522793   3.049967
    14  C    6.639794   6.182513   4.882561   3.840769   4.515517
    15  O    7.549299   7.272969   6.044041   4.860618   5.246959
    16  O    7.149930   6.466638   5.092846   4.328462   5.268247
    17  H    3.425810   2.151790   1.083396   2.154555   3.389402
    18  H    3.384669   3.862263   3.409171   2.169430   1.084178
    19  H    1.927364   3.169573   4.357035   4.676300   3.937507
    20  H    4.337964   3.252737   3.885706   5.287249   5.991910
    21  H    4.024899   2.712935   2.816715   4.160157   5.084325
    22  H    4.024862   2.712944   2.816670   4.160056   5.084289
    23  H    4.066142   5.457147   6.098965   5.621495   4.295139
    24  H    3.084836   4.456966   5.337666   5.200101   4.090556
    25  H    3.086298   4.459401   5.340724   5.203120   4.092971
    26  H    4.842045   4.001458   2.614499   2.169943   3.447184
    27  H    5.247922   5.234795   4.230425   2.853347   2.855113
    28  H    8.406412   8.036796   6.754701   5.657691   6.153339
                    6          7          8          9         10
     6  C    0.000000
     7  O    2.476948   0.000000
     8  O    3.623862   2.543222   0.000000
     9  C    4.806525   3.956624   1.415626   0.000000
    10  O    1.373616   3.061414   4.823841   6.092112   0.000000
    11  C    2.459812   2.937369   5.237155   6.617413   1.412178
    12  C    3.791718   5.642303   4.893499   5.111527   4.812908
    13  C    4.446552   6.605191   6.161846   6.452871   5.178794
    14  C    5.909097   8.003019   7.311284   7.389566   6.642251
    15  O    6.634034   8.901481   8.473623   8.657127   7.141928
    16  O    6.620316   8.497729   7.446363   7.290647   7.507648
    17  H    3.888486   4.490899   2.718230   2.523239   5.251693
    18  H    2.117952   4.586615   5.214365   6.091691   2.431436
    19  H    2.560003   0.959802   3.501595   4.915836   2.676827
    20  H    5.620269   4.336798   2.007573   1.090650   6.830837
    21  H    5.048091   4.496766   2.085677   1.097517   6.362321
    22  H    5.048161   4.496679   2.085675   1.097517   6.362500
    23  H    3.303282   4.023064   6.317341   7.687981   2.002805
    24  H    2.834078   2.747385   5.107177   6.494381   2.093246
    25  H    2.835738   2.747085   5.109259   6.496933   2.093274
    26  H    4.607913   6.147362   4.939881   4.848061   5.745576
    27  H    4.209613   6.568033   6.543819   7.036552   4.669264
    28  H    7.547764   9.765748   9.185623   9.256088   8.097833
                   11         12         13         14         15
    11  C    0.000000
    12  C    6.160027   0.000000
    13  C    6.586913   1.347534   0.000000
    14  C    8.052353   2.439283   1.471290   0.000000
    15  O    8.545104   3.587095   2.337853   1.355966   0.000000
    16  O    8.900400   2.871286   2.403587   1.217086   2.251263
    17  H    6.254828   2.647734   3.994541   4.866675   6.143547
    18  H    3.841133   2.776813   2.805313   4.245151   4.714931
    19  H    2.168307   6.129005   6.954268   8.396656   9.184451
    20  H    7.180470   6.202016   7.542721   8.473025   9.745865
    21  H    6.995666   4.872216   6.201695   7.040150   8.327016
    22  H    6.996731   4.872049   6.201575   7.040002   8.326706
    23  H    1.091416   6.785533   7.025099   8.459767   8.793663
    24  H    1.099347   6.526626   7.046625   8.507148   9.061025
    25  H    1.099422   6.529897   7.049777   8.510494   9.063977
    26  H    7.042385   1.089591   2.073347   2.576536   3.902304
    27  H    6.074936   2.145902   1.084861   2.186031   2.473995
    28  H    9.503722   4.300449   3.161600   1.877916   0.969548
                   16         17         18         19         20
    16  O    0.000000
    17  H    4.811679   0.000000
    18  H    5.191589   4.307264   0.000000
    19  H    9.000158   5.295440   4.638364   0.000000
    20  H    8.341989   3.606794   7.073160   5.279554   0.000000
    21  H    6.866343   2.325144   6.115821   5.432959   1.784015
    22  H    6.865954   2.325041   6.115815   5.431777   1.784016
    23  H    9.401798   7.181124   4.220012   3.215917   8.269179
    24  H    9.300563   6.374294   4.395690   1.950067   6.971820
    25  H    9.303991   6.377573   4.397849   1.944431   6.974013
    26  H    2.506584   2.333435   3.845064   6.753277   5.922016
    27  H    3.315683   4.701473   2.240940   6.769555   8.112396
    28  H    2.278719   6.733078   5.667738  10.086927  10.336061
                   21         22         23         24         25
    21  H    0.000000
    22  H    1.791930   0.000000
    23  H    8.039466   8.040729   0.000000
    24  H    6.798478   7.034986   1.766055   0.000000
    25  H    7.036549   6.802579   1.765869   1.816391   0.000000
    26  H    4.505221   4.504970   7.741022   7.346133   7.349597
    27  H    6.855761   6.855699   6.368849   6.604214   6.607021
    28  H    8.879303   8.878870   9.762648  10.007993  10.010983
                   26         27         28
    26  H    0.000000
    27  H    3.071298   0.000000
    28  H    4.418682   3.428861   0.000000
 Stoichiometry    C11H12O5
 Framework group  C1[X(C11H12O5)]
 Deg. of freedom    78
 Full point group                 C1      NOp   1
 Largest Abelian subgroup         C1      NOp   1
 Largest concise Abelian subgroup C1      NOp   1
                         Standard orientation:                         
 ---------------------------------------------------------------------
 Center     Atomic      Atomic             Coordinates (Angstroms)
 Number     Number       Type             X           Y           Z
 ---------------------------------------------------------------------
      1          6           0       -2.278422   -0.115760   -0.001104
      2          6           0       -1.692857    1.175801   -0.000339
      3          6           0       -0.313048    1.333112    0.000208
      4          6           0        0.531003    0.206291    0.000033
      5          6           0       -0.045614   -1.062190   -0.000490
      6          6           0       -1.432604   -1.238907   -0.000835
      7          8           0       -3.641652   -0.118472   -0.001814
      8          8           0       -2.587510    2.195996   -0.000399
      9          6           0       -2.092204    3.522144    0.000245
     10          8           0       -1.798532   -2.562886   -0.000981
     11          6           0       -3.137315   -3.012218    0.001831
     12          6           0        1.974388    0.425285    0.000491
     13          6           0        2.952412   -0.501709    0.000641
     14          6           0        4.361262   -0.077641    0.001205
     15          8           0        5.200730   -1.142506    0.000353
     16          8           0        4.772879    1.067727    0.000846
     17          1           0        0.127761    2.322775    0.000655
     18          1           0        0.557734   -1.962975   -0.000451
     19          1           0       -3.982842   -1.015575   -0.005617
     20          1           0       -2.972267    4.166355    0.000086
     21          1           0       -1.493313    3.728413    0.896529
     22          1           0       -1.492559    3.728998   -0.895400
     23          1           0       -3.079920   -4.102124    0.003006
     24          1           0       -3.677204   -2.709733    0.910449
     25          1           0       -3.680166   -2.712225   -0.905938
     26          1           0        2.298087    1.465682    0.000791
     27          1           0        2.763962   -1.570077    0.000391
     28          1           0        6.101416   -0.783637    0.000144
 ---------------------------------------------------------------------
 Rotational constants (GHZ):      0.7760063      0.2572965      0.1937146
 Standard basis: 6-31+G(d,p) (6D, 7F)
 There are   364 symmetry adapted cartesian basis functions of A   symmetry.
 There are   364 symmetry adapted basis functions of A   symmetry.
   364 basis functions,   596 primitive gaussians,   364 cartesian basis functions
    59 alpha electrons       59 beta electrons
       nuclear repulsion energy      1051.6502898422 Hartrees.
 NAtoms=   28 NActive=   28 NUniq=   28 SFac= 1.00D+00 NAtFMM=   60 NAOKFM=F Big=F
 Integral buffers will be    131072 words long.
 Raffenetti 2 integral format.
 Two-electron integral symmetry is turned on.
 One-electron integrals computed using PRISM.
 NBasis=   364 RedAO= T EigKep=  1.43D-06  NBF=   364
 NBsUse=   362 1.00D-06 EigRej=  5.36D-07 NBFU=   362
 Initial guess from the checkpoint file:  "B3PW91SA.chk"
 B after Tr=     0.000000   -0.000000   -0.000000
         Rot=    1.000000   -0.000008    0.000016    0.000175 Ang=  -0.02 deg.
 ExpMin= 4.38D-02 ExpMax= 5.48D+03 ExpMxC= 8.25D+02 IAcc=2 IRadAn=         4 AccDes= 0.00D+00
 Harris functional with IExCor=  408 and IRadAn=       4 diagonalized for initial guess.
 HarFok:  IExCor=  408 AccDes= 0.00D+00 IRadAn=         4 IDoV= 1 UseB2=F ITyADJ=14
 ICtDFT=  3500011 ScaDFX=  1.000000  1.000000  1.000000  1.000000
 FoFCou: FMM=F IPFlag=           0 FMFlag=      100000 FMFlg1=           0
         NFxFlg=           0 DoJE=T BraDBF=F KetDBF=T FulRan=T
         wScrn=  0.000000 ICntrl=     500 IOpCl=  0 I1Cent=   200000004 NGrid=           0
         NMat0=    1 NMatS0=      1 NMatT0=    0 NMatD0=    1 NMtDS0=    0 NMtDT0=    0
 Petite list used in FoFCou.
 Requested convergence on RMS density matrix=1.00D-08 within 128 cycles.
 Requested convergence on MAX density matrix=1.00D-06.
 Requested convergence on             energy=1.00D-06.
 No special actions if energy rises.
 SCF Done:  E(RB3PW91) =  -802.212844647     A.U. after   12 cycles
            NFock= 12  Conv=0.73D-08     -V/T= 2.0090
 Calling FoFJK, ICntrl=      2127 FMM=F ISym2X=0 I1Cent= 0 IOpClX= 0 NMat=1 NMatS=1 NMatT=0.
 ***** Axes restored to original set *****
 -------------------------------------------------------------------
 Center     Atomic                   Forces (Hartrees/Bohr)
 Number     Number              X              Y              Z
 -------------------------------------------------------------------
      1        6           0.000006500    0.001634699    0.000013603
      2        6          -0.000180616    0.000101702   -0.000004714
      3        6           0.000830858   -0.000464198    0.000002631
      4        6          -0.002329685    0.000801082    0.000006147
      5        6           0.001551941   -0.000697624   -0.000007029
      6        6          -0.001284644   -0.000013552   -0.000031513
      7        8          -0.000115797   -0.000187373   -0.000001145
      8        8          -0.000196361   -0.000335805   -0.000001545
      9        6          -0.000426847   -0.000370578    0.000000467
     10        8           0.000660676    0.000202356    0.000052790
     11        6          -0.000276753    0.000215277   -0.000042964
     12        6           0.002264872   -0.000649977   -0.000007023
     13        6          -0.002324329    0.000873041   -0.000059998
     14        6           0.003834416   -0.000739541    0.000206575
     15        8          -0.000923461   -0.000916429   -0.000061118
     16        8          -0.001045631    0.000929236   -0.000079002
     17        1           0.000123150    0.000379056    0.000000324
     18        1          -0.000247587    0.000043716   -0.000002121
     19        1           0.000140885   -0.000548526    0.000002119
     20        1           0.000108014   -0.000096334    0.000000189
     21        1          -0.000009275   -0.000230786   -0.000018531
     22        1          -0.000009209   -0.000230717    0.000018874
     23        1          -0.000030459   -0.000108237    0.000003898
     24        1          -0.000027819    0.000100832   -0.000026497
     25        1          -0.000022995    0.000081145    0.000040247
     26        1          -0.000196626    0.000113969   -0.000002456
     27        1           0.000237543   -0.000098854   -0.000001836
     28        1          -0.000110761    0.000212417   -0.000000372
 -------------------------------------------------------------------
 Cartesian Forces:  Max     0.003834416 RMS     0.000747322

 GradGradGradGradGradGradGradGradGradGradGradGradGradGradGradGradGradGrad
 Berny optimization.
 Using GEDIIS/GDIIS optimizer.
 FormGI is forming the generalized inverse of G from B-inverse, IUseBI=4.
 Internal  Forces:  Max     0.001950394 RMS     0.000466766
 Search for a local minimum.
[...]
 926,-0.00000634,-0.00000079,-0.00003714,0.00009576,-0.00000606,-0.0000
 1527,-0.00004036,0.00000176,0.00001957,-0.00007940,0.00001361,0.000690
 07,-0.00007478,-0.00006694,0.00003053,-0.00005707,0.00001880,0.0000290
 2,-0.00003133,-0.00002423,0.00116249,-0.00025531,0.00003859,0.12468657
 ,-0.03144001,0.25034743,0.00046072,0.00051868,0.00003123,-0.00120490,-
 0.00328003,-0.00084956,0.00036559,0.00054237,-0.00029612,0.00006111,-0
 .00024545,0.00028271,0.00016932,0.00039334,0.00008990,0.00000022,-0.00
 034536,-0.00007688,-0.00037198,0.00002796,-0.00008041,-0.01155038,0.01
 431339,0.01080891,-0.13748229,0.00648315,0.12055628,0.00000758,0.00024
 737,0.00000852,-0.00004896,-0.00010283,0.00000645,-0.00017777,-0.00000
 457,-0.00004596,0.00023672,0.00006405,0.00000946,-0.00033586,0.0000648
 9,-0.00000680,0.00011970,0.00006145,0.00000468,0.00014502,-0.00010252,
 -0.00000042,-0.00012530,-0.00075266,-0.00071827,0.00001079,0.00000410,
 -0.00004719,0.00007229,-0.00005383,0.00004361,-0.01159859,0.00139960,0
 .01954068,0.01071572,-0.00231635,-0.01409606,0.15053650,0.00034545,-0.
 00173013,0.00055535,0.00454615,0.00644778,-0.00138866,-0.00080370,0.00
 074514,0.00021871,-0.00036309,-0.00077175,0.00040419,-0.00070289,0.000
 34332,-0.00005307,0.00085700,0.00066571,0.00036740,-0.00028547,0.00006
 346,-0.00012566,0.02537015,-0.01924367,-0.02688295,0.00330558,-0.05003
 617,-0.00689959,-0.00002070,-0.00022605,-0.00004795,0.00001836,0.00005
 801,-0.00004435,0.00018781,-0.00003908,-0.00007442,-0.00016978,-0.0000
 4106,0.00005025,0.00013634,-0.00004718,-0.00000917,-0.00003915,-0.0000
 2220,-0.00000151,-0.00004814,0.00005663,0.00000897,-0.00083355,-0.0008
 6994,-0.00130792,-0.00002167,0.00001578,-0.00006673,-0.00008985,-0.000
 02072,-0.00001138,-0.01088552,0.00356641,0.01742070,-0.00356328,0.0019
 6424,0.00180602,-0.01691957,0.05915579,-0.00023592,-0.00056983,-0.0002
 4369,0.00121967,0.00175835,0.00066369,0.00095105,-0.00060752,-0.000031
 17,-0.00045785,0.00016190,-0.00006489,-0.00018486,0.00001784,-0.000040
 05,0.00028713,0.00019376,-0.00002396,-0.00004060,0.00008606,0.00008024
 ,-0.00043095,-0.00650165,0.00632973,0.12145509,-0.01086629,-0.22074095
 ,-0.00011968,0.00003316,0.00001011,-0.00000556,-0.00000272,0.00000037,
 0.00008177,-0.00009214,0.00005010,-0.00006050,0.00000850,-0.00000183,0
 .00001887,-0.00009505,-0.00001135,0.00002191,0.00004394,0.00000645,-0.
 00001227,0.00007494,0.00001863,-0.00075938,-0.00004960,-0.00028333,-0.
 00003310,0.00005759,0.00001121,-0.00002803,0.00002764,-0.00002147,-0.0
 0300625,0.00064845,0.00298061,0.01654870,-0.00042520,-0.01979243,-0.13
 516811,0.01609843,0.23113876,0.00020185,-0.00039565,-0.00000543,0.0000
 7253,0.00028381,-0.00001298,0.00013003,-0.00033033,0.00002007,0.000067
 07,0.00016697,0.00034688,0.00022325,-0.00046553,-0.00029600,-0.0007131
 2,0.00265039,-0.00066992,-0.00013598,-0.00020538,-0.00013578,-0.000022
 15,-0.00023735,-0.00000810,-0.00005085,0.00009791,0.00001164,-0.011249
 25,-0.01433174,0.00909248,-0.13828621,-0.01700652,0.12068716,-0.000194
 66,-0.00012855,-0.00004904,0.00024381,0.00007782,0.00002032,-0.0003562
 0,-0.00000013,-0.00000296,0.00013737,0.00009700,0.00000692,0.00014124,
 -0.00006937,-0.00000238,0.00001624,-0.00000350,-0.00004324,-0.00011211
 ,0.00069689,-0.00065414,0.00041290,0.00039962,0.00027843,-0.00001030,-
 0.00001713,0.00000118,0.00001808,-0.00000685,-0.00000276,0.00001808,-0
 .00000609,0.00000340,0.15030771,-0.00073987,-0.00158178,-0.00063952,-0
 .00073003,0.00058842,-0.00017193,0.00059361,0.00030641,-0.00002823,0.0
 0047642,-0.00069294,-0.00029388,0.00066471,0.00072142,-0.00023374,-0.0
 0427896,0.00589200,0.00164823,0.00061930,-0.00049421,-0.00004427,0.000
 03777,-0.00016948,0.00002771,-0.00001576,0.00004693,0.00004845,-0.0262
 6803,-0.02255577,0.02476278,-0.01329568,-0.05236583,0.02133755,-0.0002
 6215,-0.00012827,-0.00003630,0.00014450,0.00006014,-0.00000222,-0.0001
 1641,0.00003843,0.00000262,0.00003657,0.00002820,0.00000212,0.00002909
 ,-0.00003395,-0.00000294,0.00002920,0.00001806,0.00004639,0.00074998,-
 0.00094002,0.00118520,0.00060577,0.00064183,0.00035955,0.00000021,-0.0
 0000829,0.00000110,0.00000781,-0.00002855,-0.00000213,0.00000489,-0.00
 000994,-0.00000683,0.02851126,0.06346384,-0.00019504,0.00034056,-0.000
 23351,0.00019122,-0.00007125,-0.00004546,-0.00011260,-0.00000758,-0.00
 005701,-0.00045776,-0.00016331,-0.00008003,0.00100395,0.00056848,0.000
 05483,0.00072930,-0.00103002,0.00054585,-0.00013997,-0.00011610,0.0000
 4489,-0.00010732,-0.00008230,0.00000885,-0.00001115,0.00001974,0.00000
 517,-0.00261953,0.00380193,0.00872853,0.12218856,0.02575314,-0.2208586
 3,0.00011582,0.00007748,0.00001951,-0.00007154,0.00005877,0.00001322,0
 .00000017,0.00003661,-0.00000456,-0.00001086,-0.00004622,0.00001314,0.
 00004368,-0.00005259,0.00000478,-0.00003170,-0.00005191,0.00000931,-0.
 00069471,0.00001888,-0.00014616,-0.00004054,-0.00007000,-0.00000387,-0
 .00000160,0.00000068,-0.00000034,0.00000617,-0.00000338,0.,0.00000562,
 0.00000439,0.00000133,-0.13418005,-0.03065624,0.22968596,0.00018275,-0
 .00035835,0.00001215,0.00008945,0.00027211,0.00004534,0.00011964,-0.00
 032925,-0.00003041,0.00005393,0.00017996,-0.00032173,0.00028316,-0.000
 43842,0.00028237,-0.00069344,0.00247764,0.00075505,-0.00016034,-0.0002
 2101,0.00010162,-0.00003133,-0.00024312,-0.00001364,-0.00005119,0.0001
 0057,-0.00000887,-0.01041342,-0.01307038,-0.01169521,-0.11777569,-0.00
 654617,-0.11242220,-0.00018462,-0.00012235,0.00002156,0.00023691,0.000
 08195,0.00000526,-0.00035441,0.00000496,-0.00002737,0.00013629,0.00009
 255,0.00001088,0.00014412,-0.00007484,0.00000905,0.00000944,-0.0000112
 9,0.00004272,-0.00023423,0.00064787,0.00070088,0.00042748,0.00040714,-
 0.00020967,-0.00001042,-0.00001708,-0.00000336,0.00001907,-0.00000547,
 -0.00000222,0.00001856,-0.00000724,0.00000386,0.01083706,0.00235560,0.
 01678250,0.12748083,-0.00079792,-0.00159564,0.00047126,-0.00073005,0.0
 0056805,0.00015357,0.00057711,0.00030125,0.00010743,0.00041650,-0.0007
 2698,0.00028179,0.00071144,0.00074263,0.00034812,-0.00406686,0.0059161
 9,-0.00161022,0.00060415,-0.00050595,0.00005519,0.00003292,-0.00017102
 ,-0.00003835,-0.00001123,0.00005010,-0.00004627,-0.02397877,-0.0201269
 0,-0.02909457,-0.00313153,-0.04976151,-0.00844932,-0.00025581,-0.00012
 583,0.00000321,0.00013634,0.00006542,0.00001839,-0.00011246,0.00003954
 ,-0.00000918,0.00003424,0.00002442,0.00000171,0.00003134,-0.00003634,0
 .00000253,0.00003061,0.00001815,-0.00004339,0.00079857,-0.00085089,-0.
 00117502,0.00062585,0.00065825,-0.00025537,0.00000050,-0.00000757,-0.0
 0000161,0.00000411,-0.00000996,0.00000638,0.00000758,-0.00002878,0.000
 00063,0.00339100,0.00212236,0.00223561,0.01653528,0.05970823,0.0001718
 4,-0.00047595,-0.00020448,-0.00023419,0.00014196,-0.00004218,0.0001715
 4,0.00000555,-0.00003996,0.00050087,0.00012977,-0.00003798,-0.00093158
 ,-0.00055454,-0.00002320,-0.00114750,0.00165658,0.00050417,0.00016730,
 0.00005583,0.00007863,0.00010614,0.00004727,0.00002039,0.00000522,-0.0
 0000731,0.00000034,-0.00083791,-0.00713625,0.00546315,-0.11365711,-0.0
 1317628,-0.24397767,-0.00015284,-0.00009810,0.00000643,0.00010208,-0.0
 0004889,0.00001713,-0.00003968,-0.00003273,-0.00001033,0.00002428,0.00
 005533,0.00001849,-0.00002941,0.00004308,0.00000575,0.00003406,0.00005
 141,0.00001648,0.00074907,-0.00001734,-0.00011374,0.00012528,0.0001550
 9,-0.00003253,0.00000071,-0.00000286,-0.00000062,-0.00000360,-0.000005
 68,0.00000073,-0.00000391,0.00000053,0.00000002,-0.01391166,-0.0003598
 0,-0.01948941,0.12674933,0.01901747,0.25627187,0.00074833,-0.00063425,
 -0.00000346,-0.00047218,-0.00008481,-0.00002302,0.00008453,0.00020213,
 0.00001219,0.00043323,-0.00000267,0.00001135,-0.00089026,-0.00026577,-
 0.00006068,-0.00091168,-0.00349234,-0.00019575,0.00005370,0.00020086,0
 .00001493,0.00014108,0.00008335,0.00001057,0.00001644,-0.00007785,-0.0
 0000227,0.01438948,-0.01764524,-0.00003804,-0.21741854,0.14628515,-0.0
 0179711,0.00004863,-0.00003845,-0.00000110,-0.00010075,-0.00005944,-0.
 00000720,0.00022316,0.00000560,0.00000994,-0.00008722,-0.00004946,-0.0
 0000582,-0.00010449,0.00005372,-0.00000252,0.00002394,0.00004134,0.000
 00379,0.00049092,0.00054992,0.00006355,-0.00008929,-0.00015020,-0.0000
 1716,0.00001023,-0.00000047,0.00000030,-0.00001130,0.00000036,-0.00000
 044,-0.00001178,0.00000041,-0.00000022,-0.01166884,0.01083404,-0.00235
 654,-0.01009747,0.00914349,0.00200342,0.22515737,0.00188418,-0.0013147
 9,0.00002100,-0.00052808,0.00017318,-0.00001516,0.00010373,0.00000131,
 0.00000443,0.00046922,-0.00003104,0.00001698,-0.00096879,-0.00007083,-
 0.00005722,-0.00464525,-0.00221223,-0.00030718,-0.00039538,0.00019666,
 -0.00000510,0.00003265,-0.00042424,-0.00001324,-0.00008850,0.00008354,
 -0.00000022,0.02110134,-0.03666390,-0.00045557,0.13246272,-0.15715406,
 0.00180450,-0.00025530,-0.00012984,-0.00001861,0.00022829,0.00005119,0
 .00001112,-0.00027580,0.00001644,-0.00001143,0.00010376,0.00007755,0.0
 0000743,0.00009442,-0.00005133,0.00000239,0.00002781,0.00001189,0.0000
 0255,0.00020394,0.00036098,0.00004085,0.00017438,-0.00020208,-0.000006
 58,0.00000238,-0.00003134,-0.00000123,0.00001729,-0.00001013,0.0000033
 3,0.00001758,-0.00000974,-0.00000262,-0.00314323,0.00506488,-0.0005385
 6,-0.00168019,0.00371599,0.00052707,-0.14494715,0.18855859,0.00009081,
 -0.00008920,0.00030051,-0.00003945,0.00000353,-0.00002515,0.00000828,0
 .00000966,-0.00001459,0.00003051,-0.00000689,0.00013901,-0.00008791,-0
 .00002498,0.00028363,-0.00023845,-0.00025559,0.00055707,-0.00000689,0.
 00002031,-0.00012050,0.00000876,-0.00001086,-0.00003122,-0.00000208,-0
 .00000038,-0.00000646,0.00141187,-0.00214734,0.00011387,-0.00231422,0.
 00240783,-0.05086556,-0.00001034,-0.00000886,0.00004867,0.00000341,-0.
 00000086,0.00001547,-0.00000007,0.00000028,-0.00000075,-0.00000040,0.0
 0000060,0.00000328,-0.00000103,0.00000093,-0.00000191,0.00000325,0.000
 00328,-0.00002516,0.00005053,0.00005599,-0.00048980,-0.00000523,-0.000
 02021,0.00017425,0.00000049,-0.00000118,0.00000304,-0.00000264,0.00000
 062,-0.00000037,0.00000268,-0.00000129,-0.00000046,0.01952944,-0.01696
 099,0.00183345,-0.02081062,0.01803199,0.00161185,0.00237606,-0.0010099
 6,0.04653160,0.00009293,-0.00018713,-0.00000545,-0.00005747,-0.0001203
 1,-0.00001535,0.00103295,0.00202452,0.00020237,-0.01037496,0.02775242,
 0.00038690,-0.00506297,-0.00176511,-0.00041126,0.00036041,0.00168624,0
 .00006661,-0.00004181,-0.00014252,-0.00000608,0.00004487,-0.00018411,-
 0.00000520,-0.00011128,0.00012137,-0.00000388,-0.00056724,-0.00007942,
 -0.00000550,-0.00002817,-0.00011715,-0.00000857,-0.09660169,0.09898617
 ,0.00142390,0.01129066,-0.02036619,-0.00059360,0.00010754,-0.00439620,
 0.00016946,0.00075701,0.00184241,0.00008365,-0.00031180,0.00194254,0.0
 0005379,-0.00058406,-0.00130588,-0.00008901,0.00014818,0.00001967,0.00
 000741,0.00004840,0.00003964,0.00000398,0.00004205,-0.00001718,0.00000
 187,-0.00000700,-0.00002246,0.00005527,-0.00000195,-0.00001685,-0.0000
 5514,0.00000845,-0.00000723,0.00000609,0.00000902,-0.00000710,-0.00000
 555,-0.00000336,0.00001100,0.00000040,0.10277516,-0.00018742,0.0000058
 8,-0.00002818,0.00000317,0.00009156,0.00000962,-0.00212075,0.00130804,
 0.00000853,-0.00106079,-0.00026785,-0.00020028,-0.00055752,0.00082792,
 -0.00010711,-0.00013949,0.00008797,-0.00000826,0.00016654,0.00001593,0
 .00001296,0.00006622,0.00009591,0.00000457,0.00003555,-0.00005318,-0.0
 0000240,0.00002280,-0.00000295,0.00001873,-0.00001139,0.00000790,-0.00
 000201,0.09784156,-0.29242184,-0.00502773,0.00932107,-0.02296428,-0.00
 073426,0.00173633,-0.00306195,0.00024340,-0.00001270,0.00074986,0.0000
 1277,0.00064877,0.00258077,0.00012093,0.00025947,0.00038295,0.00001308
 ,-0.00011309,0.00005925,-0.00000198,-0.00002814,0.00002100,-0.00000098
 ,0.00000374,0.00000461,0.00000058,-0.00001045,0.00000439,0.00000618,-0
 .00001021,0.00000682,-0.00000460,-0.00000851,0.00000101,-0.00001731,-0
 .00001123,0.00000190,0.00001623,0.00001412,-0.00000092,0.00000132,-0.1
 0285165,0.31396719,-0.00001082,-0.00001359,0.00016850,-0.00000718,-0.0
 0000597,0.00011212,0.00004271,0.00020342,-0.00175378,-0.00068597,0.001
 03768,0.00441244,-0.00036796,-0.00015435,0.00286679,-0.00000062,0.0000
 6682,0.00025272,0.00000638,-0.00000345,-0.00005096,0.00000377,-0.00000
 513,0.00001479,-0.00000679,0.00000087,0.00007082,-0.00000195,0.0000153
 7,-0.00050211,-0.00000440,-0.00000716,0.00006149,0.00138126,-0.0049757
 9,-0.04438284,0.00051795,-0.00202934,0.00736835,0.00039910,-0.00002383
 ,-0.00752505,0.00001453,0.00009295,0.00042113,0.00000545,0.00017694,0.
 00012713,-0.00003054,-0.00005534,0.00033418,0.00000261,0.00000336,-0.0
 0000736,0.00000134,0.00000234,-0.00000366,0.00000251,-0.00000015,-0.00
 001357,0.00000311,0.00001904,-0.00001842,-0.00000216,-0.00001870,-0.00
 002530,-0.00000292,0.00000379,-0.00000176,0.00000304,-0.00000416,-0.00
 000099,0.00000067,0.00000065,-0.00000633,-0.00057909,0.00623173,0.0280
 0629,0.00004436,-0.00002928,0.00001788,-0.00024676,0.00012772,-0.00000
 350,0.00028184,0.00020719,0.00002058,-0.00010661,0.00090973,0.00026505
 ,-0.00067623,-0.00105642,-0.00006244,-0.00012545,0.00024085,0.00002493
 ,-0.00001857,0.00006707,-0.00001179,0.00011641,0.00021228,0.00001171,0
 .00005422,-0.00009282,-0.00000252,0.00008220,-0.00006134,-0.00000097,-
 0.00001611,-0.00002453,-0.00000988,0.01214126,-0.02097878,-0.00044601,
 -0.07799196,0.07305140,0.00081381,-0.00032717,0.03078148,0.00112708,-0
 .00030662,-0.00171980,-0.00004378,-0.00812788,0.00189693,-0.00041004,0
 .00009040,0.00014935,0.00000391,-0.00187196,0.00052453,-0.00011203,-0.
 00003770,-0.00002533,-0.00000287,-0.00000207,0.00000878,0.00000032,-0.
 00001033,0.00000512,-0.00001137,-0.00001134,0.00000440,0.00001133,-0.0
 0001697,0.00001766,-0.00003761,-0.00002230,0.00001572,0.00004057,0.000
 03235,0.00000579,0.00000285,-0.00282808,-0.00289085,-0.00066512,0.0792
 8338,0.00009853,-0.00004683,0.00001431,-0.00011818,-0.00009628,-0.0000
 0471,-0.00008187,0.00001757,-0.00000496,0.00133973,0.00017344,0.000271
 66,0.00035731,0.00001632,0.00002080,-0.00031291,0.00056578,0.00002652,
 0.00006270,0.00008856,-0.00000484,0.00004677,0.00023899,0.00000967,0.0
 0007083,-0.00010853,-0.00000178,0.00000881,-0.00006530,-0.00000409,-0.
 00002329,0.00001469,-0.00000736,0.00842955,-0.01813122,-0.00047485,0.0
 7696565,-0.32233214,-0.00745309,-0.00320029,-0.00540878,-0.00035333,-0
 .00084755,0.00134393,0.00004273,0.00110592,0.00128206,-0.00001185,0.00
 005682,0.00017206,0.00000402,0.00003068,0.00090675,-0.00000729,-0.0000
 4074,-0.00000956,-0.00000249,-0.00000506,0.00001013,0.00000019,-0.0000
 0961,0.00000734,-0.00001938,-0.00001120,0.00000610,0.00001925,-0.00000
 459,0.00001519,-0.00000916,-0.00000735,0.00001560,0.00001259,0.0000241
 5,0.00000054,0.00000218,-0.00276770,-0.00142307,-0.00054615,-0.0813115
 1,0.34268064,0.00002285,0.00001120,-0.00038522,-0.00001302,0.00000451,
 -0.00006012,0.00000982,0.00001006,-0.00000736,0.00028103,0.00024868,-0
 .00537622,-0.00000984,-0.00004006,-0.00015282,0.00000423,0.00005011,-0
 .00048827,-0.00001194,-0.00000534,0.00030745,0.00000552,0.00001702,0.0
 0003160,0.00000364,-0.00000933,0.00003199,0.00000164,-0.00000704,0.000
 05178,-0.00000981,-0.00000769,0.00018800,0.00065717,-0.00175874,0.0043
 0851,0.00096059,-0.00762426,-0.03416157,-0.00014696,0.00113114,0.00032
 530,-0.00001109,0.00000448,-0.00078045,-0.00043975,0.00002270,0.002869
 09,0.00000050,0.00000811,0.00012917,-0.00013049,0.00001445,0.00112953,
 -0.00000346,-0.00000167,0.00000604,-0.00000018,0.00000084,-0.00000183,
 -0.00000082,0.00000225,-0.00000751,-0.00000038,-0.00000087,-0.00000511
 ,-0.00002126,0.00001417,-0.00004154,0.00002252,-0.00000864,-0.00003625
 ,0.00000352,0.00000138,-0.00002791,-0.00066060,-0.00055122,0.00986742,
 -0.00055836,0.00846200,0.02257243,-0.00040362,-0.00000553,-0.00001276,
 0.00003029,-0.00040080,-0.00002083,-0.00023403,-0.00011700,-0.00000271
 ,0.00049855,-0.00044954,0.00002491,-0.00005994,0.00015541,0.00000530,0
 .00005934,0.00036411,0.00001349,0.00045244,-0.00005525,0.00001720,0.00
 007490,0.00023621,0.00001211,0.00003551,-0.00009420,-0.00000334,0.0000
 9519,-0.00025500,-0.00000474,0.00003813,0.00010870,0.00000409,-0.00186
 536,0.00022596,-0.00010566,0.00096166,-0.00464858,-0.00034806,-0.03960
 871,0.00281984,-0.00180659,-0.45435918,0.10964197,-0.01503388,0.005100
 26,0.00732459,0.00075507,-0.00002504,-0.00001090,-0.00000078,-0.000022
 75,0.00001008,-0.00000065,-0.00004214,0.00005596,0.00000002,0.00001327
 ,0.00001313,0.00000111,-0.00001691,0.00000470,0.00000359,-0.00001681,0
 .00000489,-0.00000436,-0.00001904,-0.00000426,-0.00000454,-0.00001887,
 -0.00000504,0.00000322,0.00001377,-0.00001283,-0.00000002,-0.00013580,
 -0.00010516,-0.00001890,0.00061772,0.00014438,0.00004495,0.48883717,-0
 .00015342,-0.00001332,-0.00000159,0.00000041,-0.00014338,-0.00001212,-
 0.00009971,0.00000119,0.00000663,-0.00003099,-0.00036310,0.00000150,0.
 00004364,0.00001151,0.00000374,-0.00002272,0.00017445,0.00000313,0.000
 19062,-0.00002870,0.00000655,0.00002635,0.00005720,0.00000334,-0.00000
 416,-0.00001432,-0.00000225,0.00005144,-0.00015789,-0.00000307,0.00003
 078,0.00007225,0.00000252,-0.00156560,0.00059523,-0.00007436,-0.001680
 76,-0.00500239,-0.00044597,-0.04745896,0.01582163,-0.00163629,0.158162
 17,-0.09027176,0.00412702,0.00763910,-0.00095252,0.00051914,-0.0000151
 6,-0.00001744,-0.00000061,-0.00002166,0.00001484,-0.00000042,-0.000018
 17,0.00002847,0.00000007,0.00000628,0.00000440,0.00000046,-0.00000605,
 0.00000079,0.00000664,-0.00000581,0.00000123,-0.00000637,-0.00001222,-
 0.00000010,-0.00000035,-0.00001187,-0.00000070,-0.00000005,0.00000945,
 -0.00000629,0.00000007,-0.00007178,-0.00002483,-0.00001183,-0.00003536
 ,0.00006601,0.00001174,-0.11494586,0.08014756,-0.00002420,0.00000263,-
 0.00004107,-0.00000212,-0.00002734,0.00010756,-0.00000541,0.00000233,-
 0.00019764,0.00004634,-0.00000997,-0.00060294,-0.00000086,0.00000640,0
 .00000798,0.00000035,0.00001951,0.00004115,0.00002681,-0.00000231,-0.0
 0000702,0.00000390,0.00001202,0.00000585,-0.00000017,-0.00000491,0.000
 02402,0.00000671,-0.00001630,-0.00001203,0.00000118,0.00000630,0.00003
 401,-0.00017268,0.00000468,0.00076056,-0.00023740,-0.00057757,0.004923
 11,-0.00369217,0.00056071,0.00403249,-0.01321440,0.00200801,-0.0165780
 7,0.00076715,0.00050484,-0.00585125,-0.00000106,-0.00000060,-0.0000161
 7,-0.00000160,0.00000108,-0.00000129,-0.00000258,0.00000220,0.00000993
 ,0.00000058,0.00000044,0.00000117,-0.00000239,0.00000156,-0.00000440,0
 .00000150,-0.00000072,-0.00000527,0.00000072,-0.00000066,-0.00000658,-
 0.00000283,0.00000079,-0.00000610,0.00000102,-0.00000102,0.00000047,-0
 .00001743,-0.00001430,0.00020793,0.00003826,0.00001941,-0.00028613,0.0
 1648277,-0.00249724,0.01345972\\0.00000327,0.00000505,0.00000105,-0.00
 000325,-0.00000021,0.00000196,-0.00000082,-0.00000080,0.00000099,-0.00
 000495,0.00000027,0.00000035,0.00000511,-0.00000188,-0.00000160,-0.000
 00088,0.00000386,-0.00000283,-0.00000227,0.00000216,-0.00000179,-0.000
 00221,0.00000328,-0.00000009,-0.00000339,0.00000067,-0.00000036,-0.000
 00268,0.00000103,0.00000102,0.00000484,0.00000273,-0.00000165,0.000000
 77,-0.00000187,-0.00000003,0.00000181,-0.00000172,0.00000108,-0.000002
 99,-0.00000641,-0.00000260,0.00000470,-0.00000190,0.00000077,0.0000009
 7,-0.00000423,0.00000071,-0.00000199,-0.00000012,-0.00000115,0.0000005
 6,-0.00000065,0.00000174,0.00000227,0.00000275,0.00000118,-0.00000379,
 0.00000214,0.00000009,-0.00000350,0.00000111,-0.00000015,-0.00000361,0
 .00000051,-0.00000021,0.00000293,0.00000063,0.00000034,0.00000276,0.00
 000122,0.00000112,0.00000456,0.00000269,0.00000104,-0.00000094,-0.0000
 0217,-0.00000046,0.00000091,-0.00000287,-0.00000041,0.00000178,-0.0000
 0528,-0.00000010\\\@


 EDUCATION DOESN'T COST 
           ... IT PAYS!

 -- POSTMARK, UNIV. OF MISSISSIPPI, DEC 78
 Job cpu time:       0 days  1 hours 45 minutes 14.4 seconds.
 File lengths (MBytes):  RWF=    374 Int=      0 D2E=      0 Chk=     11 Scr=      1
 Normal termination of Gaussian 09 at Sat Dec 14 16:00:09 2024.
