 Entering Gaussian System, Link 0=g09
 Input=camb3lypSAgd3.gjf
 Output=camb3lypSAgd3.log
 Initial command:
 /home/c612/g09E/g09/l1.exe "/mnt/ja_sm883/scratch/Gau-227578.inp" -scrdir="/mnt/ja_sm883/scratch/"
 Default is to use a total of  18 processors:
                               18 via shared-memory
                                1 via Linda
 Entering Link 1 = /home/c612/g09E/g09/l1.exe PID=    227580.
  
 Copyright (c) 1988,1990,1992,1993,1995,1998,2003,2009,2015,
            Gaussian, Inc.  All Rights Reserved.
  
 This is part of the Gaussian(R) 09 program.  It is based on
 the Gaussian(R) 03 system (copyright 2003, Gaussian, Inc.),
 the Gaussian(R) 98 system (copyright 1998, Gaussian, Inc.),
 the Gaussian(R) 94 system (copyright 1995, Gaussian, Inc.),
 the Gaussian 92(TM) system (copyright 1992, Gaussian, Inc.),
 the Gaussian 90(TM) system (copyright 1990, Gaussian, Inc.),
 the Gaussian 88(TM) system (copyright 1988, Gaussian, Inc.),
 the Gaussian 86(TM) system (copyright 1986, Carnegie Mellon
 University), and the Gaussian 82(TM) system (copyright 1983,
 Carnegie Mellon University). Gaussian is a federally registered
 trademark of Gaussian, Inc.
  
 This software contains proprietary and confidential information,
 including trade secrets, belonging to Gaussian, Inc.
  
 This software is provided under written license and may be
 used, copied, transmitted, or stored only in accord with that
 written license.
  
 The following legend is applicable only to US Government
 contracts under FAR:
  
                    RESTRICTED RIGHTS LEGEND
  
 Use, reproduction and disclosure by the US Government is
 subject to restrictions as set forth in subparagraphs (a)
 and (c) of the Commercial Computer Software - Restricted
 Rights clause in FAR 52.227-19.
  
 Gaussian, Inc.
 340 Quinnipiac St., Bldg. 40, Wallingford CT 06492
  
  
 ---------------------------------------------------------------
 Warning -- This program may not be used in any manner that
 competes with the business of Gaussian, Inc. or will provide
 assistance to any competitor of Gaussian, Inc.  The licensee
 of this program is prohibited from giving any competitor of
 Gaussian, Inc. access to this program.  By using this program,
 the user acknowledges that Gaussian, Inc. is engaged in the
 business of creating and licensing software in the field of
 computational chemistry and represents and warrants to the
 licensee that it is not a competitor of Gaussian, Inc. and that
 it will not use this program in any manner prohibited above.
 ---------------------------------------------------------------
  

 Cite this work as:
 Gaussian 09, Revision E.01,
 M. J. Frisch, G. W. Trucks, H. B. Schlegel, G. E. Scuseria, 
 M. A. Robb, J. R. Cheeseman, G. Scalmani, V. Barone, B. Mennucci, 
 G. A. Petersson, H. Nakatsuji, M. Caricato, X. Li, H. P. Hratchian, 
 A. F. Izmaylov, J. Bloino, G. Zheng, J. L. Sonnenberg, M. Hada, 
 M. Ehara, K. Toyota, R. Fukuda, J. Hasegawa, M. Ishida, T. Nakajima, 
 Y. Honda, O. Kitao, H. Nakai, T. Vreven, J. A. Montgomery, Jr., 
 J. E. Peralta, F. Ogliaro, M. Bearpark, J. J. Heyd, E. Brothers, 
 K. N. Kudin, V. N. Staroverov, T. Keith, R. Kobayashi, J. Normand, 
 K. Raghavachari, A. Rendell, J. C. Burant, S. S. Iyengar, J. Tomasi, 
 M. Cossi, N. Rega, J. M. Millam, M. Klene, J. E. Knox, J. B. Cross, 
 V. Bakken, C. Adamo, J. Jaramillo, R. Gomperts, R. E. Stratmann, 
 O. Yazyev, A. J. Austin, R. Cammi, C. Pomelli, J. W. Ochterski, 
 R. L. Martin, K. Morokuma, V. G. Zakrzewski, G. A. Voth, 
 P. Salvador, J. J. Dannenberg, S. Dapprich, A. D. Daniels, 
 O. Farkas, J. B. Foresman, J. V. Ortiz, J. Cioslowski, 
 and D. J. Fox, Gaussian, Inc., Wallingford CT, 2013.
 
 ******************************************
 Gaussian 09:  ES64L-G09RevE.01 30-Nov-2015
                19-Jun-2024 
 ******************************************
 %chk=camb3lypSAgd3.chk
 --------------------------------
 # opt freq cam-b3lyp/6-31+g(d,p)
 --------------------------------
 1/14=-1,18=20,19=15,26=3,38=1/1,3;
 2/9=110,12=2,17=6,18=5,40=1/2;
 3/5=1,6=6,7=111,11=2,16=1,25=1,30=1,71=1,74=-40/1,2,3;
 4//1;
 5/5=2,38=5/2;
 6/7=2,8=2,9=2,10=2,28=1/1;
 7//1,2,3,16;
 1/14=-1,18=20,19=15,26=3/3(2);
 2/9=110/2;
 99//99;
 2/9=110/2;
 3/5=1,6=6,7=111,11=2,16=1,25=1,30=1,71=1,74=-40/1,2,3;
 4/5=5,16=3,69=1/1;
 5/5=2,38=5/2;
 7//1,2,3,16;
 1/14=-1,18=20,19=15,26=3/3(-5);
 2/9=110/2;
 6/7=2,8=2,9=2,10=2,19=2,28=1/1;
 99/9=1/99;
 ----------
 [No Title]
 ----------
 Symbolic Z-matrix:
 Charge =  0 Multiplicity = 1
 C                     2.28114  -0.11493   0.00017 
 C                     1.69778   1.17784   0.00023 
 C                     0.31627   1.33679   0.00024 
 C                    -0.53273   0.21055   0.00017 
 C                     0.04426  -1.06184   0.00008 
 C                     1.43183  -1.23881  -0.00001 
 O                     3.65088  -0.12487  -0.00003 
 O                     2.59517   2.20223   0.0003 
 C                     2.09839   3.53512   0.00032 
 O                     1.79992  -2.56859  -0.00032 
 C                     3.14206  -3.02901  -0.00027 
 C                    -1.97593   0.43232   0.00017 
 C                    -2.95775  -0.49364  -0.00031 
 C                    -4.36706  -0.0767   -0.00022 
 O                    -5.2074   -1.15151  -0.00091 
 O                    -4.79191   1.06697   0.00032 
 H                    -0.12107   2.32736   0.00033 
 H                    -0.56228  -1.9599    0.00001 
 H                     3.99357  -1.02294   0.00204 
 H                     2.98015   4.17671   0.00035 
 H                     1.49903   3.73875  -0.89583 
 H                     1.49899   3.73871   0.89645 
 H                     3.07544  -4.1183   -0.00059 
 H                     3.68418  -2.72768  -0.90753 
 H                     3.68384  -2.72833   0.90745 
 H                    -2.29615   1.47331   0.0006 
 H                    -2.76649  -1.56116  -0.00079 
 H                    -6.11184  -0.79659  -0.00083 
 

 GradGradGradGradGradGradGradGradGradGradGradGradGradGradGradGradGradGrad
 Berny optimization.
 Initialization pass.
                           ----------------------------
                           !    Initial Parameters    !
                           ! (Angstroms and Degrees)  !
 --------------------------                            --------------------------
 ! Name  Definition              Value          Derivative Info.                !
 --------------------------------------------------------------------------------
 ! R1    R(1,2)                  1.4183         estimate D2E/DX2                !
 ! R2    R(1,6)                  1.4087         estimate D2E/DX2                !
 ! R3    R(1,7)                  1.3698         estimate D2E/DX2                !
 ! R4    R(2,3)                  1.3906         estimate D2E/DX2                !
 ! R5    R(2,8)                  1.3619         estimate D2E/DX2                !
 ! R6    R(3,4)                  1.4104         estimate D2E/DX2                !
 ! R7    R(3,17)                 1.0828         estimate D2E/DX2                !
 ! R8    R(4,5)                  1.3971         estimate D2E/DX2                !
 ! R9    R(4,12)                 1.4601         estimate D2E/DX2                !
 ! R10   R(5,6)                  1.3988         estimate D2E/DX2                !
 ! R11   R(5,18)                 1.0837         estimate D2E/DX2                !
 ! R12   R(6,10)                 1.3798         estimate D2E/DX2                !
 ! R13   R(7,19)                 0.9612         estimate D2E/DX2                !
 ! R14   R(8,9)                  1.4225         estimate D2E/DX2                !
 ! R15   R(9,20)                 1.0905         estimate D2E/DX2                !
 ! R16   R(9,21)                 1.0972         estimate D2E/DX2                !
 ! R17   R(9,22)                 1.0972         estimate D2E/DX2                !
 ! R18   R(10,11)                1.4189         estimate D2E/DX2                !
 ! R19   R(11,23)                1.0913         estimate D2E/DX2                !
 ! R20   R(11,24)                1.099          estimate D2E/DX2                !
 ! R21   R(11,25)                1.099          estimate D2E/DX2                !
 ! R22   R(12,13)                1.3496         estimate D2E/DX2                !
 ! R23   R(12,26)                1.0891         estimate D2E/DX2                !
 ! R24   R(13,14)                1.4697         estimate D2E/DX2                !
 ! R25   R(13,27)                1.0845         estimate D2E/DX2                !
 ! R26   R(14,15)                1.3643         estimate D2E/DX2                !
 ! R27   R(14,16)                1.22           estimate D2E/DX2                !
 ! R28   R(15,28)                0.9716         estimate D2E/DX2                !
 ! A1    A(2,1,6)              118.6345         estimate D2E/DX2                !
 ! A2    A(2,1,7)              114.7034         estimate D2E/DX2                !
 ! A3    A(6,1,7)              126.6622         estimate D2E/DX2                !
 ! A4    A(1,2,3)              120.8506         estimate D2E/DX2                !
 ! A5    A(1,2,8)              114.4935         estimate D2E/DX2                !
 ! A6    A(3,2,8)              124.6559         estimate D2E/DX2                !
 ! A7    A(2,3,4)              120.4472         estimate D2E/DX2                !
 ! A8    A(2,3,17)             120.3847         estimate D2E/DX2                !
 ! A9    A(4,3,17)             119.1681         estimate D2E/DX2                !
 ! A10   A(3,4,5)              118.5966         estimate D2E/DX2                !
 ! A11   A(3,4,12)             118.2742         estimate D2E/DX2                !
 ! A12   A(5,4,12)             123.1292         estimate D2E/DX2                !
 ! A13   A(4,5,6)              121.6617         estimate D2E/DX2                !
 ! A14   A(4,5,18)             121.5721         estimate D2E/DX2                !
 ! A15   A(6,5,18)             116.7662         estimate D2E/DX2                !
 ! A16   A(1,6,5)              119.8096         estimate D2E/DX2                !
 ! A17   A(1,6,10)             127.4495         estimate D2E/DX2                !
 ! A18   A(5,6,10)             112.7409         estimate D2E/DX2                !
 ! A19   A(1,7,19)             111.3022         estimate D2E/DX2                !
 ! A20   A(2,8,9)              118.3402         estimate D2E/DX2                !
 ! A21   A(8,9,20)             105.5995         estimate D2E/DX2                !
 ! A22   A(8,9,21)             111.3877         estimate D2E/DX2                !
 ! A23   A(8,9,22)             111.3879         estimate D2E/DX2                !
 ! A24   A(20,9,21)            109.4238         estimate D2E/DX2                !
 ! A25   A(20,9,22)            109.4237         estimate D2E/DX2                !
 ! A26   A(21,9,22)            109.5266         estimate D2E/DX2                !
 ! A27   A(6,10,11)            124.4069         estimate D2E/DX2                !
 ! A28   A(10,11,23)           105.4352         estimate D2E/DX2                !
 ! A29   A(10,11,24)           112.1845         estimate D2E/DX2                !
 ! A30   A(10,11,25)           112.1815         estimate D2E/DX2                !
 ! A31   A(23,11,24)           107.6704         estimate D2E/DX2                !
 ! A32   A(23,11,25)           107.6628         estimate D2E/DX2                !
 ! A33   A(24,11,25)           111.3233         estimate D2E/DX2                !
 ! A34   A(4,12,13)            127.9411         estimate D2E/DX2                !
 ! A35   A(4,12,26)            115.8345         estimate D2E/DX2                !
 ! A36   A(13,12,26)           116.2244         estimate D2E/DX2                !
 ! A37   A(12,13,14)           120.1965         estimate D2E/DX2                !
 ! A38   A(12,13,27)           123.1651         estimate D2E/DX2                !
 ! A39   A(14,13,27)           116.6384         estimate D2E/DX2                !
 ! A40   A(13,14,15)           111.5392         estimate D2E/DX2                !
 ! A41   A(13,14,16)           126.8601         estimate D2E/DX2                !
 ! A42   A(15,14,16)           121.6007         estimate D2E/DX2                !
 ! A43   A(14,15,28)           106.5938         estimate D2E/DX2                !
 ! D1    D(6,1,2,3)              0.0058         estimate D2E/DX2                !
 ! D2    D(6,1,2,8)           -179.9949         estimate D2E/DX2                !
 ! D3    D(7,1,2,3)            179.991          estimate D2E/DX2                !
 ! D4    D(7,1,2,8)             -0.0097         estimate D2E/DX2                !
 ! D5    D(2,1,6,5)             -0.0096         estimate D2E/DX2                !
 ! D6    D(2,1,6,10)           179.9883         estimate D2E/DX2                !
 ! D7    D(7,1,6,5)           -179.9929         estimate D2E/DX2                !
 ! D8    D(7,1,6,10)             0.0051         estimate D2E/DX2                !
 ! D9    D(2,1,7,19)           179.8655         estimate D2E/DX2                !
 ! D10   D(6,1,7,19)            -0.1507         estimate D2E/DX2                !
 ! D11   D(1,2,3,4)             -0.0008         estimate D2E/DX2                !
 ! D12   D(1,2,3,17)           179.9977         estimate D2E/DX2                !
 ! D13   D(8,2,3,4)            179.9999         estimate D2E/DX2                !
 ! D14   D(8,2,3,17)            -0.0015         estimate D2E/DX2                !
 ! D15   D(1,2,8,9)            179.9979         estimate D2E/DX2                !
 ! D16   D(3,2,8,9)             -0.0028         estimate D2E/DX2                !
 ! D17   D(2,3,4,5)             -0.0003         estimate D2E/DX2                !
 ! D18   D(2,3,4,12)          -179.9997         estimate D2E/DX2                !
 ! D19   D(17,3,4,5)          -179.9988         estimate D2E/DX2                !
 ! D20   D(17,3,4,12)            0.0017         estimate D2E/DX2                !
 ! D21   D(3,4,5,6)             -0.0038         estimate D2E/DX2                !
 ! D22   D(3,4,5,18)          -179.9992         estimate D2E/DX2                !
 ! D23   D(12,4,5,6)           179.9957         estimate D2E/DX2                !
 ! D24   D(12,4,5,18)            0.0003         estimate D2E/DX2                !
 ! D25   D(3,4,12,13)          179.9774         estimate D2E/DX2                !
 ! D26   D(3,4,12,26)           -0.0211         estimate D2E/DX2                !
 ! D27   D(5,4,12,13)           -0.022          estimate D2E/DX2                !
 ! D28   D(5,4,12,26)          179.9795         estimate D2E/DX2                !
 ! D29   D(4,5,6,1)              0.0088         estimate D2E/DX2                !
 ! D30   D(4,5,6,10)          -179.9894         estimate D2E/DX2                !
 ! D31   D(18,5,6,1)          -179.9956         estimate D2E/DX2                !
 ! D32   D(18,5,6,10)            0.0062         estimate D2E/DX2                !
 ! D33   D(1,6,10,11)            0.012          estimate D2E/DX2                !
 ! D34   D(5,6,10,11)         -179.9899         estimate D2E/DX2                !
 ! D35   D(2,8,9,20)          -179.9989         estimate D2E/DX2                !
 ! D36   D(2,8,9,21)           -61.3034         estimate D2E/DX2                !
 ! D37   D(2,8,9,22)            61.3057         estimate D2E/DX2                !
 ! D38   D(6,10,11,23)        -179.9988         estimate D2E/DX2                !
 ! D39   D(6,10,11,24)         -63.0841         estimate D2E/DX2                !
 ! D40   D(6,10,11,25)          63.0972         estimate D2E/DX2                !
 ! D41   D(4,12,13,14)        -179.9998         estimate D2E/DX2                !
 ! D42   D(4,12,13,27)          -0.001          estimate D2E/DX2                !
 ! D43   D(26,12,13,14)         -0.0013         estimate D2E/DX2                !
 ! D44   D(26,12,13,27)        179.9975         estimate D2E/DX2                !
 ! D45   D(12,13,14,15)        179.9931         estimate D2E/DX2                !
 ! D46   D(12,13,14,16)         -0.0032         estimate D2E/DX2                !
 ! D47   D(27,13,14,15)         -0.0058         estimate D2E/DX2                !
 ! D48   D(27,13,14,16)        179.9979         estimate D2E/DX2                !
 ! D49   D(13,14,15,28)       -179.9983         estimate D2E/DX2                !
 ! D50   D(16,14,15,28)         -0.0017         estimate D2E/DX2                !
 --------------------------------------------------------------------------------
 Trust Radius=3.00D-01 FncErr=1.00D-07 GrdErr=1.00D-06
 Number of steps in this run=    131 maximum allowed number of steps=    168.
 GradGradGradGradGradGradGradGradGradGradGradGradGradGradGradGradGradGrad

                          Input orientation:                          
 ---------------------------------------------------------------------
 Center     Atomic      Atomic             Coordinates (Angstroms)
 Number     Number       Type             X           Y           Z
 ---------------------------------------------------------------------
      1          6           0        2.281140   -0.114926    0.000168
      2          6           0        1.697776    1.177841    0.000232
      3          6           0        0.316268    1.336787    0.000240
      4          6           0       -0.532731    0.210550    0.000167
      5          6           0        0.044264   -1.061835    0.000081
      6          6           0        1.431825   -1.238812   -0.000012
      7          8           0        3.650879   -0.124871   -0.000028
      8          8           0        2.595166    2.202232    0.000297
      9          6           0        2.098390    3.535123    0.000319
     10          8           0        1.799915   -2.568591   -0.000322
     11          6           0        3.142056   -3.029013   -0.000269
     12          6           0       -1.975931    0.432322    0.000173
     13          6           0       -2.957754   -0.493637   -0.000308
     14          6           0       -4.367059   -0.076696   -0.000216
     15          8           0       -5.207399   -1.151508   -0.000906
     16          8           0       -4.791914    1.066967    0.000323
     17          1           0       -0.121069    2.327355    0.000326
     18          1           0       -0.562283   -1.959901    0.000009
     19          1           0        3.993572   -1.022939    0.002039
     20          1           0        2.980149    4.176705    0.000351
     21          1           0        1.499028    3.738751   -0.895829
     22          1           0        1.498994    3.738712    0.896454
     23          1           0        3.075444   -4.118302   -0.000594
     24          1           0        3.684177   -2.727677   -0.907525
     25          1           0        3.683839   -2.728328    0.907445
     26          1           0       -2.296149    1.473312    0.000595
     27          1           0       -2.766491   -1.561158   -0.000792
     28          1           0       -6.111837   -0.796585   -0.000826
 ---------------------------------------------------------------------
                    Distance matrix (angstroms):
                    1          2          3          4          5
     1  C    0.000000
     2  C    1.418295   0.000000
     3  C    2.442988   1.390622   0.000000
     4  C    2.832632   2.431216   1.410393   0.000000
     5  C    2.429043   2.783927   2.413995   1.397099   0.000000
     6  C    1.408707   2.431243   2.806809   2.441338   1.398802
     7  O    1.369775   2.347695   3.640889   4.197035   3.726335
     8  O    2.338340   1.361868   2.437698   3.708172   4.142612
     9  C    3.654621   2.391081   2.829954   4.239762   5.035023
    10  O    2.500410   3.747824   4.177701   3.628342   2.313574
    11  C    3.038598   4.447872   5.200508   4.898860   3.669619
    12  C    4.292101   3.748589   2.464190   1.460140   2.512706
    13  C    5.252564   4.946494   3.750956   2.525196   3.055317
    14  C    6.648309   6.193229   4.891982   3.845072   4.519986
    15  O    7.559942   7.287476   6.058260   4.869058   5.252429
    16  O    7.171120   6.490637   5.115303   4.344432   5.283977
    17  H    3.425689   2.151646   1.082815   2.156462   3.393220
    18  H    3.389541   3.866949   3.411745   2.170652   1.083707
    19  H    1.938276   3.180270   4.369311   4.691366   3.949500
    20  H    4.348185   3.261543   3.893764   5.298180   6.005141
    21  H    4.033031   2.720420   2.823348   4.168819   5.095549
    22  H    4.033064   2.720439   2.823346   4.168832   5.095584
    23  H    4.081414   5.472394   6.113186   5.635414   4.304654
    24  H    3.101433   4.474694   5.355998   5.219137   4.104600
    25  H    3.101707   4.475001   5.356185   5.219159   4.104511
    26  H    4.845005   4.004840   2.615982   2.168919   3.450290
    27  H    5.250730   5.237537   4.231015   2.851076   2.854762
    28  H    8.420613   8.055335   6.772873   5.669281   6.161813
                    6          7          8          9         10
     6  C    0.000000
     7  O    2.482955   0.000000
     8  O    3.632375   2.555374   0.000000
     9  C    4.820245   3.975648   1.422457   0.000000
    10  O    1.379784   3.065589   4.836649   6.111007   0.000000
    11  C    2.475825   2.948379   5.259754   6.646587   1.418919
    12  C    3.795456   5.654331   4.901786   5.121276   4.823121
    13  C    4.452380   6.618914   6.172733   6.464944   5.190457
    14  C    5.914184   8.018083   7.325714   7.405894   6.651399
    15  O    6.639798   8.917571   8.492797   8.679808   7.149166
    16  O    6.637134   8.526502   7.473806   7.319022   7.527914
    17  H    3.889605   4.499000   2.719115   2.526797   5.259322
    18  H    2.120480   4.595440   5.224255   6.105282   2.439361
    19  H    2.570827   0.961233   3.515291   4.936360   2.683501
    20  H    5.632507   4.353554   2.011655   1.090471   6.847771
    21  H    5.057978   4.512261   2.089366   1.097169   6.377698
    22  H    5.058054   4.512379   2.089369   1.097170   6.377839
    23  H    3.315561   4.034677   6.338755   7.715539   2.007132
    24  H    2.848401   2.756675   5.129726   6.523923   2.097324
    25  H    2.848456   2.757278   5.130161   6.524365   2.097314
    26  H    4.610142   6.158030   4.945330   4.854177   5.754539
    27  H    4.210673   6.576136   6.550608   7.045506   4.676215
    28  H    7.556613   9.785797   9.208952   9.282862   8.107763
                   11         12         13         14         15
    11  C    0.000000
    12  C    6.178562   0.000000
    13  C    6.605741   1.349584   0.000000
    14  C    8.068642   2.444707   1.469687   0.000000
    15  O    8.557945   3.598736   2.343864   1.364329   0.000000
    16  O    8.928882   2.886613   2.408242   1.220028   2.257047
    17  H    6.272054   2.651728   4.000597   4.879333   6.162243
    18  H    3.855532   2.778692   2.808596   4.245325   4.714934
    19  H    2.179316   6.144327   6.971449   8.414008   9.201870
    20  H    7.207537   6.211532   7.554521   8.489575   9.768613
    21  H    7.021695   4.879614   6.211117   7.054838   8.348154
    22  H    7.021814   4.879615   6.211245   7.054923   8.348366
    23  H    1.091324   6.798865   7.038301   8.469087   8.798145
    24  H    1.099005   6.545711   7.066061   8.524864   9.075593
    25  H    1.099038   6.545674   7.066018   8.524785   9.075548
    26  H    7.060099   1.089128   2.075237   2.586734   3.919829
    27  H    6.088146   2.144516   1.084520   2.182990   2.475044
    28  H    9.519363   4.314618   3.168599   1.887456   0.971586
                   16         17         18         19         20
    16  O    0.000000
    17  H    4.837910   0.000000
    18  H    5.201126   4.309900   0.000000
    19  H    9.030641   5.306104   4.651206   0.000000
    20  H    8.371107   3.610768   7.085673   5.297483   0.000000
    21  H    6.893292   2.328056   6.125860   5.450010   1.785682
    22  H    6.893243   2.327999   6.125901   5.449424   1.785682
    23  H    9.422438   7.194734   4.229864   3.228659   8.295554
    24  H    9.331004   6.391982   4.409708   1.956825   6.999313
    25  H    9.330891   6.392192   4.409475   1.955517   6.999820
    26  H    2.528628   2.336742   3.846199   6.766968   5.928546
    27  H    3.318039   4.703062   2.239984   6.781456   8.120772
    28  H    2.283643   6.756353   5.670172  10.107944  10.363292
                   21         22         23         24         25
    21  H    0.000000
    22  H    1.792283   0.000000
    23  H    8.063487   8.063657   0.000000
    24  H    6.825665   7.059997   1.768309   0.000000
    25  H    7.060333   6.826146   1.768250   1.814970   0.000000
    26  H    4.509896   4.509735   7.753719   7.364597   7.364537
    27  H    6.861835   6.862072   6.377083   6.617707   6.617699
    28  H    8.904806   8.904986   9.769337  10.025623  10.025560
                   26         27         28
    26  H    0.000000
    27  H    3.070705   0.000000
    28  H    4.439810   3.431605   0.000000
 Stoichiometry    C11H12O5
 Framework group  C1[X(C11H12O5)]
 Deg. of freedom    78
 Full point group                 C1      NOp   1
 Largest Abelian subgroup         C1      NOp   1
 Largest concise Abelian subgroup C1      NOp   1
                         Standard orientation:                         
 ---------------------------------------------------------------------
 Center     Atomic      Atomic             Coordinates (Angstroms)
 Number     Number       Type             X           Y           Z
 ---------------------------------------------------------------------
      1          6           0        2.281140   -0.114926    0.000168
      2          6           0        1.697776    1.177841    0.000232
      3          6           0        0.316268    1.336787    0.000240
      4          6           0       -0.532731    0.210550    0.000167
      5          6           0        0.044264   -1.061835    0.000081
      6          6           0        1.431825   -1.238812   -0.000012
      7          8           0        3.650879   -0.124871   -0.000028
      8          8           0        2.595166    2.202232    0.000297
      9          6           0        2.098390    3.535123    0.000319
     10          8           0        1.799915   -2.568591   -0.000322
     11          6           0        3.142056   -3.029013   -0.000269
     12          6           0       -1.975931    0.432322    0.000173
     13          6           0       -2.957754   -0.493637   -0.000308
     14          6           0       -4.367059   -0.076696   -0.000216
     15          8           0       -5.207399   -1.151508   -0.000906
     16          8           0       -4.791914    1.066967    0.000323
     17          1           0       -0.121069    2.327355    0.000326
     18          1           0       -0.562283   -1.959901    0.000009
     19          1           0        3.993572   -1.022939    0.002039
     20          1           0        2.980149    4.176705    0.000351
     21          1           0        1.499028    3.738751   -0.895829
     22          1           0        1.498994    3.738712    0.896454
     23          1           0        3.075444   -4.118302   -0.000594
     24          1           0        3.684177   -2.727677   -0.907525
     25          1           0        3.683839   -2.728328    0.907445
     26          1           0       -2.296149    1.473312    0.000595
     27          1           0       -2.766491   -1.561158   -0.000792
     28          1           0       -6.111837   -0.796585   -0.000826
 ---------------------------------------------------------------------
 Rotational constants (GHZ):      0.7709096      0.2562188      0.1927856
 Standard basis: 6-31+G(d,p) (6D, 7F)
 There are   364 symmetry adapted cartesian basis functions of A   symmetry.
 There are   364 symmetry adapted basis functions of A   symmetry.
   364 basis functions,   596 primitive gaussians,   364 cartesian basis functions
    59 alpha electrons       59 beta electrons
       nuclear repulsion energy      1049.0853411847 Hartrees.
 NAtoms=   28 NActive=   28 NUniq=   28 SFac= 1.00D+00 NAtFMM=   60 NAOKFM=F Big=F
 Integral buffers will be    131072 words long.
 Raffenetti 2 integral format.
 Two-electron integral symmetry is turned on.
 One-electron integrals computed using PRISM.
 NBasis=   364 RedAO= T EigKep=  1.46D-06  NBF=   364
 NBsUse=   362 1.00D-06 EigRej=  5.44D-07 NBFU=   362
 ExpMin= 4.38D-02 ExpMax= 5.48D+03 ExpMxC= 8.25D+02 IAcc=2 IRadAn=         4 AccDes= 0.00D+00
 Harris functional with IExCor=20419 and IRadAn=       4 diagonalized for initial guess.
 HarFok:  IExCor=20419 AccDes= 0.00D+00 IRadAn=         4 IDoV= 1 UseB2=F ITyADJ=14
 ICtDFT=  3500011 ScaDFX=  1.000000  1.000000  1.000000  1.000000
 FoFCou: FMM=F IPFlag=           0 FMFlag=      100000 FMFlg1=           0
         NFxFlg=           0 DoJE=T BraDBF=F KetDBF=T FulRan=T
         wScrn=  0.000000 ICntrl=     500 IOpCl=  0 I1Cent=   200000004 NGrid=           0
         NMat0=    1 NMatS0=      1 NMatT0=    0 NMatD0=    1 NMtDS0=    0 NMtDT0=    0
 Petite list used in FoFCou.
 Requested convergence on RMS density matrix=1.00D-08 within 128 cycles.
 Requested convergence on MAX density matrix=1.00D-06.
 Requested convergence on             energy=1.00D-06.
 No special actions if energy rises.
 SCF Done:  E(RCAM-B3LYP) =  -802.162622620     A.U. after   17 cycles
            NFock= 17  Conv=0.32D-08     -V/T= 2.0091

 **********************************************************************

            Population analysis using the SCF density.

 **********************************************************************

 Orbital symmetries:
       Occupied  (A) (A) (A) (A) (A) (A) (A) (A) (A) (A) (A) (A)
                 (A) (A) (A) (A) (A) (A) (A) (A) (A) (A) (A) (A)
                 (A) (A) (A) (A) (A) (A) (A) (A) (A) (A) (A) (A)
                 (A) (A) (A) (A) (A) (A) (A) (A) (A) (A) (A) (A)
                 (A) (A) (A) (A) (A) (A) (A) (A) (A) (A) (A)
       Virtual   (A) (A) (A) (A) (A) (A) (A) (A) (A) (A) (A) (A)
                 (A) (A) (A) (A) (A) (A) (A) (A) (A) (A) (A) (A)
                 (A) (A) (A) (A) (A) (A) (A) (A) (A) (A) (A) (A)
                 (A) (A) (A) (A) (A) (A) (A) (A) (A) (A) (A) (A)
                 (A) (A) (A) (A) (A) (A) (A) (A) (A) (A) (A) (A)
                 (A) (A) (A) (A) (A) (A) (A) (A) (A) (A) (A) (A)
                 (A) (A) (A) (A) (A) (A) (A) (A) (A) (A) (A) (A)
                 (A) (A) (A) (A) (A) (A) (A) (A) (A) (A) (A) (A)
                 (A) (A) (A) (A) (A) (A) (A) (A) (A) (A) (A) (A)
                 (A) (A) (A) (A) (A) (A) (A) (A) (A) (A) (A) (A)
                 (A) (A) (A) (A) (A) (A) (A) (A) (A) (A) (A) (A)
                 (A) (A) (A) (A) (A) (A) (A) (A) (A) (A) (A) (A)
                 (A) (A) (A) (A) (A) (A) (A) (A) (A) (A) (A) (A)
                 (A) (A) (A) (A) (A) (A) (A) (A) (A) (A) (A) (A)
                 (A) (A) (A) (A) (A) (A) (A) (A) (A) (A) (A) (A)
                 (A) (A) (A) (A) (A) (A) (A) (A) (A) (A) (A) (A)
                 (A) (A) (A) (A) (A) (A) (A) (A) (A) (A) (A) (A)
                 (A) (A) (A) (A) (A) (A) (A) (A) (A) (A) (A) (A)
                 (A) (A) (A) (A) (A) (A) (A) (A) (A) (A) (A) (A)
                 (A) (A) (A) (A) (A) (A) (A) (A) (A) (A) (A) (A)
                 (A) (A) (A) (A) (A) (A) (A) (A) (A) (A) (A) (A)
                 (A) (A) (A) (A) (A) (A) (A) (A) (A) (A) (A) (A)
                 (A) (A) (A) (A) (A) (A) (A) (A) (A) (A) (A) (A)
                 (A) (A) (A) (A) (A) (A) (A) (A) (A) (A) (A) (A)
                 (A) (A) (A) (A) (A) (A) (A) (A) (A) (A) (A) (A)
                 (A) (A) (A)
 The electronic state is 1-A.
 Alpha  occ. eigenvalues --  -19.27574 -19.27493 -19.27174 -19.26511 -19.21692
 Alpha  occ. eigenvalues --  -10.40259 -10.34656 -10.34567 -10.34471 -10.34003
 Alpha  occ. eigenvalues --  -10.32229 -10.29617 -10.28903 -10.27817 -10.27628
 Alpha  occ. eigenvalues --  -10.27394  -1.18826  -1.17533  -1.16062  -1.14418
 Alpha  occ. eigenvalues --   -1.09471  -0.95720  -0.89698  -0.86248  -0.84313
 Alpha  occ. eigenvalues --   -0.79649  -0.78843  -0.75597  -0.70813  -0.69217
 Alpha  occ. eigenvalues --   -0.64493  -0.62877  -0.61270  -0.59426  -0.58094
 Alpha  occ. eigenvalues --   -0.56831  -0.56731  -0.55113  -0.54982  -0.53683
 Alpha  occ. eigenvalues --   -0.52495  -0.52003  -0.50237  -0.49666  -0.48782
 Alpha  occ. eigenvalues --   -0.47629  -0.47115  -0.45166  -0.44536  -0.43737
 Alpha  occ. eigenvalues --   -0.42584  -0.41013  -0.40477  -0.40407  -0.38779
 Alpha  occ. eigenvalues --   -0.34870  -0.33793  -0.28652  -0.26735
 Alpha virt. eigenvalues --   -0.03064   0.01868   0.03276   0.03729   0.03739
 Alpha virt. eigenvalues --    0.04485   0.04803   0.05536   0.05875   0.06749
 Alpha virt. eigenvalues --    0.06928   0.07616   0.07828   0.08820   0.09086
 Alpha virt. eigenvalues --    0.09408   0.10387   0.11213   0.11226   0.11455
 Alpha virt. eigenvalues --    0.12650   0.13051   0.13166   0.13818   0.14834
 Alpha virt. eigenvalues --    0.15101   0.15383   0.16190   0.16989   0.17907
 Alpha virt. eigenvalues --    0.17914   0.18154   0.18225   0.19141   0.19837
 Alpha virt. eigenvalues --    0.20978   0.21495   0.22293   0.22390   0.22553
 Alpha virt. eigenvalues --    0.22687   0.23036   0.23807   0.23976   0.24717
 Alpha virt. eigenvalues --    0.25155   0.25254   0.26555   0.26861   0.27246
 Alpha virt. eigenvalues --    0.27339   0.28061   0.28508   0.29328   0.29586
 Alpha virt. eigenvalues --    0.29778   0.30645   0.30950   0.31220   0.31262
 Alpha virt. eigenvalues --    0.31416   0.32662   0.33486   0.33647   0.33846
 Alpha virt. eigenvalues --    0.34077   0.34399   0.34744   0.34994   0.36857
 Alpha virt. eigenvalues --    0.36895   0.37692   0.38137   0.38277   0.38858
 Alpha virt. eigenvalues --    0.39794   0.40281   0.41222   0.41587   0.42207
 Alpha virt. eigenvalues --    0.42731   0.44942   0.46060   0.46983   0.47768
 Alpha virt. eigenvalues --    0.48294   0.48645   0.50921   0.52107   0.54054
 Alpha virt. eigenvalues --    0.56930   0.57636   0.61384   0.65147   0.68161
 Alpha virt. eigenvalues --    0.70700   0.71292   0.71514   0.72665   0.74254
 Alpha virt. eigenvalues --    0.74593   0.75209   0.75374   0.77004   0.77809
 Alpha virt. eigenvalues --    0.77895   0.79405   0.80635   0.81260   0.82406
 Alpha virt. eigenvalues --    0.84098   0.85055   0.86153   0.86936   0.91116
 Alpha virt. eigenvalues --    0.92170   0.93192   0.94649   0.96411   0.96694
 Alpha virt. eigenvalues --    0.96839   0.98455   0.99365   1.01477   1.02530
 Alpha virt. eigenvalues --    1.03784   1.05887   1.07843   1.10524   1.12171
 Alpha virt. eigenvalues --    1.14624   1.15536   1.17294   1.18025   1.19326
 Alpha virt. eigenvalues --    1.21076   1.21724   1.22093   1.22721   1.24032
 Alpha virt. eigenvalues --    1.24895   1.25741   1.26071   1.27393   1.27623
 Alpha virt. eigenvalues --    1.28257   1.29995   1.30309   1.30719   1.31227
 Alpha virt. eigenvalues --    1.33115   1.34301   1.34472   1.37155   1.37380
 Alpha virt. eigenvalues --    1.38159   1.38355   1.39216   1.40365   1.40747
 Alpha virt. eigenvalues --    1.41092   1.43441   1.44414   1.44817   1.45096
 Alpha virt. eigenvalues --    1.46802   1.48382   1.51124   1.52785   1.54176
 Alpha virt. eigenvalues --    1.54774   1.56931   1.58013   1.60162   1.64035
 Alpha virt. eigenvalues --    1.65559   1.65596   1.66123   1.69718   1.73161
 Alpha virt. eigenvalues --    1.75869   1.81131   1.81905   1.83041   1.84442
 Alpha virt. eigenvalues --    1.85091   1.85524   1.87609   1.89558   1.90385
 Alpha virt. eigenvalues --    1.90500   1.92204   1.94584   1.95482   1.97681
 Alpha virt. eigenvalues --    1.97985   1.98983   1.99795   2.01578   2.02020
 Alpha virt. eigenvalues --    2.03319   2.03583   2.05187   2.05688   2.07164
 Alpha virt. eigenvalues --    2.09019   2.09215   2.10969   2.11255   2.13360
 Alpha virt. eigenvalues --    2.14431   2.14830   2.17570   2.17741   2.18622
 Alpha virt. eigenvalues --    2.21577   2.22608   2.26347   2.27730   2.27778
 Alpha virt. eigenvalues --    2.29497   2.31912   2.34617   2.38504   2.38886
 Alpha virt. eigenvalues --    2.41200   2.44479   2.46727   2.47707   2.50198
 Alpha virt. eigenvalues --    2.51731   2.54113   2.54175   2.54851   2.57187
 Alpha virt. eigenvalues --    2.58784   2.59748   2.61461   2.62127   2.63794
 Alpha virt. eigenvalues --    2.67209   2.68411   2.68495   2.69740   2.70729
 Alpha virt. eigenvalues --    2.70908   2.71295   2.73798   2.76209   2.76903
 Alpha virt. eigenvalues --    2.80477   2.80637   2.83354   2.83854   2.84991
 Alpha virt. eigenvalues --    2.86177   2.88749   2.89477   2.90301   2.91964
 Alpha virt. eigenvalues --    2.92401   2.96597   2.97326   3.01175   3.04780
 Alpha virt. eigenvalues --    3.08698   3.11895   3.15169   3.19416   3.22056
 Alpha virt. eigenvalues --    3.24423   3.27158   3.29026   3.31343   3.31811
 Alpha virt. eigenvalues --    3.36949   3.46111   3.46961   3.48529   3.50887
 Alpha virt. eigenvalues --    3.52357   3.54317   3.55261   3.61024   3.65884
 Alpha virt. eigenvalues --    3.70320   3.83278   4.23948   4.29464   4.35348
 Alpha virt. eigenvalues --    4.40733   4.44274   4.45866   4.49635   4.52224
 Alpha virt. eigenvalues --    4.56893   4.62647   4.67436   4.67581   4.73946
 Alpha virt. eigenvalues --    4.80143   4.90033   5.35713
          Condensed to atoms (all electrons):
               1          2          3          4          5          6
     1  C   29.493907 -10.380285 -10.843478   1.766719  -2.930666   2.481637
     2  C  -10.380285  27.443185  -0.058144  -2.169683  -0.143909  -8.127047
     3  C  -10.843478  -0.058144  27.838947  -1.436700  -4.441660  -3.065374
     4  C    1.766719  -2.169683  -1.436700  12.296434  -0.586408  -0.587177
     5  C   -2.930666  -0.143909  -4.441660  -0.586408  10.605582   1.587889
     6  C    2.481637  -8.127047  -3.065374  -0.587177   1.587889  13.914265
     7  O    0.227773  -1.034912   0.133585  -0.064090   0.087614   0.526314
     8  O   -0.817633   0.408087   0.406285  -0.017465  -0.015175   0.044595
     9  C    0.104971  -0.109945  -0.089122  -0.119766  -0.012682   0.056845
    10  O    0.320658   0.078572  -0.042126   0.010509  -0.373101  -0.032506
    11  C   -0.247384  -0.150754  -0.006430   0.022570   0.091912   0.202569
    12  C   -3.223681   0.556468  -0.347434  -1.971570   1.182112  -0.917785
    13  C   -0.037268  -0.789911  -2.295777  -0.754999   1.024233   0.162977
    14  C   -0.079717   0.082418  -0.259406  -0.697539   0.093533   0.018786
    15  O   -0.000027   0.001703   0.017924   0.081924  -0.032242  -0.002109
    16  O   -0.000270  -0.003570   0.048400   0.109765  -0.025285   0.000103
    17  H    0.064280  -0.186217   0.199812   0.150558   0.024996  -0.000740
    18  H    0.007095   0.012529   0.110127   0.115432   0.210847  -0.083637
    19  H   -0.016415   0.371392   0.018871  -0.000496  -0.002803  -0.357906
    20  H    0.099072   0.114235  -0.178654  -0.028350  -0.002565   0.013133
    21  H   -0.046041  -0.143117   0.129869   0.041258   0.006749  -0.008176
    22  H   -0.045897  -0.142944   0.129614   0.041242   0.006739  -0.008162
    23  H   -0.063688  -0.009760  -0.003156   0.001523   0.011942   0.073014
    24  H    0.050862   0.011495   0.003771  -0.001467  -0.007521  -0.060412
    25  H    0.051881   0.011884   0.003736  -0.001456  -0.007708  -0.061384
    26  H    0.015695   0.017136   0.087567  -0.003688   0.011932   0.001255
    27  H    0.002597  -0.002418   0.023935   0.072113  -0.015236   0.004675
    28  H    0.000050   0.000016  -0.000501  -0.005512   0.003730   0.000171
               7          8          9         10         11         12
     1  C    0.227773  -0.817633   0.104971   0.320658  -0.247384  -3.223681
     2  C   -1.034912   0.408087  -0.109945   0.078572  -0.150754   0.556468
     3  C    0.133585   0.406285  -0.089122  -0.042126  -0.006430  -0.347434
     4  C   -0.064090  -0.017465  -0.119766   0.010509   0.022570  -1.971570
     5  C    0.087614  -0.015175  -0.012682  -0.373101   0.091912   1.182112
     6  C    0.526314   0.044595   0.056845  -0.032506   0.202569  -0.917785
     7  O    8.490253   0.046930  -0.007479  -0.020541   0.002648   0.022158
     8  O    0.046930   8.482927   0.041758  -0.001325   0.000821  -0.029211
     9  C   -0.007479   0.041758   5.020634  -0.000277   0.000176  -0.000295
    10  O   -0.020541  -0.001325  -0.000277   8.610905   0.019768  -0.018286
    11  C    0.002648   0.000821   0.000176   0.019768   5.000463  -0.008787
    12  C    0.022158  -0.029211  -0.000295  -0.018286  -0.008787  11.296151
    13  C    0.000153  -0.003678  -0.006597   0.010289   0.000389  -1.882746
    14  C    0.000451  -0.000176  -0.000070  -0.000065  -0.000279   0.813141
    15  O    0.000000   0.000000   0.000002   0.000002   0.000001  -0.066288
    16  O    0.000000   0.000002   0.000085  -0.000003   0.000005   0.063241
    17  H   -0.000806  -0.013026  -0.004640   0.000131   0.000164   0.040055
    18  H   -0.000360   0.000104   0.000333  -0.016359  -0.002523  -0.040959
    19  H    0.154490  -0.003327   0.001001   0.005288   0.020488   0.004924
    20  H   -0.000888  -0.078536   0.429874  -0.000003   0.000031  -0.004460
    21  H    0.000025  -0.036859   0.406397   0.000004  -0.000021   0.007274
    22  H    0.000024  -0.036866   0.406390   0.000004  -0.000021   0.007240
    23  H    0.002591   0.000007   0.000012  -0.074616   0.425914   0.000038
    24  H   -0.012181  -0.000114  -0.000061  -0.043093   0.400060  -0.000104
    25  H   -0.012340  -0.000116  -0.000062  -0.043076   0.399776  -0.000100
    26  H   -0.000010   0.000073   0.000252   0.000017   0.000000   0.291012
    27  H   -0.000004   0.000003   0.000043   0.000029   0.000085  -0.099568
    28  H   -0.000000   0.000000  -0.000001   0.000000  -0.000000   0.027618
              13         14         15         16         17         18
     1  C   -0.037268  -0.079717  -0.000027  -0.000270   0.064280   0.007095
     2  C   -0.789911   0.082418   0.001703  -0.003570  -0.186217   0.012529
     3  C   -2.295777  -0.259406   0.017924   0.048400   0.199812   0.110127
     4  C   -0.754999  -0.697539   0.081924   0.109765   0.150558   0.115432
     5  C    1.024233   0.093533  -0.032242  -0.025285   0.024996   0.210847
     6  C    0.162977   0.018786  -0.002109   0.000103  -0.000740  -0.083637
     7  O    0.000153   0.000451   0.000000   0.000000  -0.000806  -0.000360
     8  O   -0.003678  -0.000176   0.000000   0.000002  -0.013026   0.000104
     9  C   -0.006597  -0.000070   0.000002   0.000085  -0.004640   0.000333
    10  O    0.010289  -0.000065   0.000002  -0.000003   0.000131  -0.016359
    11  C    0.000389  -0.000279   0.000001   0.000005   0.000164  -0.002523
    12  C   -1.882746   0.813141  -0.066288   0.063241   0.040055  -0.040959
    13  C   12.354313  -1.409641   0.181562  -0.161420   0.026412  -0.018339
    14  C   -1.409641   6.538823  -0.170529   0.275847   0.000452   0.009998
    15  O    0.181562  -0.170529   8.416716  -0.144354   0.000001   0.000102
    16  O   -0.161420   0.275847  -0.144354   8.355317  -0.000058   0.000040
    17  H    0.026412   0.000452   0.000001  -0.000058   0.568987  -0.000128
    18  H   -0.018339   0.009998   0.000102   0.000040  -0.000128   0.563846
    19  H    0.000385   0.000031   0.000000   0.000000   0.000003  -0.000008
    20  H   -0.000136  -0.000002   0.000000  -0.000000   0.000153  -0.000000
    21  H    0.000632  -0.000032  -0.000000   0.000000  -0.001278   0.000000
    22  H    0.000628  -0.000032  -0.000000   0.000000  -0.001277   0.000000
    23  H   -0.000309  -0.000009   0.000000  -0.000000   0.000000  -0.000030
    24  H    0.000163   0.000004  -0.000000   0.000000  -0.000000   0.000002
    25  H    0.000165   0.000004  -0.000000   0.000000  -0.000000   0.000002
    26  H   -0.098532  -0.023903   0.000962  -0.003838   0.002844  -0.000029
    27  H    0.349582  -0.023606  -0.005855   0.005460  -0.000001   0.000594
    28  H   -0.029441   0.036117   0.199816   0.005512  -0.000000  -0.000000
              19         20         21         22         23         24
     1  C   -0.016415   0.099072  -0.046041  -0.045897  -0.063688   0.050862
     2  C    0.371392   0.114235  -0.143117  -0.142944  -0.009760   0.011495
     3  C    0.018871  -0.178654   0.129869   0.129614  -0.003156   0.003771
     4  C   -0.000496  -0.028350   0.041258   0.041242   0.001523  -0.001467
     5  C   -0.002803  -0.002565   0.006749   0.006739   0.011942  -0.007521
     6  C   -0.357906   0.013133  -0.008176  -0.008162   0.073014  -0.060412
     7  O    0.154490  -0.000888   0.000025   0.000024   0.002591  -0.012181
     8  O   -0.003327  -0.078536  -0.036859  -0.036866   0.000007  -0.000114
     9  C    0.001001   0.429874   0.406397   0.406390   0.000012  -0.000061
    10  O    0.005288  -0.000003   0.000004   0.000004  -0.074616  -0.043093
    11  C    0.020488   0.000031  -0.000021  -0.000021   0.425914   0.400060
    12  C    0.004924  -0.004460   0.007274   0.007240   0.000038  -0.000104
    13  C    0.000385  -0.000136   0.000632   0.000628  -0.000309   0.000163
    14  C    0.000031  -0.000002  -0.000032  -0.000032  -0.000009   0.000004
    15  O    0.000000   0.000000  -0.000000  -0.000000   0.000000  -0.000000
    16  O    0.000000  -0.000000   0.000000   0.000000  -0.000000   0.000000
    17  H    0.000003   0.000153  -0.001278  -0.001277   0.000000  -0.000000
    18  H   -0.000008  -0.000000   0.000000   0.000000  -0.000030   0.000002
    19  H    0.432326  -0.000002   0.000001   0.000001  -0.000678   0.006559
    20  H   -0.000002   0.535219  -0.027201  -0.027203  -0.000000  -0.000000
    21  H    0.000001  -0.027201   0.565312  -0.044586   0.000000  -0.000000
    22  H    0.000001  -0.027203  -0.044586   0.565325   0.000000   0.000000
    23  H   -0.000678  -0.000000   0.000000   0.000000   0.523652  -0.027692
    24  H    0.006559  -0.000000  -0.000000   0.000000  -0.027692   0.579968
    25  H    0.006665  -0.000000   0.000000  -0.000000  -0.027699  -0.048056
    26  H   -0.000000   0.000000  -0.000003  -0.000003   0.000000  -0.000000
    27  H   -0.000000   0.000000  -0.000000  -0.000000   0.000000  -0.000000
    28  H    0.000000   0.000000   0.000000   0.000000   0.000000   0.000000
              25         26         27         28
     1  C    0.051881   0.015695   0.002597   0.000050
     2  C    0.011884   0.017136  -0.002418   0.000016
     3  C    0.003736   0.087567   0.023935  -0.000501
     4  C   -0.001456  -0.003688   0.072113  -0.005512
     5  C   -0.007708   0.011932  -0.015236   0.003730
     6  C   -0.061384   0.001255   0.004675   0.000171
     7  O   -0.012340  -0.000010  -0.000004  -0.000000
     8  O   -0.000116   0.000073   0.000003   0.000000
     9  C   -0.000062   0.000252   0.000043  -0.000001
    10  O   -0.043076   0.000017   0.000029   0.000000
    11  C    0.399776   0.000000   0.000085  -0.000000
    12  C   -0.000100   0.291012  -0.099568   0.027618
    13  C    0.000165  -0.098532   0.349582  -0.029441
    14  C    0.000004  -0.023903  -0.023606   0.036117
    15  O   -0.000000   0.000962  -0.005855   0.199816
    16  O    0.000000  -0.003838   0.005460   0.005512
    17  H   -0.000000   0.002844  -0.000001  -0.000000
    18  H    0.000002  -0.000029   0.000594  -0.000000
    19  H    0.006665  -0.000000  -0.000000   0.000000
    20  H   -0.000000   0.000000   0.000000   0.000000
    21  H    0.000000  -0.000003  -0.000000   0.000000
    22  H   -0.000000  -0.000003  -0.000000   0.000000
    23  H   -0.027699   0.000000   0.000000   0.000000
    24  H   -0.048056  -0.000000  -0.000000   0.000000
    25  H    0.580259  -0.000000  -0.000000   0.000000
    26  H   -0.000000   0.537543   0.004020  -0.000001
    27  H   -0.000000   0.004020   0.542405   0.000079
    28  H    0.000000  -0.000001   0.000079   0.383314
 Mulliken charges:
               1
     1  C    0.045254
     2  C    0.343498
     3  C   -0.084478
     4  C   -0.263681
     5  C   -0.352848
     6  C    0.224189
     7  O   -0.541398
     8  O   -0.378086
     9  C   -0.117774
    10  O   -0.390800
    11  C   -0.171643
    12  C    0.299841
    13  C   -0.623092
    14  C    0.795400
    15  O   -0.479310
    16  O   -0.524978
    17  H    0.129324
    18  H    0.131322
    19  H    0.359211
    20  H    0.156285
    21  H    0.149792
    22  H    0.149784
    23  H    0.168944
    24  H    0.147820
    25  H    0.147624
    26  H    0.159696
    27  H    0.141069
    28  H    0.379035
 Sum of Mulliken charges =  -0.00000
 Mulliken charges with hydrogens summed into heavy atoms:
               1
     1  C    0.045254
     2  C    0.343498
     3  C    0.044846
     4  C   -0.263681
     5  C   -0.221526
     6  C    0.224189
     7  O   -0.182187
     8  O   -0.378086
     9  C    0.338087
    10  O   -0.390800
    11  C    0.292745
    12  C    0.459538
    13  C   -0.482023
    14  C    0.795400
    15  O   -0.100276
    16  O   -0.524978
 Electronic spatial extent (au):  <R**2>=           5265.5847
 Charge=             -0.0000 electrons
 Dipole moment (field-independent basis, Debye):
    X=              3.3366    Y=             -1.6487    Z=              0.0024  Tot=              3.7217
 Quadrupole moment (field-independent basis, Debye-Ang):
   XX=            -92.8051   YY=            -80.8236   ZZ=            -96.8108
   XY=             -3.5135   XZ=              0.0164   YZ=             -0.0041
 Traceless Quadrupole moment (field-independent basis, Debye-Ang):
   XX=             -2.6586   YY=              9.3229   ZZ=             -6.6643
   XY=             -3.5135   XZ=              0.0164   YZ=             -0.0041
 Octapole moment (field-independent basis, Debye-Ang**2):
  XXX=             -2.4464  YYY=             20.4826  ZZZ=             -0.0033  XYY=             67.4856
  XXY=            -97.1412  XXZ=              0.0253  XZZ=              1.3022  YZZ=             -0.8820
  YYZ=              0.0036  XYZ=             -0.0053
 Hexadecapole moment (field-independent basis, Debye-Ang**3):
 XXXX=          -4212.4634 YYYY=          -1565.8823 ZZZZ=           -118.2876 XXXY=             40.8304
 XXXZ=              0.2941 YYYX=             -1.6707 YYYZ=             -0.0812 ZZZX=             -0.1177
 ZZZY=             -0.1089 XXYY=          -1051.6681 XXZZ=           -823.3050 YYZZ=           -326.1232
 XXYZ=             -0.1320 YYXZ=             -0.0362 ZZXY=             -5.0460
 N-N= 1.049085341185D+03 E-N=-3.970481932588D+03  KE= 7.949077500722D+02
 Calling FoFJK, ICntrl=      2127 FMM=F ISym2X=0 I1Cent= 0 IOpClX= 0 NMat=1 NMatS=1 NMatT=0.
 ***** Axes restored to original set *****
 -------------------------------------------------------------------
 Center     Atomic                   Forces (Hartrees/Bohr)
 Number     Number              X              Y              Z
 -------------------------------------------------------------------
      1        6          -0.002671181   -0.000278090   -0.000002243
      2        6           0.000066646   -0.001454252   -0.000000188
      3        6           0.001655077   -0.004389003    0.000000897
      4        6           0.008156690   -0.002365427   -0.000000197
      5        6           0.000694802    0.005546721   -0.000001817
      6        6           0.001613877    0.002206077   -0.000002715
      7        8          -0.004249106   -0.002056634    0.000004890
      8        8          -0.004989758    0.000203411   -0.000000048
      9        6           0.000737801   -0.003760226    0.000000117
     10        8           0.002812787    0.003304732    0.000006958
     11        6          -0.002908128    0.001517115   -0.000001562
     12        6          -0.008490932   -0.005025284   -0.000001831
     13        6           0.006684492    0.005639731    0.000006117
     14        6          -0.006265626    0.003207573   -0.000007382
     15        8           0.003481589    0.007723141    0.000007526
     16        8           0.003821587   -0.010607911   -0.000002402
     17        1           0.000245514   -0.000237400   -0.000000389
     18        1           0.000352444    0.000267768   -0.000000335
     19        1          -0.000466992    0.001620700   -0.000003576
     20        1          -0.000650134   -0.000586693   -0.000000066
     21        1           0.000579922   -0.000526529    0.000655524
     22        1           0.000580046   -0.000526586   -0.000655626
     23        1          -0.000088503    0.000956394    0.000000383
     24        1          -0.000855719    0.000035810    0.000753331
     25        1          -0.000855936    0.000032324   -0.000754184
     26        1          -0.000123956   -0.000492257   -0.000000895
     27        1          -0.000212349    0.000580776   -0.000000153
     28        1           0.001345042   -0.000535979   -0.000000132
 -------------------------------------------------------------------
 Cartesian Forces:  Max     0.010607911 RMS     0.002820504

 GradGradGradGradGradGradGradGradGradGradGradGradGradGradGradGradGradGrad
 Berny optimization.
 FormGI is forming the generalized inverse of G from B-inverse, IUseBI=4.
 Internal  Forces:  Max     0.011275832 RMS     0.002590501
 Search for a local minimum.
 Step number   1 out of a maximum of  131
 All quantities printed in internal units (Hartrees-Bohrs-Radians)
 Mixed Optimization -- RFO/linear search
 Second derivative matrix not updated -- first step.
 ITU=  0
     Eigenvalues ---    0.01167   0.01293   0.01395   0.01442   0.01472
     Eigenvalues ---    0.01805   0.01921   0.01959   0.01969   0.02013
     Eigenvalues ---    0.02018   0.02027   0.02039   0.02068   0.02091
     Eigenvalues ---    0.02092   0.02117   0.02123   0.02164   0.02196
     Eigenvalues ---    0.02756   0.09785   0.10039   0.10676   0.10734
     Eigenvalues ---    0.16000   0.16000   0.16000   0.16000   0.16000
     Eigenvalues ---    0.16000   0.16000   0.16000   0.16000   0.16000
     Eigenvalues ---    0.16000   0.16000   0.22000   0.22000   0.23466
     Eigenvalues ---    0.23484   0.25000   0.25000   0.25000   0.25000
     Eigenvalues ---    0.25000   0.25000   0.25000   0.25000   0.25000
     Eigenvalues ---    0.33789   0.33792   0.33997   0.33997   0.34660
     Eigenvalues ---    0.34758   0.34914   0.35454   0.35550   0.35656
     Eigenvalues ---    0.35778   0.36947   0.40503   0.41295   0.42092
     Eigenvalues ---    0.42624   0.44068   0.44278   0.45744   0.46763
     Eigenvalues ---    0.49142   0.51020   0.52082   0.52572   0.53054
     Eigenvalues ---    0.55110   0.55209   0.95371
 RFO step:  Lambda=-1.64182700D-03 EMin= 1.16692802D-02
 Linear search not attempted -- first point.
 Iteration  1 RMS(Cart)=  0.02405863 RMS(Int)=  0.00005707
 Iteration  2 RMS(Cart)=  0.00009545 RMS(Int)=  0.00000187
 Iteration  3 RMS(Cart)=  0.00000001 RMS(Int)=  0.00000187
 Variable       Old X    -DE/DX   Delta X   Delta X   Delta X     New X
                                 (Linear)    (Quad)   (Total)
    R1        2.68019  -0.00706   0.00000  -0.01652  -0.01652   2.66367
    R2        2.66207  -0.00866   0.00000  -0.01960  -0.01960   2.64247
    R3        2.58850  -0.00471   0.00000  -0.00921  -0.00921   2.57929
    R4        2.62789  -0.00626   0.00000  -0.01319  -0.01319   2.61470
    R5        2.57356  -0.00638   0.00000  -0.01209  -0.01209   2.56147
    R6        2.66526  -0.00643   0.00000  -0.01449  -0.01449   2.65077
    R7        2.04622  -0.00032   0.00000  -0.00088  -0.00088   2.04534
    R8        2.64014  -0.00766   0.00000  -0.01650  -0.01650   2.62363
    R9        2.75926  -0.00016   0.00000  -0.00044  -0.00044   2.75882
   R10        2.64335  -0.00509   0.00000  -0.01109  -0.01109   2.63226
   R11        2.04791  -0.00042   0.00000  -0.00117  -0.00117   2.04674
   R12        2.60741  -0.00614   0.00000  -0.01246  -0.01246   2.59496
   R13        1.81647  -0.00168   0.00000  -0.00304  -0.00304   1.81343
   R14        2.68805  -0.00549   0.00000  -0.01300  -0.01300   2.67506
   R15        2.06069  -0.00087   0.00000  -0.00250  -0.00250   2.05820
   R16        2.07335  -0.00095   0.00000  -0.00278  -0.00278   2.07057
   R17        2.07335  -0.00095   0.00000  -0.00278  -0.00278   2.07057
   R18        2.68137  -0.00528   0.00000  -0.01233  -0.01233   2.66904
   R19        2.06230  -0.00095   0.00000  -0.00273  -0.00273   2.05958
   R20        2.07682  -0.00103   0.00000  -0.00304  -0.00304   2.07377
   R21        2.07688  -0.00104   0.00000  -0.00305  -0.00305   2.07383
   R22        2.55034  -0.01056   0.00000  -0.01910  -0.01910   2.53124
   R23        2.05815  -0.00043   0.00000  -0.00124  -0.00124   2.05691
   R24        2.77731  -0.00235   0.00000  -0.00653  -0.00653   2.77078
   R25        2.04945  -0.00061   0.00000  -0.00171  -0.00171   2.04774
   R26        2.57821  -0.00863   0.00000  -0.01652  -0.01652   2.56168
   R27        2.30552  -0.01128   0.00000  -0.01180  -0.01180   2.29372
   R28        1.83603  -0.00145   0.00000  -0.00272  -0.00272   1.83331
    A1        2.07056  -0.00008   0.00000  -0.00043  -0.00043   2.07013
    A2        2.00195   0.00051   0.00000   0.00211   0.00211   2.00406
    A3        2.21067  -0.00044   0.00000  -0.00168  -0.00168   2.20899
    A4        2.10924   0.00044   0.00000   0.00183   0.00183   2.11107
    A5        1.99829   0.00025   0.00000   0.00095   0.00095   1.99923
    A6        2.17566  -0.00069   0.00000  -0.00278  -0.00278   2.17288
    A7        2.10220  -0.00076   0.00000  -0.00306  -0.00306   2.09914
    A8        2.10111   0.00025   0.00000   0.00072   0.00072   2.10183
    A9        2.07988   0.00051   0.00000   0.00234   0.00234   2.08222
   A10        2.06990   0.00059   0.00000   0.00270   0.00270   2.07260
   A11        2.06427   0.00003   0.00000  -0.00006  -0.00006   2.06421
   A12        2.14901  -0.00062   0.00000  -0.00264  -0.00264   2.14637
   A13        2.12340  -0.00068   0.00000  -0.00288  -0.00288   2.12052
   A14        2.12183   0.00049   0.00000   0.00234   0.00234   2.12418
   A15        2.03796   0.00019   0.00000   0.00054   0.00054   2.03849
   A16        2.09107   0.00048   0.00000   0.00184   0.00184   2.09291
   A17        2.22441  -0.00145   0.00000  -0.00573  -0.00573   2.21869
   A18        1.96770   0.00097   0.00000   0.00389   0.00389   1.97159
   A19        1.94259   0.00026   0.00000   0.00160   0.00160   1.94419
   A20        2.06543  -0.00249   0.00000  -0.00991  -0.00991   2.05551
   A21        1.84306   0.00006   0.00000   0.00057   0.00057   1.84363
   A22        1.94408  -0.00046   0.00000  -0.00295  -0.00295   1.94113
   A23        1.94408  -0.00046   0.00000  -0.00295  -0.00295   1.94113
   A24        1.90981   0.00025   0.00000   0.00173   0.00173   1.91153
   A25        1.90980   0.00025   0.00000   0.00173   0.00173   1.91153
   A26        1.91160   0.00038   0.00000   0.00197   0.00196   1.91356
   A27        2.17131  -0.00310   0.00000  -0.01234  -0.01234   2.15897
   A28        1.84019   0.00008   0.00000   0.00100   0.00100   1.84119
   A29        1.95799  -0.00057   0.00000  -0.00383  -0.00383   1.95416
   A30        1.95794  -0.00057   0.00000  -0.00381  -0.00382   1.95412
   A31        1.87920   0.00038   0.00000   0.00287   0.00287   1.88207
   A32        1.87907   0.00038   0.00000   0.00285   0.00285   1.88192
   A33        1.94296   0.00038   0.00000   0.00152   0.00151   1.94447
   A34        2.23299  -0.00119   0.00000  -0.00539  -0.00539   2.22761
   A35        2.02169   0.00087   0.00000   0.00437   0.00437   2.02607
   A36        2.02850   0.00033   0.00000   0.00102   0.00102   2.02951
   A37        2.09782  -0.00182   0.00000  -0.00822  -0.00822   2.08960
   A38        2.14964   0.00102   0.00000   0.00478   0.00478   2.15442
   A39        2.03572   0.00080   0.00000   0.00344   0.00344   2.03916
   A40        1.94673   0.00097   0.00000   0.00386   0.00386   1.95059
   A41        2.21413  -0.00036   0.00000  -0.00142  -0.00142   2.21271
   A42        2.12233  -0.00062   0.00000  -0.00245  -0.00245   2.11989
   A43        1.86041   0.00002   0.00000   0.00010   0.00010   1.86051
    D1        0.00010   0.00000   0.00000   0.00000   0.00000   0.00011
    D2       -3.14150  -0.00000   0.00000  -0.00000  -0.00000  -3.14151
    D3        3.14144   0.00000   0.00000   0.00002   0.00002   3.14145
    D4       -0.00017   0.00000   0.00000   0.00001   0.00001  -0.00016
    D5       -0.00017   0.00000   0.00000   0.00001   0.00001  -0.00016
    D6        3.14139   0.00000   0.00000   0.00001   0.00001   3.14140
    D7       -3.14147  -0.00000   0.00000  -0.00001  -0.00001  -3.14148
    D8        0.00009  -0.00000   0.00000  -0.00001  -0.00001   0.00008
    D9        3.13924  -0.00000   0.00000  -0.00002  -0.00002   3.13923
   D10       -0.00263   0.00000   0.00000   0.00000   0.00000  -0.00263
   D11       -0.00001  -0.00000   0.00000  -0.00001  -0.00001  -0.00002
   D12        3.14155   0.00000   0.00000  -0.00000  -0.00000   3.14155
   D13        3.14159   0.00000   0.00000   0.00000   0.00000  -3.14159
   D14       -0.00003   0.00000   0.00000   0.00001   0.00001  -0.00002
   D15        3.14156   0.00000   0.00000   0.00001   0.00001   3.14156
   D16       -0.00005  -0.00000   0.00000  -0.00000  -0.00000  -0.00005
   D17       -0.00000  -0.00000   0.00000  -0.00001  -0.00001  -0.00001
   D18       -3.14159  -0.00000   0.00000  -0.00001  -0.00001   3.14159
   D19       -3.14157  -0.00000   0.00000  -0.00001  -0.00001  -3.14158
   D20        0.00003  -0.00000   0.00000  -0.00001  -0.00001   0.00002
   D21       -0.00007   0.00000   0.00000   0.00002   0.00002  -0.00005
   D22       -3.14158   0.00000   0.00000   0.00001   0.00001  -3.14157
   D23        3.14152   0.00000   0.00000   0.00002   0.00002   3.14154
   D24        0.00000   0.00000   0.00000   0.00001   0.00001   0.00001
   D25        3.14120   0.00000   0.00000   0.00005   0.00005   3.14125
   D26       -0.00037   0.00000   0.00000   0.00006   0.00006  -0.00031
   D27       -0.00038   0.00000   0.00000   0.00005   0.00005  -0.00033
   D28        3.14123   0.00000   0.00000   0.00005   0.00005   3.14129
   D29        0.00015  -0.00000   0.00000  -0.00002  -0.00002   0.00014
   D30       -3.14141  -0.00000   0.00000  -0.00002  -0.00002  -3.14143
   D31       -3.14152  -0.00000   0.00000  -0.00001  -0.00001  -3.14152
   D32        0.00011  -0.00000   0.00000  -0.00001  -0.00001   0.00010
   D33        0.00021  -0.00000   0.00000  -0.00006  -0.00006   0.00015
   D34       -3.14142  -0.00000   0.00000  -0.00005  -0.00005  -3.14147
   D35       -3.14157   0.00000   0.00000   0.00000   0.00000  -3.14157
   D36       -1.06995   0.00009   0.00000   0.00085   0.00084  -1.06910
   D37        1.06999  -0.00009   0.00000  -0.00084  -0.00084   1.06915
   D38       -3.14157   0.00000   0.00000   0.00012   0.00012  -3.14145
   D39       -1.10102   0.00021   0.00000   0.00217   0.00217  -1.09886
   D40        1.10125  -0.00020   0.00000  -0.00192  -0.00191   1.09934
   D41       -3.14159   0.00000   0.00000   0.00001   0.00001  -3.14158
   D42       -0.00002   0.00000   0.00000   0.00001   0.00001  -0.00001
   D43       -0.00002   0.00000   0.00000   0.00001   0.00001  -0.00002
   D44        3.14155   0.00000   0.00000   0.00000   0.00000   3.14155
   D45        3.14147   0.00000   0.00000   0.00016   0.00016  -3.14155
   D46       -0.00006  -0.00000   0.00000  -0.00009  -0.00009  -0.00014
   D47       -0.00010   0.00000   0.00000   0.00016   0.00016   0.00006
   D48        3.14156  -0.00000   0.00000  -0.00008  -0.00008   3.14147
   D49       -3.14156  -0.00000   0.00000  -0.00012  -0.00012   3.14151
   D50       -0.00003   0.00000   0.00000   0.00012   0.00012   0.00009
         Item               Value     Threshold  Converged?
 Maximum Force            0.011276     0.000450     NO 
 RMS     Force            0.002591     0.000300     NO 
 Maximum Displacement     0.083202     0.001800     NO 
 RMS     Displacement     0.024052     0.001200     NO 
 Predicted change in Energy=-8.239150D-04
 GradGradGradGradGradGradGradGradGradGradGradGradGradGradGradGradGradGrad

                          Input orientation:                          
 ---------------------------------------------------------------------
 Center     Atomic      Atomic             Coordinates (Angstroms)
 Number     Number       Type             X           Y           Z
 ---------------------------------------------------------------------
      1          6           0        2.270312   -0.123083    0.000181
      2          6           0        1.693559    1.163075    0.000228
      3          6           0        0.319660    1.326969    0.000205
      4          6           0       -0.525974    0.207799    0.000110
      5          6           0        0.042582   -1.058813    0.000028
      6          6           0        1.424155   -1.236345   -0.000019
      7          8           0        3.635121   -0.139078    0.000040
      8          8           0        2.588159    2.181402    0.000320
      9          6           0        2.082513    3.503592    0.000334
     10          8           0        1.794387   -2.558685   -0.000307
     11          6           0        3.137204   -2.996517   -0.000265
     12          6           0       -1.968681    0.431237    0.000094
     13          6           0       -2.939272   -0.491880   -0.000350
     14          6           0       -4.343583   -0.070283   -0.000298
     15          8           0       -5.186921   -1.131599   -0.000735
     16          8           0       -4.760081    1.069803    0.000258
     17          1           0       -0.114059    2.318616    0.000279
     18          1           0       -0.564940   -1.955470   -0.000066
     19          1           0        3.974674   -1.036620    0.002125
     20          1           0        2.957348    4.152370    0.000389
     21          1           0        1.482114    3.698561   -0.895245
     22          1           0        1.482038    3.698515    0.895874
     23          1           0        3.088398   -4.085304   -0.000692
     24          1           0        3.670979   -2.683648   -0.906616
     25          1           0        3.670618   -2.684490    0.906624
     26          1           0       -2.292028    1.470573    0.000463
     27          1           0       -2.748781   -1.558622   -0.000778
     28          1           0       -6.087236   -0.770194   -0.000590
 ---------------------------------------------------------------------
                    Distance matrix (angstroms):
                    1          2          3          4          5
     1  C    0.000000
     2  C    1.409555   0.000000
     3  C    2.430574   1.383639   0.000000
     4  C    2.815795   2.416377   1.402725   0.000000
     5  C    2.416272   2.768124   2.401818   1.388367   0.000000
     6  C    1.398333   2.414497   2.791144   2.426635   1.392932
     7  O    1.364903   2.337791   3.625131   4.175529   3.708403
     8  O    2.326301   1.355471   2.424076   3.686860   4.120553
     9  C    3.631533   2.372616   2.800953   4.203148   4.997685
    10  O    2.481666   3.723125   4.156094   3.610749   2.306173
    11  C    3.001355   4.402990   5.160531   4.866880   3.651216
    12  C    4.275082   3.734646   2.457405   1.459906   2.503084
    13  C    5.222621   4.919552   3.732137   2.512679   3.035270
    14  C    6.614106   6.161839   4.868075   3.827723   4.496180
    15  O    7.525120   7.253036   6.030505   4.849578   5.230010
    16  O    7.130876   6.454313   5.086247   4.320961   5.253244
    17  H    3.412787   2.145403   1.082348   2.150633   3.381060
    18  H    3.375840   3.850472   3.399547   2.163620   1.083086
    19  H    1.933754   3.168935   4.352663   4.669520   3.932155
    20  H    4.330301   3.245466   3.865267   5.262430   5.970954
    21  H    4.003499   2.697271   2.788831   4.125469   5.050384
    22  H    4.003530   2.697291   2.788831   4.125483   5.050421
    23  H    4.045796   5.430568   6.079359   5.611990   4.293791
    24  H    3.056247   4.419257   5.304593   5.176585   4.077665
    25  H    3.056682   4.419737   5.304933   5.176726   4.077669
    26  H    4.832668   3.997431   2.615633   2.171069   3.442121
    27  H    5.220351   5.209800   4.212121   2.839210   2.835757
    28  H    8.382563   8.017375   6.741396   5.646601   6.136609
                    6          7          8          9         10
     6  C    0.000000
     7  O    2.468273   0.000000
     8  O    3.610527   2.545733   0.000000
     9  C    4.785440   3.959751   1.415579   0.000000
    10  O    1.373191   3.040198   4.806090   6.069120   0.000000
    11  C    2.456164   2.900497   5.206947   6.585119   1.412393
    12  C    3.780497   5.632748   4.881380   5.084441   4.806278
    13  C    4.426479   6.583852   6.139946   6.417330   5.165191
    14  C    5.884429   7.979001   7.288288   7.353047   6.623203
    15  O    6.611905   8.877698   8.451500   8.621466   7.125674
    16  O    6.600234   8.481793   7.431843   7.262536   7.491793
    17  H    3.873481   4.482924   2.705700   2.495816   5.237388
    18  H    2.115098   4.576002   5.201514   6.067154   2.435219
    19  H    2.558328   0.959626   3.504011   4.918719   2.659011
    20  H    5.602583   4.344640   2.005246   1.089150   6.811074
    21  H    5.015784   4.490484   2.080179   1.095699   6.328630
    22  H    5.015857   4.490590   2.080181   1.095699   6.328764
    23  H    3.299436   3.983919   6.286641   7.655269   2.001258
    24  H    2.822202   2.701509   5.065940   6.451955   2.087728
    25  H    2.822361   2.702273   5.066558   6.452580   2.087725
    26  H    4.597544   6.141829   4.931684   4.823875   5.738789
    27  H    4.185362   6.539825   6.516956   6.997672   4.651935
    28  H    7.525842   9.742820   9.163755   9.220090   8.081997
                   11         12         13         14         15
    11  C    0.000000
    12  C    6.149761   0.000000
    13  C    6.572424   1.339475   0.000000
    14  C    8.032747   2.427279   1.466232   0.000000
    15  O    8.530473   3.577643   2.336914   1.355585   0.000000
    16  O    8.882683   2.863508   2.398791   1.213782   2.242401
    17  H    6.230678   2.646096   3.985062   4.857542   6.134975
    18  H    3.845731   2.768909   2.789183   4.222804   4.694835
    19  H    2.131328   6.121933   6.935372   8.374199   9.162087
    20  H    7.151149   6.173539   7.505943   8.434121   9.708215
    21  H    6.954451   4.835806   6.157051   6.995989   8.282911
    22  H    6.954574   4.835803   6.157160   6.996058   8.283051
    23  H    1.089880   6.780353   7.017514   8.447174   8.786654
    24  H    1.097394   6.506181   7.022861   8.478461   9.038355
    25  H    1.097424   6.506246   7.022876   8.478444   9.038295
    26  H    7.030750   1.088472   2.066434   2.565759   3.892519
    27  H    6.059073   2.137310   1.083616   2.181409   2.475252
    28  H    9.489300   4.290214   3.160244   1.878883   0.970145
                   16         17         18         19         20
    16  O    0.000000
    17  H    4.810931   0.000000
    18  H    5.172183   4.297802   0.000000
    19  H    8.985152   5.289172   4.631672   0.000000
    20  H    8.310290   3.577177   7.050689   5.287775   0.000000
    21  H    6.832078   2.292156   6.079460   5.425870   1.784494
    22  H    6.832006   2.292103   6.079504   5.425267   1.784493
    23  H    9.390088   7.160023   4.228839   3.174897   8.238716
    24  H    9.273272   6.338108   4.392617   1.905451   6.932753
    25  H    9.273235   6.338479   4.392438   1.904217   6.933445
    26  H    2.500381   2.337248   3.836743   6.749634   5.894742
    27  H    3.309674   4.687722   2.219606   6.743689   8.073124
    28  H    2.268685   6.724552   5.648065  10.065437  10.297385
                   21         22         23         24         25
    21  H    0.000000
    22  H    1.791119   0.000000
    23  H    7.998058   7.998254   0.000000
    24  H    6.747137   6.983727   1.767693   0.000000
    25  H    6.984241   6.747796   1.767621   1.813240   0.000000
    26  H    4.473295   4.473149   7.734129   7.323782   7.323853
    27  H    6.807239   6.807445   6.360565   6.580239   6.580247
    28  H    8.835453   8.835549   9.756138   9.985237   9.985154
                   26         27         28
    26  H    0.000000
    27  H    3.063436   0.000000
    28  H    4.407340   3.430292   0.000000
 Stoichiometry    C11H12O5
 Framework group  C1[X(C11H12O5)]
 Deg. of freedom    78
 Full point group                 C1      NOp   1
 Largest Abelian subgroup         C1      NOp   1
 Largest concise Abelian subgroup C1      NOp   1
                         Standard orientation:                         
 ---------------------------------------------------------------------
 Center     Atomic      Atomic             Coordinates (Angstroms)
 Number     Number       Type             X           Y           Z
 ---------------------------------------------------------------------
      1          6           0        2.268668   -0.114645    0.000182
      2          6           0        1.687742    1.169633    0.000229
      3          6           0        0.313318    1.329065    0.000206
      4          6           0       -0.528678    0.207155    0.000111
      5          6           0        0.043989   -1.057604    0.000029
      6          6           0        1.426130   -1.230649   -0.000018
      7          8           0        3.633522   -0.126208    0.000041
      8          8           0        2.579031    2.190860    0.000321
      9          6           0        2.069094    3.511401    0.000336
     10          8           0        1.800654   -2.551779   -0.000306
     11          6           0        3.144886   -2.985249   -0.000264
     12          6           0       -1.972102    0.425907    0.000096
     13          6           0       -2.939690   -0.500357   -0.000349
     14          6           0       -4.345364   -0.083322   -0.000297
     15          8           0       -5.185251   -1.147371   -0.000734
     16          8           0       -4.765561    1.055405    0.000259
     17          1           0       -0.123619    2.319299    0.000280
     18          1           0       -0.560619   -1.956229   -0.000064
     19          1           0        3.975987   -1.022643    0.002126
     20          1           0        2.941818    4.163016    0.000390
     21          1           0        1.468065    3.704419   -0.895244
     22          1           0        1.467989    3.704373    0.895875
     23          1           0        3.099616   -4.074189   -0.000690
     24          1           0        3.677642   -2.670648   -0.906615
     25          1           0        3.677284   -2.671491    0.906625
     26          1           0       -2.298822    1.464188    0.000464
     27          1           0       -2.745737   -1.566474   -0.000777
     28          1           0       -6.086735   -0.788891   -0.000589
 ---------------------------------------------------------------------
 Rotational constants (GHZ):      0.7833298      0.2586152      0.1949167
 Standard basis: 6-31+G(d,p) (6D, 7F)
 There are   364 symmetry adapted cartesian basis functions of A   symmetry.
 There are   364 symmetry adapted basis functions of A   symmetry.
   364 basis functions,   596 primitive gaussians,   364 cartesian basis functions
    59 alpha electrons       59 beta electrons
       nuclear repulsion energy      1054.8355336724 Hartrees.
 NAtoms=   28 NActive=   28 NUniq=   28 SFac= 1.00D+00 NAtFMM=   60 NAOKFM=F Big=F
 Integral buffers will be    131072 words long.
 Raffenetti 2 integral format.
 Two-electron integral symmetry is turned on.
 One-electron integrals computed using PRISM.
 NBasis=   364 RedAO= T EigKep=  1.36D-06  NBF=   364
 NBsUse=   362 1.00D-06 EigRej=  5.14D-07 NBFU=   362
 Initial guess from the checkpoint file:  "camb3lypSAgd3.chk"
 B after Tr=    -0.000000    0.000000   -0.000000
         Rot=    0.999999    0.000002    0.000001   -0.001083 Ang=   0.12 deg.
 ExpMin= 4.38D-02 ExpMax= 5.48D+03 ExpMxC= 8.25D+02 IAcc=2 IRadAn=         4 AccDes= 0.00D+00
 Harris functional with IExCor=20419 and IRadAn=       4 diagonalized for initial guess.
 HarFok:  IExCor=20419 AccDes= 0.00D+00 IRadAn=         4 IDoV= 1 UseB2=F ITyADJ=14
 ICtDFT=  3500011 ScaDFX=  1.000000  1.000000  1.000000  1.000000
 FoFCou: FMM=F IPFlag=           0 FMFlag=      100000 FMFlg1=           0
         NFxFlg=           0 DoJE=T BraDBF=F KetDBF=T FulRan=T
         wScrn=  0.000000 ICntrl=     500 IOpCl=  0 I1Cent=   200000004 NGrid=           0
         NMat0=    1 NMatS0=      1 NMatT0=    0 NMatD0=    1 NMtDS0=    0 NMtDT0=    0
 Petite list used in FoFCou.
 Requested convergence on RMS density matrix=1.00D-08 within 128 cycles.
 Requested convergence on MAX density matrix=1.00D-06.
 Requested convergence on             energy=1.00D-06.
 No special actions if energy rises.
 SCF Done:  E(RCAM-B3LYP) =  -802.163286133     A.U. after   13 cycles
            NFock= 13  Conv=0.39D-08     -V/T= 2.0087
 Calling FoFJK, ICntrl=      2127 FMM=F ISym2X=0 I1Cent= 0 IOpClX= 0 NMat=1 NMatS=1 NMatT=0.
 ***** Axes restored to original set *****
 -------------------------------------------------------------------
 Center     Atomic                   Forces (Hartrees/Bohr)
 Number     Number              X              Y              Z
 -------------------------------------------------------------------
      1        6           0.000878215   -0.000256624    0.000000400
      2        6           0.001101797    0.000582126    0.000000076
      3        6          -0.000952812    0.000490034    0.000000430
      4        6           0.001161173   -0.000239029    0.000001130
      5        6          -0.001371687    0.000194140   -0.000000933
      6        6           0.000377362   -0.001168817   -0.000003548
      7        8           0.000081098    0.000143229    0.000002277
      8        8          -0.000917040    0.000978510   -0.000000129
      9        6           0.001330107   -0.000900211    0.000000070
     10        8           0.000862927   -0.000071269    0.000006980
     11        6          -0.001522446   -0.000602609   -0.000007432
     12        6          -0.000952991    0.000537706   -0.000000625
     13        6           0.001094438   -0.000442627   -0.000007663
     14        6          -0.002782188   -0.001497370    0.000026154
     15        8           0.000657971    0.001245826   -0.000007243
     16        8           0.000391752    0.000490960   -0.000010290
     17        1          -0.000137007   -0.000327049   -0.000000060
     18        1           0.000083377   -0.000098475   -0.000000358
     19        1           0.000192688    0.001180209   -0.000000519
     20        1          -0.000155281    0.000442472   -0.000000006
     21        1          -0.000030058    0.000372413   -0.000023977
     22        1          -0.000030027    0.000372365    0.000024030
     23        1           0.000474930   -0.000096897   -0.000000005
     24        1           0.000166434   -0.000511581   -0.000188794
     25        1           0.000166320   -0.000512455    0.000191247
     26        1           0.000117857    0.000030886   -0.000000689
     27        1          -0.000151290   -0.000029308   -0.000000340
     28        1          -0.000135619   -0.000306557   -0.000000182
 -------------------------------------------------------------------
 Cartesian Forces:  Max     0.002782188 RMS     0.000638745

 GradGradGradGradGradGradGradGradGradGradGradGradGradGradGradGradGradGrad
 Berny optimization.
 Using GEDIIS/GDIIS optimizer.
 FormGI is forming the generalized inverse of G from B-inverse, IUseBI=4.
 Internal  Forces:  Max     0.005201940 RMS     0.000922422
[...]
 445,-0.02912790,0.06751071,0.00019646,0.00039118,-0.00026832,-0.001248
 10,-0.00139773,0.00064148,-0.00088575,0.00072301,-0.00001762,0.0003806
 1,-0.00029030,-0.00006292,0.00014089,0.00000206,-0.00003306,-0.0001619
 4,-0.00004048,-0.00005703,0.00004607,-0.00007217,0.00008350,0.00107098
 ,0.00612814,0.00732027,-0.11542612,0.03107533,-0.23319289,0.00010359,-
 0.00014297,0.00002477,-0.00005870,0.00001508,-0.00000397,-0.00003195,0
 .00009561,0.00003573,0.00001986,-0.00002475,0.00000643,0.00002286,0.00
 008174,-0.00000990,-0.00003537,-0.00004622,0.00000380,-0.00000465,-0.0
 0006079,0.00001631,0.00064540,-0.00028781,-0.00012860,0.00002487,-0.00
 005600,0.00001363,0.00003641,-0.00002670,-0.00001920,0.00157028,-0.001
 04530,0.00198241,0.12852259,-0.03785071,0.24376321,0.00034476,0.000115
 32,0.00002035,-0.00097352,-0.00225669,-0.00076086,0.00033581,0.0005554
 4,-0.00041268,-0.00005626,-0.00039613,0.00031136,0.00004328,0.00043473
 ,0.00006358,0.00022757,-0.00015897,-0.00003145,-0.00034778,0.00007604,
 -0.00008219,-0.00700588,0.01305858,0.00822042,-0.12696099,0.01859255,0
 .11517696,-0.00008589,0.00015398,0.00000841,0.00009556,-0.00002225,0.0
 0001518,-0.00011599,0.00000007,-0.00004182,0.00018044,0.00003276,0.000
 00525,-0.00027083,0.00006358,0.00000382,0.00010714,0.00004133,-0.00000
 231,0.00011658,-0.00008279,-0.00000084,-0.00044466,-0.00105498,-0.0008
 8147,-0.00000017,0.00000210,-0.00005438,0.00007254,-0.00003654,0.00003
 958,-0.01152844,0.00390130,0.02196881,0.01066762,-0.00384373,-0.015004
 64,0.13566253,0.00020154,-0.00181986,0.00071001,0.00530514,0.00621447,
 -0.00180518,-0.00080167,0.00083102,0.00027201,-0.00034474,-0.00078907,
 0.00039593,-0.00079900,0.00040971,-0.00004515,0.00106818,0.00057785,0.
 00023891,-0.00018496,-0.00000973,-0.00008614,0.02292955,-0.02439820,-0
 .02862282,0.01519825,-0.05559297,-0.02615759,-0.00007145,-0.00011003,-
 0.00008771,-0.00003835,-0.00000017,-0.00001492,0.00013369,-0.00006414,
 -0.00004535,-0.00013935,-0.00001156,0.00004165,0.00011374,-0.00005034,
 -0.00001092,-0.00003600,-0.00001124,0.00000336,-0.00004190,0.00005156,
 0.00000608,-0.00093261,-0.00082578,-0.00118784,-0.00002134,0.00001613,
 -0.00004748,-0.00012935,-0.00003041,0.00000489,-0.00839269,0.00520881,
 0.01575157,-0.00384210,0.00286248,0.00283427,-0.02915884,0.06752287,-0
 .00019642,-0.00039084,-0.00026810,0.00124682,0.00139608,0.00064153,0.0
 0088619,-0.00072300,-0.00001735,-0.00038061,0.00029028,-0.00006319,-0.
 00014080,-0.00000199,-0.00003281,0.00016189,0.00004033,-0.00005748,-0.
 00004617,0.00007213,0.00008266,-0.00107864,-0.00611965,0.00732807,0.11
 545271,-0.03109812,-0.23311736,-0.00010365,0.00014307,0.00002484,0.000
 05878,-0.00001507,-0.00000388,0.00003190,-0.00009562,0.00003567,-0.000
 01978,0.00002478,0.00000639,-0.00002296,-0.00008174,-0.00000990,0.0000
 3541,0.00004625,0.00000382,0.00000469,0.00006077,0.00001631,-0.0006454
 3,0.00028757,-0.00012862,-0.00002486,0.00005600,0.00001363,-0.00003626
 ,0.00002665,-0.00001863,-0.00157268,0.00104584,0.00198531,0.01501409,-
 0.00283908,-0.02006931,-0.12854781,0.03787090,0.24367724,-0.00315254,0
 .00065948,0.00000050,0.00041960,-0.00029272,-0.00000049,-0.00012717,0.
 00004941,0.00000010,-0.00026738,-0.00022879,-0.00000026,-0.00007786,0.
 00154332,-0.00000006,-0.00366271,-0.00019525,0.00000739,0.00164948,-0.
 00166408,-0.00000436,0.00008519,0.00016575,0.00000016,0.00003103,0.000
 04865,-0.00000002,-0.01233921,0.04657215,0.00002699,-0.04694130,-0.037
 16175,-0.00002163,-0.00000037,0.00015827,-0.00000012,-0.00002437,0.000
 00559,0.00000003,0.00006446,0.00002139,0.,-0.00003653,-0.00002755,-0.0
 0000001,-0.00002691,-0.00000685,0.,0.00001477,0.00000770,0.00000001,-0
 .00001846,-0.00006733,0.00000025,0.00077979,0.00154664,0.00000783,-0.0
 0000129,0.00001308,0.,0.00000354,-0.00000960,0.00000848,0.00000355,-0.
 00000959,-0.00000848,0.06311099,-0.00025882,-0.00007964,0.00000072,0.0
 0007580,0.00018939,0.,0.00000156,-0.00009648,0.00000018,0.00027552,0.0
 0000853,0.00000006,-0.00002751,-0.00052040,0.,0.00055346,0.00287179,-0
 .00000378,-0.00020971,0.00028572,-0.00000404,-0.00006913,-0.00025146,0
 .00000015,-0.00004243,0.00012558,-0.00000004,0.00852618,-0.01235122,-0
 .00000632,-0.02262901,-0.32794578,-0.00015838,-0.00021426,-0.00006696,
 -0.00000002,0.00021727,0.00003733,0.00000006,-0.00028758,0.00003298,-0
 .00000005,0.00011754,0.00006359,0.00000003,0.00010602,-0.00006371,0.00
 000001,0.00001699,-0.00001190,-0.00000003,0.00001528,0.00001463,-0.000
 00004,0.00043804,-0.00035599,0.00000503,-0.00000845,-0.00001449,0.,0.0
 0001788,-0.00001139,0.00000234,0.00001788,-0.00001139,-0.00000234,0.01
 729243,0.35250161,-0.00000184,-0.00000069,-0.00030065,0.00000053,-0.00
 000036,-0.00005972,-0.00000023,-0.00000012,0.00004340,0.00000051,0.000
 00010,-0.00010140,-0.00000020,-0.00000039,0.00013726,0.00000165,0.0000
 0105,0.00050398,0.00000067,-0.00000074,0.00133493,0.00000008,-0.000000
 03,-0.00000474,-0.00000004,0.00000023,-0.00000134,0.00000942,-0.000022
 19,0.00149880,-0.00000837,-0.00015767,-0.05111223,-0.00000028,-0.00000
 002,-0.00001946,0.00000026,0.00000003,-0.00000068,-0.00000030,0.000000
 02,0.00000646,0.00000013,0.00000008,-0.00000911,0.00000010,-0.00000006
 ,-0.00000210,0.00000006,-0.00000001,0.00001073,0.00000012,0.00000003,0
 .00002653,0.00000319,0.00001093,-0.00206895,0.,-0.00000001,0.00000041,
 0.00000030,0.00000028,0.00000058,-0.00000023,-0.00000033,0.00000056,0.
 00000758,0.00017966,0.04763482,-0.00193545,0.00094897,-0.00039724,-0.0
 0005624,-0.00033738,-0.00002476,-0.00002817,0.00047448,-0.00002098,0.0
 0016397,-0.00040319,-0.00031787,-0.00118338,0.00112844,-0.00029715,0.0
 0264564,-0.00639915,0.00106635,0.00179492,-0.00114527,-0.00031307,0.00
 016218,0.00033601,-0.00001058,0.00004793,-0.00007412,0.00001307,-0.034
 59236,-0.00051803,0.02633465,-0.10050679,-0.03372503,0.09178117,0.0001
 0550,0.00008360,0.00002285,-0.00016706,-0.00003859,-0.00004183,0.00029
 349,-0.00002961,0.00001380,-0.00012496,-0.00005820,-0.00000336,-0.0001
 2693,0.00007233,-0.00000545,0.00001230,0.00001330,0.00004756,0.0002419
 9,-0.00000524,0.00023629,0.00079814,0.00022303,0.00055439,0.00001330,0
 .00001961,-0.00000057,-0.00001682,0.00000060,0.00000801,-0.00001321,-0
 .00000091,-0.00001382,0.00027226,-0.00195763,0.00294762,0.12169291,0.0
 0045740,0.00032540,0.00030938,0.00000117,-0.00018162,0.00003938,-0.000
 06580,0.00001631,0.00002586,-0.00009350,0.00019616,0.00002671,0.000391
 18,-0.00028793,0.00027665,-0.00023321,0.00220100,-0.00158969,-0.001585
 48,-0.00141022,-0.00102261,0.00002729,0.00014954,0.00002809,0.00002830
 ,-0.00006586,-0.00001841,0.01040901,0.00538363,-0.01115408,-0.03665841
 ,-0.07624958,0.06399300,0.00015130,0.00000833,-0.00002597,-0.00012984,
 -0.00002443,0.00006771,0.00015977,-0.00002975,-0.00001724,-0.00006202,
 -0.00003134,-0.00000950,-0.00005783,0.00004188,0.00000026,-0.00001513,
 0.00000232,0.00004112,-0.00007614,-0.00002833,-0.00011272,0.00022148,-
 0.00304819,-0.00148813,0.00000466,0.00000846,-0.00000150,-0.00000513,0
 .00001050,0.00000079,-0.00001199,0.00000350,0.00000108,-0.01420684,-0.
 00717927,0.02800208,0.03647972,0.07638862,0.00339210,-0.00070864,-0.00
 059361,-0.00039645,0.00036506,0.00001239,0.00021596,-0.00009424,0.0000
 3073,-0.00027183,0.00009086,-0.00003693,0.00019623,-0.00041253,-0.0001
 5695,-0.00075978,0.00126002,0.00030244,-0.00213222,0.00230738,0.001781
 82,-0.00010735,-0.00006993,0.00001302,0.00000205,-0.00009888,-0.000004
 50,0.00398531,-0.00500850,0.00817389,0.09528595,0.06409052,-0.23480637
 ,0.00011750,-0.00003846,-0.00000088,-0.00009295,-0.00000746,0.00001461
 ,0.00005721,-0.00001092,-0.00000625,-0.00001798,-0.00001762,0.00000297
 ,-0.00000585,0.00000849,0.00000366,-0.00002839,0.00000306,-0.00002224,
 -0.00009390,0.00003067,0.00002894,-0.00014763,-0.00309254,-0.00248357,
 0.00000095,-0.00000596,-0.00000199,-0.00000955,0.00001500,-0.00001090,
 -0.00001700,0.00001733,0.00001318,-0.00110992,-0.00010248,0.00125528,-
 0.10981935,-0.06795414,0.24503440,-0.00194534,0.00094999,0.00039810,-0
 .00005515,-0.00033924,0.00002585,-0.00002878,0.00047476,0.00002087,0.0
 0016421,-0.00040356,0.00031828,-0.00118481,0.00113207,0.00029745,0.002
 64266,-0.00640826,-0.00107185,0.00180376,-0.00115250,0.00031370,0.0001
 6291,0.00033682,0.00001056,0.00004803,-0.00007391,-0.00001302,-0.03462
 514,-0.00046271,-0.02630427,-0.10057243,-0.03363002,-0.09186053,0.0001
 0530,0.00008391,-0.00002279,-0.00016705,-0.00003862,0.00004180,0.00029
 368,-0.00002966,-0.00001371,-0.00012504,-0.00005821,0.00000330,-0.0001
 2708,0.00007242,0.00000542,0.00001242,0.00001332,-0.00004782,0.0002424
 7,-0.00000523,-0.00023633,0.00080229,0.00023469,-0.00056509,0.00001331
 ,0.00001964,0.00000056,-0.00001319,-0.00000095,0.00001386,-0.00001681,
 0.00000054,-0.00000808,0.00026819,-0.00195676,-0.00296071,0.01047925,0
 .00485581,0.01176394,0.12179473,0.00045171,0.00032826,-0.00030317,0.00
 000226,-0.00018220,-0.00004024,-0.00006606,0.00001687,-0.00002510,-0.0
 0009217,0.00019523,-0.00002761,0.00038953,-0.00028727,-0.00027621,-0.0
 0022738,0.00218890,0.00158805,-0.00158352,-0.00141464,0.00101035,0.000
 02731,0.00014939,-0.00002697,0.00002805,-0.00006553,0.00001848,0.01039
 939,0.00537563,0.01114105,-0.03652899,-0.07605371,-0.06368592,0.000150
 53,0.00000832,0.00002613,-0.00012913,-0.00002434,-0.00006743,0.0001591
 0,-0.00002962,0.00001717,-0.00006178,-0.00003119,0.00000946,-0.0000576
 3,0.00004172,-0.00000026,-0.00001508,0.00000229,-0.00004141,-0.0000758
 8,-0.00002825,0.00011250,0.00022559,-0.00306660,0.00149633,0.00000461,
 0.00000849,0.00000151,-0.00001192,0.00000345,-0.00000112,-0.00000509,0
 .00001052,-0.00000079,-0.01422884,-0.00714807,-0.02801185,0.00487889,0
 .00379287,0.00943768,0.03635222,0.07620148,-0.00339684,0.00070784,-0.0
 0059659,0.00039715,-0.00036569,0.00001465,-0.00021608,0.00009428,0.000
 03026,0.00027235,-0.00009120,-0.00003663,-0.00019663,0.00041310,-0.000
 15720,0.00076112,-0.00126387,0.00030424,0.00213426,-0.00231150,0.00178
 194,0.00010772,0.00007026,0.00001231,-0.00000193,0.00009912,-0.0000044
 8,-0.00395921,0.00502102,0.00821683,-0.09536427,-0.06382008,-0.2347859
 0,-0.00011769,0.00003854,-0.00000078,0.00009309,0.00000748,0.00001438,
 -0.00005726,0.00001088,-0.00000623,0.00001800,0.00001767,0.00000302,0.
 00000583,-0.00000845,0.00000367,0.00002848,-0.00000305,-0.00002243,0.0
 0009399,-0.00003073,0.00002907,0.00014845,0.00311648,-0.00246809,-0.00
 000093,0.00000597,-0.00000200,0.00001701,-0.00001740,0.00001325,0.0000
 0959,-0.00001503,-0.00001092,0.00108599,0.00008931,0.00120861,-0.01178
 524,-0.00942122,-0.01853384,0.10991602,0.06765247,0.24500222,0.0001569
 9,-0.00024180,0.00000009,-0.00018707,0.00000133,-0.00000026,0.00140745
 ,0.00187065,-0.00000003,-0.00741046,0.02875623,0.00000095,-0.00536730,
 -0.00135898,-0.00000064,0.00058835,0.00141477,0.00000003,-0.00014005,-
 0.00009644,0.00000019,0.00006245,-0.00016728,0.00000003,-0.00008981,0.
 00011985,-0.00000002,-0.00055571,-0.00000845,0.00000020,0.00002257,0.0
 0007513,-0.00000013,-0.08236468,0.07955806,0.00000507,0.01053367,-0.02
 403698,-0.00000249,-0.00033782,-0.00449300,0.00000027,0.00093119,0.001
 73216,0.00000035,-0.00030060,0.00192663,0.00000009,-0.00066107,-0.0011
 1612,0.00000015,0.00014705,0.00004298,0.00000006,0.00003448,0.00000161
 ,-0.00000008,0.00003811,-0.00002081,0.,-0.00000890,-0.00001838,0.00005
 317,-0.00000889,-0.00001840,-0.00005318,-0.00003759,0.00001469,0.00000
 001,-0.00001606,0.00000452,0.00000382,-0.00001613,0.00000453,-0.000003
 83,0.08708881,-0.00016462,0.00005793,0.,0.00006739,0.00011410,0.000000
 33,-0.00188018,0.00116678,0.00000005,-0.00042136,-0.00228029,-0.000000
 39,0.00000026,0.00087188,-0.00000050,-0.00024076,-0.00002727,-0.000000
 02,0.00016126,0.00002182,-0.00000011,0.00006268,0.00007445,-0.00000002
 ,0.00002584,-0.00004908,0.,0.00011826,-0.00002484,0.,-0.00005415,0.000
 01213,0.00000004,0.07765876,-0.31368680,-0.00001986,0.00633974,-0.0215
 5017,-0.00000256,0.00133335,-0.00276995,0.00000060,0.00003281,0.000664
 39,0.00000007,0.00115019,0.00224170,0.00000030,0.00017036,0.00056197,-
 0.00000022,-0.00010167,0.00005639,0.,-0.00001924,0.00001259,0.00000002
 ,0.00000013,0.00000484,0.,-0.00000525,0.00000789,0.00000238,-0.0000052
 6,0.00000789,-0.00000239,0.00000565,-0.00000640,0.,0.00001000,0.000002
 32,-0.00000168,0.00001003,0.00000231,0.00000169,-0.08142831,0.33544349
 ,0.00000041,0.00000038,0.00010944,-0.00000005,0.00000008,0.00009350,0.
 00000035,0.00000020,-0.00138875,-0.00000336,0.00000308,0.00496952,-0.0
 0000009,-0.00000055,0.00238387,-0.00000088,-0.00000025,-0.00008280,-0.
 00000026,0.00000002,-0.00002417,0.00000004,0.,-0.00001481,-0.00000002,
 0.00000001,0.00007102,0.00000007,0.00000025,-0.00015718,0.,-0.00000003
 ,-0.00007349,0.00000652,-0.00001873,-0.04650999,-0.00000068,-0.0000068
 4,0.00857875,0.00000184,-0.00000014,-0.00816139,-0.00000013,0.00000011
 ,0.00043857,-0.00000008,0.00000065,0.00012544,0.00000004,-0.00000008,0
 .00030648,-0.00000002,0.,0.00003301,0.,-0.00000006,-0.00000403,0.,0.,-
 0.00001308,0.00000681,0.00001699,-0.00001993,-0.00000681,-0.00001699,-
 0.00001992,0.00000002,0.,0.00000265,0.00001538,-0.00000703,-0.00000165
 ,-0.00001539,0.00000701,-0.00000164,-0.00000191,0.00002364,0.02874911,
 0.00002278,-0.00001381,-0.00000004,-0.00023403,0.00008882,-0.00000007,
 0.00028236,0.00015819,0.00000005,0.00020401,0.00098828,0.00000077,-0.0
 0075405,-0.00091537,-0.00000023,-0.00001581,0.00031573,0.00000022,0.00
 001164,0.00005991,0.00000009,0.00016674,0.00026793,0.00000002,0.000054
 81,-0.00012396,0.00000001,0.00009679,-0.00012456,-0.00000002,-0.000124
 83,0.00006383,0.00000001,0.01146539,-0.02409165,-0.00000223,-0.0683209
 8,0.04991830,0.00000294,0.00195663,0.03019226,0.00000402,-0.00030263,-
 0.00148720,-0.00000025,-0.00774374,0.00289097,-0.00000118,0.00010463,0
 .00015377,-0.00000003,-0.00206862,0.00048774,-0.00000063,-0.00002934,-
 0.00001034,-0.00000011,-0.00000180,0.00001117,0.,-0.00001191,0.0000082
 4,-0.00001367,-0.00001192,0.00000825,0.00001367,0.00000856,-0.00000828
 ,0.,0.00002416,0.00000007,-0.00001098,0.00002421,0.00000010,0.00001098
 ,-0.00338229,-0.00272297,-0.00000176,0.06799125,-0.00000895,-0.0000460
 7,-0.00000005,-0.00008882,-0.00014495,0.00000010,-0.00008434,-0.000025
 12,0.,0.00143183,-0.00010063,0.00000098,0.00029582,-0.00008346,0.00000
 006,-0.00013226,0.00056808,0.00000014,0.00015250,0.00004217,-0.0000000
 3,0.00007277,0.00023216,0.,0.00005242,-0.00011102,0.,0.00005783,-0.000
 12387,-0.00000004,-0.00008701,0.00003963,0.00000004,0.00498184,-0.0163
 9605,-0.00000190,0.05380034,-0.33911928,-0.00003130,-0.00350217,-0.006
 94481,-0.00000130,-0.00081020,0.00145058,0.00000021,0.00166671,0.00079
 284,-0.00000008,0.00005039,0.00013229,-0.00000005,0.00052888,0.0010126
 4,-0.00000008,-0.00002786,0.00001510,-0.00000001,-0.00000174,0.0000107
 1,0.,-0.00000891,0.00000753,-0.00001516,-0.00000891,0.00000754,0.00001
 516,0.00000713,-0.00000945,0.,0.00001567,0.00000228,-0.00000321,0.0000
 1570,0.00000228,0.00000321,-0.00246875,-0.00091156,-0.00000168,-0.0560
 3824,0.35960709,-0.00000032,-0.00000042,-0.00028978,-0.00000043,0.0000
 0025,-0.00001547,0.00000057,0.00000016,0.00001160,0.00000029,0.0000008
 9,-0.00610247,-0.00000039,-0.00000043,-0.00009131,0.00000063,0.0000005
 3,-0.00035774,0.00000004,-0.00000005,0.00023165,0.00000008,0.00000005,
 0.00001207,0.00000002,-0.00000005,0.00002912,-0.00000009,-0.00000015,0
 .00000896,-0.00000005,0.00000007,0.00001563,0.00000172,-0.00000529,0.0
 0539562,0.00000324,-0.00003198,-0.03647212,-0.00000026,0.00000213,0.00
 088450,-0.00000002,0.00000023,-0.00081868,-0.00000104,0.00000021,0.002
 56558,-0.00000002,0.00000010,0.00011706,-0.00000068,0.00000011,0.00113
 602,0.00000017,0.00000002,0.00001690,0.,0.,-0.00000182,0.00000027,0.00
 000205,-0.00000712,-0.00000028,-0.00000205,-0.00000710,0.,-0.00000001,
 0.00001085,0.00000717,0.00000678,-0.00000544,-0.00000717,-0.00000678,-
 0.00000546,-0.00000186,-0.00000133,0.01038206,-0.00000171,0.00003492,0
 .02361213,-0.00034763,-0.00001156,-0.00000003,-0.00006424,-0.00033104,
 0.00000014,-0.00012904,-0.00007447,0.00000002,0.00030673,-0.00052218,0
 .00000017,0.00002460,0.00013955,0.,0.00005932,0.00033305,-0.00000004,0
 .00043182,-0.00005805,-0.00000019,0.00011190,0.00022006,0.00000001,0.0
 0001872,-0.00009261,0.,0.00015083,-0.00023962,-0.00000006,-0.00013803,
 0.00004661,0.00000007,-0.00184627,0.00043040,-0.00000033,0.00043696,-0
 .00487780,-0.00000180,-0.04308176,0.00785625,-0.00000607,-0.43130733,0
 .13916526,-0.00004905,0.00643025,0.00703175,0.00000272,-0.00002954,-0.
 00001553,-0.00000003,-0.00002384,0.00002356,0.,-0.00003870,0.00005511,
 0.00000012,0.00001580,0.00001025,0.,-0.00001615,0.00000436,0.00000651,
 -0.00001615,0.00000436,-0.00000651,0.00000230,-0.00001698,-0.00000002,
 0.00001949,0.00000966,0.00000011,0.00001952,0.00000963,-0.00000010,-0.
 00012673,-0.00010292,-0.00000006,0.00058799,0.00013832,0.00000013,0.46
 854917,-0.00009834,-0.00001172,0.00000002,-0.00002061,-0.00008572,-0.0
 0000002,-0.00005544,0.00001873,0.00000012,-0.00010125,-0.00029781,0.00
 000009,0.00005418,-0.00000515,0.,-0.00001001,0.00013244,-0.00000001,0.
 00013110,-0.00002247,-0.00000007,0.00002467,0.00002744,0.,-0.00001004,
 -0.00000142,0.,0.00006015,-0.00011014,-0.00000003,-0.00005088,0.000020
 25,0.00000003,-0.00129933,0.00067790,-0.00000030,-0.00204702,-0.004285
 95,-0.00000149,-0.04238414,0.01997276,-0.00000501,0.18820136,-0.117722
 58,0.00001656,0.00689105,-0.00224450,0.00000177,-0.00001394,-0.0000152
 2,0.,-0.00001353,0.00001836,0.,-0.00001184,0.00002119,0.00000004,0.000
 00488,0.00000169,0.,-0.00000349,0.00000051,0.00000624,-0.00000349,0.00
 000051,-0.00000625,0.00000255,-0.00000716,0.,0.00000773,0.00000340,0.0
 0000111,0.00000774,0.00000339,-0.00000111,-0.00004945,-0.00001851,-0.0
 0000005,-0.00007719,0.00009337,0.00000002,-0.14913543,0.10383641,-0.00
 000005,0.,-0.00002649,-0.00000008,-0.00000004,0.00009761,0.00000005,0.
 ,-0.00013942,0.00000008,-0.00000005,-0.00065397,0.,0.00000003,0.000023
 39,0.00000001,0.00000006,0.00004042,0.00000008,-0.00000003,-0.00001006
 ,0.00000003,0.00000004,-0.00000304,0.,-0.00000002,0.00002235,0.0000000
 3,-0.00000006,-0.00001949,-0.00000003,0.,0.00001367,-0.00000054,0.0000
 0013,0.00060242,-0.00000059,-0.00000213,0.00519068,-0.00001415,0.00000
 355,0.00443021,-0.00004208,0.00000873,-0.01656734,0.00000294,0.0000013
 6,-0.00605508,0.,0.,-0.00000628,0.,0.,-0.00000326,-0.00000002,0.000000
 03,0.00000873,0.,0.,0.00000080,-0.00000147,0.00000142,-0.00000464,0.00
 000147,-0.00000142,-0.00000464,0.,0.,0.00000455,0.00000298,0.00000335,
 -0.00000224,-0.00000297,-0.00000334,-0.00000226,-0.00000004,-0.0000000
 4,0.00022942,0.00000011,0.00000010,-0.00025525,0.00005425,-0.00001166,
 0.01308921\\0.00002584,-0.00000224,-0.00000486,0.00002630,0.00001869,0
 .00000056,-0.00001321,0.00001295,-0.00000027,0.00000578,-0.00000809,0.
 ,-0.00003407,-0.00000318,0.00000214,0.00001297,-0.00003182,0.00001368,
 -0.00001700,0.00000786,0.00000185,-0.00000573,0.00000182,0.00000019,0.
 00000707,-0.00001914,-0.00000009,0.00000063,0.00001751,-0.00002126,-0.
 00001001,0.00001993,0.00001583,-0.00001268,-0.00000524,-0.00000058,0.0
 0003343,-0.00001374,-0.00000437,-0.00004684,-0.00000291,0.00001346,0.0
 0001482,-0.00000860,-0.00000401,0.00000370,0.00002398,-0.00000517,0.00
 000177,0.00000060,0.,-0.00000202,-0.00000644,0.00000055,-0.00000253,-0
 .00000661,-0.00000250,0.00000464,0.00000326,-0.00000002,-0.00000374,0.
 00000355,-0.00000507,-0.00000374,0.00000362,0.00000500,-0.00000184,-0.
 00000675,-0.00000035,0.00000701,0.00000075,-0.00000555,0.00000642,0.00
 000662,0.00000086,0.00000582,0.00000509,0.00000024,-0.00000011,-0.0000
 0883,-0.00000022,-0.00000268,-0.00000264,-0.00000004\\\@


 Life may have no meaning.  Or even worse, it may have a
 meaning of which I disapprove.
                                 -- Ashleigh Brilliant
 Job cpu time:       0 days  1 hours 14 minutes 16.7 seconds.
 File lengths (MBytes):  RWF=    373 Int=      0 D2E=      0 Chk=     11 Scr=      1
 Normal termination of Gaussian 09 at Wed Jun 19 14:23:11 2024.
