 Entering Gaussian System, Link 0=g09
 Input=camb3lypSAyanggd3.gjf
 Output=camb3lypSAyanggd3.log
 Initial command:
 /home/c612/g09E/g09/l1.exe "/mnt/ja_sm883/scratch/Gau-247948.inp" -scrdir="/mnt/ja_sm883/scratch/"
 Default is to use a total of  18 processors:
                               18 via shared-memory
                                1 via Linda
 Entering Link 1 = /home/c612/g09E/g09/l1.exe PID=    247950.
  
 Copyright (c) 1988,1990,1992,1993,1995,1998,2003,2009,2015,
            Gaussian, Inc.  All Rights Reserved.
  
 This is part of the Gaussian(R) 09 program.  It is based on
 the Gaussian(R) 03 system (copyright 2003, Gaussian, Inc.),
 the Gaussian(R) 98 system (copyright 1998, Gaussian, Inc.),
 the Gaussian(R) 94 system (copyright 1995, Gaussian, Inc.),
 the Gaussian 92(TM) system (copyright 1992, Gaussian, Inc.),
 the Gaussian 90(TM) system (copyright 1990, Gaussian, Inc.),
 the Gaussian 88(TM) system (copyright 1988, Gaussian, Inc.),
 the Gaussian 86(TM) system (copyright 1986, Carnegie Mellon
 University), and the Gaussian 82(TM) system (copyright 1983,
 Carnegie Mellon University). Gaussian is a federally registered
 trademark of Gaussian, Inc.
  
 This software contains proprietary and confidential information,
 including trade secrets, belonging to Gaussian, Inc.
  
 This software is provided under written license and may be
 used, copied, transmitted, or stored only in accord with that
 written license.
  
 The following legend is applicable only to US Government
 contracts under FAR:
  
                    RESTRICTED RIGHTS LEGEND
  
 Use, reproduction and disclosure by the US Government is
 subject to restrictions as set forth in subparagraphs (a)
 and (c) of the Commercial Computer Software - Restricted
 Rights clause in FAR 52.227-19.
  
 Gaussian, Inc.
 340 Quinnipiac St., Bldg. 40, Wallingford CT 06492
  
  
 ---------------------------------------------------------------
 Warning -- This program may not be used in any manner that
 competes with the business of Gaussian, Inc. or will provide
 assistance to any competitor of Gaussian, Inc.  The licensee
 of this program is prohibited from giving any competitor of
 Gaussian, Inc. access to this program.  By using this program,
 the user acknowledges that Gaussian, Inc. is engaged in the
 business of creating and licensing software in the field of
 computational chemistry and represents and warrants to the
 licensee that it is not a competitor of Gaussian, Inc. and that
 it will not use this program in any manner prohibited above.
 ---------------------------------------------------------------
  

 Cite this work as:
 Gaussian 09, Revision E.01,
 M. J. Frisch, G. W. Trucks, H. B. Schlegel, G. E. Scuseria, 
 M. A. Robb, J. R. Cheeseman, G. Scalmani, V. Barone, B. Mennucci, 
 G. A. Petersson, H. Nakatsuji, M. Caricato, X. Li, H. P. Hratchian, 
 A. F. Izmaylov, J. Bloino, G. Zheng, J. L. Sonnenberg, M. Hada, 
 M. Ehara, K. Toyota, R. Fukuda, J. Hasegawa, M. Ishida, T. Nakajima, 
 Y. Honda, O. Kitao, H. Nakai, T. Vreven, J. A. Montgomery, Jr., 
 J. E. Peralta, F. Ogliaro, M. Bearpark, J. J. Heyd, E. Brothers, 
 K. N. Kudin, V. N. Staroverov, T. Keith, R. Kobayashi, J. Normand, 
 K. Raghavachari, A. Rendell, J. C. Burant, S. S. Iyengar, J. Tomasi, 
 M. Cossi, N. Rega, J. M. Millam, M. Klene, J. E. Knox, J. B. Cross, 
 V. Bakken, C. Adamo, J. Jaramillo, R. Gomperts, R. E. Stratmann, 
 O. Yazyev, A. J. Austin, R. Cammi, C. Pomelli, J. W. Ochterski, 
 R. L. Martin, K. Morokuma, V. G. Zakrzewski, G. A. Voth, 
 P. Salvador, J. J. Dannenberg, S. Dapprich, A. D. Daniels, 
 O. Farkas, J. B. Foresman, J. V. Ortiz, J. Cioslowski, 
 and D. J. Fox, Gaussian, Inc., Wallingford CT, 2013.
 
 ******************************************
 Gaussian 09:  ES64L-G09RevE.01 30-Nov-2015
                20-Jun-2024 
 ******************************************
 %chk=camb3lypSAyanggd3.chk
 --------------------------------
 # opt freq cam-b3lyp/6-31+g(d,p)
 --------------------------------
 1/14=-1,18=20,19=15,26=3,38=1/1,3;
 2/9=110,12=2,17=6,18=5,40=1/2;
 3/5=1,6=6,7=111,11=2,16=1,25=1,30=1,71=1,74=-40/1,2,3;
 4//1;
 5/5=2,38=5/2;
 6/7=2,8=2,9=2,10=2,28=1/1;
 7//1,2,3,16;
 1/14=-1,18=20,19=15,26=3/3(2);
 2/9=110/2;
 99//99;
 2/9=110/2;
 3/5=1,6=6,7=111,11=2,16=1,25=1,30=1,71=1,74=-40/1,2,3;
 4/5=5,16=3,69=1/1;
 5/5=2,38=5/2;
 7//1,2,3,16;
 1/14=-1,18=20,19=15,26=3/3(-5);
 2/9=110/2;
 6/7=2,8=2,9=2,10=2,19=2,28=1/1;
 99/9=1/99;
 ----------
 [No Title]
 ----------
 Symbolic Z-matrix:
 Charge =  1 Multiplicity = 1
 C                     2.40346  -0.20121  -0.00119 
 C                     1.92945   1.13763   0.00667 
 C                     0.55988   1.3535    0.01142 
 C                    -0.35994   0.264     0.00883 
 C                     0.13002  -1.07439  -0.00211 
 C                     1.49101  -1.29549  -0.00532 
 O                     3.71245  -0.41779  -0.0055 
 O                     2.88924   2.07994   0.00869 
 C                     2.50353   3.4587    0.01766 
 O                     2.1257   -2.4949   -0.01409 
 C                     1.34835  -3.70094  -0.01895 
 C                    -1.73929   0.5716    0.01302 
 C                    -2.81042  -0.32126   0.01696 
 C                    -4.12621   0.11452  -0.00148 
 O                    -5.0951   -0.78522   0.11096 
 O                    -4.42313   1.40328  -0.13955 
 H                     0.1698    2.36396   0.01752 
 H                    -0.55689  -1.90999  -0.00721 
 H                     3.87974  -1.37796  -0.01136 
 H                     3.43676   4.01976   0.01828 
 H                     1.92469   3.70808  -0.87884 
 H                     1.9297    3.69772   0.92019 
 H                     2.071    -4.51534  -0.02582 
 H                     0.73001  -3.76205   0.88269 
 H                     0.72487  -3.75164  -0.91769 
 H                    -1.99113   1.62986   0.01167 
 H                    -2.67766  -1.39543   0.03616 
 H                    -5.97424  -0.46896  -0.15256 
 H                    -5.31893   1.63951   0.14973 
 

 GradGradGradGradGradGradGradGradGradGradGradGradGradGradGradGradGradGrad
 Berny optimization.
 Initialization pass.
                           ----------------------------
                           !    Initial Parameters    !
                           ! (Angstroms and Degrees)  !
 --------------------------                            --------------------------
 ! Name  Definition              Value          Derivative Info.                !
 --------------------------------------------------------------------------------
 ! R1    R(1,2)                  1.4203         estimate D2E/DX2                !
 ! R2    R(1,6)                  1.4248         estimate D2E/DX2                !
 ! R3    R(1,7)                  1.3268         estimate D2E/DX2                !
 ! R4    R(2,3)                  1.3865         estimate D2E/DX2                !
 ! R5    R(2,8)                  1.345          estimate D2E/DX2                !
 ! R6    R(3,4)                  1.4259         estimate D2E/DX2                !
 ! R7    R(3,17)                 1.0832         estimate D2E/DX2                !
 ! R8    R(4,5)                  1.4253         estimate D2E/DX2                !
 ! R9    R(4,12)                 1.4132         estimate D2E/DX2                !
 ! R10   R(5,6)                  1.3788         estimate D2E/DX2                !
 ! R11   R(5,18)                 1.0817         estimate D2E/DX2                !
 ! R12   R(6,10)                 1.357          estimate D2E/DX2                !
 ! R13   R(7,19)                 0.9746         estimate D2E/DX2                !
 ! R14   R(8,9)                  1.4317         estimate D2E/DX2                !
 ! R15   R(9,20)                 1.0889         estimate D2E/DX2                !
 ! R16   R(9,21)                 1.0959         estimate D2E/DX2                !
 ! R17   R(9,22)                 1.0959         estimate D2E/DX2                !
 ! R18   R(10,11)                1.4349         estimate D2E/DX2                !
 ! R19   R(11,23)                1.0888         estimate D2E/DX2                !
 ! R20   R(11,24)                1.095          estimate D2E/DX2                !
 ! R21   R(11,25)                1.095          estimate D2E/DX2                !
 ! R22   R(12,13)                1.3945         estimate D2E/DX2                !
 ! R23   R(12,26)                1.0878         estimate D2E/DX2                !
 ! R24   R(13,14)                1.3862         estimate D2E/DX2                !
 ! R25   R(13,27)                1.0825         estimate D2E/DX2                !
 ! R26   R(14,15)                1.327          estimate D2E/DX2                !
 ! R27   R(14,16)                1.3297         estimate D2E/DX2                !
 ! R28   R(15,28)                0.9707         estimate D2E/DX2                !
 ! R29   R(16,29)                0.9705         estimate D2E/DX2                !
 ! A1    A(2,1,6)              120.6814         estimate D2E/DX2                !
 ! A2    A(2,1,7)              118.8914         estimate D2E/DX2                !
 ! A3    A(6,1,7)              120.4272         estimate D2E/DX2                !
 ! A4    A(1,2,3)              118.4541         estimate D2E/DX2                !
 ! A5    A(1,2,8)              114.9778         estimate D2E/DX2                !
 ! A6    A(3,2,8)              126.568          estimate D2E/DX2                !
 ! A7    A(2,3,4)              121.2148         estimate D2E/DX2                !
 ! A8    A(2,3,17)             120.0664         estimate D2E/DX2                !
 ! A9    A(4,3,17)             118.7188         estimate D2E/DX2                !
 ! A10   A(3,4,5)              119.7203         estimate D2E/DX2                !
 ! A11   A(3,4,12)             117.6007         estimate D2E/DX2                !
 ! A12   A(5,4,12)             122.6787         estimate D2E/DX2                !
 ! A13   A(4,5,6)              119.3345         estimate D2E/DX2                !
 ! A14   A(4,5,18)             120.4722         estimate D2E/DX2                !
 ! A15   A(6,5,18)             120.1933         estimate D2E/DX2                !
 ! A16   A(1,6,5)              120.5945         estimate D2E/DX2                !
 ! A17   A(1,6,10)             112.2915         estimate D2E/DX2                !
 ! A18   A(5,6,10)             127.1139         estimate D2E/DX2                !
 ! A19   A(1,7,19)             109.2787         estimate D2E/DX2                !
 ! A20   A(2,8,9)              118.845          estimate D2E/DX2                !
 ! A21   A(8,9,20)             105.3855         estimate D2E/DX2                !
 ! A22   A(8,9,21)             110.8741         estimate D2E/DX2                !
 ! A23   A(8,9,22)             110.871          estimate D2E/DX2                !
 ! A24   A(20,9,21)            109.627          estimate D2E/DX2                !
 ! A25   A(20,9,22)            109.628          estimate D2E/DX2                !
 ! A26   A(21,9,22)            110.3353         estimate D2E/DX2                !
 ! A27   A(6,10,11)            119.3108         estimate D2E/DX2                !
 ! A28   A(10,11,23)           105.6134         estimate D2E/DX2                !
 ! A29   A(10,11,24)           110.4901         estimate D2E/DX2                !
 ! A30   A(10,11,25)           110.4976         estimate D2E/DX2                !
 ! A31   A(23,11,24)           109.7696         estimate D2E/DX2                !
 ! A32   A(23,11,25)           109.7613         estimate D2E/DX2                !
 ! A33   A(24,11,25)           110.5918         estimate D2E/DX2                !
 ! A34   A(4,12,13)            127.615          estimate D2E/DX2                !
 ! A35   A(4,12,26)            115.9568         estimate D2E/DX2                !
 ! A36   A(13,12,26)           116.4282         estimate D2E/DX2                !
 ! A37   A(12,13,14)           121.8558         estimate D2E/DX2                !
 ! A38   A(12,13,27)           122.7655         estimate D2E/DX2                !
 ! A39   A(14,13,27)           115.3787         estimate D2E/DX2                !
 ! A40   A(13,14,15)           118.6052         estimate D2E/DX2                !
 ! A41   A(13,14,16)           121.2            estimate D2E/DX2                !
 ! A42   A(15,14,16)           120.1924         estimate D2E/DX2                !
 ! A43   A(14,15,28)           114.6669         estimate D2E/DX2                !
 ! A44   A(14,16,29)           114.2718         estimate D2E/DX2                !
 ! D1    D(6,1,2,3)              0.0567         estimate D2E/DX2                !
 ! D2    D(6,1,2,8)           -179.9423         estimate D2E/DX2                !
 ! D3    D(7,1,2,3)           -179.9859         estimate D2E/DX2                !
 ! D4    D(7,1,2,8)              0.015          estimate D2E/DX2                !
 ! D5    D(2,1,6,5)              0.017          estimate D2E/DX2                !
 ! D6    D(2,1,6,10)           179.9379         estimate D2E/DX2                !
 ! D7    D(7,1,6,5)           -179.9397         estimate D2E/DX2                !
 ! D8    D(7,1,6,10)            -0.0188         estimate D2E/DX2                !
 ! D9    D(2,1,7,19)          -179.9595         estimate D2E/DX2                !
 ! D10   D(6,1,7,19)            -0.002          estimate D2E/DX2                !
 ! D11   D(1,2,3,4)              0.0131         estimate D2E/DX2                !
 ! D12   D(1,2,3,17)           179.995          estimate D2E/DX2                !
 ! D13   D(8,2,3,4)           -179.988          estimate D2E/DX2                !
 ! D14   D(8,2,3,17)            -0.0061         estimate D2E/DX2                !
 ! D15   D(1,2,8,9)           -179.9471         estimate D2E/DX2                !
 ! D16   D(3,2,8,9)              0.054          estimate D2E/DX2                !
 ! D17   D(2,3,4,5)             -0.1539         estimate D2E/DX2                !
 ! D18   D(2,3,4,12)          -179.9533         estimate D2E/DX2                !
 ! D19   D(17,3,4,5)           179.8639         estimate D2E/DX2                !
 ! D20   D(17,3,4,12)            0.0645         estimate D2E/DX2                !
 ! D21   D(3,4,5,6)              0.2252         estimate D2E/DX2                !
 ! D22   D(3,4,5,18)          -179.8145         estimate D2E/DX2                !
 ! D23   D(12,4,5,6)          -179.9861         estimate D2E/DX2                !
 ! D24   D(12,4,5,18)           -0.0258         estimate D2E/DX2                !
 ! D25   D(3,4,12,13)         -179.72           estimate D2E/DX2                !
 ! D26   D(3,4,12,26)            0.3684         estimate D2E/DX2                !
 ! D27   D(5,4,12,13)            0.487          estimate D2E/DX2                !
 ! D28   D(5,4,12,26)         -179.4246         estimate D2E/DX2                !
 ! D29   D(4,5,6,1)             -0.1578         estimate D2E/DX2                !
 ! D30   D(4,5,6,10)           179.9341         estimate D2E/DX2                !
 ! D31   D(18,5,6,1)           179.8819         estimate D2E/DX2                !
 ! D32   D(18,5,6,10)           -0.0263         estimate D2E/DX2                !
 ! D33   D(1,6,10,11)          179.9871         estimate D2E/DX2                !
 ! D34   D(5,6,10,11)           -0.0983         estimate D2E/DX2                !
 ! D35   D(2,8,9,20)           179.9653         estimate D2E/DX2                !
 ! D36   D(2,8,9,21)           -61.4936         estimate D2E/DX2                !
 ! D37   D(2,8,9,22)            61.4246         estimate D2E/DX2                !
 ! D38   D(6,10,11,23)         179.9951         estimate D2E/DX2                !
 ! D39   D(6,10,11,24)         -61.3621         estimate D2E/DX2                !
 ! D40   D(6,10,11,25)          61.3583         estimate D2E/DX2                !
 ! D41   D(4,12,13,14)        -178.9124         estimate D2E/DX2                !
 ! D42   D(4,12,13,27)           1.1938         estimate D2E/DX2                !
 ! D43   D(26,12,13,14)          0.9988         estimate D2E/DX2                !
 ! D44   D(26,12,13,27)       -178.895          estimate D2E/DX2                !
 ! D45   D(12,13,14,15)       -174.7077         estimate D2E/DX2                !
 ! D46   D(12,13,14,16)          5.8441         estimate D2E/DX2                !
 ! D47   D(27,13,14,15)          5.1934         estimate D2E/DX2                !
 ! D48   D(27,13,14,16)       -174.2548         estimate D2E/DX2                !
 ! D49   D(13,14,15,28)       -163.7235         estimate D2E/DX2                !
 ! D50   D(16,14,15,28)         15.7304         estimate D2E/DX2                !
 ! D51   D(13,14,16,29)       -160.6533         estimate D2E/DX2                !
 ! D52   D(15,14,16,29)         19.9072         estimate D2E/DX2                !
 --------------------------------------------------------------------------------
 Trust Radius=3.00D-01 FncErr=1.00D-07 GrdErr=1.00D-06
 Number of steps in this run=    135 maximum allowed number of steps=    174.
 GradGradGradGradGradGradGradGradGradGradGradGradGradGradGradGradGradGrad

                          Input orientation:                          
 ---------------------------------------------------------------------
 Center     Atomic      Atomic             Coordinates (Angstroms)
 Number     Number       Type             X           Y           Z
 ---------------------------------------------------------------------
      1          6           0        2.403464   -0.201213   -0.001190
      2          6           0        1.929454    1.137626    0.006668
      3          6           0        0.559877    1.353499    0.011423
      4          6           0       -0.359937    0.263997    0.008829
      5          6           0        0.130023   -1.074387   -0.002110
      6          6           0        1.491010   -1.295490   -0.005319
      7          8           0        3.712449   -0.417787   -0.005500
      8          8           0        2.889235    2.079945    0.008689
      9          6           0        2.503529    3.458695    0.017661
     10          8           0        2.125696   -2.494895   -0.014091
     11          6           0        1.348352   -3.700938   -0.018953
     12          6           0       -1.739293    0.571600    0.013020
     13          6           0       -2.810420   -0.321264    0.016962
     14          6           0       -4.126211    0.114520   -0.001475
     15          8           0       -5.095099   -0.785215    0.110963
     16          8           0       -4.423130    1.403276   -0.139545
     17          1           0        0.169798    2.363964    0.017522
     18          1           0       -0.556888   -1.909991   -0.007206
     19          1           0        3.879738   -1.377955   -0.011360
     20          1           0        3.436758    4.019760    0.018284
     21          1           0        1.924689    3.708079   -0.878842
     22          1           0        1.929695    3.697716    0.920188
     23          1           0        2.071003   -4.515336   -0.025815
     24          1           0        0.730006   -3.762047    0.882685
     25          1           0        0.724868   -3.751638   -0.917693
     26          1           0       -1.991125    1.629857    0.011667
     27          1           0       -2.677658   -1.395434    0.036158
     28          1           0       -5.974241   -0.468956   -0.152558
     29          1           0       -5.318929    1.639514    0.149733
 ---------------------------------------------------------------------
                    Distance matrix (angstroms):
                    1          2          3          4          5
     1  C    0.000000
     2  C    1.420295   0.000000
     3  C    2.411659   1.386494   0.000000
     4  C    2.802304   2.450417   1.425861   0.000000
     5  C    2.435358   2.851496   2.465682   1.425290   0.000000
     6  C    1.424792   2.472333   2.807923   2.420373   1.378834
     7  O    1.326787   2.366121   3.616138   4.129087   3.642103
     8  O    2.332328   1.345046   2.440008   3.722202   4.190845
     9  C    3.661324   2.391034   2.865253   4.290176   5.116909
    10  O    2.310476   3.637877   4.154826   3.713540   2.449632
    11  C    3.655359   4.873401   5.115657   4.317376   2.895407
    12  C    4.214247   3.712160   2.428487   1.413245   2.490752
    13  C    5.215298   4.959322   3.763478   2.519417   3.035418
    14  C    6.537304   6.141489   4.847129   3.769253   4.419166
    15  O    7.522106   7.283717   6.046715   4.851086   5.234339
    16  O    7.013980   6.359817   4.985542   4.222500   5.185451
    17  H    3.401433   2.144857   1.083161   2.165769   3.438637
    18  H    3.418134   3.933200   3.449330   2.182950   1.081715
    19  H    1.887912   3.183093   4.299167   4.546566   3.761994
    20  H    4.345652   3.252506   3.922428   5.340481   6.073322
    21  H    4.035104   2.718709   2.863447   4.227195   5.182805
    22  H    4.034234   2.718194   2.863147   4.226513   5.182897
    23  H    4.326984   5.654827   6.060372   5.362154   3.950708
    24  H    4.032522   5.119851   5.191999   4.261529   2.892466
    25  H    4.032763   5.119607   5.191618   4.261522   2.891333
    26  H    4.760819   3.951361   2.565928   2.127523   3.436916
    27  H    5.219709   5.257637   4.247220   2.850665   2.826236
    28  H    8.383349   8.066899   6.785494   5.664245   6.136059
    29  H    7.940177   7.267146   5.887384   5.148155   6.089285
                    6          7          8          9         10
     6  C    0.000000
     7  O    2.388546   0.000000
     8  O    3.653600   2.629933   0.000000
     9  C    4.860864   4.060682   1.431713   0.000000
    10  O    1.357010   2.613855   4.638175   5.965652   0.000000
    11  C    2.409713   4.045765   5.982783   7.252318   1.434861
    12  C    3.731115   5.540823   4.868100   5.131947   4.933788
    13  C    4.410432   6.523622   6.184815   6.521207   5.393596
    14  C    5.791486   7.856714   7.285567   7.425451   6.774625
    15  O    6.606870   8.815978   8.483466   8.703943   7.421491
    16  O    6.502185   8.337978   7.345103   7.226899   7.622244
    17  H    3.890723   4.504336   2.734243   2.577739   5.237848
    18  H    2.138107   4.522600   5.272154   6.179770   2.745618
    19  H    2.390159   0.974650   3.597022   5.028715   2.079477
    20  H    5.660245   4.446166   2.015628   1.088903   6.645349
    21  H    5.097727   4.580566   2.090187   1.095886   6.266186
    22  H    5.097167   4.579571   2.090151   1.095888   6.265758
    23  H    3.271730   4.414144   6.645933   7.985871   2.021215
    24  H    2.729759   4.568141   6.289277   7.485504   2.087542
    25  H    2.729847   4.568621   6.288881   7.485147   2.087635
    26  H    4.547879   6.060025   4.901071   4.852484   5.827732
    27  H    4.170072   6.464596   6.562721   7.099832   4.927834
    28  H    7.512311   9.687941   9.224104   9.344945   8.350604
    29  H    7.417113   9.264037   8.221182   8.032292   8.517195
                   11         12         13         14         15
    11  C    0.000000
    12  C    5.271542   0.000000
    13  C    5.358999   1.394466   0.000000
    14  C    6.672995   2.430331   1.386201   0.000000
    15  O    7.073640   3.621046   2.333205   1.326993   0.000000
    16  O    7.705683   2.813884   2.366298   1.329705   2.302996
    17  H    6.178459   2.618629   4.011502   4.849335   6.135568
    18  H    2.614874   2.748961   2.757362   4.103504   4.677012
    19  H    3.435727   5.947678   6.773154   8.143881   8.995221
    20  H    7.998250   6.219432   7.607347   8.511744   9.792291
    21  H    7.480983   4.904863   6.281666   7.092026   8.393261
    22  H    7.480643   4.904796   6.279865   7.096672   8.372529
    23  H    1.088814   6.355846   6.435865   7.735737   8.079946
    24  H    1.095006   5.063028   5.012293   6.276333   6.587028
    25  H    1.095005   5.062480   5.013911   6.270534   6.612852
    26  H    6.290502   1.087809   2.116163   2.618208   3.934093
    27  H    4.639735   2.179515   1.082513   2.092769   2.494391
    28  H    8.005244   4.364053   3.171800   1.943833   0.970749
    29  H    8.544093   3.738038   3.186675   1.941918   2.435347
                   16         17         18         19         20
    16  O    0.000000
    17  H    4.694953   0.000000
    18  H    5.093435   4.335363   0.000000
    19  H    8.757242   5.269388   4.468415   0.000000
    20  H    8.285453   3.662607   7.149252   5.415943   0.000000
    21  H    6.793635   2.385321   6.203280   5.517471   1.785590
    22  H    6.837095   2.385569   6.203993   5.516601   1.785604
    23  H    8.787301   7.137312   3.700538   3.621449   8.643789
    24  H    7.367518   6.212113   2.424482   4.050188   8.284336
    25  H    7.326700   6.211547   2.421477   4.050804   8.284022
    26  H    2.447213   2.282222   3.819413   6.596552   5.930733
    27  H    3.303078   4.716082   2.182731   6.557591   8.167664
    28  H    2.431330   6.767834   5.607622   9.896824  10.428071
    29  H    0.970539   5.537909   5.941435   9.682280   9.074409
                   21         22         23         24         25
    21  H    0.000000
    22  H    1.799067   0.000000
    23  H    8.268834   8.268562   0.000000
    24  H    7.767434   7.555708   1.786362   0.000000
    25  H    7.555690   7.766743   1.786270   1.800415   0.000000
    26  H    4.521682   4.524851   7.366525   6.102119   6.099247
    27  H    6.932869   6.924550   5.682201   4.234340   4.247201
    28  H    8.964832   8.999119   9.006398   7.540763   7.499300
    29  H    7.603087   7.574454   9.618944   8.142708   8.168929
                   26         27         28         29
    26  H    0.000000
    27  H    3.102308   0.000000
    28  H    4.505241   3.429495   0.000000
    29  H    3.330681   4.024937   2.228555   0.000000
 Stoichiometry    C11H13O5(1+)
 Framework group  C1[X(C11H13O5)]
 Deg. of freedom    81
 Full point group                 C1      NOp   1
 Largest Abelian subgroup         C1      NOp   1
 Largest concise Abelian subgroup C1      NOp   1
                         Standard orientation:                         
 ---------------------------------------------------------------------
 Center     Atomic      Atomic             Coordinates (Angstroms)
 Number     Number       Type             X           Y           Z
 ---------------------------------------------------------------------
      1          6           0       -2.403464    0.201213   -0.001190
      2          6           0       -1.929454   -1.137626    0.006668
      3          6           0       -0.559877   -1.353499    0.011423
      4          6           0        0.359937   -0.263997    0.008829
      5          6           0       -0.130023    1.074387   -0.002110
      6          6           0       -1.491010    1.295490   -0.005319
      7          8           0       -3.712449    0.417787   -0.005500
      8          8           0       -2.889235   -2.079945    0.008689
      9          6           0       -2.503529   -3.458695    0.017661
     10          8           0       -2.125696    2.494895   -0.014091
     11          6           0       -1.348352    3.700938   -0.018953
     12          6           0        1.739293   -0.571600    0.013020
     13          6           0        2.810420    0.321264    0.016962
     14          6           0        4.126211   -0.114520   -0.001475
     15          8           0        5.095099    0.785215    0.110963
     16          8           0        4.423130   -1.403276   -0.139545
     17          1           0       -0.169798   -2.363964    0.017522
     18          1           0        0.556888    1.909991   -0.007206
     19          1           0       -3.879738    1.377955   -0.011360
     20          1           0       -3.436758   -4.019760    0.018284
     21          1           0       -1.924689   -3.708079   -0.878842
     22          1           0       -1.929695   -3.697716    0.920188
     23          1           0       -2.071003    4.515336   -0.025815
     24          1           0       -0.730006    3.762047    0.882685
     25          1           0       -0.724868    3.751638   -0.917693
     26          1           0        1.991125   -1.629857    0.011667
     27          1           0        2.677658    1.395434    0.036158
     28          1           0        5.974241    0.468956   -0.152558
     29          1           0        5.318929   -1.639514    0.149733
 ---------------------------------------------------------------------
 Rotational constants (GHZ):      0.7073097      0.2727583      0.1974394
 Standard basis: 6-31+G(d,p) (6D, 7F)
 There are   369 symmetry adapted cartesian basis functions of A   symmetry.
 There are   369 symmetry adapted basis functions of A   symmetry.
   369 basis functions,   603 primitive gaussians,   369 cartesian basis functions
    59 alpha electrons       59 beta electrons
       nuclear repulsion energy      1069.8958308758 Hartrees.
 NAtoms=   29 NActive=   29 NUniq=   29 SFac= 1.00D+00 NAtFMM=   60 NAOKFM=F Big=F
 Integral buffers will be    131072 words long.
 Raffenetti 2 integral format.
 Two-electron integral symmetry is turned on.
 One-electron integrals computed using PRISM.
 NBasis=   369 RedAO= T EigKep=  1.48D-06  NBF=   369
 NBsUse=   367 1.00D-06 EigRej=  7.98D-07 NBFU=   367
 ExpMin= 4.38D-02 ExpMax= 5.48D+03 ExpMxC= 8.25D+02 IAcc=2 IRadAn=         4 AccDes= 0.00D+00
 Harris functional with IExCor=20419 and IRadAn=       4 diagonalized for initial guess.
 HarFok:  IExCor=20419 AccDes= 0.00D+00 IRadAn=         4 IDoV= 1 UseB2=F ITyADJ=14
 ICtDFT=  3500011 ScaDFX=  1.000000  1.000000  1.000000  1.000000
 FoFCou: FMM=F IPFlag=           0 FMFlag=      100000 FMFlg1=           0
         NFxFlg=           0 DoJE=T BraDBF=F KetDBF=T FulRan=T
         wScrn=  0.000000 ICntrl=     500 IOpCl=  0 I1Cent=   200000004 NGrid=           0
         NMat0=    1 NMatS0=      1 NMatT0=    0 NMatD0=    1 NMtDS0=    0 NMtDT0=    0
 Petite list used in FoFCou.
 Requested convergence on RMS density matrix=1.00D-08 within 128 cycles.
 Requested convergence on MAX density matrix=1.00D-06.
 Requested convergence on             energy=1.00D-06.
 No special actions if energy rises.
 SCF Done:  E(RCAM-B3LYP) =  -802.520143994     A.U. after   17 cycles
            NFock= 17  Conv=0.27D-08     -V/T= 2.0091

 **********************************************************************

            Population analysis using the SCF density.

 **********************************************************************

 Orbital symmetries:
       Occupied  (A) (A) (A) (A) (A) (A) (A) (A) (A) (A) (A) (A)
                 (A) (A) (A) (A) (A) (A) (A) (A) (A) (A) (A) (A)
                 (A) (A) (A) (A) (A) (A) (A) (A) (A) (A) (A) (A)
                 (A) (A) (A) (A) (A) (A) (A) (A) (A) (A) (A) (A)
                 (A) (A) (A) (A) (A) (A) (A) (A) (A) (A) (A)
       Virtual   (A) (A) (A) (A) (A) (A) (A) (A) (A) (A) (A) (A)
                 (A) (A) (A) (A) (A) (A) (A) (A) (A) (A) (A) (A)
                 (A) (A) (A) (A) (A) (A) (A) (A) (A) (A) (A) (A)
                 (A) (A) (A) (A) (A) (A) (A) (A) (A) (A) (A) (A)
                 (A) (A) (A) (A) (A) (A) (A) (A) (A) (A) (A) (A)
                 (A) (A) (A) (A) (A) (A) (A) (A) (A) (A) (A) (A)
                 (A) (A) (A) (A) (A) (A) (A) (A) (A) (A) (A) (A)
                 (A) (A) (A) (A) (A) (A) (A) (A) (A) (A) (A) (A)
                 (A) (A) (A) (A) (A) (A) (A) (A) (A) (A) (A) (A)
                 (A) (A) (A) (A) (A) (A) (A) (A) (A) (A) (A) (A)
                 (A) (A) (A) (A) (A) (A) (A) (A) (A) (A) (A) (A)
                 (A) (A) (A) (A) (A) (A) (A) (A) (A) (A) (A) (A)
                 (A) (A) (A) (A) (A) (A) (A) (A) (A) (A) (A) (A)
                 (A) (A) (A) (A) (A) (A) (A) (A) (A) (A) (A) (A)
                 (A) (A) (A) (A) (A) (A) (A) (A) (A) (A) (A) (A)
                 (A) (A) (A) (A) (A) (A) (A) (A) (A) (A) (A) (A)
                 (A) (A) (A) (A) (A) (A) (A) (A) (A) (A) (A) (A)
                 (A) (A) (A) (A) (A) (A) (A) (A) (A) (A) (A) (A)
                 (A) (A) (A) (A) (A) (A) (A) (A) (A) (A) (A) (A)
                 (A) (A) (A) (A) (A) (A) (A) (A) (A) (A) (A) (A)
                 (A) (A) (A) (A) (A) (A) (A) (A) (A) (A) (A) (A)
                 (A) (A) (A) (A) (A) (A) (A) (A) (A) (A) (A) (A)
                 (A) (A) (A) (A) (A) (A) (A) (A) (A) (A) (A) (A)
                 (A) (A) (A) (A) (A) (A) (A) (A) (A) (A) (A) (A)
                 (A) (A) (A) (A) (A) (A) (A) (A) (A) (A) (A) (A)
                 (A) (A) (A) (A) (A) (A) (A) (A)
 The electronic state is 1-A.
 Alpha  occ. eigenvalues --  -19.46389 -19.46198 -19.39890 -19.39566 -19.37515
 Alpha  occ. eigenvalues --  -10.59443 -10.48392 -10.47000 -10.46338 -10.46104
 Alpha  occ. eigenvalues --  -10.43481 -10.42498 -10.42484 -10.41947 -10.41549
 Alpha  occ. eigenvalues --  -10.41348  -1.39367  -1.31524  -1.30833  -1.27850
 Alpha  occ. eigenvalues --   -1.26453  -1.09191  -1.05233  -0.99411  -0.97780
 Alpha  occ. eigenvalues --   -0.92993  -0.92158  -0.88780  -0.86838  -0.85421
 Alpha  occ. eigenvalues --   -0.81073  -0.78646  -0.77193  -0.74947  -0.72628
 Alpha  occ. eigenvalues --   -0.71366  -0.70887  -0.69648  -0.67984  -0.67614
 Alpha  occ. eigenvalues --   -0.66902  -0.65489  -0.64474  -0.62088  -0.61925
 Alpha  occ. eigenvalues --   -0.61644  -0.61441  -0.59868  -0.59658  -0.58608
 Alpha  occ. eigenvalues --   -0.57218  -0.55607  -0.54100  -0.53941  -0.52491
 Alpha  occ. eigenvalues --   -0.51696  -0.47778  -0.41725  -0.38998
 Alpha virt. eigenvalues --   -0.20937  -0.12513  -0.09361  -0.07694  -0.07304
 Alpha virt. eigenvalues --   -0.07044  -0.06402  -0.05677  -0.04254  -0.03900
 Alpha virt. eigenvalues --   -0.03426  -0.02802  -0.02556  -0.02330  -0.01709
 Alpha virt. eigenvalues --   -0.01217  -0.00514   0.00607   0.00804   0.01039
 Alpha virt. eigenvalues --    0.01596   0.02732   0.02903   0.03711   0.04281
 Alpha virt. eigenvalues --    0.04970   0.05543   0.06105   0.06320   0.06624
 Alpha virt. eigenvalues --    0.06836   0.07130   0.07547   0.07749   0.07981
 Alpha virt. eigenvalues --    0.08507   0.08610   0.09800   0.10127   0.10436
 Alpha virt. eigenvalues --    0.10777   0.11523   0.12164   0.12430   0.12993
 Alpha virt. eigenvalues --    0.13571   0.14134   0.14823   0.15015   0.15304
 Alpha virt. eigenvalues --    0.16282   0.16526   0.16911   0.17612   0.18531
 Alpha virt. eigenvalues --    0.18637   0.18774   0.19166   0.19342   0.19461
 Alpha virt. eigenvalues --    0.19754   0.20063   0.21095   0.21452   0.22419
 Alpha virt. eigenvalues --    0.23075   0.23689   0.23809   0.24529   0.25114
 Alpha virt. eigenvalues --    0.25367   0.25558   0.26014   0.26211   0.27409
 Alpha virt. eigenvalues --    0.27581   0.28978   0.29231   0.29744   0.30151
 Alpha virt. eigenvalues --    0.30819   0.31570   0.31938   0.33119   0.34407
 Alpha virt. eigenvalues --    0.34799   0.35797   0.38601   0.39521   0.39839
 Alpha virt. eigenvalues --    0.40745   0.42963   0.46196   0.48942   0.51208
 Alpha virt. eigenvalues --    0.55073   0.58193   0.59126   0.59309   0.59610
 Alpha virt. eigenvalues --    0.62012   0.62619   0.62883   0.64006   0.64659
 Alpha virt. eigenvalues --    0.64761   0.65611   0.66855   0.67191   0.67997
 Alpha virt. eigenvalues --    0.68678   0.69146   0.71127   0.71773   0.73766
 Alpha virt. eigenvalues --    0.78299   0.79154   0.80429   0.82604   0.84148
 Alpha virt. eigenvalues --    0.84949   0.85993   0.86494   0.87009   0.87492
 Alpha virt. eigenvalues --    0.88038   0.89917   0.94546   0.95219   0.97187
 Alpha virt. eigenvalues --    0.98525   0.99362   1.00203   1.02060   1.03324
 Alpha virt. eigenvalues --    1.04490   1.05414   1.06900   1.07600   1.08376
 Alpha virt. eigenvalues --    1.10628   1.11196   1.11415   1.12489   1.12973
 Alpha virt. eigenvalues --    1.13993   1.14772   1.15152   1.15930   1.16213
 Alpha virt. eigenvalues --    1.17220   1.17473   1.19286   1.20158   1.20977
 Alpha virt. eigenvalues --    1.21076   1.22733   1.23844   1.24795   1.25052
 Alpha virt. eigenvalues --    1.26108   1.26486   1.26951   1.28703   1.31152
 Alpha virt. eigenvalues --    1.32010   1.32691   1.33057   1.35468   1.36711
 Alpha virt. eigenvalues --    1.39968   1.41396   1.43189   1.45414   1.46889
 Alpha virt. eigenvalues --    1.48465   1.49444   1.50788   1.53344   1.53729
 Alpha virt. eigenvalues --    1.54139   1.56218   1.60042   1.62647   1.65075
 Alpha virt. eigenvalues --    1.67366   1.69331   1.72041   1.74040   1.74246
 Alpha virt. eigenvalues --    1.76775   1.77700   1.77948   1.80538   1.81497
 Alpha virt. eigenvalues --    1.81923   1.83272   1.84335   1.86198   1.86642
 Alpha virt. eigenvalues --    1.88120   1.89788   1.90208   1.91116   1.92156
 Alpha virt. eigenvalues --    1.93357   1.96358   1.98011   1.99396   1.99779
 Alpha virt. eigenvalues --    2.01928   2.02321   2.03098   2.03289   2.04633
 Alpha virt. eigenvalues --    2.07923   2.08429   2.10736   2.11684   2.12901
 Alpha virt. eigenvalues --    2.14265   2.15630   2.18034   2.20096   2.20689
 Alpha virt. eigenvalues --    2.22916   2.26612   2.27115   2.29790   2.31713
 Alpha virt. eigenvalues --    2.32274   2.35232   2.37534   2.40112   2.41740
 Alpha virt. eigenvalues --    2.42305   2.44161   2.45165   2.46959   2.47579
 Alpha virt. eigenvalues --    2.48796   2.50050   2.51232   2.52371   2.53731
 Alpha virt. eigenvalues --    2.55139   2.56207   2.57105   2.59498   2.60185
 Alpha virt. eigenvalues --    2.62268   2.62516   2.63961   2.65487   2.66288
 Alpha virt. eigenvalues --    2.66600   2.69017   2.70392   2.72684   2.75114
 Alpha virt. eigenvalues --    2.77765   2.78795   2.79256   2.81282   2.82345
 Alpha virt. eigenvalues --    2.82610   2.84666   2.87376   2.90812   2.91970
 Alpha virt. eigenvalues --    2.94215   3.01924   3.02960   3.10233   3.13523
 Alpha virt. eigenvalues --    3.14961   3.15341   3.20220   3.21980   3.24115
 Alpha virt. eigenvalues --    3.31630   3.35901   3.37220   3.38090   3.38698
 Alpha virt. eigenvalues --    3.39434   3.43796   3.45140   3.49786   3.51298
 Alpha virt. eigenvalues --    3.55182   3.69126   4.12279   4.18301   4.21833
 Alpha virt. eigenvalues --    4.28375   4.29009   4.33487   4.34772   4.40131
 Alpha virt. eigenvalues --    4.43324   4.46237   4.52426   4.56831   4.61431
 Alpha virt. eigenvalues --    4.73385   4.77592   5.25470
          Condensed to atoms (all electrons):
               1          2          3          4          5          6
     1  C   21.444933  -0.733177  -6.536498   0.056045  -6.133177   0.443088
     2  C   -0.733177  18.275834  -1.215458  -2.579913  -0.380242  -6.216327
     3  C   -6.536498  -1.215458  21.872985  -0.211221  -1.314953  -3.670829
     4  C    0.056045  -2.579913  -0.211221  14.522569  -1.913649  -2.267696
     5  C   -6.133177  -0.380242  -1.314953  -1.913649  13.332757   0.799176
     6  C    0.443088  -6.216327  -3.670829  -2.267696   0.799176  16.779751
     7  O    0.190026  -0.881611  -0.028665  -0.051708   0.137478   0.602684
     8  O   -0.707649   0.315778   0.417251   0.009480   0.002283  -0.006292
     9  C    0.183973  -0.174726  -0.070463  -0.176798   0.011289   0.097790
    10  O   -0.663984   0.088957   0.001404  -0.006481   0.296418   0.224571
    11  C   -0.025058   0.058036   0.049118  -0.024386   0.027147  -0.201743
    12  C   -1.376112  -0.555791  -1.508230  -0.789585   1.154946  -0.190175
    13  C   -0.154313  -0.700318  -1.518582   0.525634  -0.298729  -0.285139
    14  C   -0.065529   0.066695  -0.719561  -1.209146   0.272862   0.127126
    15  O    0.000579   0.001292   0.004395   0.017369  -0.005424   0.001642
    16  O   -0.003225   0.001352  -0.010481  -0.006882  -0.019863  -0.006146
    17  H    0.015309  -0.093688   0.205574   0.075992   0.025975   0.004178
    18  H    0.002405  -0.001556   0.084637   0.182742   0.204599  -0.107070
    19  H    0.158399   0.255464   0.014526   0.001076  -0.036113  -0.404273
    20  H    0.082035   0.109434  -0.168091  -0.025233  -0.000352   0.012804
    21  H   -0.047429  -0.151865   0.156173   0.032901   0.001447  -0.008894
    22  H   -0.043785  -0.153845   0.147032   0.048212   0.001470  -0.010337
    23  H    0.046293   0.005841  -0.003826  -0.023681  -0.087354   0.073437
    24  H   -0.015371  -0.004886   0.006439   0.038131   0.045039  -0.073492
    25  H   -0.026024  -0.003441   0.009313   0.042054   0.066837  -0.095673
    26  H    0.012817   0.013996   0.152626   0.014375   0.032713   0.004582
    27  H    0.000194   0.000237   0.030279   0.087934  -0.009983  -0.007636
    28  H    0.000060  -0.000035   0.000376  -0.002637   0.003611   0.000444
    29  H   -0.000070   0.000316   0.007085   0.013248  -0.003736  -0.000414
               7          8          9         10         11         12
     1  C    0.190026  -0.707649   0.183973  -0.663984  -0.025058  -1.376112
     2  C   -0.881611   0.315778  -0.174726   0.088957   0.058036  -0.555791
     3  C   -0.028665   0.417251  -0.070463   0.001404   0.049118  -1.508230
     4  C   -0.051708   0.009480  -0.176798  -0.006481  -0.024386  -0.789585
     5  C    0.137478   0.002283   0.011289   0.296418   0.027147   1.154946
     6  C    0.602684  -0.006292   0.097790   0.224571  -0.201743  -0.190175
     7  O    8.292058   0.044066   0.000236  -0.025748  -0.001050   0.014728
     8  O    0.044066   8.458301   0.026422  -0.001811   0.000019  -0.027158
     9  C    0.000236   0.026422   5.006022  -0.000115   0.000910  -0.016701
    10  O   -0.025748  -0.001811  -0.000115   8.617699   0.043043   0.010476
    11  C   -0.001050   0.000019   0.000910   0.043043   4.964949  -0.006296
    12  C    0.014728  -0.027158  -0.016701   0.010476  -0.006296  10.254112
    13  C    0.001217  -0.004247  -0.003902  -0.004631  -0.008519  -2.267587
    14  C    0.000687  -0.000484  -0.001599  -0.000194  -0.004594   0.870638
    15  O    0.000000   0.000001  -0.000005   0.000001  -0.000033  -0.125139
    16  O    0.000000  -0.000006   0.000066  -0.000002   0.000043   0.074025
    17  H   -0.000655  -0.011826   0.000279   0.000099   0.000119   0.066901
    18  H   -0.000477   0.000119   0.000211  -0.013054   0.003434  -0.060867
    19  H    0.180265  -0.002164  -0.000199   0.044483   0.004236   0.001427
    20  H   -0.000698  -0.070022   0.432691  -0.000002   0.000006  -0.003877
    21  H    0.000059  -0.035133   0.399978   0.000000  -0.000010   0.009865
    22  H    0.000046  -0.035150   0.396805   0.000001  -0.000014   0.006729
    23  H    0.000104  -0.000001   0.000002  -0.061900   0.421488  -0.000024
    24  H   -0.000280  -0.000001  -0.000007  -0.040686   0.407081  -0.001927
    25  H   -0.000249  -0.000002   0.000001  -0.040785   0.408982  -0.001700
    26  H   -0.000013   0.000098   0.000608   0.000033   0.000135   0.276262
    27  H   -0.000005   0.000003   0.000035   0.000098   0.000735  -0.038731
    28  H   -0.000000   0.000000  -0.000000  -0.000000  -0.000003   0.057489
    29  H   -0.000000  -0.000000   0.000011   0.000000   0.000002  -0.002512
              13         14         15         16         17         18
     1  C   -0.154313  -0.065529   0.000579  -0.003225   0.015309   0.002405
     2  C   -0.700318   0.066695   0.001292   0.001352  -0.093688  -0.001556
     3  C   -1.518582  -0.719561   0.004395  -0.010481   0.205574   0.084637
     4  C    0.525634  -1.209146   0.017369  -0.006882   0.075992   0.182742
     5  C   -0.298729   0.272862  -0.005424  -0.019863   0.025975   0.204599
     6  C   -0.285139   0.127126   0.001642  -0.006146   0.004178  -0.107070
     7  O    0.001217   0.000687   0.000000   0.000000  -0.000655  -0.000477
     8  O   -0.004247  -0.000484   0.000001  -0.000006  -0.011826   0.000119
     9  C   -0.003902  -0.001599  -0.000005   0.000066   0.000279   0.000211
    10  O   -0.004631  -0.000194   0.000001  -0.000002   0.000099  -0.013054
    11  C   -0.008519  -0.004594  -0.000033   0.000043   0.000119   0.003434
    12  C   -2.267587   0.870638  -0.125139   0.074025   0.066901  -0.060867
    13  C   13.259717  -2.122185   0.228857  -0.187853   0.019637   0.001291
    14  C   -2.122185   7.741701   0.015898   0.283287  -0.001433   0.008309
    15  O    0.228857   0.015898   8.176225  -0.100243   0.000001   0.000064
    16  O   -0.187853   0.283287  -0.100243   8.232166  -0.000117   0.000058
    17  H    0.019637  -0.001433   0.000001  -0.000117   0.542513  -0.000109
    18  H    0.001291   0.008309   0.000064   0.000058  -0.000109   0.561570
    19  H    0.000569   0.000030   0.000000  -0.000000   0.000003  -0.000026
    20  H   -0.000170  -0.000002   0.000000  -0.000000   0.000066   0.000000
    21  H    0.000822   0.000010  -0.000000   0.000001  -0.000630   0.000000
    22  H    0.000810  -0.000058  -0.000000  -0.000001  -0.000618   0.000000
    23  H    0.000008   0.000053   0.000000  -0.000000  -0.000000   0.000073
    24  H   -0.000200  -0.000392   0.000000  -0.000000   0.000000  -0.000657
    25  H    0.000587  -0.000512  -0.000001   0.000000   0.000000  -0.000539
    26  H   -0.150314  -0.061146   0.000851  -0.006019   0.003018  -0.000038
    27  H    0.320754  -0.064509  -0.010679   0.008067  -0.000002   0.000256
    28  H   -0.062589   0.017311   0.221055  -0.001045   0.000000  -0.000000
    29  H    0.075046  -0.070952  -0.001317   0.213792  -0.000000   0.000000
              19         20         21         22         23         24
     1  C    0.158399   0.082035  -0.047429  -0.043785   0.046293  -0.015371
     2  C    0.255464   0.109434  -0.151865  -0.153845   0.005841  -0.004886
     3  C    0.014526  -0.168091   0.156173   0.147032  -0.003826   0.006439
     4  C    0.001076  -0.025233   0.032901   0.048212  -0.023681   0.038131
     5  C   -0.036113  -0.000352   0.001447   0.001470  -0.087354   0.045039
     6  C   -0.404273   0.012804  -0.008894  -0.010337   0.073437  -0.073492
     7  O    0.180265  -0.000698   0.000059   0.000046   0.000104  -0.000280
     8  O   -0.002164  -0.070022  -0.035133  -0.035150  -0.000001  -0.000001
     9  C   -0.000199   0.432691   0.399978   0.396805   0.000002  -0.000007
    10  O    0.044483  -0.000002   0.000000   0.000001  -0.061900  -0.040686
    11  C    0.004236   0.000006  -0.000010  -0.000014   0.421488   0.407081
    12  C    0.001427  -0.003877   0.009865   0.006729  -0.000024  -0.001927
    13  C    0.000569  -0.000170   0.000822   0.000810   0.000008  -0.000200
    14  C    0.000030  -0.000002   0.000010  -0.000058   0.000053  -0.000392
    15  O    0.000000   0.000000  -0.000000  -0.000000   0.000000   0.000000
    16  O   -0.000000  -0.000000   0.000001  -0.000001  -0.000000  -0.000000
    17  H    0.000003   0.000066  -0.000630  -0.000618  -0.000000   0.000000
    18  H   -0.000026   0.000000   0.000000   0.000000   0.000073  -0.000657
    19  H    0.352234  -0.000001   0.000000   0.000000  -0.000078   0.000040
    20  H   -0.000001   0.496076  -0.023999  -0.023974  -0.000000   0.000000
    21  H    0.000000  -0.023999   0.551645  -0.042686   0.000000  -0.000000
    22  H    0.000000  -0.023974  -0.042686   0.551901   0.000000  -0.000000
    23  H   -0.000078  -0.000000   0.000000   0.000000   0.494398  -0.023722
    24  H    0.000040   0.000000  -0.000000  -0.000000  -0.023722   0.540278
    25  H    0.000039   0.000000  -0.000000  -0.000000  -0.023752  -0.039961
    26  H   -0.000000   0.000000  -0.000003  -0.000002   0.000000   0.000000
    27  H   -0.000000   0.000000  -0.000000   0.000000  -0.000000   0.000001
    28  H    0.000000   0.000000  -0.000000   0.000000  -0.000000   0.000000
    29  H   -0.000000  -0.000000   0.000000  -0.000000   0.000000  -0.000000
              25         26         27         28         29
     1  C   -0.026024   0.012817   0.000194   0.000060  -0.000070
     2  C   -0.003441   0.013996   0.000237  -0.000035   0.000316
     3  C    0.009313   0.152626   0.030279   0.000376   0.007085
     4  C    0.042054   0.014375   0.087934  -0.002637   0.013248
     5  C    0.066837   0.032713  -0.009983   0.003611  -0.003736
     6  C   -0.095673   0.004582  -0.007636   0.000444  -0.000414
     7  O   -0.000249  -0.000013  -0.000005  -0.000000  -0.000000
     8  O   -0.000002   0.000098   0.000003   0.000000  -0.000000
     9  C    0.000001   0.000608   0.000035  -0.000000   0.000011
    10  O   -0.040785   0.000033   0.000098  -0.000000   0.000000
    11  C    0.408982   0.000135   0.000735  -0.000003   0.000002
    12  C   -0.001700   0.276262  -0.038731   0.057489  -0.002512
    13  C    0.000587  -0.150314   0.320754  -0.062589   0.075046
    14  C   -0.000512  -0.061146  -0.064509   0.017311  -0.070952
    15  O   -0.000001   0.000851  -0.010679   0.221055  -0.001317
    16  O    0.000000  -0.006019   0.008067  -0.001045   0.213792
    17  H    0.000000   0.003018  -0.000002   0.000000  -0.000000
    18  H   -0.000539  -0.000038   0.000256  -0.000000   0.000000
    19  H    0.000039  -0.000000  -0.000000   0.000000  -0.000000
    20  H    0.000000   0.000000   0.000000   0.000000  -0.000000
    21  H   -0.000000  -0.000003  -0.000000  -0.000000   0.000000
    22  H   -0.000000  -0.000002   0.000000   0.000000  -0.000000
    23  H   -0.023752   0.000000  -0.000000  -0.000000   0.000000
    24  H   -0.039961   0.000000   0.000001   0.000000  -0.000000
    25  H    0.540387   0.000000  -0.000002  -0.000000   0.000000
    26  H    0.000000   0.524887   0.003236   0.000010  -0.000035
    27  H   -0.000002   0.003236   0.514527   0.000093  -0.000162
    28  H   -0.000000   0.000010   0.000093   0.370809   0.001544
    29  H    0.000000  -0.000035  -0.000162   0.001544   0.372328
 Mulliken charges:
               1
     1  C   -0.104755
     2  C    0.653648
     3  C   -0.182354
     4  C   -0.378745
     5  C   -0.212471
     6  C    0.380862
     7  O   -0.472496
     8  O   -0.371874
     9  C   -0.112812
    10  O   -0.467889
    11  C   -0.117776
    12  C    0.174813
    13  C   -0.665669
    14  C    0.917686
    15  O   -0.425387
    16  O   -0.470976
    17  H    0.149414
    18  H    0.134627
    19  H    0.430062
    20  H    0.183310
    21  H    0.157746
    22  H    0.157462
    23  H    0.182642
    24  H    0.164574
    25  H    0.164440
    26  H    0.177323
    27  H    0.165261
    28  H    0.393507
    29  H    0.395828
 Sum of Mulliken charges =   1.00000
 Mulliken charges with hydrogens summed into heavy atoms:
               1
     1  C   -0.104755
     2  C    0.653648
     3  C   -0.032939
     4  C   -0.378745
     5  C   -0.077844
     6  C    0.380862
     7  O   -0.042434
     8  O   -0.371874
     9  C    0.385705
    10  O   -0.467889
    11  C    0.393880
    12  C    0.352136
    13  C   -0.500408
    14  C    0.917686
    15  O   -0.031880
    16  O   -0.075148
 Electronic spatial extent (au):  <R**2>=           5105.1523
 Charge=              1.0000 electrons
 Dipole moment (field-independent basis, Debye):
    X=             10.4183    Y=             -0.1539    Z=              0.0454  Tot=             10.4195
 Quadrupole moment (field-independent basis, Debye-Ang):
   XX=            -11.4870   YY=            -56.5800   ZZ=            -94.7245
   XY=            -11.4885   XZ=             -0.1589   YZ=             -1.4969
 Traceless Quadrupole moment (field-independent basis, Debye-Ang):
   XX=             42.7769   YY=             -2.3162   ZZ=            -40.4607
   XY=            -11.4885   XZ=             -0.1589   YZ=             -1.4969
 Octapole moment (field-independent basis, Debye-Ang**2):
  XXX=            454.1120  YYY=              8.6231  ZZZ=             -0.2769  XYY=            -42.7625
  XXY=            -39.7997  XXZ=             -3.3879  XZZ=              1.9704  YZZ=              0.3967
  YYZ=              1.4061  XYZ=             -6.6716
 Hexadecapole moment (field-independent basis, Debye-Ang**3):
 XXXX=          -1425.7361 YYYY=          -1443.6065 ZZZZ=           -113.0519 XXXY=           -390.2131
 XXXZ=            -30.0170 YYYX=             -8.6925 YYYZ=             -4.8898 ZZZX=             -0.6176
 ZZZY=             -0.2770 XXYY=           -811.1731 XXZZ=           -745.3321 YYZZ=           -342.2369
 XXYZ=            -38.1191 YYXZ=              7.2764 ZZXY=             -5.7323
 N-N= 1.069895830876D+03 E-N=-3.996107816672D+03  KE= 7.952697671112D+02
 Calling FoFJK, ICntrl=      2127 FMM=F ISym2X=0 I1Cent= 0 IOpClX= 0 NMat=1 NMatS=1 NMatT=0.
 ***** Axes restored to original set *****
 -------------------------------------------------------------------
 Center     Atomic                   Forces (Hartrees/Bohr)
 Number     Number              X              Y              Z
 -------------------------------------------------------------------
      1        6          -0.001117261    0.000891001    0.000012096
      2        6          -0.000923780   -0.002260650   -0.000020317
      3        6           0.002419628   -0.004101482   -0.000026139
      4        6           0.001149408   -0.000079987    0.000018570
      5        6           0.003762917    0.003163898    0.000011365
      6        6          -0.000113187    0.002109251   -0.000001061
      7        8          -0.006244995   -0.000779474    0.000014926
      8        8          -0.004167647    0.001791838    0.000025129
      9        6           0.000612260   -0.004566571   -0.000027841
     10        8          -0.004125788   -0.000279842   -0.000006293
     11        6           0.001951549    0.004080720    0.000022525
     12        6           0.000547995   -0.002990730   -0.000083947
     13        6          -0.001760378    0.002278121   -0.000087360
     14        6          -0.000149103    0.000481304   -0.000030440
     15        8           0.005109217    0.007288078   -0.001358650
     16        8           0.000287948   -0.008089194    0.001535062
     17        1           0.000263948   -0.000122144   -0.000000525
     18        1           0.000254217    0.000067232    0.000000428
     19        1          -0.000361706    0.001319273    0.000006597
     20        1          -0.000640534   -0.000410631   -0.000000627
     21        1           0.000461359   -0.000424757    0.000535589
     22        1           0.000459851   -0.000419389   -0.000541099
     23        1          -0.000493396    0.000565147    0.000010735
     24        1           0.000540100    0.000272249   -0.000537173
     25        1           0.000548728    0.000272463    0.000533757
     26        1          -0.000045115   -0.000093410    0.000002250
     27        1          -0.000025521    0.000575282    0.000047775
     28        1           0.000843467   -0.000552708    0.000482362
     29        1           0.000955818    0.000015113   -0.000537692
 -------------------------------------------------------------------
 Cartesian Forces:  Max     0.008089194 RMS     0.002020030

 GradGradGradGradGradGradGradGradGradGradGradGradGradGradGradGradGradGrad
 Berny optimization.
 FormGI is forming the generalized inverse of G from B-inverse, IUseBI=4.
 Internal  Forces:  Max     0.008983266 RMS     0.002409869
 Search for a local minimum.
 Step number   1 out of a maximum of  135
 All quantities printed in internal units (Hartrees-Bohrs-Radians)
 Mixed Optimization -- RFO/linear search
 Second derivative matrix not updated -- first step.
 ITU=  0
     Eigenvalues ---    0.01231   0.01272   0.01765   0.01799   0.01887
     Eigenvalues ---    0.01914   0.01967   0.02003   0.02038   0.02080
     Eigenvalues ---    0.02103   0.02135   0.02162   0.02191   0.02213
     Eigenvalues ---    0.02260   0.02271   0.02419   0.02456   0.02622
     Eigenvalues ---    0.02658   0.02660   0.10072   0.10125   0.10686
     Eigenvalues ---    0.10698   0.16000   0.16000   0.16000   0.16000
     Eigenvalues ---    0.16000   0.16000   0.16000   0.16000   0.16000
     Eigenvalues ---    0.16000   0.16000   0.16000   0.16000   0.22000
     Eigenvalues ---    0.22000   0.23473   0.23482   0.24999   0.25000
     Eigenvalues ---    0.25000   0.25000   0.25000   0.25000   0.25000
     Eigenvalues ---    0.25000   0.25000   0.34141   0.34141   0.34241
     Eigenvalues ---    0.34241   0.34940   0.34950   0.35067   0.35615
     Eigenvalues ---    0.35692   0.35788   0.38743   0.40261   0.40299
     Eigenvalues ---    0.40744   0.41671   0.42098   0.43494   0.46148
     Eigenvalues ---    0.46550   0.47986   0.48787   0.52438   0.53224
     Eigenvalues ---    0.53267   0.53557   0.56089   0.59575   0.60222
     Eigenvalues ---    0.60271
 RFO step:  Lambda=-1.57361069D-03 EMin= 1.23063167D-02
 Linear search not attempted -- first point.
 Iteration  1 RMS(Cart)=  0.02393572 RMS(Int)=  0.00004101
 Iteration  2 RMS(Cart)=  0.00007589 RMS(Int)=  0.00000113
 Iteration  3 RMS(Cart)=  0.00000000 RMS(Int)=  0.00000113
 Variable       Old X    -DE/DX   Delta X   Delta X   Delta X     New X
                                 (Linear)    (Quad)   (Total)
    R1        2.68397  -0.00724   0.00000  -0.01720  -0.01720   2.66677
    R2        2.69247  -0.00735   0.00000  -0.01775  -0.01775   2.67472
    R3        2.50726  -0.00661   0.00000  -0.01093  -0.01093   2.49633
    R4        2.62009  -0.00682   0.00000  -0.01416  -0.01416   2.60593
    R5        2.54177  -0.00516   0.00000  -0.00918  -0.00918   2.53259
    R6        2.69449  -0.00554   0.00000  -0.01306  -0.01307   2.68142
    R7        2.04688  -0.00021   0.00000  -0.00058  -0.00058   2.04630
    R8        2.69341  -0.00559   0.00000  -0.01316  -0.01317   2.68024
    R9        2.67065  -0.00587   0.00000  -0.01344  -0.01344   2.65721
   R10        2.60562  -0.00697   0.00000  -0.01410  -0.01410   2.59152
   R11        2.04414  -0.00021   0.00000  -0.00059  -0.00059   2.04355
   R12        2.56438  -0.00508   0.00000  -0.00945  -0.00945   2.55492
   R13        1.84182  -0.00136   0.00000  -0.00259  -0.00259   1.83923
   R14        2.70554  -0.00584   0.00000  -0.01427  -0.01427   2.69127
   R15        2.05773  -0.00076   0.00000  -0.00217  -0.00217   2.05556
   R16        2.07092  -0.00078   0.00000  -0.00226  -0.00226   2.06866
   R17        2.07093  -0.00078   0.00000  -0.00226  -0.00226   2.06866
   R18        2.71149  -0.00575   0.00000  -0.01421  -0.01421   2.69728
   R19        2.05756  -0.00075   0.00000  -0.00213  -0.00213   2.05543
   R20        2.06926  -0.00076   0.00000  -0.00222  -0.00222   2.06704
   R21        2.06926  -0.00076   0.00000  -0.00222  -0.00222   2.06704
   R22        2.63516  -0.00531   0.00000  -0.01136  -0.01136   2.62380
   R23        2.05566  -0.00008   0.00000  -0.00023  -0.00023   2.05543
   R24        2.61954  -0.00696   0.00000  -0.01446  -0.01446   2.60508
   R25        2.04565  -0.00057   0.00000  -0.00159  -0.00159   2.04406
   R26        2.50765  -0.00898   0.00000  -0.01488  -0.01488   2.49277
   R27        2.51278  -0.00821   0.00000  -0.01375  -0.01375   2.49903
   R28        1.83445  -0.00108   0.00000  -0.00202  -0.00202   1.83243
   R29        1.83405  -0.00104   0.00000  -0.00194  -0.00194   1.83211
    A1        2.10629   0.00070   0.00000   0.00221   0.00222   2.10850
    A2        2.07505   0.00045   0.00000   0.00206   0.00206   2.07711
    A3        2.10185  -0.00114   0.00000  -0.00427  -0.00428   2.09758
    A4        2.06741   0.00009   0.00000   0.00020   0.00020   2.06762
    A5        2.00674   0.00043   0.00000   0.00178   0.00178   2.00852
    A6        2.20903  -0.00052   0.00000  -0.00198  -0.00198   2.20704
    A7        2.11560  -0.00077   0.00000  -0.00290  -0.00290   2.11270
    A8        2.09555   0.00018   0.00000   0.00017   0.00018   2.09573
    A9        2.07203   0.00059   0.00000   0.00272   0.00272   2.07476
   A10        2.08951   0.00054   0.00000   0.00297   0.00297   2.09248
   A11        2.05252  -0.00012   0.00000  -0.00089  -0.00089   2.05163
   A12        2.14115  -0.00042   0.00000  -0.00208  -0.00208   2.13907
   A13        2.08278  -0.00086   0.00000  -0.00341  -0.00341   2.07937
   A14        2.10264   0.00059   0.00000   0.00268   0.00269   2.10532
   A15        2.09777   0.00027   0.00000   0.00073   0.00073   2.09850
   A16        2.10477   0.00030   0.00000   0.00092   0.00092   2.10569
   A17        1.95986  -0.00017   0.00000  -0.00053  -0.00053   1.95933
   A18        2.21856  -0.00013   0.00000  -0.00039  -0.00039   2.21816
   A19        1.90727  -0.00024   0.00000  -0.00147  -0.00147   1.90581
   A20        2.07424  -0.00239   0.00000  -0.00950  -0.00950   2.06473
   A21        1.83932   0.00010   0.00000   0.00073   0.00073   1.84006
   A22        1.93512  -0.00034   0.00000  -0.00214  -0.00214   1.93297
   A23        1.93506  -0.00034   0.00000  -0.00216  -0.00216   1.93290
   A24        1.91335   0.00014   0.00000   0.00099   0.00099   1.91434
   A25        1.91337   0.00014   0.00000   0.00099   0.00099   1.91436
   A26        1.92571   0.00029   0.00000   0.00159   0.00159   1.92731
   A27        2.08237  -0.00231   0.00000  -0.00918  -0.00918   2.07319
   A28        1.84330   0.00013   0.00000   0.00093   0.00093   1.84423
   A29        1.92842  -0.00035   0.00000  -0.00222  -0.00223   1.92619
   A30        1.92855  -0.00036   0.00000  -0.00231  -0.00231   1.92624
   A31        1.91584   0.00014   0.00000   0.00104   0.00104   1.91688
   A32        1.91570   0.00015   0.00000   0.00109   0.00109   1.91679
   A33        1.93019   0.00028   0.00000   0.00147   0.00146   1.93165
   A34        2.22730  -0.00046   0.00000  -0.00208  -0.00208   2.22523
   A35        2.02383   0.00030   0.00000   0.00146   0.00146   2.02529
   A36        2.03205   0.00016   0.00000   0.00061   0.00061   2.03267
   A37        2.12679  -0.00287   0.00000  -0.01295  -0.01295   2.11384
   A38        2.14266   0.00139   0.00000   0.00618   0.00618   2.14884
   A39        2.01374   0.00148   0.00000   0.00677   0.00677   2.02050
   A40        2.07005   0.00083   0.00000   0.00329   0.00329   2.07334
   A41        2.11534   0.00011   0.00000   0.00043   0.00043   2.11577
   A42        2.09775  -0.00093   0.00000  -0.00371  -0.00371   2.09404
   A43        2.00132   0.00051   0.00000   0.00314   0.00314   2.00445
   A44        1.99442   0.00057   0.00000   0.00350   0.00350   1.99792
    D1        0.00099   0.00000   0.00000   0.00020   0.00020   0.00119
    D2       -3.14059   0.00000   0.00000   0.00014   0.00014  -3.14044
    D3       -3.14135   0.00000   0.00000   0.00012   0.00012  -3.14123
    D4        0.00026   0.00000   0.00000   0.00006   0.00006   0.00032
    D5        0.00030  -0.00000   0.00000  -0.00023  -0.00023   0.00007
    D6        3.14051  -0.00000   0.00000  -0.00013  -0.00013   3.14038
    D7       -3.14054  -0.00000   0.00000  -0.00014  -0.00014  -3.14068
    D8       -0.00033  -0.00000   0.00000  -0.00005  -0.00005  -0.00038
    D9       -3.14089   0.00000   0.00000   0.00009   0.00009  -3.14080
   D10       -0.00004   0.00000   0.00000   0.00001   0.00001  -0.00003
   D11        0.00023  -0.00000   0.00000  -0.00001  -0.00001   0.00022
   D12        3.14151  -0.00000   0.00000   0.00000   0.00000   3.14151
   D13       -3.14138   0.00000   0.00000   0.00006   0.00006  -3.14132
   D14       -0.00011   0.00000   0.00000   0.00007   0.00007  -0.00003
   D15       -3.14067   0.00000   0.00000   0.00010   0.00010  -3.14057
   D16        0.00094   0.00000   0.00000   0.00003   0.00003   0.00097
   D17       -0.00269  -0.00000   0.00000  -0.00017  -0.00017  -0.00285
   D18       -3.14078   0.00001   0.00000   0.00035   0.00035  -3.14043
   D19        3.13922  -0.00000   0.00000  -0.00018  -0.00018   3.13904
   D20        0.00113   0.00001   0.00000   0.00033   0.00033   0.00146
   D21        0.00393   0.00000   0.00000   0.00014   0.00014   0.00407
   D22       -3.13836   0.00000   0.00000   0.00018   0.00018  -3.13817
   D23       -3.14135  -0.00001   0.00000  -0.00040  -0.00040   3.14144
   D24       -0.00045  -0.00001   0.00000  -0.00036  -0.00036  -0.00080
   D25       -3.13671   0.00000   0.00000   0.00008   0.00008  -3.13662
   D26        0.00643   0.00000   0.00000   0.00004   0.00004   0.00647
   D27        0.00850   0.00001   0.00000   0.00060   0.00060   0.00910
   D28       -3.13155   0.00001   0.00000   0.00056   0.00056  -3.13099
   D29       -0.00275   0.00000   0.00000   0.00006   0.00006  -0.00270
   D30        3.14044  -0.00000   0.00000  -0.00006  -0.00006   3.14039
   D31        3.13953   0.00000   0.00000   0.00001   0.00001   3.13954
   D32       -0.00046  -0.00000   0.00000  -0.00010  -0.00010  -0.00056
   D33        3.14137  -0.00000   0.00000  -0.00008  -0.00008   3.14129
   D34       -0.00172   0.00000   0.00000   0.00003   0.00003  -0.00169
   D35        3.14099   0.00000   0.00000   0.00009   0.00009   3.14108
   D36       -1.07327   0.00005   0.00000   0.00058   0.00058  -1.07268
   D37        1.07206  -0.00005   0.00000  -0.00039  -0.00039   1.07167
   D38        3.14151   0.00001   0.00000   0.00043   0.00043  -3.14125
   D39       -1.07097   0.00007   0.00000   0.00104   0.00104  -1.06993
   D40        1.07090  -0.00006   0.00000  -0.00020  -0.00020   1.07071
   D41       -3.12261   0.00000   0.00000   0.00016   0.00016  -3.12245
   D42        0.02084   0.00001   0.00000   0.00041   0.00041   0.02124
   D43        0.01743   0.00000   0.00000   0.00021   0.00021   0.01764
   D44       -3.12231   0.00001   0.00000   0.00045   0.00045  -3.12186
   D45       -3.04923  -0.00003   0.00000  -0.00126  -0.00126  -3.05049
   D46        0.10200  -0.00004   0.00000  -0.00186  -0.00186   0.10014
   D47        0.09064  -0.00004   0.00000  -0.00149  -0.00149   0.08915
   D48       -3.04132  -0.00005   0.00000  -0.00209  -0.00209  -3.04341
   D49       -2.85751  -0.00012   0.00000  -0.00441  -0.00441  -2.86192
   D50        0.27455  -0.00011   0.00000  -0.00379  -0.00379   0.27075
   D51       -2.80393  -0.00013   0.00000  -0.00463  -0.00463  -2.80856
   D52        0.34745  -0.00015   0.00000  -0.00528  -0.00528   0.34217
         Item               Value     Threshold  Converged?
 Maximum Force            0.008983     0.000450     NO 
 RMS     Force            0.002410     0.000300     NO 
 Maximum Displacement     0.086592     0.001800     NO 
 RMS     Displacement     0.023932     0.001200     NO 
 Predicted change in Energy=-7.897401D-04
 GradGradGradGradGradGradGradGradGradGradGradGradGradGradGradGradGradGrad

                          Input orientation:                          
 ---------------------------------------------------------------------
 Center     Atomic      Atomic             Coordinates (Angstroms)
 Number     Number       Type             X           Y           Z
 ---------------------------------------------------------------------
      1          6           0        2.390949   -0.199945   -0.001253
      2          6           0        1.919961    1.130309    0.006570
      3          6           0        0.557830    1.345275    0.011593
      4          6           0       -0.354586    0.258583    0.009257
      5          6           0        0.132628   -1.073385   -0.001860
      6          6           0        1.486935   -1.289025   -0.005340
      7          8           0        3.693782   -0.418241   -0.005696
      8          8           0        2.874592    2.070939    0.008394
      9          6           0        2.475453    3.437992    0.017471
     10          8           0        2.122571   -2.482261   -0.014260
     11          6           0        1.341614   -3.676991   -0.018943
     12          6           0       -1.727555    0.562145    0.013271
     13          6           0       -2.790594   -0.331013    0.017471
     14          6           0       -4.095137    0.114182   -0.001462
     15          8           0       -5.069328   -0.768381    0.108579
     16          8           0       -4.379275    1.398573   -0.137214
     17          1           0        0.167878    2.355459    0.017706
     18          1           0       -0.552057   -1.910407   -0.006934
     19          1           0        3.857466   -1.377638   -0.011614
     20          1           0        3.400888    4.009640    0.017877
     21          1           0        1.894041    3.678248   -0.878396
     22          1           0        1.899642    3.667871    0.919660
     23          1           0        2.057518   -4.495828   -0.025540
     24          1           0        0.723889   -3.731447    0.882121
     25          1           0        0.719066   -3.721299   -0.917237
     26          1           0       -1.982828    1.619451    0.011581
     27          1           0       -2.660396   -1.404635    0.037346
     28          1           0       -5.945127   -0.443027   -0.151045
     29          1           0       -5.273106    1.644362    0.146695
 ---------------------------------------------------------------------
                    Distance matrix (angstroms):
                    1          2          3          4          5
     1  C    0.000000
     2  C    1.411193   0.000000
     3  C    2.397539   1.378998   0.000000
     4  C    2.783580   2.435872   1.418946   0.000000
     5  C    2.421345   2.837410   2.455788   1.418322   0.000000
     6  C    1.415398   2.457810   2.793396   2.405515   1.371372
     7  O    1.321002   2.354698   3.597845   4.104583   3.620918
     8  O    2.321835   1.340190   2.427753   3.703002   4.171959
     9  C    3.638967   2.373624   2.838446   4.256504   5.083476
    10  O    2.298077   3.618307   4.135107   3.694466   2.438228
    11  C    3.631978   4.842031   5.083149   4.285631   2.870663
    12  C    4.188444   3.691507   2.415840   1.406133   2.476988
    13  C    5.183234   4.932029   3.744586   2.506357   3.016077
    14  C    6.493689   6.100326   4.813093   3.743353   4.391391
    15  O    7.482708   7.243313   6.011810   4.826315   5.212061
    16  O    6.957707   6.306585   4.939635   4.185589   5.146472
    17  H    3.387107   2.137968   1.082853   2.161002   3.429081
    18  H    3.403968   3.918802   3.439718   2.178020   1.081400
    19  H    1.880888   3.169235   4.278129   4.518742   3.737256
    20  H    4.329082   3.237873   3.896390   5.307927   6.043100
    21  H    4.007079   2.697375   2.832014   4.187883   5.142850
    22  H    4.006178   2.696918   2.831872   4.187317   5.143058
    23  H    4.308872   5.627910   6.030666   5.331405   3.926688
    24  H    4.003867   5.082701   5.153494   4.224374   2.862919
    25  H    4.004267   5.082683   5.153532   4.224994   2.862389
    26  H    4.737118   3.933325   2.555409   2.122060   3.424427
    27  H    5.193154   5.235126   4.233160   2.843210   2.812871
    28  H    8.340965   8.022458   6.746327   5.636675   6.112178
    29  H    7.884231   7.212773   5.840165   5.111861   6.052287
                    6          7          8          9         10
     6  C    0.000000
     7  O    2.372433   0.000000
     8  O    3.635263   2.620551   0.000000
     9  C    4.829325   4.044181   1.424159   0.000000
    10  O    1.352007   2.594023   4.614940   5.930845   0.000000
    11  C    2.392423   4.018995   5.948905   7.204853   1.427339
    12  C    3.709464   5.509302   4.843164   5.092719   4.908425
    13  C    4.383556   6.485005   6.153356   6.475851   5.363587
    14  C    5.755740   7.807097   7.239207   7.363472   6.738070
    15  O    6.577890   8.770847   8.436684   8.638611   7.394315
    16  O    6.453914   8.276012   7.286417   7.153353   7.572978
    17  H    3.875913   4.486196   2.721642   2.548878   5.217794
    18  H    2.131574   4.500413   5.252930   6.145875   2.735088
    19  H    2.372195   0.973278   3.585962   5.010100   2.056710
    20  H    5.633792   4.437621   2.008890   1.087755   6.616638
    21  H    5.059819   4.558717   2.081182   1.094687   6.225016
    22  H    5.059325   4.557580   2.081136   1.094690   6.224630
    23  H    3.257232   4.393685   6.617491   7.944937   2.014650
    24  H    2.708367   4.537160   6.249529   7.430778   2.078528
    25  H    2.708715   4.537625   6.249248   7.430614   2.078560
    26  H    4.527557   6.031284   4.878358   4.814914   5.803362
    27  H    4.149161   6.430428   6.535789   7.058921   4.903133
    28  H    7.481477   9.640037   9.172398   9.273450   8.322556
    29  H    7.370620   9.202318   8.160029   7.954494   8.470594
                   11         12         13         14         15
    11  C    0.000000
    12  C    5.233651   0.000000
    13  C    5.317146   1.388453   0.000000
    14  C    6.628089   2.409634   1.378547   0.000000
    15  O    7.041055   3.598171   2.322116   1.319119   0.000000
    16  O    7.648785   2.784579   2.353573   1.322430   2.287417
    17  H    6.145685   2.609341   3.996210   4.816325   6.098768
    18  H    2.589779   2.737830   2.739731   4.080736   4.660827
    19  H    3.408312   5.912346   6.730005   8.091324   8.948368
    20  H    7.957780   6.179496   7.561463   8.447802   9.725342
    21  H    7.425859   4.860157   6.230776   7.024375   8.320766
    22  H    7.425589   4.860415   6.229232   7.029548   8.300888
    23  H    1.087684   6.317545   6.391536   7.688170   8.043867
    24  H    1.093831   5.019901   4.966101   6.228371   6.552823
    25  H    1.093829   5.019929   4.968443   6.223031   6.578566
    26  H    6.253410   1.087687   2.111121   2.593811   3.903541
    27  H    4.602483   2.176923   1.081670   2.089688   2.492559
    28  H    7.973241   4.338811   3.161016   1.937865   0.969682
    29  H    8.491099   3.709438   3.175165   1.936752   2.421633
                   16         17         18         19         20
    16  O    0.000000
    17  H    4.649327   0.000000
    18  H    5.061020   4.326260   0.000000
    19  H    8.692930   5.248802   4.441594   0.000000
    20  H    8.208085   3.631620   7.118522   5.406672   0.000000
    21  H    6.715711   2.352107   6.162460   5.492570   1.784296
    22  H    6.759549   2.352648   6.163326   5.491585   1.784308
    23  H    8.728617   7.107232   3.673504   3.600433   8.611012
    24  H    7.307423   6.173069   2.394712   4.019762   8.236363
    25  H    7.267366   6.172917   2.392433   4.020256   8.236142
    26  H    2.411201   2.273166   3.808850   6.564458   5.890453
    27  H    3.292870   4.705085   2.168607   6.518101   8.127356
    28  H    2.417349   6.725239   5.590990   9.848034  10.353877
    29  H    0.969510   5.488771   5.911708   9.618986   8.991624
                   21         22         23         24         25
    21  H    0.000000
    22  H    1.798094   0.000000
    23  H    8.220074   8.219752   0.000000
    24  H    7.705340   7.492244   1.785131   0.000000
    25  H    7.492354   7.705049   1.785070   1.799393   0.000000
    26  H    4.478931   4.482656   7.329557   6.059395   6.056941
    27  H    6.886013   6.877699   5.640757   4.192980   4.207009
    28  H    8.886310   8.921115   8.971248   7.507124   7.466297
    29  H    7.520340   7.492689   9.563977   8.087282   8.113470
                   26         27         28         29
    26  H    0.000000
    27  H    3.099170   0.000000
    28  H    4.469908   3.427775   0.000000
    29  H    3.293146   4.016789   2.213019   0.000000
 Stoichiometry    C11H13O5(1+)
 Framework group  C1[X(C11H13O5)]
 Deg. of freedom    81
 Full point group                 C1      NOp   1
 Largest Abelian subgroup         C1      NOp   1
 Largest concise Abelian subgroup C1      NOp   1
                         Standard orientation:                         
 ---------------------------------------------------------------------
 Center     Atomic      Atomic             Coordinates (Angstroms)
 Number     Number       Type             X           Y           Z
 ---------------------------------------------------------------------
      1          6           0       -2.389035    0.195290   -0.001264
      2          6           0       -1.915621   -1.134102    0.006559
      3          6           0       -0.553101   -1.346584    0.011582
      4          6           0        0.357331   -0.258229    0.009246
      5          6           0       -0.132311    1.072847   -0.001871
      6          6           0       -1.487009    1.286017   -0.005351
      7          8           0       -3.692265    0.411210   -0.005707
      8          8           0       -2.868535   -2.076472    0.008383
      9          6           0       -2.466904   -3.442795    0.017460
     10          8           0       -2.124821    2.478091   -0.014270
     11          6           0       -1.346044    3.674244   -0.018954
     12          6           0        1.730852   -0.559287    0.013260
     13          6           0        2.792260    0.335809    0.017460
     14          6           0        4.097613   -0.107007   -0.001473
     15          8           0        5.070193    0.777332    0.108569
     16          8           0        4.384093   -1.390877   -0.137225
     17          1           0       -0.161308   -2.356055    0.017695
     18          1           0        0.550846    1.911117   -0.006945
     19          1           0       -3.857698    1.370306   -0.011625
     20          1           0       -3.391294   -4.016130    0.017867
     21          1           0       -1.885055   -3.681990   -0.878407
     22          1           0       -1.890675   -3.671624    0.919649
     23          1           0       -2.063440    4.491774   -0.025551
     24          1           0       -0.728419    3.729827    0.882110
     25          1           0       -0.723577    3.719687   -0.917248
     26          1           0        1.988053   -1.616125    0.011570
     27          1           0        2.660104    1.409191    0.037335
     28          1           0        5.946584    0.453576   -0.151056
     29          1           0        5.278371   -1.635035    0.146684
 ---------------------------------------------------------------------
 Rotational constants (GHZ):      0.7154208      0.2763387      0.1999438
 Standard basis: 6-31+G(d,p) (6D, 7F)
 There are   369 symmetry adapted cartesian basis functions of A   symmetry.
 There are   369 symmetry adapted basis functions of A   symmetry.
   369 basis functions,   603 primitive gaussians,   369 cartesian basis functions
    59 alpha electrons       59 beta electrons
       nuclear repulsion energy      1075.8975522707 Hartrees.
 NAtoms=   29 NActive=   29 NUniq=   29 SFac= 1.00D+00 NAtFMM=   60 NAOKFM=F Big=F
 Integral buffers will be    131072 words long.
 Raffenetti 2 integral format.
 Two-electron integral symmetry is turned on.
 One-electron integrals computed using PRISM.
 NBasis=   369 RedAO= T EigKep=  1.39D-06  NBF=   369
 NBsUse=   367 1.00D-06 EigRej=  7.56D-07 NBFU=   367
 Initial guess from the checkpoint file:  "camb3lypSAyanggd3.chk"
 B after Tr=    -0.000000    0.000000    0.000000
         Rot=    1.000000    0.000027   -0.000004   -0.000854 Ang=   0.10 deg.
 ExpMin= 4.38D-02 ExpMax= 5.48D+03 ExpMxC= 8.25D+02 IAcc=2 IRadAn=         4 AccDes= 0.00D+00
 Harris functional with IExCor=20419 and IRadAn=       4 diagonalized for initial guess.
 HarFok:  IExCor=20419 AccDes= 0.00D+00 IRadAn=         4 IDoV= 1 UseB2=F ITyADJ=14
 ICtDFT=  3500011 ScaDFX=  1.000000  1.000000  1.000000  1.000000
 FoFCou: FMM=F IPFlag=           0 FMFlag=      100000 FMFlg1=           0
         NFxFlg=           0 DoJE=T BraDBF=F KetDBF=T FulRan=T
         wScrn=  0.000000 ICntrl=     500 IOpCl=  0 I1Cent=   200000004 NGrid=           0
         NMat0=    1 NMatS0=      1 NMatT0=    0 NMatD0=    1 NMtDS0=    0 NMtDT0=    0
 Petite list used in FoFCou.
 Requested convergence on RMS density matrix=1.00D-08 within 128 cycles.
 Requested convergence on MAX density matrix=1.00D-06.
 Requested convergence on             energy=1.00D-06.
 No special actions if energy rises.
 SCF Done:  E(RCAM-B3LYP) =  -802.520824472     A.U. after   13 cycles
            NFock= 13  Conv=0.51D-08     -V/T= 2.0087
[...]
 0229,-0.00002086,-0.00001959,0.00000251,0.00008857,-0.00000203,0.00000
 195,-0.00003812,-0.00000964,0.00000197,-0.00003859,0.00003683,-0.00000
 627,0.00002854,0.00002173,0.00000009,0.00049835,0.00035806,0.00000258,
 -0.00002699,-0.00019627,-0.00000071,0.00000532,-0.00000923,0.,-0.00000
 358,-0.00000239,0.00000125,-0.00000357,-0.00000241,-0.00000123,0.19236
 605,0.00123973,-0.00134758,-0.00001333,-0.00036827,0.00009554,-0.00000
 081,0.00000002,-0.00000579,0.00000170,0.00055708,-0.00006622,-0.000004
 40,-0.00084956,0.00015954,-0.00000177,-0.00416604,-0.00171324,0.000014
 16,-0.00021933,0.00022438,0.00000337,-0.00001853,-0.00028080,-0.000001
 32,-0.00004499,0.00005670,0.00000074,0.01456430,-0.03491550,-0.0002364
 8,0.13902526,-0.19937624,-0.00111851,-0.00040026,-0.00016578,0.0000026
 0,0.00031233,0.00003110,0.00000341,-0.00032084,0.00010074,-0.00000008,
 0.00016813,0.00008571,-0.00001854,0.00006235,-0.00011400,0.00001650,0.
 00002250,0.00001202,0.00000011,0.00022329,0.00022642,0.00000409,0.0000
 9116,-0.00025353,-0.00000302,0.00000251,-0.00001710,-0.00000007,0.0000
 0819,-0.00000682,-0.00000062,0.00000818,-0.00000680,0.00000049,-0.1481
 7180,0.22966570,0.00000580,-0.00000500,0.00028585,0.00000005,-0.000000
 21,-0.00004952,-0.00000201,-0.00000100,0.00000090,0.00000351,0.0000015
 5,0.00012568,-0.00000286,-0.00000167,0.00023332,-0.00001676,-0.0000080
 1,0.00054795,-0.00000235,0.00000143,-0.00012630,-0.00000025,-0.0000010
 4,-0.00002463,0.,0.00000023,-0.00000189,0.00004069,-0.00011332,0.00011
 355,0.00107673,-0.00116227,-0.05234848,-0.00000211,-0.00000204,0.00003
 473,0.00000099,0.00000116,0.00001400,-0.00000090,0.00000056,0.00000210
 ,0.00000085,0.00000067,0.00000135,-0.00000002,-0.00000032,-0.00000244,
 0.00000007,0.00000017,-0.00001976,0.00000091,0.00000128,-0.00045445,0.
 00000098,-0.00000255,0.00020513,0.00000006,-0.00000010,0.00000325,-0.0
 0000226,0.00000048,-0.00000053,0.00000232,-0.00000056,-0.00000052,-0.0
 0114462,0.00133202,0.04739807,-0.00017222,-0.00065817,-0.00004271,0.00
 001554,0.00026913,-0.00004478,0.00011064,-0.00025488,-0.00000066,0.000
 27884,0.00004538,0.00028434,0.00012857,-0.00049838,-0.00030929,-0.0005
 4312,0.00351692,-0.00041359,0.00002785,-0.00028994,-0.00014007,-0.0000
 5258,-0.00021242,0.00000370,-0.00002363,0.00008952,0.00001530,-0.01567
 138,-0.01402021,0.01375815,-0.13117559,-0.00139613,0.11982336,-0.00040
 176,-0.00020322,-0.00004170,0.00040587,0.00006040,0.00001373,-0.000496
 77,0.00014403,0.00000594,0.00025420,0.00011634,-0.00002499,0.00012475,
 -0.00019785,0.00002638,0.00001475,0.00000250,-0.00001477,0.00005781,0.
 00054057,-0.00045796,0.00054804,0.00040352,0.00027858,-0.00000539,-0.0
 0000831,0.00000205,0.00001130,-0.00001100,-0.00000660,0.00001275,-0.00
 000826,0.00000507,-0.00927921,-0.00094339,0.01801733,0.14350239,-0.001
 26717,-0.00123023,-0.00065299,-0.00044392,0.00041186,-0.00010832,0.000
 33568,0.00021577,-0.00005385,0.00054479,-0.00051987,-0.00035582,0.0007
 6280,0.00071801,-0.00021845,-0.00313750,0.00605369,0.00196607,0.000694
 44,-0.00063552,-0.00003667,-0.00002415,-0.00013768,0.00003449,-0.00000
 191,0.00003110,0.00003629,-0.02570851,-0.01653746,0.02584820,0.0025168
 4,-0.05127493,-0.00013233,-0.00043797,-0.00019475,0.00001253,0.0002535
 6,0.00003977,-0.00001215,-0.00022767,0.00011297,0.00000263,0.00012067,
 0.00006064,-0.00001298,0.00003785,-0.00010132,0.00000985,0.00002265,0.
 00000612,0.00003233,0.00050785,-0.00104298,0.00116542,0.00060326,0.000
 47820,0.00023562,0.00000196,-0.00000358,0.00000016,0.00000186,-0.00002
 044,0.,0.00000144,-0.00000617,-0.00000550,0.01151354,0.00390890,-0.020
 39454,0.01167027,0.05809386,0.00010218,0.00054038,-0.00024552,0.000269
 35,-0.00010044,-0.00003262,-0.00015278,-0.00005975,-0.00003913,-0.0005
 0646,-0.00009526,-0.00009883,0.00113612,0.00035313,-0.00010426,0.00031
 533,-0.00115260,0.00060826,-0.00026255,-0.00005617,0.00003961,-0.00012
 590,-0.00009110,0.00001465,-0.00001209,0.00003595,0.00000202,-0.001082
 97,0.00436816,0.00752231,0.12292961,0.00522992,-0.24092830,0.00014761,
 0.00012294,0.00002391,-0.00005746,0.00003678,-0.00000629,-0.00001175,0
 .00002498,-0.00000970,-0.00001346,-0.00003186,0.00001258,0.00004289,-0
 .00005110,0.00000621,-0.00003696,-0.00003757,0.00000045,-0.00062116,0.
 00005883,-0.00002536,-0.00004146,-0.00010804,-0.00000402,-0.00000201,-
 0.00000068,-0.00000039,0.00000749,-0.00000288,-0.00000157,0.00000814,0
 .00000218,0.00000181,-0.00177754,-0.00050333,0.00190503,-0.13537345,-0
 .00804393,0.25018795,-0.00017546,-0.00066320,0.00002919,0.00001581,0.0
 0026721,0.00005139,0.00010801,-0.00025394,-0.00000803,0.00028630,0.000
 05095,-0.00027642,0.00012696,-0.00050047,0.00030247,-0.00055402,0.0035
 1771,0.00045997,0.00003193,-0.00029332,0.00013542,-0.00005263,-0.00021
 246,-0.00000488,-0.00002347,0.00008999,-0.00001411,-0.01572898,-0.0139
 1179,-0.01377104,-0.13247209,-0.00018931,-0.12041025,-0.00040603,-0.00
 020519,0.00003742,0.00040842,0.00005813,-0.00001053,-0.00049990,0.0001
 4672,-0.00001458,0.00025439,0.00011531,-0.00002706,0.00012597,-0.00019
 976,0.00003451,0.00001491,0.00000276,0.00001468,0.00006228,0.00053898,
 0.00046274,0.00054783,0.00040829,-0.00027468,-0.00000535,-0.00000829,-
 0.00000214,0.00001266,-0.00000838,-0.00000517,0.00001130,-0.00001113,0
 .00000638,-0.00937214,-0.00075206,-0.01797551,0.01243331,0.00166782,0.
 01518401,0.14495342,-0.00125706,-0.00123270,0.00064515,-0.00044119,0.0
 0040639,0.00011616,0.00033304,0.00021237,0.00005925,0.00053811,-0.0005
 1789,0.00034718,0.00077689,0.00071253,0.00023012,-0.00314971,0.0060447
 7,-0.00188245,0.00068952,-0.00063707,0.00002567,-0.00002361,-0.0001374
 5,-0.00003555,-0.00000212,0.00003156,-0.00003624,-0.02586053,-0.016213
 85,-0.02596950,0.00377378,-0.05122452,0.00204075,-0.00043217,-0.000191
 94,-0.00001484,0.00025422,0.00003820,0.00002067,-0.00022767,0.00011439
 ,-0.00000211,0.00012179,0.00006084,-0.00001978,0.00003657,-0.00010140,
 0.00001526,0.00002222,0.00000596,-0.00003268,0.00050517,-0.00102956,-0
 .00117962,0.00060322,0.00048057,-0.00023199,0.00000191,-0.00000358,-0.
 00000026,0.00000161,-0.00000606,0.00000533,0.00000182,-0.00002045,-0.0
 0000021,0.01160983,0.00369422,0.02035359,0.00181857,0.00154762,-0.0004
 6337,0.01031963,0.05794124,-0.00011512,-0.00054368,-0.00024170,-0.0002
 7290,0.00010209,-0.00003004,0.00015277,0.00006447,-0.00003598,0.000515
 67,0.00009075,-0.00009746,-0.00113464,-0.00033920,-0.00009479,-0.00034
 980,0.00119184,0.00058825,0.00026992,0.00005037,0.00003849,0.00012579,
 0.00009069,0.00001455,0.00001215,-0.00003621,0.00000104,0.00094803,-0.
 00455045,0.00728920,-0.12347204,-0.00329238,-0.23965024,-0.00015170,-0
 .00012544,0.00002076,0.00005691,-0.00003436,-0.00000013,0.00001319,-0.
 00002075,0.00000588,0.00001049,0.00003422,0.00000708,-0.00004014,0.000
 04972,-0.00000318,0.00003736,0.00003802,0.00000032,0.00063126,-0.00007
 594,-0.00003731,0.00004499,0.00011075,-0.00000412,0.00000207,0.0000006
 8,-0.00000036,-0.00000812,-0.00000218,0.00000193,-0.00000756,0.0000028
 6,-0.00000151,0.00195134,0.00052627,0.00219830,-0.01533087,0.00066139,
 -0.01878925,0.13604806,0.00603406,0.24886932,-0.00007188,0.00033130,-0
 .00000409,0.00019368,-0.00062207,-0.00001697,0.00021713,0.00211755,0.0
 0003793,-0.00493637,0.03037866,-0.00007134,-0.00525331,-0.00083478,-0.
 00005306,0.00026583,0.00158342,0.00000821,0.00015417,-0.00022690,0.000
 00534,0.00006903,-0.00001623,-0.00000242,-0.00005011,0.00007860,0.0000
 0249,-0.00052572,-0.00005485,0.00001254,-0.00002760,-0.00008185,0.0000
 0032,-0.07473490,0.06337605,-0.00001987,0.00825463,-0.02564440,0.00017
 836,0.00108074,-0.00371939,0.00011940,0.00030978,0.00067345,-0.0000549
 1,-0.00262402,0.00145235,-0.00055348,-0.00096449,-0.00104558,-0.000002
 90,0.00013098,-0.00005024,-0.00000207,0.00004837,0.00007651,0.00000143
 ,0.00003152,-0.00002479,-0.00000005,-0.00001314,-0.00000972,0.00005600
 ,-0.00001315,-0.00000604,-0.00005614,0.00000259,0.00000477,0.00000018,
 0.00000347,-0.00000490,0.00000487,0.00000323,-0.00000541,-0.00000556,0
 .08202414,0.00033680,-0.00005927,0.00001396,-0.00025612,0.00059230,-0.
 00000670,-0.00211588,0.00144814,-0.00005925,0.00015879,-0.00449579,0.0
 0008898,0.00071413,0.00081043,0.00009385,-0.00048253,-0.00053923,-0.00
 002529,-0.00024787,0.00012291,-0.00000018,-0.00002110,-0.00016689,0.00
 000532,-0.00000928,0.00006190,-0.00000088,0.00012151,0.00014490,-0.000
 00961,-0.00002879,-0.00003291,0.00000113,0.06349696,-0.32806695,0.0003
 3764,0.00474269,-0.01758285,0.00022179,0.00074170,-0.00198645,0.000182
 39,-0.00011410,0.00025199,-0.00002486,0.00149605,0.00125213,-0.0001452
 6,-0.00000708,0.00061668,0.00000740,-0.00009490,0.00007132,0.00000311,
 -0.00001105,-0.00005560,0.00000035,0.00000279,-0.00000720,0.00000029,-
 0.00000472,-0.00000854,0.00001684,-0.00000389,-0.00000750,-0.00001663,
 0.00000857,0.00000531,-0.00000015,-0.00000332,0.00001131,-0.00001594,-
 0.00000277,0.00001029,0.00001617,-0.06612319,0.34714444,-0.00006095,-0
 .00001322,0.00052650,0.00001056,-0.00004287,0.00049042,-0.00004656,-0.
 00001529,-0.00398037,0.00025787,-0.00014254,0.00783539,-0.00002178,0.0
 0000891,0.00579261,0.00006428,0.00004998,-0.00008710,0.00005693,-0.000
 01524,-0.00017835,0.00000903,0.00002115,0.00019523,0.00000372,-0.00001
 131,0.00003082,-0.00000154,-0.00002313,-0.00090441,0.00000731,0.000009
 19,0.00008785,-0.00045310,0.00038105,-0.04897626,0.00062700,0.00007564
 ,0.00808953,-0.00019821,0.00036815,-0.00459766,0.00036434,-0.00007237,
 0.00004847,-0.00075058,-0.00043778,0.00051009,-0.00000812,-0.00000207,
 0.00024162,-0.00000243,0.00000517,0.00000635,-0.00000312,0.00000970,-0
 .00002869,0.00000064,0.00000056,-0.00000954,-0.00000293,0.00002146,-0.
 00002034,-0.00000037,-0.00001988,-0.00002128,0.00000010,-0.00000103,-0
 .00001098,-0.00001006,0.00001115,0.00000323,0.00000776,-0.00001229,0.0
 0000345,0.00013996,-0.00065478,0.02821806,0.00032046,-0.00037399,0.000
 01011,-0.00060204,0.00056424,-0.00000020,0.00072925,0.00035346,-0.0000
 2059,-0.00037570,0.00117177,0.00007354,-0.00049979,-0.00102014,-0.0000
 3589,-0.00022067,0.00037178,0.00002434,-0.00021937,0.00018408,-0.00000
 833,0.00015329,0.00015024,0.00000120,0.00003745,-0.00009933,-0.0000003
 3,0.00013984,-0.00006959,-0.00000162,-0.00004208,-0.00006088,0.0000018
 2,0.01110979,-0.02551856,0.00044069,-0.06378314,0.03334136,-0.00092491
 ,-0.00000320,0.03186816,-0.00091714,0.00040316,-0.00029362,0.00005849,
 -0.00653593,0.00155353,0.00080367,0.00012184,0.00014890,-0.00000208,-0
 .00240556,0.00091474,0.00006959,-0.00006206,-0.00007297,0.00000076,-0.
 00000088,0.00000582,0.00000020,-0.00001030,-0.00000104,-0.00001005,-0.
 00001024,-0.00000148,0.00001009,0.00003763,0.00001460,-0.00000088,-0.0
 0002190,0.00003079,-0.00005747,-0.00001964,0.00002671,0.00005626,-0.00
 361934,-0.00242553,-0.00009204,0.06520633,-0.00000266,-0.00017412,-0.0
 0000733,-0.00011812,0.00000939,-0.00000558,-0.00004184,-0.00008023,-0.
 00000648,0.00132172,-0.00012936,-0.00008852,0.00050679,-0.00004769,-0.
 00001111,-0.00006065,0.00061526,-0.00001060,0.00013512,0.00001479,0.00
 000769,0.00002704,0.00008194,0.00000133,0.00001800,-0.00004969,0.00000
 063,-0.00003067,-0.00027325,-0.00000029,0.00008989,0.00014176,-0.00000
 200,0.00170198,-0.01426545,0.00027064,0.04079541,-0.35096613,0.0060859
 6,-0.00079485,-0.00826052,0.00036777,-0.00162551,0.00052387,-0.0001585
 8,0.00077548,0.00131648,-0.00040649,0.00002843,0.00009245,0.00000216,0
 .00110501,0.00093321,0.00000708,-0.00001717,0.00002562,-0.00000090,-0.
 00000134,0.00000449,0.,-0.00000302,0.00000169,-0.00000665,-0.00000313,
 0.00000134,0.00000652,-0.00000347,-0.00001024,0.00000064,0.00000740,-0
 .00000169,0.00003392,0.00000652,-0.00000073,-0.00003212,-0.00203149,-0
 .00005493,0.00013245,-0.04174434,0.37038828,-0.00010136,0.00003751,-0.
 00028606,0.00006163,-0.00008841,-0.00006809,-0.00012788,-0.00006285,-0
 .00007115,0.00027727,-0.00007974,-0.00346927,-0.00005536,0.00011050,-0
 .00034239,0.00005164,0.00003209,-0.00039715,0.00007266,-0.00002882,0.0
 0022186,0.00000396,0.00002559,0.00004104,0.00000191,-0.00001043,0.0000
 2372,-0.00000610,-0.00003159,0.00005427,0.00001139,0.00001399,0.000192
 68,-0.00052754,-0.00011078,0.00258457,-0.00018817,0.00604781,-0.032250
 56,-0.00073261,0.00093080,0.00015033,0.00048527,0.00003598,-0.00242697
 ,-0.00032998,-0.00079238,0.00459457,-0.00000138,0.00000011,0.00012402,
 0.00006964,-0.00003516,0.00117421,-0.00000082,0.00001362,0.00001143,-0
 .00000003,0.00000108,-0.00000105,-0.00000240,0.00000181,-0.00000523,0.
 00000131,0.00000184,-0.00000457,-0.00000128,-0.00000157,-0.00003038,-0
 .00002155,0.00001254,-0.00003426,0.00002242,-0.00001570,-0.00004150,0.
 00007095,-0.00010598,0.00666810,0.00118307,-0.00652242,0.02282194,-0.0
 0192736,0.00028814,0.00001144,0.00037138,-0.00165657,-0.00000826,-0.00
 132441,-0.00065510,-0.00006185,0.00309998,-0.00090068,-0.00002301,-0.0
 0083698,0.00104238,0.00004536,0.00090762,0.00141992,0.00001248,0.00168
 305,-0.00051193,-0.00001001,0.00035735,0.00079911,0.00001333,0.0000747
 5,-0.00035571,-0.00000564,0.00008918,-0.00093124,-0.00000584,0.0002044
 3,0.00036036,-0.00000249,-0.00547278,-0.00094903,0.00048416,0.00606330
 ,-0.00336123,-0.00046842,-0.03846007,0.01407953,-0.00562445,-0.4219090
 5,0.13008557,-0.09512056,0.00588006,0.00392783,0.00058041,-0.00004789,
 0.00000952,-0.00000397,-0.00005593,0.00001811,-0.00000903,-0.00010988,
 0.00029304,0.00000146,0.00001708,0.00002457,0.00000025,-0.00003531,0.0
 0003593,0.00000715,-0.00003497,0.00003704,-0.00000604,0.00001159,-0.00
 002716,0.00000013,-0.00004892,-0.00001851,-0.00000628,-0.00004855,-0.0
 0001908,0.00000740,-0.00011342,-0.00006645,-0.00007179,0.00033430,0.00
 000426,-0.00016374,0.44981032,0.00017036,-0.00002879,-0.00001513,-0.00
 005624,0.00017673,0.00002370,0.00014419,0.00011909,-0.00005689,-0.0004
 7883,-0.00011992,-0.00029752,0.00017490,-0.00018282,0.00002296,-0.0001
 6286,-0.00008169,0.00001315,-0.00014198,0.00003580,0.00000046,-0.00002
 684,-0.00010990,0.00001097,-0.00002573,0.00006580,-0.00000156,0.000013
 62,-0.00001674,0.00000181,0.00000840,0.00000980,0.00000733,-0.00009410
 ,0.00108057,0.00064845,-0.00253047,-0.00325113,0.00110310,-0.03542934,
 0.01020546,-0.00846066,0.17838443,-0.10079672,0.04976386,0.00172064,0.
 00037168,0.00088369,-0.00001479,-0.00001564,-0.00000654,-0.00001070,0.
 00002314,0.00000266,0.00000396,-0.00001909,0.00000218,0.00000021,-0.00
 000479,0.00000037,0.00000189,-0.00000533,0.00000678,0.00000234,-0.0000
 0402,-0.00000728,0.00000409,0.00000126,-0.00000035,-0.00000160,0.00000
 534,-0.00000096,-0.00000059,0.00000545,-0.00000182,-0.00005155,-0.0000
 0625,0.00009784,-0.00015260,0.00024536,-0.00005883,-0.14035249,0.09581
 253,0.00054085,-0.00008004,-0.00001917,-0.00016266,0.00047461,0.000083
 88,0.00044698,0.00020487,-0.00036959,-0.00097841,0.00027400,-0.0006024
 8,0.00031665,-0.00035135,0.00010512,-0.00030535,-0.00036712,0.00003158
 ,-0.00045112,0.00013675,-0.00001948,-0.00007129,-0.00021288,0.00003747
 ,-0.00002327,0.00009598,0.00001958,-0.00000042,0.00020612,-0.00000736,
 -0.00004700,-0.00008160,0.00003330,0.00221680,0.00060208,0.00261266,-0
 .00113205,0.00085240,0.00328378,0.00927879,-0.00097359,-0.00387765,-0.
 11029922,0.04209061,-0.02946055,0.00012951,0.00079712,-0.00354031,0.00
 000254,-0.00001111,-0.00002101,0.00000297,0.00001595,-0.00001323,0.000
 02252,-0.00007972,0.00001334,-0.00000272,-0.00000742,0.00000207,0.0000
 0474,-0.00001026,-0.00000171,0.00000952,-0.00001054,-0.00000598,-0.000
 00037,0.00000710,0.00000102,0.00000938,0.00000617,-0.00000631,0.000009
 14,0.00000756,-0.00000357,-0.00005702,-0.00000593,0.00013406,-0.000040
 70,0.00006213,-0.00097323,0.10091985,-0.04224920,0.03032220,-0.0015843
 6,0.00027750,0.00002147,0.00032257,-0.00137256,-0.00002830,-0.00104299
 ,-0.00058756,0.00002240,0.00261248,-0.00037905,-0.00009329,-0.00075766
 ,0.00087666,-0.00008692,0.00074393,0.00113968,0.00001715,0.00138396,-0
 .00042308,-0.00000755,0.00030423,0.00067361,-0.00000368,0.00006379,-0.
 00030400,0.00000682,0.00005909,-0.00073083,-0.00000017,0.00016112,0.00
 028393,0.00000235,-0.00395679,-0.00175677,0.00015076,0.00769784,0.0007
 1828,0.00125215,-0.01222063,0.00383738,-0.00055008,0.00128018,-0.00481
 758,0.00004358,-0.45455803,0.12410583,0.11744266,-0.00003875,0.0000114
 9,0.00000947,-0.00004565,-0.00000144,0.00000030,-0.00008824,0.00023961
 ,0.00000326,0.00001471,0.00002063,-0.00000064,-0.00003008,0.00003087,0
 .00000348,-0.00003033,0.00002982,-0.00000574,0.00000769,-0.00002217,-0
 .00000007,-0.00003760,-0.00001586,-0.00000584,-0.00003847,-0.00001606,
 0.00000481,0.00015817,0.00019858,0.00017408,-0.00016147,-0.00004480,-0
 .00005291,0.00152115,-0.00109834,-0.00033864,0.45826015,0.00098862,-0.
 00012900,-0.00005361,-0.00009220,0.00085763,0.00001611,0.00055257,0.00
 038045,0.00005758,-0.00136437,0.00054166,-0.00032497,0.00032074,-0.000
 54170,0.00003867,-0.00048874,-0.00062313,0.00002869,-0.00084972,0.0002
 4296,0.00001936,-0.00024030,-0.00055506,-0.00000527,-0.00007634,0.0002
 7768,0.00000446,-0.00007575,0.00039942,0.00000536,-0.00006651,-0.00014
 151,-0.00000176,0.00113359,0.00059725,-0.00016194,-0.00440322,-0.00548
 227,0.00076233,0.05121349,-0.01684664,-0.01101114,-0.00258484,0.004712
 34,0.00107401,0.07770902,-0.06223374,-0.01648143,0.00003278,0.00001946
 ,0.00001122,0.00003233,0.00001137,0.00002529,0.00006385,-0.00013283,-0
 .00000116,-0.00001162,-0.00001599,-0.00000046,0.00002242,-0.00001857,0
 .00000615,0.00002224,-0.00001897,-0.00000941,-0.00000393,0.00001211,-0
 .00000064,0.00002253,0.00001147,0.00000783,0.00002265,0.00001076,-0.00
 000979,0.00048072,0.00052629,0.00027142,0.00113389,-0.00008190,0.00067
 939,-0.00262013,-0.00351517,-0.00139272,-0.12087375,0.08173563,-0.0005
 1709,0.00012326,-0.00000404,0.00014665,-0.00050641,-0.00001608,-0.0004
 1593,-0.00020925,-0.00008824,0.00098207,-0.00011069,0.00013091,-0.0003
 1348,0.00035930,0.00016281,0.00025263,0.00038344,-0.00010797,0.0004607
 9,-0.00014830,0.00001673,0.00008014,0.00021510,-0.00001685,0.00002340,
 -0.00009504,0.00004169,-0.00000489,-0.00023185,-0.00003273,0.00006255,
 0.00009932,0.00003705,-0.00174411,-0.00095543,-0.00075378,0.00257274,0
 .00247666,0.00241613,-0.00932838,0.00569465,-0.00341316,0.00019512,0.0
 0070843,-0.00336766,0.12644463,-0.03325489,-0.03500086,-0.00000454,0.0
 0000961,0.00004396,-0.00000374,-0.00002607,0.00010764,-0.00002204,0.00
 008340,0.00000853,0.00000373,0.00000683,-0.00000019,-0.00001040,0.0000
 0924,-0.00000784,-0.00000671,0.00001152,-0.00000727,0.00000088,-0.0000
 0769,-0.00000035,-0.00001025,-0.00000730,-0.00000218,-0.00001113,-0.00
 000416,-0.00000742,0.00026190,0.00008225,-0.00006679,-0.00062160,0.000
 28016,0.00173913,-0.00049202,-0.00143255,0.00224159,-0.11798090,0.0264
 4644,0.03594723\\-0.00004653,-0.00001165,0.00000060,-0.00001070,-0.000
 06143,0.00000091,-0.00005195,0.00000722,-0.00000118,0.00005535,-0.0000
 1600,-0.00000066,-0.00002849,0.00000950,-0.00000179,0.00001193,0.00005
 235,0.00000227,0.00005529,0.00000142,0.00000017,0.00000983,0.00006436,
 0.00000028,0.00002595,-0.00004928,-0.00000074,-0.00000054,-0.00004406,
 -0.00000341,0.00003079,0.00005192,0.00000269,-0.00008321,-0.00001538,0
 .00001254,0.00007374,0.00002633,0.00001200,-0.00005026,0.00000868,-0.0
 0005392,0.00001902,-0.00002706,0.00002005,0.00002491,-0.00000089,0.000
 00472,0.00000862,0.00000121,-0.00000085,0.00000354,-0.00000954,-0.0000
 0077,-0.00000568,-0.00000268,-0.00000010,-0.00000161,0.00000641,-0.000
 00050,-0.00001104,0.00000985,-0.00000404,-0.00001112,0.00000997,0.0000
 0307,0.00000812,0.00000302,0.00000065,-0.00000785,-0.00000322,0.000004
 08,-0.00000730,-0.00000397,-0.00000337,0.00000804,0.00000367,-0.000003
 61,-0.00000823,-0.00001185,0.00000188,-0.00000193,0.00000474,0.0000015
 5,-0.00000870,-0.00000364,0.00000749\\\@


 MAN IS THE MEASURE OF ALL THINGS.
  -- PROTAGORAS (5TH CENTURY B.C.)
 Job cpu time:       0 days  1 hours 27 minutes 25.1 seconds.
 File lengths (MBytes):  RWF=    392 Int=      0 D2E=      0 Chk=     11 Scr=      1
 Normal termination of Gaussian 09 at Thu Jun 20 11:44:53 2024.
