 Entering Gaussian System, Link 0=g09
 Input=lwm062xSA.gjf
 Output=lwm062xSA.log
 Initial command:
 /home/c612/g09E/g09/l1.exe "/mnt/ja_sm883/scratch/Gau-733121.inp" -scrdir="/mnt/ja_sm883/scratch/"
 Default is to use a total of  18 processors:
                               18 via shared-memory
                                1 via Linda
 Entering Link 1 = /home/c612/g09E/g09/l1.exe PID=    733123.
  
 Copyright (c) 1988,1990,1992,1993,1995,1998,2003,2009,2015,
            Gaussian, Inc.  All Rights Reserved.
  
 This is part of the Gaussian(R) 09 program.  It is based on
 the Gaussian(R) 03 system (copyright 2003, Gaussian, Inc.),
 the Gaussian(R) 98 system (copyright 1998, Gaussian, Inc.),
 the Gaussian(R) 94 system (copyright 1995, Gaussian, Inc.),
 the Gaussian 92(TM) system (copyright 1992, Gaussian, Inc.),
 the Gaussian 90(TM) system (copyright 1990, Gaussian, Inc.),
 the Gaussian 88(TM) system (copyright 1988, Gaussian, Inc.),
 the Gaussian 86(TM) system (copyright 1986, Carnegie Mellon
 University), and the Gaussian 82(TM) system (copyright 1983,
 Carnegie Mellon University). Gaussian is a federally registered
 trademark of Gaussian, Inc.
  
 This software contains proprietary and confidential information,
 including trade secrets, belonging to Gaussian, Inc.
  
 This software is provided under written license and may be
 used, copied, transmitted, or stored only in accord with that
 written license.
  
 The following legend is applicable only to US Government
 contracts under FAR:
  
                    RESTRICTED RIGHTS LEGEND
  
 Use, reproduction and disclosure by the US Government is
 subject to restrictions as set forth in subparagraphs (a)
 and (c) of the Commercial Computer Software - Restricted
 Rights clause in FAR 52.227-19.
  
 Gaussian, Inc.
 340 Quinnipiac St., Bldg. 40, Wallingford CT 06492
  
  
 ---------------------------------------------------------------
 Warning -- This program may not be used in any manner that
 competes with the business of Gaussian, Inc. or will provide
 assistance to any competitor of Gaussian, Inc.  The licensee
 of this program is prohibited from giving any competitor of
 Gaussian, Inc. access to this program.  By using this program,
 the user acknowledges that Gaussian, Inc. is engaged in the
 business of creating and licensing software in the field of
 computational chemistry and represents and warrants to the
 licensee that it is not a competitor of Gaussian, Inc. and that
 it will not use this program in any manner prohibited above.
 ---------------------------------------------------------------
  

 Cite this work as:
 Gaussian 09, Revision E.01,
 M. J. Frisch, G. W. Trucks, H. B. Schlegel, G. E. Scuseria, 
 M. A. Robb, J. R. Cheeseman, G. Scalmani, V. Barone, B. Mennucci, 
 G. A. Petersson, H. Nakatsuji, M. Caricato, X. Li, H. P. Hratchian, 
 A. F. Izmaylov, J. Bloino, G. Zheng, J. L. Sonnenberg, M. Hada, 
 M. Ehara, K. Toyota, R. Fukuda, J. Hasegawa, M. Ishida, T. Nakajima, 
 Y. Honda, O. Kitao, H. Nakai, T. Vreven, J. A. Montgomery, Jr., 
 J. E. Peralta, F. Ogliaro, M. Bearpark, J. J. Heyd, E. Brothers, 
 K. N. Kudin, V. N. Staroverov, T. Keith, R. Kobayashi, J. Normand, 
 K. Raghavachari, A. Rendell, J. C. Burant, S. S. Iyengar, J. Tomasi, 
 M. Cossi, N. Rega, J. M. Millam, M. Klene, J. E. Knox, J. B. Cross, 
 V. Bakken, C. Adamo, J. Jaramillo, R. Gomperts, R. E. Stratmann, 
 O. Yazyev, A. J. Austin, R. Cammi, C. Pomelli, J. W. Ochterski, 
 R. L. Martin, K. Morokuma, V. G. Zakrzewski, G. A. Voth, 
 P. Salvador, J. J. Dannenberg, S. Dapprich, A. D. Daniels, 
 O. Farkas, J. B. Foresman, J. V. Ortiz, J. Cioslowski, 
 and D. J. Fox, Gaussian, Inc., Wallingford CT, 2013.
 
 ******************************************
 Gaussian 09:  ES64L-G09RevE.01 30-Nov-2015
                26-Feb-2024 
 ******************************************
 %chk=lwm062xSA.chk
 ----------------------------
 # opt freq m062x/6-31+g(d,p)
 ----------------------------
 1/14=-1,18=20,19=15,26=3,38=1/1,3;
 2/9=110,12=2,17=6,18=5,40=1/2;
 3/5=1,6=6,7=111,11=2,16=1,25=1,30=1,71=1,74=-55/1,2,3;
 4//1;
 5/5=2,38=5/2;
 6/7=2,8=2,9=2,10=2,28=1/1;
 7//1,2,3,16;
 1/14=-1,18=20,19=15,26=3/3(2);
 2/9=110/2;
 99//99;
 2/9=110/2;
 3/5=1,6=6,7=111,11=2,16=1,25=1,30=1,71=1,74=-55/1,2,3;
 4/5=5,16=3,69=1/1;
 5/5=2,38=5/2;
 7//1,2,3,16;
 1/14=-1,18=20,19=15,26=3/3(-5);
 2/9=110/2;
 6/7=2,8=2,9=2,10=2,19=2,28=1/1;
 99/9=1/99;
 ----------
 [No Title]
 ----------
 Symbolic Z-matrix:
 Charge =  0 Multiplicity = 1
 C                     2.26981  -0.11633   0.00019 
 C                     1.69018   1.17006   0.00022 
 C                     0.31502   1.33155   0.00023 
 C                    -0.52746   0.21023   0.00019 
 C                     0.04213  -1.05533   0.00012 
 C                     1.42504  -1.2324    0.00002 
 O                     3.63447  -0.12438   0.00001 
 O                     2.58289   2.18975   0.00027 
 C                     2.08306   3.51223   0.00026 
 O                     1.79258  -2.55515  -0.00027 
 C                     3.13     -3.00371  -0.00035 
 C                    -1.97228   0.43013   0.0002 
 C                    -2.93892  -0.49717  -0.00034 
 C                    -4.34731  -0.08051  -0.00023 
 O                    -5.18613  -1.14228  -0.00098 
 O                    -4.76324   1.05994   0.0004 
 H                    -0.12226   2.32118   0.00029 
 H                    -0.56348  -1.9531    0.00008 
 H                     3.98295  -1.01784   0.00235 
 H                     2.95829   4.16061   0.00028 
 H                     1.48251   3.71141  -0.89467 
 H                     1.48248   3.7114    0.89518 
 H                     3.07514  -4.09227  -0.00071 
 H                     3.66785  -2.69706  -0.90673 
 H                     3.66765  -2.6978    0.90645 
 H                    -2.29753   1.46865   0.00068 
 H                    -2.74459  -1.56314  -0.00089 
 H                    -6.08903  -0.78766  -0.00087 
 

 GradGradGradGradGradGradGradGradGradGradGradGradGradGradGradGradGradGrad
 Berny optimization.
 Initialization pass.
                           ----------------------------
                           !    Initial Parameters    !
                           ! (Angstroms and Degrees)  !
 --------------------------                            --------------------------
 ! Name  Definition              Value          Derivative Info.                !
 --------------------------------------------------------------------------------
 ! R1    R(1,2)                  1.4109         estimate D2E/DX2                !
 ! R2    R(1,6)                  1.3997         estimate D2E/DX2                !
 ! R3    R(1,7)                  1.3647         estimate D2E/DX2                !
 ! R4    R(2,3)                  1.3846         estimate D2E/DX2                !
 ! R5    R(2,8)                  1.3553         estimate D2E/DX2                !
 ! R6    R(3,4)                  1.4026         estimate D2E/DX2                !
 ! R7    R(3,17)                 1.0819         estimate D2E/DX2                !
 ! R8    R(4,5)                  1.3878         estimate D2E/DX2                !
 ! R9    R(4,12)                 1.4615         estimate D2E/DX2                !
 ! R10   R(5,6)                  1.3942         estimate D2E/DX2                !
 ! R11   R(5,18)                 1.0829         estimate D2E/DX2                !
 ! R12   R(6,10)                 1.3729         estimate D2E/DX2                !
 ! R13   R(7,19)                 0.959          estimate D2E/DX2                !
 ! R14   R(8,9)                  1.4138         estimate D2E/DX2                !
 ! R15   R(9,20)                 1.0892         estimate D2E/DX2                !
 ! R16   R(9,21)                 1.096          estimate D2E/DX2                !
 ! R17   R(9,22)                 1.096          estimate D2E/DX2                !
 ! R18   R(10,11)                1.4106         estimate D2E/DX2                !
 ! R19   R(11,23)                1.0899         estimate D2E/DX2                !
 ! R20   R(11,24)                1.0977         estimate D2E/DX2                !
 ! R21   R(11,25)                1.0977         estimate D2E/DX2                !
 ! R22   R(12,13)                1.3395         estimate D2E/DX2                !
 ! R23   R(12,26)                1.0883         estimate D2E/DX2                !
 ! R24   R(13,14)                1.4687         estimate D2E/DX2                !
 ! R25   R(13,27)                1.0835         estimate D2E/DX2                !
 ! R26   R(14,15)                1.3531         estimate D2E/DX2                !
 ! R27   R(14,16)                1.2139         estimate D2E/DX2                !
 ! R28   R(15,28)                0.97           estimate D2E/DX2                !
 ! A1    A(2,1,6)              118.622          estimate D2E/DX2                !
 ! A2    A(2,1,7)              114.5937         estimate D2E/DX2                !
 ! A3    A(6,1,7)              126.7842         estimate D2E/DX2                !
 ! A4    A(1,2,3)              120.9534         estimate D2E/DX2                !
 ! A5    A(1,2,8)              114.543          estimate D2E/DX2                !
 ! A6    A(3,2,8)              124.5036         estimate D2E/DX2                !
 ! A7    A(2,3,4)              120.2205         estimate D2E/DX2                !
 ! A8    A(2,3,17)             120.5368         estimate D2E/DX2                !
 ! A9    A(4,3,17)             119.2427         estimate D2E/DX2                !
 ! A10   A(3,4,5)              118.8504         estimate D2E/DX2                !
 ! A11   A(3,4,12)             118.2641         estimate D2E/DX2                !
 ! A12   A(5,4,12)             122.8854         estimate D2E/DX2                !
 ! A13   A(4,5,6)              121.5275         estimate D2E/DX2                !
 ! A14   A(4,5,18)             121.7664         estimate D2E/DX2                !
 ! A15   A(6,5,18)             116.7062         estimate D2E/DX2                !
 ! A16   A(1,6,5)              119.8261         estimate D2E/DX2                !
 ! A17   A(1,6,10)             127.3493         estimate D2E/DX2                !
 ! A18   A(5,6,10)             112.8246         estimate D2E/DX2                !
 ! A19   A(1,7,19)             111.6456         estimate D2E/DX2                !
 ! A20   A(2,8,9)              118.0944         estimate D2E/DX2                !
 ! A21   A(8,9,20)             105.8273         estimate D2E/DX2                !
 ! A22   A(8,9,21)             111.3282         estimate D2E/DX2                !
 ! A23   A(8,9,22)             111.3284         estimate D2E/DX2                !
 ! A24   A(20,9,21)            109.398          estimate D2E/DX2                !
 ! A25   A(20,9,22)            109.3978         estimate D2E/DX2                !
 ! A26   A(21,9,22)            109.4779         estimate D2E/DX2                !
 ! A27   A(6,10,11)            124.0692         estimate D2E/DX2                !
 ! A28   A(10,11,23)           105.6558         estimate D2E/DX2                !
 ! A29   A(10,11,24)           112.0723         estimate D2E/DX2                !
 ! A30   A(10,11,25)           112.0689         estimate D2E/DX2                !
 ! A31   A(23,11,24)           107.6618         estimate D2E/DX2                !
 ! A32   A(23,11,25)           107.6537         estimate D2E/DX2                !
 ! A33   A(24,11,25)           111.3634         estimate D2E/DX2                !
 ! A34   A(4,12,13)            127.5355         estimate D2E/DX2                !
 ! A35   A(4,12,26)            116.0444         estimate D2E/DX2                !
 ! A36   A(13,12,26)           116.4201         estimate D2E/DX2                !
 ! A37   A(12,13,14)           119.7095         estimate D2E/DX2                !
 ! A38   A(12,13,27)           123.4782         estimate D2E/DX2                !
 ! A39   A(14,13,27)           116.8122         estimate D2E/DX2                !
 ! A40   A(13,14,15)           111.8292         estimate D2E/DX2                !
 ! A41   A(13,14,16)           126.5174         estimate D2E/DX2                !
 ! A42   A(15,14,16)           121.6533         estimate D2E/DX2                !
 ! A43   A(14,15,28)           106.8663         estimate D2E/DX2                !
 ! D1    D(6,1,2,3)              0.0065         estimate D2E/DX2                !
 ! D2    D(6,1,2,8)           -179.9947         estimate D2E/DX2                !
 ! D3    D(7,1,2,3)            179.9922         estimate D2E/DX2                !
 ! D4    D(7,1,2,8)             -0.009          estimate D2E/DX2                !
 ! D5    D(2,1,6,5)             -0.0107         estimate D2E/DX2                !
 ! D6    D(2,1,6,10)           179.9876         estimate D2E/DX2                !
 ! D7    D(7,1,6,5)           -179.9945         estimate D2E/DX2                !
 ! D8    D(7,1,6,10)             0.0038         estimate D2E/DX2                !
 ! D9    D(2,1,7,19)           179.8489         estimate D2E/DX2                !
 ! D10   D(6,1,7,19)            -0.1668         estimate D2E/DX2                !
 ! D11   D(1,2,3,4)             -0.0007         estimate D2E/DX2                !
 ! D12   D(1,2,3,17)           179.9975         estimate D2E/DX2                !
 ! D13   D(8,2,3,4)           -179.9994         estimate D2E/DX2                !
 ! D14   D(8,2,3,17)            -0.0012         estimate D2E/DX2                !
 ! D15   D(1,2,8,9)            179.9982         estimate D2E/DX2                !
 ! D16   D(3,2,8,9)             -0.003          estimate D2E/DX2                !
 ! D17   D(2,3,4,5)             -0.0008         estimate D2E/DX2                !
 ! D18   D(2,3,4,12)           179.9999         estimate D2E/DX2                !
 ! D19   D(17,3,4,5)          -179.999          estimate D2E/DX2                !
 ! D20   D(17,3,4,12)            0.0017         estimate D2E/DX2                !
 ! D21   D(3,4,5,6)             -0.0036         estimate D2E/DX2                !
 ! D22   D(3,4,5,18)          -179.9991         estimate D2E/DX2                !
 ! D23   D(12,4,5,6)           179.9957         estimate D2E/DX2                !
 ! D24   D(12,4,5,18)            0.0002         estimate D2E/DX2                !
 ! D25   D(3,4,12,13)          179.9728         estimate D2E/DX2                !
 ! D26   D(3,4,12,26)           -0.0256         estimate D2E/DX2                !
 ! D27   D(5,4,12,13)           -0.0265         estimate D2E/DX2                !
 ! D28   D(5,4,12,26)          179.9752         estimate D2E/DX2                !
 ! D29   D(4,5,6,1)              0.0095         estimate D2E/DX2                !
 ! D30   D(4,5,6,10)          -179.989          estimate D2E/DX2                !
 ! D31   D(18,5,6,1)          -179.9948         estimate D2E/DX2                !
 ! D32   D(18,5,6,10)            0.0067         estimate D2E/DX2                !
 ! D33   D(1,6,10,11)            0.0056         estimate D2E/DX2                !
 ! D34   D(5,6,10,11)         -179.996          estimate D2E/DX2                !
 ! D35   D(2,8,9,20)          -179.9988         estimate D2E/DX2                !
 ! D36   D(2,8,9,21)           -61.2294         estimate D2E/DX2                !
 ! D37   D(2,8,9,22)            61.232          estimate D2E/DX2                !
 ! D38   D(6,10,11,23)        -179.9935         estimate D2E/DX2                !
 ! D39   D(6,10,11,24)         -63.0154         estimate D2E/DX2                !
 ! D40   D(6,10,11,25)          63.04           estimate D2E/DX2                !
 ! D41   D(4,12,13,14)        -179.9998         estimate D2E/DX2                !
 ! D42   D(4,12,13,27)          -0.0013         estimate D2E/DX2                !
 ! D43   D(26,12,13,14)         -0.0014         estimate D2E/DX2                !
 ! D44   D(26,12,13,27)        179.997          estimate D2E/DX2                !
 ! D45   D(12,13,14,15)        179.9928         estimate D2E/DX2                !
 ! D46   D(12,13,14,16)         -0.0052         estimate D2E/DX2                !
 ! D47   D(27,13,14,15)         -0.0058         estimate D2E/DX2                !
 ! D48   D(27,13,14,16)        179.9963         estimate D2E/DX2                !
 ! D49   D(13,14,15,28)       -179.9992         estimate D2E/DX2                !
 ! D50   D(16,14,15,28)         -0.0012         estimate D2E/DX2                !
 --------------------------------------------------------------------------------
 Trust Radius=3.00D-01 FncErr=1.00D-07 GrdErr=1.00D-06
 Number of steps in this run=    131 maximum allowed number of steps=    168.
 GradGradGradGradGradGradGradGradGradGradGradGradGradGradGradGradGradGrad

                          Input orientation:                          
 ---------------------------------------------------------------------
 Center     Atomic      Atomic             Coordinates (Angstroms)
 Number     Number       Type             X           Y           Z
 ---------------------------------------------------------------------
      1          6           0        2.269805   -0.116325    0.000187
      2          6           0        1.690179    1.170062    0.000220
      3          6           0        0.315019    1.331554    0.000227
      4          6           0       -0.527462    0.210225    0.000187
      5          6           0        0.042130   -1.055333    0.000123
      6          6           0        1.425041   -1.232397    0.000023
      7          8           0        3.634465   -0.124379    0.000014
      8          8           0        2.582894    2.189751    0.000268
      9          6           0        2.083060    3.512234    0.000264
     10          8           0        1.792577   -2.555150   -0.000271
     11          6           0        3.129998   -3.003706   -0.000345
     12          6           0       -1.972280    0.430133    0.000199
     13          6           0       -2.938919   -0.497171   -0.000338
     14          6           0       -4.347312   -0.080514   -0.000229
     15          8           0       -5.186134   -1.142285   -0.000983
     16          8           0       -4.763242    1.059942    0.000404
     17          1           0       -0.122263    2.321184    0.000293
     18          1           0       -0.563478   -1.953101    0.000075
     19          1           0        3.982948   -1.017843    0.002349
     20          1           0        2.958288    4.160613    0.000284
     21          1           0        1.482513    3.711405   -0.894671
     22          1           0        1.482479    3.711400    0.895178
     23          1           0        3.075139   -4.092266   -0.000714
     24          1           0        3.667848   -2.697056   -0.906725
     25          1           0        3.667649   -2.697799    0.906446
     26          1           0       -2.297534    1.468649    0.000675
     27          1           0       -2.744586   -1.563135   -0.000886
     28          1           0       -6.089031   -0.787658   -0.000871
 ---------------------------------------------------------------------
                    Distance matrix (angstroms):
                    1          2          3          4          5
     1  C    0.000000
     2  C    1.410942   0.000000
     3  C    2.432600   1.384610   0.000000
     4  C    2.816263   2.416448   1.402552   0.000000
     5  C    2.417493   2.769196   2.402436   1.387830   0.000000
     6  C    1.399730   2.417045   2.793921   2.427638   1.394200
     7  O    1.364684   2.335771   3.624702   4.175356   3.711003
     8  O    2.327233   1.355251   2.424821   3.686847   4.121414
     9  C    3.633361   2.374895   2.807371   4.209286   5.002806
    10  O    2.485078   3.726619   4.158082   3.609693   2.305106
    11  C    3.012790   4.415135   5.169002   4.868918   3.651176
    12  C    4.277137   3.736456   2.458515   1.461458   2.502890
    13  C    5.222629   4.920184   3.732606   2.513073   3.032853
    14  C    6.617214   6.165650   4.871475   3.830899   4.496384
    15  O    7.526196   7.254697   6.031796   4.851032   5.228987
    16  O    7.130733   6.454360   5.085519   4.320168   5.250332
    17  H    3.415178   2.147098   1.081935   2.149496   3.380517
    18  H    3.376572   3.851379   3.400105   2.163626   1.082935
    19  H    1.935871   3.169183   4.355844   4.674607   3.940997
    20  H    4.331998   3.248307   3.871750   5.268398   5.975790
    21  H    4.009004   2.702291   2.797780   4.135098   5.059363
    22  H    4.009036   2.702312   2.797779   4.135106   5.059394
    23  H    4.056682   5.441527   6.085728   5.611610   4.292098
    24  H    3.072000   4.437153   5.319184   5.184149   4.082090
    25  H    3.072341   4.437565   5.319497   5.184290   4.082096
    26  H    4.834535   3.998876   2.616148   2.171816   3.441586
    27  H    5.218944   5.209367   4.211936   2.839092   2.832605
    28  H    8.385752   8.021769   6.745585   5.650382   6.137001
                    6          7          8          9         10
     6  C    0.000000
     7  O    2.471691   0.000000
     8  O    3.612717   2.541850   0.000000
     9  C    4.790043   3.953709   1.413788   0.000000
    10  O    1.372865   3.049787   4.810269   6.074334   0.000000
    11  C    2.458539   2.923185   5.222195   6.599512   1.410637
    12  C    3.782300   5.634099   4.883223   5.093636   4.804796
    13  C    4.425461   6.583946   6.140844   6.426165   5.159683
    14  C    5.886161   7.981898   7.292589   7.365971   6.619823
    15  O    6.611789   8.879138   8.453417   8.631670   7.120295
    16  O    6.599217   8.480808   7.432508   7.272248   7.486498
    17  H    3.875834   4.482609   2.708348   2.506402   5.238821
    18  H    2.115094   4.578968   5.202199   6.072401   2.431760
    19  H    2.566891   0.959022   3.499831   4.912349   2.676013
    20  H    5.606728   4.338015   2.006295   1.089229   6.816183
    21  H    5.024436   4.488273   2.080189   1.096008   6.337650
    22  H    5.024513   4.488381   2.080191   1.096009   6.337794
    23  H    3.301768   4.007115   6.301273   7.668940   2.001922
    24  H    2.828003   2.727995   5.087302   6.472207   2.087687
    25  H    2.828126   2.728591   5.087828   6.472758   2.087673
    26  H    4.599262   6.142178   4.933413   4.833823   5.737592
    27  H    4.182724   6.539290   6.516609   7.004680   4.644345
    28  H    7.527222   9.746092   9.168819   9.234292   8.077362
                   11         12         13         14         15
    11  C    0.000000
    12  C    6.150162   0.000000
    13  C    6.566161   1.339509   0.000000
    14  C    8.028401   2.429308   1.468732   0.000000
    15  O    8.521909   3.577898   2.337979   1.353137   0.000000
    16  O    8.877864   2.861141   2.398490   1.213935   2.242464
    17  H    6.239524   2.645494   3.984555   4.859958   6.135015
    18  H    3.839992   2.768488   2.786118   4.221846   4.693226
    19  H    2.161292   6.128734   6.941423   8.382829   9.169927
    20  H    7.166376   6.182797   7.514786   8.447423   9.718659
    21  H    6.971854   4.848003   6.169360   7.011814   8.296254
    22  H    6.972010   4.847995   6.169504   7.011906   8.296491
    23  H    1.089942   6.777059   7.006683   8.437235   8.772173
    24  H    1.097653   6.512516   7.022137   8.480025   9.034970
    25  H    1.097687   6.512606   7.022233   8.480085   9.035072
    26  H    7.032785   1.088258   2.067807   2.569338   3.893711
    27  H    6.048635   2.137656   1.083534   2.183322   2.477554
    28  H    9.481633   4.293094   3.163477   1.879797   0.970043
                   16         17         18         19         20
    16  O    0.000000
    17  H    4.809305   0.000000
    18  H    5.168795   4.296997   0.000000
    19  H    8.989607   5.291679   4.641627   0.000000
    20  H    8.320828   3.587937   7.055518   5.278858   0.000000
    21  H    6.844039   2.304123   6.088783   5.424261   1.783436
    22  H    6.843967   2.304065   6.088819   5.423581   1.783435
    23  H    9.380057   7.166291   4.220848   3.205652   8.253706
    24  H    9.274761   6.353767   4.390885   1.935319   6.953687
    25  H    9.274775   6.354112   4.390731   1.933664   6.954289
    26  H    2.499351   2.336369   3.836056   6.754783   5.905111
    27  H    3.309910   4.686631   2.215695   6.749598   8.079855
    28  H    2.274059   6.728092   5.647123  10.074609  10.312098
                   21         22         23         24         25
    21  H    0.000000
    22  H    1.789849   0.000000
    23  H    8.014543   8.014761   0.000000
    24  H    6.770835   7.006497   1.766004   0.000000
    25  H    7.006906   6.771479   1.765940   1.813171   0.000000
    26  H    4.485572   4.485372   7.732360   7.332275   7.332334
    27  H    6.818210   6.818484   6.345526   6.574620   6.574760
    28  H    8.852611   8.852807   9.741789   9.983139   9.983219
                   26         27         28
    26  H    0.000000
    27  H    3.064567   0.000000
    28  H    4.412071   3.433173   0.000000
 Stoichiometry    C11H12O5
 Framework group  C1[X(C11H12O5)]
 Deg. of freedom    78
 Full point group                 C1      NOp   1
 Largest Abelian subgroup         C1      NOp   1
 Largest concise Abelian subgroup C1      NOp   1
                         Standard orientation:                         
 ---------------------------------------------------------------------
 Center     Atomic      Atomic             Coordinates (Angstroms)
 Number     Number       Type             X           Y           Z
 ---------------------------------------------------------------------
      1          6           0        2.269805   -0.116325    0.000187
      2          6           0        1.690179    1.170062    0.000220
      3          6           0        0.315019    1.331554    0.000227
      4          6           0       -0.527462    0.210225    0.000187
      5          6           0        0.042130   -1.055333    0.000123
      6          6           0        1.425041   -1.232397    0.000023
      7          8           0        3.634465   -0.124379    0.000014
      8          8           0        2.582894    2.189751    0.000268
      9          6           0        2.083060    3.512234    0.000264
     10          8           0        1.792577   -2.555150   -0.000271
     11          6           0        3.129998   -3.003706   -0.000345
     12          6           0       -1.972280    0.430133    0.000199
     13          6           0       -2.938919   -0.497171   -0.000338
     14          6           0       -4.347312   -0.080514   -0.000229
     15          8           0       -5.186134   -1.142285   -0.000983
     16          8           0       -4.763242    1.059942    0.000404
     17          1           0       -0.122263    2.321184    0.000293
     18          1           0       -0.563478   -1.953101    0.000075
     19          1           0        3.982948   -1.017843    0.002349
     20          1           0        2.958288    4.160613    0.000284
     21          1           0        1.482513    3.711405   -0.894671
     22          1           0        1.482479    3.711400    0.895178
     23          1           0        3.075139   -4.092266   -0.000714
     24          1           0        3.667848   -2.697056   -0.906725
     25          1           0        3.667649   -2.697799    0.906446
     26          1           0       -2.297534    1.468649    0.000675
     27          1           0       -2.744586   -1.563135   -0.000886
     28          1           0       -6.089031   -0.787658   -0.000871
 ---------------------------------------------------------------------
 Rotational constants (GHZ):      0.7807112      0.2586725      0.1947863
 Standard basis: 6-31+G(d,p) (6D, 7F)
 There are   364 symmetry adapted cartesian basis functions of A   symmetry.
 There are   364 symmetry adapted basis functions of A   symmetry.
   364 basis functions,   596 primitive gaussians,   364 cartesian basis functions
    59 alpha electrons       59 beta electrons
       nuclear repulsion energy      1054.3559753123 Hartrees.
 NAtoms=   28 NActive=   28 NUniq=   28 SFac= 1.00D+00 NAtFMM=   60 NAOKFM=F Big=F
 Integral buffers will be    131072 words long.
 Raffenetti 2 integral format.
 Two-electron integral symmetry is turned on.
 One-electron integrals computed using PRISM.
 NBasis=   364 RedAO= T EigKep=  1.37D-06  NBF=   364
 NBsUse=   362 1.00D-06 EigRej=  5.12D-07 NBFU=   362
 ExpMin= 4.38D-02 ExpMax= 5.48D+03 ExpMxC= 8.25D+02 IAcc=2 IRadAn=         4 AccDes= 0.00D+00
 Harris functional with IExCor= 1009 and IRadAn=       4 diagonalized for initial guess.
 HarFok:  IExCor= 1009 AccDes= 0.00D+00 IRadAn=         4 IDoV= 1 UseB2=F ITyADJ=14
 ICtDFT=  3500011 ScaDFX=  1.000000  1.000000  1.000000  1.000000
 FoFCou: FMM=F IPFlag=           0 FMFlag=      100000 FMFlg1=           0
         NFxFlg=           0 DoJE=T BraDBF=F KetDBF=T FulRan=T
         wScrn=  0.000000 ICntrl=     500 IOpCl=  0 I1Cent=   200000004 NGrid=           0
         NMat0=    1 NMatS0=      1 NMatT0=    0 NMatD0=    1 NMtDS0=    0 NMtDT0=    0
 Petite list used in FoFCou.
 Requested convergence on RMS density matrix=1.00D-08 within 128 cycles.
 Requested convergence on MAX density matrix=1.00D-06.
 Requested convergence on             energy=1.00D-06.
 No special actions if energy rises.
 SCF Done:  E(RM062X) =  -802.190579100     A.U. after   16 cycles
            NFock= 16  Conv=0.44D-08     -V/T= 2.0083

 **********************************************************************

            Population analysis using the SCF density.

 **********************************************************************

 Orbital symmetries:
       Occupied  (A) (A) (A) (A) (A) (A) (A) (A) (A) (A) (A) (A)
                 (A) (A) (A) (A) (A) (A) (A) (A) (A) (A) (A) (A)
                 (A) (A) (A) (A) (A) (A) (A) (A) (A) (A) (A) (A)
                 (A) (A) (A) (A) (A) (A) (A) (A) (A) (A) (A) (A)
                 (A) (A) (A) (A) (A) (A) (A) (A) (A) (A) (A)
       Virtual   (A) (A) (A) (A) (A) (A) (A) (A) (A) (A) (A) (A)
                 (A) (A) (A) (A) (A) (A) (A) (A) (A) (A) (A) (A)
                 (A) (A) (A) (A) (A) (A) (A) (A) (A) (A) (A) (A)
                 (A) (A) (A) (A) (A) (A) (A) (A) (A) (A) (A) (A)
                 (A) (A) (A) (A) (A) (A) (A) (A) (A) (A) (A) (A)
                 (A) (A) (A) (A) (A) (A) (A) (A) (A) (A) (A) (A)
                 (A) (A) (A) (A) (A) (A) (A) (A) (A) (A) (A) (A)
                 (A) (A) (A) (A) (A) (A) (A) (A) (A) (A) (A) (A)
                 (A) (A) (A) (A) (A) (A) (A) (A) (A) (A) (A) (A)
                 (A) (A) (A) (A) (A) (A) (A) (A) (A) (A) (A) (A)
                 (A) (A) (A) (A) (A) (A) (A) (A) (A) (A) (A) (A)
                 (A) (A) (A) (A) (A) (A) (A) (A) (A) (A) (A) (A)
                 (A) (A) (A) (A) (A) (A) (A) (A) (A) (A) (A) (A)
                 (A) (A) (A) (A) (A) (A) (A) (A) (A) (A) (A) (A)
                 (A) (A) (A) (A) (A) (A) (A) (A) (A) (A) (A) (A)
                 (A) (A) (A) (A) (A) (A) (A) (A) (A) (A) (A) (A)
                 (A) (A) (A) (A) (A) (A) (A) (A) (A) (A) (A) (A)
                 (A) (A) (A) (A) (A) (A) (A) (A) (A) (A) (A) (A)
                 (A) (A) (A) (A) (A) (A) (A) (A) (A) (A) (A) (A)
                 (A) (A) (A) (A) (A) (A) (A) (A) (A) (A) (A) (A)
                 (A) (A) (A) (A) (A) (A) (A) (A) (A) (A) (A) (A)
                 (A) (A) (A) (A) (A) (A) (A) (A) (A) (A) (A) (A)
                 (A) (A) (A) (A) (A) (A) (A) (A) (A) (A) (A) (A)
                 (A) (A) (A) (A) (A) (A) (A) (A) (A) (A) (A) (A)
                 (A) (A) (A) (A) (A) (A) (A) (A) (A) (A) (A) (A)
                 (A) (A) (A)
 The electronic state is 1-A.
 Alpha  occ. eigenvalues --  -19.69283 -19.69040 -19.68665 -19.68284 -19.63360
 Alpha  occ. eigenvalues --  -10.68707 -10.63102 -10.62996 -10.62993 -10.62456
 Alpha  occ. eigenvalues --  -10.60740 -10.57975 -10.57244 -10.56268 -10.56079
 Alpha  occ. eigenvalues --  -10.55850  -1.23318  -1.21822  -1.20462  -1.18540
 Alpha  occ. eigenvalues --   -1.13433  -0.97929  -0.91531  -0.87968  -0.85891
 Alpha  occ. eigenvalues --   -0.80975  -0.80110  -0.76631  -0.71721  -0.70079
 Alpha  occ. eigenvalues --   -0.65049  -0.63431  -0.61905  -0.59818  -0.58545
 Alpha  occ. eigenvalues --   -0.57611  -0.57581  -0.56064  -0.55756  -0.53939
 Alpha  occ. eigenvalues --   -0.53037  -0.52742  -0.50328  -0.50090  -0.49417
 Alpha  occ. eigenvalues --   -0.47568  -0.47358  -0.45121  -0.44943  -0.43423
 Alpha  occ. eigenvalues --   -0.42829  -0.41136  -0.40734  -0.40619  -0.39177
 Alpha  occ. eigenvalues --   -0.35559  -0.33778  -0.28415  -0.26478
 Alpha virt. eigenvalues --   -0.03796   0.00395   0.01744   0.02130   0.02759
 Alpha virt. eigenvalues --    0.02802   0.03014   0.03927   0.04143   0.04925
 Alpha virt. eigenvalues --    0.05342   0.05899   0.06164   0.06913   0.07079
 Alpha virt. eigenvalues --    0.07608   0.08416   0.09142   0.09494   0.09995
 Alpha virt. eigenvalues --    0.10732   0.10930   0.11258   0.12065   0.12865
 Alpha virt. eigenvalues --    0.13224   0.13646   0.14572   0.15114   0.16063
 Alpha virt. eigenvalues --    0.16186   0.16523   0.16550   0.17536   0.17698
 Alpha virt. eigenvalues --    0.19087   0.19518   0.20113   0.20600   0.20901
 Alpha virt. eigenvalues --    0.21174   0.21363   0.22281   0.22587   0.23026
 Alpha virt. eigenvalues --    0.23558   0.24284   0.24784   0.25281   0.25905
 Alpha virt. eigenvalues --    0.26107   0.26425   0.27086   0.27650   0.27670
 Alpha virt. eigenvalues --    0.28405   0.28973   0.29253   0.29504   0.29674
 Alpha virt. eigenvalues --    0.30158   0.31250   0.32049   0.32120   0.32194
 Alpha virt. eigenvalues --    0.32475   0.32818   0.33046   0.33450   0.34911
 Alpha virt. eigenvalues --    0.35544   0.35956   0.36204   0.36675   0.37332
 Alpha virt. eigenvalues --    0.38091   0.38740   0.39425   0.39971   0.40576
 Alpha virt. eigenvalues --    0.41949   0.43620   0.44410   0.45743   0.46447
 Alpha virt. eigenvalues --    0.47026   0.47512   0.49559   0.51116   0.53295
 Alpha virt. eigenvalues --    0.55648   0.56841   0.60893   0.64447   0.67871
 Alpha virt. eigenvalues --    0.69747   0.70092   0.70360   0.72416   0.73378
 Alpha virt. eigenvalues --    0.73763   0.74254   0.75865   0.76011   0.76841
 Alpha virt. eigenvalues --    0.77465   0.79121   0.80272   0.80776   0.81487
 Alpha virt. eigenvalues --    0.83171   0.83970   0.85336   0.86491   0.90168
 Alpha virt. eigenvalues --    0.91351   0.92631   0.93690   0.95878   0.96162
 Alpha virt. eigenvalues --    0.96315   0.97770   0.98826   1.00622   1.01808
 Alpha virt. eigenvalues --    1.03179   1.04862   1.06911   1.09609   1.11074
 Alpha virt. eigenvalues --    1.13346   1.13701   1.15754   1.17226   1.17969
 Alpha virt. eigenvalues --    1.19607   1.20355   1.22350   1.22520   1.23445
 Alpha virt. eigenvalues --    1.24109   1.24622   1.25406   1.25860   1.26657
 Alpha virt. eigenvalues --    1.27256   1.28754   1.28952   1.30215   1.31912
 Alpha virt. eigenvalues --    1.32098   1.33081   1.33390   1.35757   1.36382
 Alpha virt. eigenvalues --    1.36715   1.37284   1.38504   1.39381   1.39539
 Alpha virt. eigenvalues --    1.39961   1.42995   1.43061   1.43725   1.44407
 Alpha virt. eigenvalues --    1.45546   1.46942   1.50067   1.51623   1.52747
 Alpha virt. eigenvalues --    1.53020   1.55523   1.56209   1.59323   1.62346
 Alpha virt. eigenvalues --    1.64017   1.64036   1.64665   1.67977   1.70915
 Alpha virt. eigenvalues --    1.74384   1.79107   1.79669   1.81563   1.82427
 Alpha virt. eigenvalues --    1.82685   1.83708   1.85669   1.87743   1.88586
 Alpha virt. eigenvalues --    1.89036   1.91066   1.92491   1.93385   1.95956
 Alpha virt. eigenvalues --    1.96591   1.97931   1.98237   1.99822   2.00038
 Alpha virt. eigenvalues --    2.01634   2.02339   2.03312   2.04219   2.06431
 Alpha virt. eigenvalues --    2.06514   2.07844   2.08856   2.09298   2.11634
 Alpha virt. eigenvalues --    2.13177   2.13511   2.15073   2.16222   2.17186
 Alpha virt. eigenvalues --    2.19821   2.20619   2.24251   2.25384   2.25729
 Alpha virt. eigenvalues --    2.26647   2.29539   2.31360   2.34550   2.35547
 Alpha virt. eigenvalues --    2.38318   2.41422   2.43735   2.44908   2.47239
 Alpha virt. eigenvalues --    2.49172   2.50061   2.50439   2.52234   2.53985
 Alpha virt. eigenvalues --    2.55132   2.55721   2.57577   2.58188   2.59707
 Alpha virt. eigenvalues --    2.63263   2.64391   2.64888   2.66136   2.66669
 Alpha virt. eigenvalues --    2.66766   2.68047   2.70072   2.72047   2.72782
 Alpha virt. eigenvalues --    2.75682   2.77598   2.79483   2.79799   2.80526
 Alpha virt. eigenvalues --    2.80721   2.83849   2.85251   2.85301   2.86900
 Alpha virt. eigenvalues --    2.87749   2.92706   2.93439   2.97419   2.99058
 Alpha virt. eigenvalues --    3.04686   3.07998   3.10329   3.14748   3.17459
 Alpha virt. eigenvalues --    3.20434   3.20879   3.23904   3.24278   3.27834
 Alpha virt. eigenvalues --    3.31151   3.38436   3.40828   3.41438   3.43346
 Alpha virt. eigenvalues --    3.46723   3.47271   3.48224   3.54634   3.59851
 Alpha virt. eigenvalues --    3.64562   3.77213   4.19787   4.25469   4.31649
 Alpha virt. eigenvalues --    4.36974   4.41170   4.42921   4.45736   4.48264
 Alpha virt. eigenvalues --    4.53254   4.58957   4.63886   4.64403   4.70119
 Alpha virt. eigenvalues --    4.78090   4.86422   5.35592
          Condensed to atoms (all electrons):
               1          2          3          4          5          6
     1  C   33.339984 -12.071334 -12.571841   2.218587  -3.537084   2.593574
     2  C  -12.071334  29.573931   1.579078  -2.413742  -0.737615  -9.990504
     3  C  -12.571841   1.579078  28.170910  -1.553583  -3.701474  -4.193237
     4  C    2.218587  -2.413742  -1.553583  12.367374  -0.358684  -0.346356
     5  C   -3.537084  -0.737615  -3.701474  -0.358684  10.484479   2.115353
     6  C    2.593574  -9.990504  -4.193237  -0.346356   2.115353  16.176169
     7  O    0.240996  -1.014510   0.178852  -0.080984   0.078491   0.494543
     8  O   -0.722696   0.375083   0.288340  -0.024191  -0.005243   0.093451
     9  C    0.061908  -0.099906  -0.046232  -0.143206  -0.011292   0.058874
    10  O    0.289965   0.092844  -0.014406  -0.005886  -0.386695  -0.023308
    11  C   -0.272236  -0.167183  -0.012441   0.025364   0.117050   0.226836
    12  C   -3.649429   0.947629  -0.046128  -2.501423   1.160425  -1.006797
    13  C   -0.042030  -0.600219  -2.067677  -0.813036   0.756707   0.106708
    14  C   -0.048490   0.047722  -0.386186  -0.724438   0.185203   0.039834
    15  O    0.000571   0.000762   0.013711   0.085435  -0.025464  -0.001114
    16  O   -0.000127  -0.002880   0.055334   0.123341  -0.024115  -0.000050
    17  H    0.037860  -0.214004   0.196739   0.164112   0.032203  -0.006114
    18  H    0.011807   0.004999   0.097481   0.174943   0.164233  -0.097338
    19  H   -0.031835   0.416377   0.028582  -0.000437  -0.006039  -0.397428
    20  H    0.090839   0.066637  -0.125966  -0.016834  -0.002483   0.011230
    21  H   -0.053449  -0.116924   0.123428   0.031361   0.006233  -0.008324
    22  H   -0.053274  -0.116733   0.123134   0.031349   0.006219  -0.008308
    23  H   -0.043988  -0.003292  -0.002510   0.001769   0.007059   0.056671
    24  H    0.051290   0.009045   0.003445  -0.001932  -0.006055  -0.059347
    25  H    0.052862   0.009588   0.003403  -0.001924  -0.006380  -0.060807
    26  H    0.016615   0.026800   0.143209  -0.006135  -0.020964  -0.001304
    27  H    0.000953   0.001733   0.034382   0.089493  -0.024170  -0.004814
    28  H    0.000049   0.000035  -0.000234  -0.005252   0.003337   0.000165
               7          8          9         10         11         12
     1  C    0.240996  -0.722696   0.061908   0.289965  -0.272236  -3.649429
     2  C   -1.014510   0.375083  -0.099906   0.092844  -0.167183   0.947629
     3  C    0.178852   0.288340  -0.046232  -0.014406  -0.012441  -0.046128
     4  C   -0.080984  -0.024191  -0.143206  -0.005886   0.025364  -2.501423
     5  C    0.078491  -0.005243  -0.011292  -0.386695   0.117050   1.160425
     6  C    0.494543   0.093451   0.058874  -0.023308   0.226836  -1.006797
     7  O    8.427879   0.057541  -0.005824  -0.016548   0.003628   0.020976
     8  O    0.057541   8.454400   0.063656  -0.001615   0.001242  -0.033993
     9  C   -0.005824   0.063656   5.023441  -0.000318   0.000075   0.010762
    10  O   -0.016548  -0.001615  -0.000318   8.585817   0.033154  -0.017749
    11  C    0.003628   0.001242   0.000075   0.033154   5.011699  -0.007214
    12  C    0.020976  -0.033993   0.010762  -0.017749  -0.007214  11.065650
    13  C   -0.000268  -0.004091  -0.009289   0.009958  -0.000672  -1.067758
    14  C    0.000347  -0.000093  -0.000534   0.000176  -0.000342   0.576969
    15  O    0.000000   0.000001  -0.000004   0.000004  -0.000001  -0.082769
    16  O    0.000000   0.000002   0.000086  -0.000004   0.000005   0.100086
    17  H   -0.000771  -0.011026  -0.002834   0.000160   0.000085   0.073808
    18  H   -0.000373   0.000140   0.000248  -0.014106  -0.001361  -0.036072
    19  H    0.166668  -0.004641   0.000971   0.007782   0.015754   0.005604
    20  H   -0.001121  -0.080765   0.425480  -0.000003   0.000031  -0.002322
    21  H    0.000213  -0.032103   0.404571   0.000004  -0.000019   0.004956
    22  H    0.000212  -0.032109   0.404553   0.000004  -0.000019   0.004921
    23  H    0.001989   0.000002   0.000011  -0.075309   0.422866   0.000260
    24  H   -0.011684  -0.000103  -0.000054  -0.039322   0.398936  -0.000182
    25  H   -0.011930  -0.000108  -0.000055  -0.039278   0.398568  -0.000177
    26  H   -0.000013   0.000083   0.000513   0.000024   0.000006   0.288242
    27  H   -0.000004   0.000004   0.000044   0.000057   0.000090  -0.029176
    28  H   -0.000000   0.000000  -0.000001   0.000000  -0.000000   0.036510
              13         14         15         16         17         18
     1  C   -0.042030  -0.048490   0.000571  -0.000127   0.037860   0.011807
     2  C   -0.600219   0.047722   0.000762  -0.002880  -0.214004   0.004999
     3  C   -2.067677  -0.386186   0.013711   0.055334   0.196739   0.097481
     4  C   -0.813036  -0.724438   0.085435   0.123341   0.164112   0.174943
     5  C    0.756707   0.185203  -0.025464  -0.024115   0.032203   0.164233
     6  C    0.106708   0.039834  -0.001114  -0.000050  -0.006114  -0.097338
     7  O   -0.000268   0.000347   0.000000   0.000000  -0.000771  -0.000373
     8  O   -0.004091  -0.000093   0.000001   0.000002  -0.011026   0.000140
     9  C   -0.009289  -0.000534  -0.000004   0.000086  -0.002834   0.000248
    10  O    0.009958   0.000176   0.000004  -0.000004   0.000160  -0.014106
    11  C   -0.000672  -0.000342  -0.000001   0.000005   0.000085  -0.001361
    12  C   -1.067758   0.576969  -0.082769   0.100086   0.073808  -0.036072
    13  C   11.141583  -1.029069   0.223479  -0.210148   0.034546  -0.010000
    14  C   -1.029069   6.463343  -0.196814   0.303965   0.000842   0.015180
    15  O    0.223479  -0.196814   8.409118  -0.148786   0.000001   0.000145
    16  O   -0.210148   0.303965  -0.148786   8.296394  -0.000062   0.000044
    17  H    0.034546   0.000842   0.000001  -0.000062   0.547716  -0.000135
    18  H   -0.010000   0.015180   0.000145   0.000044  -0.000135   0.540304
    19  H    0.000424   0.000033   0.000000   0.000000   0.000003  -0.000007
    20  H    0.000012  -0.000001   0.000000  -0.000000   0.000205  -0.000000
    21  H    0.000184  -0.000021  -0.000000   0.000000  -0.001588   0.000000
    22  H    0.000180  -0.000021  -0.000000   0.000000  -0.001587   0.000000
    23  H   -0.000168  -0.000001   0.000000  -0.000000   0.000000  -0.000026
    24  H    0.000137   0.000002  -0.000000   0.000000  -0.000000   0.000003
    25  H    0.000140   0.000003  -0.000000   0.000000  -0.000000   0.000003
    26  H   -0.121272  -0.023262   0.001042  -0.002830   0.002645  -0.000037
    27  H    0.271248  -0.025370  -0.004061   0.005225  -0.000002   0.000447
    28  H   -0.062399   0.057752   0.206208   0.005720  -0.000000  -0.000000
              19         20         21         22         23         24
     1  C   -0.031835   0.090839  -0.053449  -0.053274  -0.043988   0.051290
     2  C    0.416377   0.066637  -0.116924  -0.116733  -0.003292   0.009045
     3  C    0.028582  -0.125966   0.123428   0.123134  -0.002510   0.003445
     4  C   -0.000437  -0.016834   0.031361   0.031349   0.001769  -0.001932
     5  C   -0.006039  -0.002483   0.006233   0.006219   0.007059  -0.006055
     6  C   -0.397428   0.011230  -0.008324  -0.008308   0.056671  -0.059347
     7  O    0.166668  -0.001121   0.000213   0.000212   0.001989  -0.011684
     8  O   -0.004641  -0.080765  -0.032103  -0.032109   0.000002  -0.000103
     9  C    0.000971   0.425480   0.404571   0.404553   0.000011  -0.000054
    10  O    0.007782  -0.000003   0.000004   0.000004  -0.075309  -0.039322
    11  C    0.015754   0.000031  -0.000019  -0.000019   0.422866   0.398936
    12  C    0.005604  -0.002322   0.004956   0.004921   0.000260  -0.000182
    13  C    0.000424   0.000012   0.000184   0.000180  -0.000168   0.000137
    14  C    0.000033  -0.000001  -0.000021  -0.000021  -0.000001   0.000002
    15  O    0.000000   0.000000  -0.000000  -0.000000   0.000000  -0.000000
    16  O    0.000000  -0.000000   0.000000   0.000000  -0.000000   0.000000
    17  H    0.000003   0.000205  -0.001588  -0.001587   0.000000  -0.000000
    18  H   -0.000007  -0.000000   0.000000   0.000000  -0.000026   0.000003
    19  H    0.412604  -0.000003   0.000001   0.000001  -0.000400   0.005817
    20  H   -0.000003   0.519399  -0.026095  -0.026097  -0.000000  -0.000000
    21  H    0.000001  -0.026095   0.556136  -0.044699   0.000000  -0.000000
    22  H    0.000001  -0.026097  -0.044699   0.556149   0.000000   0.000000
    23  H   -0.000400  -0.000000   0.000000   0.000000   0.506393  -0.026382
    24  H    0.005817  -0.000000  -0.000000   0.000000  -0.026382   0.571271
    25  H    0.005967  -0.000000   0.000000  -0.000000  -0.026397  -0.048092
    26  H   -0.000000   0.000000  -0.000002  -0.000002   0.000000  -0.000000
    27  H   -0.000000   0.000000   0.000000   0.000000   0.000000  -0.000000
    28  H    0.000000   0.000000   0.000000   0.000000   0.000000   0.000000
              25         26         27         28
     1  C    0.052862   0.016615   0.000953   0.000049
     2  C    0.009588   0.026800   0.001733   0.000035
     3  C    0.003403   0.143209   0.034382  -0.000234
     4  C   -0.001924  -0.006135   0.089493  -0.005252
     5  C   -0.006380  -0.020964  -0.024170   0.003337
     6  C   -0.060807  -0.001304  -0.004814   0.000165
     7  O   -0.011930  -0.000013  -0.000004  -0.000000
     8  O   -0.000108   0.000083   0.000004   0.000000
     9  C   -0.000055   0.000513   0.000044  -0.000001
    10  O   -0.039278   0.000024   0.000057   0.000000
    11  C    0.398568   0.000006   0.000090  -0.000000
    12  C   -0.000177   0.288242  -0.029176   0.036510
    13  C    0.000140  -0.121272   0.271248  -0.062399
    14  C    0.000003  -0.023262  -0.025370   0.057752
    15  O   -0.000000   0.001042  -0.004061   0.206208
    16  O    0.000000  -0.002830   0.005225   0.005720
    17  H   -0.000000   0.002645  -0.000002  -0.000000
    18  H    0.000003  -0.000037   0.000447  -0.000000
    19  H    0.005967  -0.000000  -0.000000   0.000000
    20  H   -0.000000   0.000000   0.000000   0.000000
    21  H    0.000000  -0.000002   0.000000   0.000000
    22  H   -0.000000  -0.000002   0.000000   0.000000
    23  H   -0.026397   0.000000   0.000000   0.000000
    24  H   -0.048092  -0.000000  -0.000000   0.000000
    25  H    0.571661  -0.000000  -0.000000   0.000000
    26  H   -0.000000   0.516432   0.003783  -0.000001
    27  H   -0.000000   0.003783   0.519617   0.000038
    28  H    0.000000  -0.000001   0.000038   0.368825
 Mulliken charges:
               1
     1  C    0.089954
     2  C    0.396583
     3  C   -0.318113
     4  C   -0.315084
     5  C   -0.263233
     6  C    0.231744
     7  O   -0.528306
     8  O   -0.381167
     9  C   -0.135646
    10  O   -0.385401
    11  C   -0.193899
    12  C    0.184390
    13  C   -0.507208
    14  C    0.743272
    15  O   -0.481464
    16  O   -0.501202
    17  H    0.147197
    18  H    0.149480
    19  H    0.374203
    20  H    0.167859
    21  H    0.156137
    22  H    0.156125
    23  H    0.181455
    24  H    0.153208
    25  H    0.152955
    26  H    0.176432
    27  H    0.160481
    28  H    0.389248
 Sum of Mulliken charges =  -0.00000
 Mulliken charges with hydrogens summed into heavy atoms:
               1
     1  C    0.089954
     2  C    0.396583
     3  C   -0.170916
     4  C   -0.315084
     5  C   -0.113754
     6  C    0.231744
     7  O   -0.154102
     8  O   -0.381167
     9  C    0.344475
    10  O   -0.385401
    11  C    0.293719
    12  C    0.360822
    13  C   -0.346727
    14  C    0.743272
    15  O   -0.092216
    16  O   -0.501202
 Electronic spatial extent (au):  <R**2>=           5211.4540
 Charge=             -0.0000 electrons
 Dipole moment (field-independent basis, Debye):
    X=              3.1193    Y=             -1.6633    Z=              0.0025  Tot=              3.5350
 Quadrupole moment (field-independent basis, Debye-Ang):
   XX=            -90.3499   YY=            -80.3689   ZZ=            -96.6832
   XY=             -3.4691   XZ=              0.0182   YZ=             -0.0042
 Traceless Quadrupole moment (field-independent basis, Debye-Ang):
   XX=             -1.2159   YY=              8.7651   ZZ=             -7.5492
   XY=             -3.4691   XZ=              0.0182   YZ=             -0.0042
 Octapole moment (field-independent basis, Debye-Ang**2):
  XXX=            -11.4329  YYY=             19.6052  ZZZ=             -0.0036  XYY=             65.0710
  XXY=            -94.5551  XXZ=              0.0289  XZZ=              0.9726  YZZ=             -0.8818
  YYZ=              0.0008  XYZ=             -0.0052
 Hexadecapole moment (field-independent basis, Debye-Ang**3):
 XXXX=          -4068.2109 YYYY=          -1536.7440 ZZZZ=           -115.5901 XXXY=             37.6640
 XXXZ=              0.3392 YYYX=             -1.2077 YYYZ=             -0.0734 ZZZX=             -0.1177
 ZZZY=             -0.1059 XXYY=          -1030.1062 XXZZ=           -810.2012 YYZZ=           -320.4702
 XXYZ=             -0.1423 YYXZ=             -0.0416 ZZXY=             -4.8509
 N-N= 1.054355975312D+03 E-N=-3.981243900912D+03  KE= 7.956256197284D+02
 Calling FoFJK, ICntrl=      2127 FMM=F ISym2X=0 I1Cent= 0 IOpClX= 0 NMat=1 NMatS=1 NMatT=0.
 ***** Axes restored to original set *****
 -------------------------------------------------------------------
 Center     Atomic                   Forces (Hartrees/Bohr)
 Number     Number              X              Y              Z
 -------------------------------------------------------------------
      1        6           0.003859771   -0.001157756    0.000003752
      2        6           0.000680603    0.003085734   -0.000000334
      3        6          -0.000799317    0.001365202    0.000001020
      4        6           0.000276815   -0.000406267   -0.000000092
      5        6          -0.001559688   -0.000895332   -0.000001920
      6        6           0.001641643   -0.002560181   -0.000005896
      7        8          -0.000912491    0.000271808   -0.000004385
      8        8           0.001116399   -0.000121303   -0.000000184
      9        6          -0.000161082   -0.001016457    0.000000243
     10        8          -0.000234772   -0.000207179    0.000008922
     11        6          -0.000475910    0.000148812   -0.000005359
     12        6          -0.000487031    0.001804961    0.000002703
     13        6           0.001887393   -0.002976158    0.000000020
     14        6          -0.006088546    0.003713209   -0.000002178
     15        8           0.000188622    0.000919814    0.000002179
     16        8           0.002108021   -0.003023747   -0.000000697
     17        1          -0.000322178    0.001136429   -0.000000121
     18        1          -0.000399173   -0.000855253   -0.000000203
     19        1           0.000093463    0.000934083    0.000002164
     20        1           0.000137321   -0.000223644   -0.000000086
     21        1          -0.000263073   -0.000326122   -0.000356319
     22        1          -0.000263093   -0.000326228    0.000356290
     23        1          -0.000375955   -0.000012377    0.000000460
     24        1          -0.000107645    0.000333985   -0.000253244
     25        1          -0.000108696    0.000323955    0.000254765
     26        1          -0.000542890    0.001197907   -0.000000697
     27        1           0.000042193   -0.000814259   -0.000000852
     28        1           0.001069296   -0.000313635    0.000000050
 -------------------------------------------------------------------
 Cartesian Forces:  Max     0.006088546 RMS     0.001264226

 GradGradGradGradGradGradGradGradGradGradGradGradGradGradGradGradGradGrad
 Berny optimization.
 FormGI is forming the generalized inverse of G from B-inverse, IUseBI=4.
 Internal  Forces:  Max     0.003588278 RMS     0.000954712
 Search for a local minimum.
 Step number   1 out of a maximum of  131
 All quantities printed in internal units (Hartrees-Bohrs-Radians)
 Mixed Optimization -- En-DIIS/RFO-DIIS
 Second derivative matrix not updated -- first step.
 ITU=  0
     Eigenvalues ---    0.01180   0.01276   0.01509   0.01529   0.01551
     Eigenvalues ---    0.01878   0.02023   0.02051   0.02068   0.02085
     Eigenvalues ---    0.02092   0.02114   0.02135   0.02158   0.02159
     Eigenvalues ---    0.02181   0.02211   0.02216   0.02284   0.02312
     Eigenvalues ---    0.02889   0.09854   0.10098   0.10698   0.10760
     Eigenvalues ---    0.16000   0.16000   0.16000   0.16000   0.16000
     Eigenvalues ---    0.16000   0.16000   0.16000   0.16000   0.16000
     Eigenvalues ---    0.16000   0.16000   0.22000   0.22000   0.23469
     Eigenvalues ---    0.23487   0.25000   0.25000   0.25000   0.25000
     Eigenvalues ---    0.25000   0.25000   0.25000   0.25000   0.25000
     Eigenvalues ---    0.33939   0.33943   0.34127   0.34127   0.34819
     Eigenvalues ---    0.34902   0.35015   0.35571   0.35642   0.35762
     Eigenvalues ---    0.35892   0.36782   0.41511   0.42251   0.43410
     Eigenvalues ---    0.43902   0.45283   0.45495   0.47064   0.47833
     Eigenvalues ---    0.50430   0.52012   0.53368   0.53919   0.54359
     Eigenvalues ---    0.55684   0.57315   0.98122
 RFO step:  Lambda=-3.01857835D-04 EMin= 1.17956213D-02
 Linear search not attempted -- first point.
 Iteration  1 RMS(Cart)=  0.00879732 RMS(Int)=  0.00003295
 Iteration  2 RMS(Cart)=  0.00005230 RMS(Int)=  0.00000124
 Iteration  3 RMS(Cart)=  0.00000000 RMS(Int)=  0.00000124
 Variable       Old X    -DE/DX   Delta X   Delta X   Delta X     New X
                                 (Linear)    (Quad)   (Total)
    R1        2.66629   0.00196   0.00000   0.00448   0.00448   2.67077
    R2        2.64511   0.00274   0.00000   0.00602   0.00602   2.65113
    R3        2.57888  -0.00083   0.00000  -0.00159  -0.00159   2.57729
    R4        2.61653   0.00219   0.00000   0.00451   0.00451   2.62104
    R5        2.56105  -0.00114   0.00000  -0.00212  -0.00212   2.55893
    R6        2.65044   0.00206   0.00000   0.00453   0.00453   2.65497
    R7        2.04456   0.00117   0.00000   0.00327   0.00327   2.04783
    R8        2.62262   0.00196   0.00000   0.00411   0.00411   2.62673
    R9        2.76175   0.00187   0.00000   0.00509   0.00509   2.76685
   R10        2.63466   0.00250   0.00000   0.00539   0.00539   2.64005
   R11        2.04645   0.00093   0.00000   0.00261   0.00261   2.04906
   R12        2.59434  -0.00092   0.00000  -0.00182  -0.00182   2.59251
   R13        1.81229  -0.00084   0.00000  -0.00150  -0.00150   1.81078
   R14        2.67167  -0.00157   0.00000  -0.00361  -0.00361   2.66806
   R15        2.05834  -0.00002   0.00000  -0.00007  -0.00007   2.05828
   R16        2.07116   0.00038   0.00000   0.00110   0.00110   2.07226
   R17        2.07116   0.00038   0.00000   0.00110   0.00110   2.07226
   R18        2.66572  -0.00126   0.00000  -0.00287  -0.00287   2.66285
   R19        2.05969   0.00003   0.00000   0.00008   0.00008   2.05978
   R20        2.07426   0.00025   0.00000   0.00074   0.00074   2.07500
   R21        2.07433   0.00025   0.00000   0.00073   0.00073   2.07506
   R22        2.53130   0.00231   0.00000   0.00403   0.00403   2.53533
   R23        2.05651   0.00130   0.00000   0.00372   0.00372   2.06023
   R24        2.77550   0.00297   0.00000   0.00828   0.00828   2.78378
   R25        2.04758   0.00081   0.00000   0.00228   0.00228   2.04986
   R26        2.55706  -0.00125   0.00000  -0.00230  -0.00230   2.55476
   R27        2.29400  -0.00357   0.00000  -0.00363  -0.00363   2.29037
   R28        1.83312  -0.00111   0.00000  -0.00208  -0.00208   1.83103
    A1        2.07035  -0.00046   0.00000  -0.00176  -0.00176   2.06859
    A2        2.00004  -0.00171   0.00000  -0.00688  -0.00688   1.99316
    A3        2.21280   0.00217   0.00000   0.00864   0.00864   2.22144
    A4        2.11104   0.00070   0.00000   0.00280   0.00280   2.11384
    A5        1.99915  -0.00079   0.00000  -0.00314  -0.00314   1.99602
    A6        2.17300   0.00008   0.00000   0.00034   0.00034   2.17333
    A7        2.09824  -0.00044   0.00000  -0.00204  -0.00204   2.09621
    A8        2.10376   0.00005   0.00000  -0.00002  -0.00002   2.10374
    A9        2.08118   0.00038   0.00000   0.00206   0.00206   2.08324
   A10        2.07433   0.00022   0.00000   0.00087   0.00087   2.07520
   A11        2.06410   0.00025   0.00000   0.00101   0.00101   2.06511
   A12        2.14476  -0.00047   0.00000  -0.00188  -0.00188   2.14288
   A13        2.12105   0.00007   0.00000   0.00039   0.00039   2.12144
   A14        2.12522   0.00012   0.00000   0.00076   0.00076   2.12598
   A15        2.03691  -0.00019   0.00000  -0.00114  -0.00114   2.03576
   A16        2.09136  -0.00010   0.00000  -0.00027  -0.00026   2.09109
   A17        2.22266   0.00088   0.00000   0.00345   0.00345   2.22611
   A18        1.96916  -0.00078   0.00000  -0.00318  -0.00318   1.96598
   A19        1.94858   0.00078   0.00000   0.00484   0.00484   1.95342
   A20        2.06114  -0.00359   0.00000  -0.01434  -0.01434   2.04680
   A21        1.84704  -0.00013   0.00000  -0.00047  -0.00047   1.84657
   A22        1.94304  -0.00045   0.00000  -0.00301  -0.00302   1.94003
   A23        1.94305  -0.00045   0.00000  -0.00301  -0.00302   1.94003
   A24        1.90935   0.00040   0.00000   0.00285   0.00285   1.91220
   A25        1.90935   0.00040   0.00000   0.00285   0.00285   1.91220
   A26        1.91075   0.00026   0.00000   0.00097   0.00096   1.91171
   A27        2.16542  -0.00116   0.00000  -0.00463  -0.00463   2.16079
   A28        1.84404  -0.00036   0.00000  -0.00196  -0.00196   1.84208
   A29        1.95603  -0.00034   0.00000  -0.00229  -0.00229   1.95374
   A30        1.95597  -0.00034   0.00000  -0.00227  -0.00227   1.95370
   A31        1.87905   0.00042   0.00000   0.00286   0.00286   1.88191
   A32        1.87891   0.00041   0.00000   0.00281   0.00281   1.88172
   A33        1.94366   0.00025   0.00000   0.00115   0.00114   1.94480
   A34        2.22591  -0.00075   0.00000  -0.00342  -0.00342   2.22250
   A35        2.02536   0.00054   0.00000   0.00274   0.00274   2.02810
   A36        2.03191   0.00021   0.00000   0.00067   0.00067   2.03259
   A37        2.08933  -0.00142   0.00000  -0.00646  -0.00646   2.08287
   A38        2.15510   0.00082   0.00000   0.00389   0.00389   2.15899
   A39        2.03876   0.00060   0.00000   0.00257   0.00257   2.04132
   A40        1.95179  -0.00021   0.00000  -0.00086  -0.00086   1.95093
   A41        2.20815  -0.00097   0.00000  -0.00389  -0.00389   2.20425
   A42        2.12325   0.00119   0.00000   0.00475   0.00475   2.12800
   A43        1.86517  -0.00017   0.00000  -0.00109  -0.00109   1.86408
    D1        0.00011   0.00000   0.00000   0.00001   0.00001   0.00013
    D2       -3.14150   0.00000   0.00000   0.00001   0.00001  -3.14149
    D3        3.14146  -0.00000   0.00000  -0.00004  -0.00004   3.14142
    D4       -0.00016  -0.00000   0.00000  -0.00004  -0.00004  -0.00020
    D5       -0.00019   0.00000   0.00000   0.00000   0.00000  -0.00018
    D6        3.14138  -0.00000   0.00000  -0.00008  -0.00008   3.14130
    D7       -3.14150   0.00000   0.00000   0.00007   0.00007  -3.14143
    D8        0.00007  -0.00000   0.00000  -0.00001  -0.00001   0.00005
    D9        3.13896  -0.00000   0.00000  -0.00015  -0.00015   3.13880
   D10       -0.00291  -0.00000   0.00000  -0.00021  -0.00021  -0.00312
   D11       -0.00001  -0.00000   0.00000  -0.00002  -0.00002  -0.00003
   D12        3.14155   0.00000   0.00000   0.00000   0.00000   3.14155
   D13       -3.14158  -0.00000   0.00000  -0.00002  -0.00002   3.14159
   D14       -0.00002   0.00000   0.00000   0.00001   0.00001  -0.00002
   D15        3.14156   0.00000   0.00000   0.00001   0.00001   3.14157
   D16       -0.00005   0.00000   0.00000   0.00001   0.00001  -0.00004
   D17       -0.00001   0.00000   0.00000   0.00001   0.00001  -0.00001
   D18        3.14159   0.00000   0.00000   0.00003   0.00003  -3.14156
   D19       -3.14158  -0.00000   0.00000  -0.00002  -0.00002  -3.14159
   D20        0.00003   0.00000   0.00000   0.00001   0.00001   0.00004
   D21       -0.00006   0.00000   0.00000   0.00001   0.00001  -0.00005
   D22       -3.14158   0.00000   0.00000   0.00002   0.00002  -3.14155
   D23        3.14152  -0.00000   0.00000  -0.00001  -0.00001   3.14150
   D24        0.00000   0.00000   0.00000  -0.00000  -0.00000   0.00000
   D25        3.14112   0.00000   0.00000   0.00003   0.00003   3.14115
   D26       -0.00045   0.00000   0.00000   0.00006   0.00006  -0.00038
   D27       -0.00046   0.00000   0.00000   0.00006   0.00006  -0.00041
   D28        3.14116   0.00000   0.00000   0.00009   0.00009   3.14125
   D29        0.00017  -0.00000   0.00000  -0.00002  -0.00002   0.00015
   D30       -3.14140   0.00000   0.00000   0.00005   0.00005  -3.14135
   D31       -3.14150  -0.00000   0.00000  -0.00003  -0.00003  -3.14153
   D32        0.00012   0.00000   0.00000   0.00004   0.00004   0.00016
   D33        0.00010   0.00000   0.00000   0.00004   0.00004   0.00013
   D34       -3.14152  -0.00000   0.00000  -0.00004  -0.00004  -3.14157
   D35       -3.14157   0.00000   0.00000   0.00000   0.00000  -3.14157
   D36       -1.06865   0.00015   0.00000   0.00152   0.00152  -1.06714
   D37        1.06870  -0.00015   0.00000  -0.00152  -0.00152   1.06718
   D38       -3.14148   0.00000   0.00000   0.00033   0.00033  -3.14114
   D39       -1.09983   0.00011   0.00000   0.00140   0.00140  -1.09843
   D40        1.10026  -0.00010   0.00000  -0.00069  -0.00068   1.09957
   D41       -3.14159   0.00000   0.00000   0.00003   0.00003  -3.14156
   D42       -0.00002   0.00000   0.00000   0.00002   0.00002  -0.00000
   D43       -0.00002  -0.00000   0.00000  -0.00000  -0.00000  -0.00003
   D44        3.14154  -0.00000   0.00000  -0.00001  -0.00001   3.14153
   D45        3.14147   0.00000   0.00000   0.00011   0.00011   3.14157
   D46       -0.00009  -0.00000   0.00000  -0.00002  -0.00002  -0.00011
   D47       -0.00010   0.00000   0.00000   0.00011   0.00011   0.00001
   D48        3.14153  -0.00000   0.00000  -0.00001  -0.00001   3.14152
   D49       -3.14158  -0.00000   0.00000  -0.00006  -0.00006   3.14155
   D50       -0.00002   0.00000   0.00000   0.00005   0.00005   0.00003
         Item               Value     Threshold  Converged?
 Maximum Force            0.003588     0.000450     NO 
 RMS     Force            0.000955     0.000300     NO 
 Maximum Displacement     0.037313     0.001800     NO 
 RMS     Displacement     0.008803     0.001200     NO 
 Predicted change in Energy=-1.510744D-04
 GradGradGradGradGradGradGradGradGradGradGradGradGradGradGradGradGradGrad

                          Input orientation:                          
 ---------------------------------------------------------------------
 Center     Atomic      Atomic             Coordinates (Angstroms)
 Number     Number       Type             X           Y           Z
 ---------------------------------------------------------------------
      1          6           0        2.277348   -0.116499    0.000236
      2          6           0        1.696120    1.171763    0.000235
      3          6           0        0.318969    1.336717    0.000240
      4          6           0       -0.525258    0.213702    0.000209
      5          6           0        0.043777   -1.054492    0.000163
      6          6           0        1.429244   -1.234040    0.000087
      7          8           0        3.641191   -0.114495    0.000010
      8          8           0        2.590789    2.188242    0.000255
      9          6           0        2.076229    3.503014    0.000232
     10          8           0        1.790286   -2.557579   -0.000260
     11          6           0        3.126230   -3.005765   -0.000373
     12          6           0       -1.972902    0.432950    0.000181
     13          6           0       -2.937213   -0.499843   -0.000325
     14          6           0       -4.348840   -0.078690   -0.000298
     15          8           0       -5.188442   -1.138292   -0.000871
     16          8           0       -4.757049    1.062511    0.000249
     17          1           0       -0.116699    2.328949    0.000277
     18          1           0       -0.562953   -1.953170    0.000100
     19          1           0        4.000259   -1.002899    0.002496
     20          1           0        2.944097    4.161151    0.000229
     21          1           0        1.472384    3.691660   -0.895480
     22          1           0        1.472370    3.691687    0.895930
     23          1           0        3.069147   -4.094256   -0.001131
     24          1           0        3.662612   -2.696669   -0.907266
     25          1           0        3.662254   -2.698103    0.907257
     26          1           0       -2.302363    1.472205    0.000561
     27          1           0       -2.742385   -1.566942   -0.000790
     28          1           0       -6.089412   -0.781781   -0.000772
 ---------------------------------------------------------------------
                    Distance matrix (angstroms):
                    1          2          3          4          5
     1  C    0.000000
     2  C    1.413311   0.000000
     3  C    2.438665   1.386994   0.000000
     4  C    2.821992   2.419173   1.404949   0.000000
     5  C    2.422534   2.772444   2.406992   1.390006   0.000000
     6  C    1.402917   2.420560   2.800269   2.432290   1.397053
     7  O    1.363845   2.331901   3.625352   4.179356   3.718196
     8  O    2.325957   1.354128   2.426162   3.688978   4.123420
     9  C    3.625096   2.362036   2.789408   4.193722   4.990161
    10  O    2.489197   3.730531   4.162970   3.611336   2.304250
    11  C    3.011388   4.415536   5.170868   4.868094   3.648149
    12  C    4.285618   3.742668   2.463629   1.464152   2.505889
    13  C    5.228633   4.925651   3.738406   2.515288   3.032151
    14  C    6.626296   6.172939   4.877686   3.834745   4.499697
    15  O    7.535389   7.261787   6.037984   4.855222   5.232891
    16  O    7.132518   6.454094   5.083419   4.316078   5.246869
    17  H    3.422233   2.150672   1.083665   2.154342   3.387244
    18  H    3.382406   3.855984   3.406046   2.167200   1.084318
    19  H    1.937558   3.168315   4.361847   4.686196   3.956819
    20  H    4.329301   3.239427   3.855998   5.255357   5.967812
    21  H    3.994039   2.683699   2.770999   4.109626   5.036769
    22  H    3.994063   2.683720   2.771006   4.109649   5.036813
    23  H    4.055797   5.442073   6.087606   5.610548   4.288709
    24  H    3.065908   4.433443   5.317116   5.179964   4.076290
    25  H    3.066811   4.434438   5.317896   5.180406   4.076476
    26  H    4.847447   4.009755   2.624832   2.177598   3.447981
    27  H    5.225084   5.215441   4.219375   2.843650   2.832897
    28  H    8.393169   8.026882   6.749473   5.652503   6.139249
                    6          7          8          9         10
     6  C    0.000000
     7  O    2.479131   0.000000
     8  O    3.614028   2.530996   0.000000
     9  C    4.781032   3.941507   1.411877   0.000000
    10  O    1.371900   3.065046   4.812860   6.067335   0.000000
    11  C    2.453319   2.936772   5.221533   6.592929   1.409119
    12  C    3.788595   5.640722   4.889614   5.081412   4.806751
    13  C    4.427753   6.589681   6.146919   6.415408   5.155922
    14  C    5.892461   7.990112   7.300509   7.355957   6.620708
    15  O    6.618379   8.888790   8.460631   8.620740   7.121589
    16  O    6.598816   8.480318   7.433573   7.256014   7.481488
    17  H    3.883919   4.482427   2.711142   2.487440   5.245450
    18  H    2.118017   4.588633   5.205515   6.060959   2.429618
    19  H    2.581385   0.958226   3.488551   4.899505   2.702039
    20  H    5.603826   4.332100   2.004294   1.089193   6.817083
    21  H    5.006637   4.471291   2.076881   1.096593   6.321034
    22  H    5.006714   4.471407   2.076883   1.096593   6.321199
    23  H    3.296986   4.020663   6.300683   7.661879   1.999214
    24  H    2.819664   2.737011   5.082790   6.463454   2.085092
    25  H    2.820066   2.738352   5.084000   6.464675   2.085090
    26  H    4.609627   6.151704   4.945266   4.826619   5.743601
    27  H    4.184891   6.546728   6.522588   6.994532   4.639663
    28  H    7.532246   9.753456   9.174254   9.221559   8.077320
                   11         12         13         14         15
    11  C    0.000000
    12  C    6.150278   0.000000
    13  C    6.560868   1.341641   0.000000
    14  C    8.027730   2.430403   1.473113   0.000000
    15  O    8.521810   3.578897   2.340011   1.351921   0.000000
    16  O    8.871131   2.854439   2.398490   1.212012   2.242685
    17  H    6.243057   2.653357   3.994667   4.869060   6.143643
    18  H    3.836409   2.771557   2.783751   4.224526   4.696720
    19  H    2.185271   6.143315   6.955688   8.400097   9.189699
    20  H    7.169230   6.170604   7.504310   8.435827   9.706817
    21  H    6.956431   4.826115   6.149353   6.993106   8.276193
    22  H    6.956614   4.826141   6.149522   6.993244   8.276435
    23  H    1.089986   6.776271   6.999726   8.435123   8.770718
    24  H    1.098044   6.509762   7.014719   8.477015   9.032788
    25  H    1.098075   6.510090   7.014914   8.477182   9.032859
    26  H    7.037177   1.090227   2.071717   2.567750   3.891549
    27  H    6.042422   2.142819   1.084739   2.189884   2.483332
    28  H    9.480199   4.291996   3.164782   1.877213   0.968941
                   16         17         18         19         20
    16  O    0.000000
    17  H    4.810064   0.000000
    18  H    5.165731   4.305309   0.000000
    19  H    8.997576   5.296278   4.661108   0.000000
    20  H    8.301158   3.567273   7.048711   5.270948   0.000000
    21  H    6.820600   2.276960   6.067023   5.406977   1.785681
    22  H    6.820592   2.276925   6.067080   5.406254   1.785681
    23  H    9.372384   7.169879   4.216206   3.228539   8.256354
    24  H    9.265296   6.353240   4.385374   1.952057   6.954819
    25  H    9.265504   6.354081   4.385229   1.951040   6.956135
    26  H    2.488641   2.347582   3.841711   6.771203   5.895403
    27  H    3.312536   4.698105   2.213390   6.766196   8.071377
    28  H    2.275215   6.734237   5.649239  10.092094  10.297420
                   21         22         23         24         25
    21  H    0.000000
    22  H    1.791410   0.000000
    23  H    7.998124   7.998457   0.000000
    24  H    6.753369   6.989976   1.768199   0.000000
    25  H    6.991027   6.754638   1.768102   1.814523   0.000000
    26  H    4.469629   4.469497   7.735542   7.333799   7.334183
    27  H    6.798355   6.798636   6.337288   6.566732   6.566847
    28  H    8.831361   8.831565   9.739183   9.979504   9.979569
                   26         27         28
    26  H    0.000000
    27  H    3.070836   0.000000
    28  H    4.407062   3.437887   0.000000
 Stoichiometry    C11H12O5
 Framework group  C1[X(C11H12O5)]
 Deg. of freedom    78
 Full point group                 C1      NOp   1
 Largest Abelian subgroup         C1      NOp   1
 Largest concise Abelian subgroup C1      NOp   1
                         Standard orientation:                         
 ---------------------------------------------------------------------
 Center     Atomic      Atomic             Coordinates (Angstroms)
 Number     Number       Type             X           Y           Z
 ---------------------------------------------------------------------
      1          6           0        2.275803   -0.116684    0.000236
      2          6           0        1.694258    1.171435    0.000235
      3          6           0        0.317067    1.336051    0.000240
      4          6           0       -0.526885    0.212828    0.000209
      5          6           0        0.042462   -1.055225    0.000163
      6          6           0        1.427974   -1.234433    0.000087
      7          8           0        3.639646   -0.114345    0.000010
      8          8           0        2.588677    2.188134    0.000255
      9          6           0        2.073794    3.502779    0.000232
     10          8           0        1.789341   -2.557884   -0.000260
     11          6           0        3.125395   -3.005742   -0.000373
     12          6           0       -1.974582    0.431721    0.000181
     13          6           0       -2.938664   -0.501310   -0.000325
     14          6           0       -4.350395   -0.080503   -0.000298
     15          8           0       -5.189736   -1.140312   -0.000871
     16          8           0       -4.758884    1.060597    0.000249
     17          1           0       -0.118845    2.328175    0.000277
     18          1           0       -0.564047   -1.954053    0.000101
     19          1           0        3.998931   -1.002661    0.002496
     20          1           0        2.941500    4.161130    0.000229
     21          1           0        1.469903    3.691277   -0.895480
     22          1           0        1.469889    3.691304    0.895930
     23          1           0        3.068579   -4.094246   -0.001131
     24          1           0        3.661701   -2.696514   -0.907266
     25          1           0        3.661344   -2.697948    0.907257
     26          1           0       -2.304299    1.470895    0.000561
     27          1           0       -2.743574   -1.568360   -0.000790
     28          1           0       -6.090793   -0.784022   -0.000772
 ---------------------------------------------------------------------
 Rotational constants (GHZ):      0.7813885      0.2585513      0.1947605
 Standard basis: 6-31+G(d,p) (6D, 7F)
 There are   364 symmetry adapted cartesian basis functions of A   symmetry.
 There are   364 symmetry adapted basis functions of A   symmetry.
   364 basis functions,   596 primitive gaussians,   364 cartesian basis functions
    59 alpha electrons       59 beta electrons
       nuclear repulsion energy      1054.1213907623 Hartrees.
 NAtoms=   28 NActive=   28 NUniq=   28 SFac= 1.00D+00 NAtFMM=   60 NAOKFM=F Big=F
 Integral buffers will be    131072 words long.
 Raffenetti 2 integral format.
 Two-electron integral symmetry is turned on.
 One-electron integrals computed using PRISM.
 NBasis=   364 RedAO= T EigKep=  1.37D-06  NBF=   364
 NBsUse=   362 1.00D-06 EigRej=  5.18D-07 NBFU=   362
 Initial guess from the checkpoint file:  "lwm062xSA.chk"
 B after Tr=     0.000000   -0.000000    0.000000
         Rot=    1.000000    0.000004    0.000001    0.000009 Ang=   0.00 deg.
 ExpMin= 4.38D-02 ExpMax= 5.48D+03 ExpMxC= 8.25D+02 IAcc=2 IRadAn=         4 AccDes= 0.00D+00
 Harris functional with IExCor= 1009 and IRadAn=       4 diagonalized for initial guess.
 HarFok:  IExCor= 1009 AccDes= 0.00D+00 IRadAn=         4 IDoV= 1 UseB2=F ITyADJ=14
 ICtDFT=  3500011 ScaDFX=  1.000000  1.000000  1.000000  1.000000
 FoFCou: FMM=F IPFlag=           0 FMFlag=      100000 FMFlg1=           0
         NFxFlg=           0 DoJE=T BraDBF=F KetDBF=T FulRan=T
         wScrn=  0.000000 ICntrl=     500 IOpCl=  0 I1Cent=   200000004 NGrid=           0
         NMat0=    1 NMatS0=      1 NMatT0=    0 NMatD0=    1 NMtDS0=    0 NMtDT0=    0
 Petite list used in FoFCou.
 Requested convergence on RMS density matrix=1.00D-08 within 128 cycles.
 Requested convergence on MAX density matrix=1.00D-06.
 Requested convergence on             energy=1.00D-06.
 No special actions if energy rises.
 SCF Done:  E(RM062X) =  -802.190715673     A.U. after   12 cycles
            NFock= 12  Conv=0.61D-08     -V/T= 2.0083
 Calling FoFJK, ICntrl=      2127 FMM=F ISym2X=0 I1Cent= 0 IOpClX= 0 NMat=1 NMatS=1 NMatT=0.
 ***** Axes restored to original set *****
 -------------------------------------------------------------------
 Center     Atomic                   Forces (Hartrees/Bohr)
 Number     Number              X              Y              Z
 -------------------------------------------------------------------
      1        6           0.000289130   -0.001242572    0.000001748
      2        6          -0.000731953   -0.000012074    0.000002199
      3        6          -0.000243141    0.000037061   -0.000000151
      4        6           0.000593103   -0.000531993    0.000000731
      5        6          -0.000527962    0.000838861    0.000000765
      6        6           0.000658060   -0.000126849   -0.000010574
      7        8          -0.000485019    0.000045292   -0.000003099
      8        8           0.000175635   -0.000166957   -0.000000285
      9        6           0.000378652    0.000590272    0.000000093
     10        8          -0.000564424    0.000181593    0.000011835
     11        6           0.000149875    0.000328078   -0.000006254
     12        6          -0.000444536    0.000279584   -0.000000747
     13        6           0.001222788   -0.000547187   -0.000003751
     14        6          -0.001241674    0.000834893    0.000013754
     15        8           0.000320066    0.000489931   -0.000003262
     16        8           0.000348999   -0.000766064   -0.000005784
     17        1          -0.000084854   -0.000396406    0.000000058
     18        1           0.000170148    0.000042360   -0.000000210
     19        1           0.000099497   -0.000386916    0.000004807
     20        1          -0.000094499    0.000153491   -0.000000031
     21        1           0.000038403    0.000118265    0.000028210
     22        1           0.000038327    0.000118061   -0.000028236
     23        1           0.000111169    0.000011235   -0.000002848
     24        1           0.000039972    0.000135110    0.000044440
     25        1           0.000040034    0.000139500   -0.000042959
     26        1          -0.000023352   -0.000186975   -0.000000344
     27        1          -0.000070418    0.000156003    0.000000038
     28        1          -0.000162026   -0.000135597   -0.000000142
 -------------------------------------------------------------------
 Cartesian Forces:  Max     0.001242572 RMS     0.000370119

 GradGradGradGradGradGradGradGradGradGradGradGradGradGradGradGradGradGrad
 Berny optimization.
 Using GEDIIS/GDIIS optimizer.
 FormGI is forming the generalized inverse of G from B-inverse, IUseBI=4.
 Internal  Forces:  Max     0.002331125 RMS     0.000410118
 Search for a local minimum.
[...]
 ,0.00590968,0.00712593,-0.11633729,0.03050682,-0.23299307,0.00009747,-
 0.00013118,0.00002322,-0.00005401,0.00001184,-0.00000579,-0.00003274,0
 .00009425,0.00003164,0.00002376,-0.00002583,0.00000854,0.00002176,0.00
 008134,-0.00001008,-0.00003557,-0.00004514,0.00000432,-0.00000399,-0.0
 0006108,0.00001649,0.00058719,-0.00021950,-0.00015189,0.00002425,-0.00
 006077,0.00001097,0.00003445,-0.00002662,-0.00002059,0.00179404,-0.000
 95353,0.00182340,0.12948862,-0.03706193,0.24426435,0.00029945,0.000077
 64,0.00002255,-0.00090754,-0.00223784,-0.00069940,0.00027072,0.0006246
 0,-0.00036406,-0.00004727,-0.00039965,0.00028949,0.00003702,0.00043286
 ,0.00006978,0.00023897,-0.00016204,-0.00003782,-0.00033095,0.00007835,
 -0.00008348,-0.00765531,0.01309473,0.00871820,-0.12661501,0.01821819,0
 .11618605,-0.00008489,0.00015844,0.00001006,0.00009598,-0.00002251,0.0
 0001606,-0.00010888,0.00001321,-0.00004947,0.00017983,0.00002949,0.000
 00822,-0.00027029,0.00006903,0.00000371,0.00010792,0.00003765,-0.00000
 193,0.00011725,-0.00008578,-0.00000051,-0.00053093,-0.00106099,-0.0010
 4801,-0.00000239,-0.00000188,-0.00004991,0.00007646,-0.00003553,0.0000
 4026,-0.01156888,0.00374377,0.02167432,0.01023170,-0.00377466,-0.01517
 160,0.13652739,0.00026347,-0.00179345,0.00073347,0.00543002,0.00620343
 ,-0.00182042,-0.00086010,0.00090696,0.00035054,-0.00032782,-0.00079406
 ,0.00039315,-0.00078314,0.00042679,-0.00002901,0.00107363,0.00056458,0
 .00022611,-0.00021997,-0.00001760,-0.00010127,0.02297700,-0.02419066,-
 0.02874153,0.01487928,-0.05428089,-0.02546747,-0.00007267,-0.00011253,
 -0.00009013,-0.00003877,0.00000007,-0.00001434,0.00012745,-0.00005807,
 -0.00006482,-0.00013367,-0.00001182,0.00004836,0.00010770,-0.00004547,
 -0.00001107,-0.00003513,-0.00001197,0.00000394,-0.00003943,0.00004717,
 0.00000586,-0.00098611,-0.00087658,-0.00125645,-0.00002152,0.00001703,
 -0.00004779,-0.00013216,-0.00003081,0.00001454,-0.00864257,0.00493044,
 0.01601752,-0.00376729,0.00265001,0.00271433,-0.02878260,0.06645854,-0
 .00019925,-0.00034360,-0.00024715,0.00116943,0.00137823,0.00051429,0.0
 0097228,-0.00073219,-0.00003208,-0.00037932,0.00032790,-0.00007405,-0.
 00011072,-0.00001287,-0.00003383,0.00012928,0.00003503,-0.00005800,-0.
 00005785,0.00007335,0.00007851,-0.00103395,-0.00588677,0.00714909,0.11
 637305,-0.03060219,-0.23286486,-0.00009755,0.00013144,0.00002329,0.000
 05419,-0.00001184,-0.00000572,0.00003262,-0.00009420,0.00003162,-0.000
 02358,0.00002588,0.00000848,-0.00002197,-0.00008131,-0.00001004,0.0000
 3566,0.00004518,0.00000434,0.00000407,0.00006103,0.00001645,-0.0005868
 3,0.00021938,-0.00015163,-0.00002424,0.00006076,0.00001096,-0.00003417
 ,0.00002653,-0.00001986,-0.00179438,0.00095374,0.00182213,0.01518740,-
 0.00272918,-0.02024552,-0.12951814,0.03715290,0.24411435,-0.00307850,0
 .00060104,-0.00000012,0.00038310,-0.00031745,-0.00000106,-0.00009915,0
 .00003339,0.00000030,-0.00030945,-0.00024334,-0.00000099,-0.00009782,0
 .00161488,-0.00000028,-0.00399665,-0.00025648,0.00001995,0.00156572,-0
 .00163132,-0.00000582,0.00009617,0.00016930,0.00000019,0.00003180,0.00
 004559,0.,-0.01215582,0.04675579,0.00005631,-0.04616419,-0.03414678,-0
 .00003879,0.00000197,0.00016836,-0.00000030,-0.00002982,0.00000773,0.0
 0000004,0.00007217,0.00002045,0.00000003,-0.00004047,-0.00002918,-0.00
 000003,-0.00003064,-0.00000531,0.,0.00001545,0.00000670,0.00000006,-0.
 00002459,-0.00006283,0.00000070,0.00077006,0.00127918,0.00001076,-0.00
 000110,0.00001331,0.,0.00000320,-0.00000934,0.00000790,0.00000320,-0.0
 0000932,-0.00000790,0.06250745,-0.00030841,-0.00005131,0.00000096,0.00
 008529,0.00018543,0.00000036,0.00000316,-0.00009269,0.00000016,0.00028
 299,0.00001358,0.00000040,-0.00003313,-0.00051992,-0.00000014,0.000594
 48,0.00314815,-0.00000953,-0.00015113,0.00020642,-0.00000598,-0.000072
 24,-0.00025488,0.00000023,-0.00004373,0.00012593,-0.00000007,0.0078791
 4,-0.01231690,-0.00000926,-0.01951500,-0.32816296,-0.00035010,-0.00021
 140,-0.00006686,0.00000006,0.00021362,0.00003472,0.00000003,-0.0002888
 2,0.00003333,-0.00000010,0.00011998,0.00006291,0.00000007,0.00010745,-
 0.00006386,0.00000005,0.00001672,-0.00001055,-0.00000007,0.00001941,0.
 00001267,-0.00000009,0.00043146,-0.00022708,0.00000787,-0.00000852,-0.
 00001505,0.,0.00001800,-0.00001104,0.00000242,0.00001800,-0.00001103,-
 0.00000241,0.01425164,0.35301154,-0.00000112,-0.00000058,-0.00032873,0
 .00000073,-0.00000066,-0.00006691,-0.00000052,-0.00000032,0.00005134,0
 .00000095,0.00000070,-0.00010397,0.00000026,-0.00000181,0.00014800,0.0
 0000320,0.00000379,0.00051965,0.00000026,0.,0.00135724,0.00000011,-0.0
 0000008,0.00000029,-0.00000009,0.00000030,-0.00000234,0.00002069,-0.00
 005813,0.00126450,-0.00001309,-0.00034258,-0.05021999,-0.00000035,-0.0
 0000009,-0.00002394,0.00000032,0.00000002,0.00000047,-0.00000043,0.000
 00002,0.00000641,0.00000019,0.00000011,-0.00000864,0.00000015,-0.00000
 008,-0.00000179,0.00000009,-0.00000003,0.00000982,0.00000013,0.0000001
 2,0.00002420,0.00000325,0.00001452,-0.00196427,0.,-0.00000002,0.000000
 18,0.00000064,0.00000025,0.00000083,-0.00000055,-0.00000031,0.00000080
 ,0.00000957,0.00039226,0.04699460,-0.00183720,0.00100232,-0.00039940,-
 0.00008848,-0.00032422,-0.00005371,-0.00000309,0.00046767,-0.00002817,
 0.00016032,-0.00041483,-0.00030956,-0.00114672,0.00109448,-0.00030341,
 0.00266619,-0.00648440,0.00103103,0.00167626,-0.00106866,-0.00022904,0
 .00017157,0.00034047,-0.00001074,0.00005004,-0.00007567,0.00001464,-0.
 03476333,-0.00127567,0.02692399,-0.09935014,-0.03450378,0.09179755,0.0
 0010438,0.00008024,0.00002733,-0.00016271,-0.00003600,-0.00004521,0.00
 029379,-0.00003108,0.00001413,-0.00012696,-0.00005621,-0.00000366,-0.0
 0012801,0.00007324,-0.00000545,0.00001482,0.00000823,0.00004972,0.0002
 3891,-0.00000668,0.00023184,0.00078311,0.00002452,0.00026033,0.0000133
 2,0.00002031,-0.00000084,-0.00001707,-0.00000019,0.00000678,-0.0000134
 8,-0.00000092,-0.00001305,0.00031003,-0.00170108,0.00255357,0.12102995
 ,0.00033526,0.00045581,0.00038893,0.00001344,-0.00022948,0.00009681,-0
 .00010014,0.00000982,0.00002450,-0.00008900,0.00023221,0.00002892,0.00
 040933,-0.00029344,0.00027645,-0.00028930,0.00234783,-0.00148145,-0.00
 168320,-0.00145863,-0.00106969,0.00003847,0.00017244,0.00002612,0.0000
 3074,-0.00006716,-0.00001882,0.01010833,0.00534684,-0.01098854,-0.0375
 4226,-0.07697083,0.06580090,0.00015405,0.00001057,-0.00002785,-0.00013
 151,-0.00002646,0.00006781,0.00016800,-0.00003303,-0.00001654,-0.00006
 585,-0.00003129,-0.00000928,-0.00006174,0.00004502,-0.00000004,-0.0000
 1668,0.00000033,0.00003597,-0.00007295,-0.00002661,-0.00010951,0.00012
 126,-0.00344904,-0.00202907,0.00000481,0.00001013,-0.00000144,-0.00000
 494,0.00001170,0.00000120,-0.00001254,0.00000231,0.00000084,-0.0141072
 6,-0.00753619,0.02799218,0.03803745,0.07801539,0.00336403,-0.00079889,
 -0.00069584,-0.00039176,0.00044078,0.00000242,0.00021622,-0.00007674,0
 .00003362,-0.00024635,0.00005737,-0.00004391,0.00014802,-0.00038399,-0
 .00015990,-0.00071669,0.00112442,0.00020605,-0.00195856,0.00229148,0.0
 0174285,-0.00012259,-0.00008342,0.00001655,0.00000181,-0.00009276,-0.0
 0000492,0.00395909,-0.00480072,0.00781062,0.09507440,0.06530331,-0.234
 98867,0.00009802,-0.00004118,-0.00000119,-0.00007871,-0.00000531,0.000
 01745,0.00004287,-0.00000880,-0.00000750,-0.00001213,-0.00001448,0.000
 00309,-0.00000130,0.00000528,0.00000419,-0.00002808,0.00000619,-0.0000
 2032,-0.00008943,0.00002800,0.00002710,-0.00009935,-0.00297304,-0.0024
 6033,0.00000056,-0.00000653,-0.00000204,-0.00000901,0.00001403,-0.0000
 0960,-0.00001754,0.00001616,0.00001266,-0.00121312,-0.00036422,0.00120
 992,-0.10969381,-0.06933148,0.24586120,-0.00185563,0.00100280,0.000398
 61,-0.00008569,-0.00032966,0.00005636,-0.00000482,0.00046722,0.0000277
 2,0.00016005,-0.00041402,0.00031095,-0.00114921,0.00110216,0.00030266,
 0.00265446,-0.00649469,-0.00104073,0.00169319,-0.00107997,0.00023365,0
 .00017307,0.00034215,0.00001046,0.00005019,-0.00007535,-0.00001451,-0.
 03484748,-0.00115728,-0.02683509,-0.09966275,-0.03435322,-0.09208907,0
 .00010414,0.00008099,-0.00002729,-0.00016282,-0.00003607,0.00004506,0.
 00029426,-0.00003120,-0.00001387,-0.00012716,-0.00005624,0.00000355,-0
 .00012833,0.00007344,0.00000532,0.00001502,0.00000823,-0.00005017,0.00
 023976,-0.00000676,-0.00023188,0.00079292,0.00003602,-0.00028215,0.000
 01335,0.00002039,0.00000080,-0.00001342,-0.00000095,0.00001311,-0.0000
 1705,-0.00000031,-0.00000690,0.00029850,-0.00169929,-0.00257796,0.0100
 9958,0.00474116,0.01178095,0.12144096,0.00032938,0.00045915,-0.0003767
 1,0.00001421,-0.00022922,-0.00009812,-0.00009992,0.00001099,-0.0000234
 0,-0.00008657,0.00022993,-0.00003036,0.00040625,-0.00029348,-0.0002760
 4,-0.00027552,0.00232566,0.00147943,-0.00167984,-0.00145762,0.00104615
 ,0.00003843,0.00017195,-0.00002454,0.00003035,-0.00006659,0.00001905,0
 .01010787,0.00532698,0.01095872,-0.03734006,-0.07655904,-0.06515792,0.
 00015281,0.00001040,0.00002820,-0.00013031,-0.00002631,-0.00006738,0.0
 0016684,-0.00003280,0.00001648,-0.00006543,-0.00003102,0.00000919,-0.0
 0006137,0.00004475,-0.00000002,-0.00001659,0.00000026,-0.00003644,-0.0
 0007259,-0.00002636,0.00010906,0.00012285,-0.00349592,0.00204829,0.000
 00474,0.00001017,0.00000146,-0.00001245,0.00000223,-0.00000089,-0.0000
 0487,0.00001171,-0.00000121,-0.01416577,-0.00746972,-0.02799953,0.0047
 9629,0.00345258,0.00969797,0.03782619,0.07762215,-0.00336767,0.0007940
 4,-0.00070168,0.00039294,-0.00044185,0.00000690,-0.00021585,0.00007591
 ,0.00003284,0.00024668,-0.00005754,-0.00004384,-0.00014817,0.00038374,
 -0.00016039,0.00071523,-0.00112189,0.00020970,0.00195965,-0.00229715,0
 .00174436,0.00012312,0.00008381,0.00001514,-0.00000163,0.00009309,-0.0
 0000488,-0.00387755,0.00482533,0.00791808,-0.09535440,-0.06471187,-0.2
 3482248,-0.00009834,0.00004123,-0.00000091,0.00007894,0.00000537,0.000
 01705,-0.00004301,0.00000871,-0.00000746,0.00001220,0.00001457,0.00000
 318,0.00000131,-0.00000524,0.00000421,0.00002820,-0.00000619,-0.000020
 63,0.00008926,-0.00002811,0.00002759,0.00009737,0.00300565,-0.00243174
 ,-0.00000056,0.00000654,-0.00000206,0.00001756,-0.00001626,0.00001274,
 0.00000909,-0.00001407,-0.00000960,0.00116252,0.00033716,0.00111494,-0
 .01184010,-0.00966099,-0.01854292,0.11000568,0.06868257,0.24565249,0.0
 0013307,-0.00024619,0.00000025,-0.00017434,-0.00001516,-0.00000040,0.0
 0137307,0.00186778,-0.00000034,-0.00717738,0.02792394,-0.00000502,-0.0
 0536289,-0.00136489,-0.00000115,0.00065472,0.00145699,-0.00000021,-0.0
 0013558,-0.00010774,0.00000027,0.00005350,-0.00019095,0.00000007,-0.00
 010082,0.00013300,-0.00000006,-0.00059994,-0.00000923,0.00000058,0.000
 03520,0.00008379,-0.00000037,-0.08171566,0.08162993,-0.00001073,0.0104
 4714,-0.02321668,0.00000178,-0.00039386,-0.00469164,0.00000142,0.00095
 882,0.00177698,0.00000043,-0.00037177,0.00209301,-0.00000056,-0.000726
 12,-0.00104943,0.00000044,0.00011898,0.00006176,0.00000005,0.00003726,
 0.00000399,-0.00000010,0.00003943,-0.00002246,0.,-0.00000494,-0.000016
 63,0.00005575,-0.00000492,-0.00001668,-0.00005576,-0.00004228,0.000016
 48,0.00000004,-0.00001816,0.00000448,0.00000433,-0.00001831,0.00000453
 ,-0.00000433,0.08657410,-0.00014697,0.00004317,0.,0.00002970,0.0000894
 3,0.00000046,-0.00177750,0.00127247,-0.00000054,-0.00074424,-0.0023091
 8,0.00000090,0.00000487,0.00088478,-0.00000032,-0.00025480,-0.00000851
 ,-0.00000004,0.00016838,0.00002247,-0.00000015,0.00006611,0.00009216,-
 0.00000004,0.00003110,-0.00005562,0.00000003,0.00012896,-0.00004029,-0
 .00000010,-0.00006484,0.00001396,0.00000010,0.07965057,-0.31327556,0.0
 0003184,0.00665990,-0.02117989,0.00000331,0.00110618,-0.00287430,-0.00
 000013,0.00003763,0.00069179,0.00000008,0.00141157,0.00216350,-0.00000
 013,0.00025669,0.00041167,-0.00000032,-0.00011015,0.00005688,0.0000000
 2,-0.00002039,0.00001229,0.00000001,0.00000013,0.00000565,0.,-0.000002
 80,0.00000885,0.00000303,-0.00000281,0.00000884,-0.00000304,0.00000642
 ,-0.00000683,-0.00000001,0.00001135,0.00000294,-0.00000191,0.00001140,
 0.00000292,0.00000192,-0.08360470,0.33484107,0.00000065,0.00000054,0.0
 0010483,-0.00000010,0.00000011,0.00006430,0.00000096,-0.00000030,-0.00
 142449,-0.00000454,0.00000655,0.00468324,-0.00000055,-0.00000062,0.002
 32868,-0.00000110,-0.00000039,-0.00004573,-0.00000040,0.,-0.00002204,0
 .00000005,-0.00000004,-0.00001293,-0.00000005,0.00000005,0.00007526,0.
 00000009,0.00000058,-0.00016824,0.,-0.00000014,-0.00007386,-0.00000810
 ,0.00003509,-0.04568476,-0.00000333,-0.00000451,0.00809411,0.00000334,
 -0.00000185,-0.00805218,-0.00000020,0.00000017,0.00044462,-0.00000050,
 0.00000096,0.00012727,-0.00000003,-0.00000021,0.00034603,0.00000002,0.
 ,0.00001293,0.,-0.00000008,-0.00000347,0.,-0.00000001,-0.00001468,0.00
 000657,0.00001549,-0.00002216,-0.00000657,-0.00001552,-0.00002215,0.00
 000006,-0.00000002,0.00000248,0.00001552,-0.00000717,-0.00000202,-0.00
 001556,0.00000716,-0.00000200,0.00001619,-0.00003561,0.02879203,0.0000
 2822,0.00001036,-0.00000004,-0.00024309,0.00009765,-0.00000012,0.00025
 573,0.00017913,0.00000002,0.00025385,0.00095618,0.00000117,-0.00102770
 ,-0.00074115,-0.00000031,-0.00004157,0.00026719,0.00000027,-0.00000829
 ,0.00005898,0.00000012,0.00017158,0.00027138,-0.00000002,0.00005770,-0
 .00012387,0.00000004,0.00010522,-0.00012791,-0.00000002,-0.00012499,0.
 00005973,0.00000008,0.01157203,-0.02333179,0.00000234,-0.06748798,0.04
 998096,-0.00000720,0.00258222,0.02954364,0.00000056,-0.00046351,-0.001
 66151,-0.00000052,-0.00793239,0.00310055,-0.00000413,0.00011487,0.0001
 5699,-0.00000008,-0.00322860,0.00071201,-0.00000133,-0.00002802,-0.000
 01287,-0.00000017,-0.00000202,0.00001122,0.,-0.00001215,0.00000730,-0.
 00001408,-0.00001216,0.00000731,0.00001408,0.00000906,-0.00000795,0.,0
 .00002341,0.00000034,-0.00001109,0.00002351,0.00000038,0.00001107,-0.0
 0344722,-0.00274243,-0.00000228,0.06828819,-0.00004700,-0.00007489,-0.
 00000011,-0.00007989,-0.00017875,0.00000020,-0.00009088,-0.00003117,0.
 ,0.00143244,-0.00029005,0.00000017,0.00023344,-0.00010196,0.,-0.000061
 94,0.00061328,0.,0.00021751,0.00004172,-0.00000005,0.00006703,0.000236
 47,-0.00000005,0.00005459,-0.00011371,0.00000004,0.00006398,-0.0001339
 7,-0.00000010,-0.00009486,0.00004210,0.00000013,0.00502546,-0.01549201
 ,0.00000250,0.05438069,-0.33679917,0.00002372,-0.00380746,-0.00675283,
 -0.00000047,-0.00079827,0.00134685,-0.00000014,0.00167361,0.00070310,0
 .00000033,0.00004934,0.00012249,-0.00000008,0.00076252,0.00097321,-0.0
 0000010,-0.00003242,0.00002343,0.00000002,-0.00000032,0.00001161,0.,-0
 .00001016,0.00000652,-0.00001436,-0.00001017,0.00000653,0.00001436,0.0
 0000812,-0.00001149,-0.00000002,0.00001628,0.00000331,-0.00000250,0.00
 001633,0.00000330,0.00000249,-0.00246729,-0.00084979,-0.00000021,-0.05
 662649,0.35661506,-0.00000050,-0.00000067,-0.00030519,-0.00000058,0.00
 000035,-0.00002167,0.00000082,0.00000021,0.00000113,0.00000021,0.,-0.0
 0598886,-0.00000044,-0.00000052,-0.00011599,0.00000086,0.00000060,-0.0
 0037558,0.00000010,-0.00000004,0.00024052,0.00000010,0.00000005,0.0000
 1631,0.00000001,-0.00000006,0.00003088,-0.00000016,-0.00000030,0.00001
 178,-0.00000008,0.00000014,0.00001636,0.00000109,-0.00000403,0.0052102
 9,-0.00000738,0.00002319,-0.03614134,0.00000049,0.00000513,0.00091965,
 0.00000032,0.00000012,-0.00083763,-0.00000257,0.00000096,0.00242778,-0
 .00000006,0.00000014,0.00012037,-0.00000158,0.00000011,0.00125789,0.00
 000025,0.00000006,0.00001691,0.,0.,-0.00000231,0.00000017,0.00000133,-
 0.00000769,-0.00000018,-0.00000134,-0.00000768,0.00000002,-0.00000002,
 0.00001059,0.00000661,0.00000788,-0.00000612,-0.00000661,-0.00000787,-
 0.00000615,-0.00000252,0.00000065,0.01023242,0.00001137,-0.00002601,0.
 02355083,-0.00035136,-0.00001624,-0.00000012,-0.00007213,-0.00033505,0
 .00000028,-0.00012211,-0.00007205,0.00000010,0.00028992,-0.00054063,0.
 00000048,0.00003300,0.00012934,0.00000002,0.00005631,0.00033932,-0.000
 00015,0.00043120,-0.00005123,-0.00000021,0.00011818,0.00022364,-0.0000
 0002,0.00001864,-0.00009392,0.00000002,0.00015377,-0.00024242,-0.00000
 010,-0.00014228,0.00004770,0.00000018,-0.00182977,0.00048715,-0.000000
 73,0.00062726,-0.00487348,-0.00000334,-0.04290376,0.00782487,-0.000017
 63,-0.43625345,0.14149834,-0.00016851,0.00628462,0.00709451,0.00000427
 ,-0.00003007,-0.00001762,-0.00000003,-0.00002345,0.00002838,0.,-0.0000
 4081,0.00005274,0.00000016,0.00001631,0.00001056,0.,-0.00001593,0.0000
 0432,0.00000646,-0.00001592,0.00000432,-0.00000647,0.00000263,-0.00001
 711,-0.00000003,0.00001967,0.00001024,-0.00000078,0.00001972,0.0000102
 0,0.00000079,-0.00013111,-0.00010933,-0.00000015,0.00057407,0.00012578
 ,0.00000025,0.47328687,-0.00008572,-0.00001358,0.,-0.00001350,-0.00007
 619,0.,-0.00005538,0.00002691,0.00000016,-0.00009555,-0.00030575,0.000
 00006,0.00003974,-0.00001320,0.,-0.00000891,0.00011891,-0.00000002,0.0
 0011290,-0.00001871,-0.00000007,0.00001694,0.00001460,0.,-0.00001215,0
 .00000412,0.,0.00005099,-0.00009706,-0.00000004,-0.00004360,0.00001842
 ,0.00000006,-0.00132117,0.00064994,-0.00000040,-0.00219131,-0.00413153
 ,-0.00000048,-0.04217631,0.01980557,-0.00001899,0.19106415,-0.11934399
 ,0.00008420,0.00633873,-0.00279674,0.00000349,-0.00001199,-0.00001460,
 0.,-0.00000820,0.00001746,0.,-0.00001030,0.00001857,0.00000005,0.00000
 394,0.00000117,0.,-0.00000210,0.00000053,0.00000577,-0.00000210,0.0000
 0053,-0.00000577,0.00000248,-0.00000631,-0.00000001,0.00000654,0.00000
 295,0.00000097,0.00000654,0.00000293,-0.00000097,-0.00003700,-0.000024
 84,-0.00000004,-0.00004533,0.00008081,-0.00000009,-0.15152232,0.106079
 08,-0.00000010,-0.00000002,-0.00003404,-0.00000011,-0.00000008,0.00010
 484,0.,-0.00000006,-0.00015430,0.00000019,-0.00000033,-0.00062056,0.00
 000003,0.00000007,0.00001090,0.00000003,0.00000014,0.00004839,0.000000
 17,-0.00000005,-0.00000953,0.00000004,0.00000008,-0.00000255,0.0000000
 1,-0.00000004,0.00002319,0.00000006,-0.00000011,-0.00001988,-0.0000000
 6,0.00000002,0.00001382,-0.00000116,0.00000043,0.00053147,0.00000050,-
 0.00000244,0.00518260,-0.00002419,0.00000458,0.00433548,-0.00016647,0.
 00006356,-0.01680678,0.00000560,0.00000188,-0.00607113,-0.00000002,0.,
 -0.00000476,0.,0.,0.00000133,-0.00000003,0.00000005,0.00000871,0.,0.,0
 .00000049,-0.00000140,0.00000134,-0.00000478,0.00000139,-0.00000134,-0
 .00000478,0.,-0.00000002,0.00000432,0.00000312,0.00000335,-0.00000244,
 -0.00000310,-0.00000333,-0.00000247,-0.00000007,-0.00000002,0.00024250
 ,0.00000027,0.00000022,-0.00024748,0.00018527,-0.00006787,0.01347742\\
 -0.00005455,0.00001808,-0.00001151,-0.00002792,-0.00004758,0.00000126,
 0.00005149,0.00001189,-0.00000026,-0.00002228,-0.00004653,0.00000114,-
 0.00001436,0.00005026,0.00000387,0.00001537,0.00006162,0.00003069,0.00
 001709,0.00001617,0.00000687,0.00000218,0.00003556,0.00000029,-0.00000
 691,0.00001161,-0.00000067,0.00000039,-0.00002794,-0.00004643,0.000027
 41,0.00002799,0.00003251,-0.00001414,-0.00003402,-0.00000227,-0.000020
 52,0.00002712,-0.00001881,0.00003886,-0.00006620,0.00006082,0.00001829
 ,-0.00001480,-0.00001808,-0.00002022,0.00005490,-0.00002361,0.00000731
 ,-0.00002708,0.00000014,-0.00000014,0.00000014,0.00000112,-0.00000159,
 -0.00001748,-0.00000701,0.00000729,-0.00001185,-0.00000011,0.00000700,
 -0.00000439,0.00000604,0.00000693,-0.00000413,-0.00000617,-0.00000407,
 0.00000086,0.00000037,-0.00000268,-0.00001225,-0.00000186,-0.00000297,
 0.00000393,-0.00000732,0.00000902,-0.00001851,-0.00000038,-0.00001306,
 0.00000983,-0.00000044,-0.00000322,0.00000279,-0.00000021\\\@


 IF YOU WANT TO LEARN FROM THE THEORETICAL PHYSICISTS ABOUT THE
 METHODS WHICH THEY USE, I ADVISE YOU TO FOLLOW THIS PRINCIPLE VERY STRICTLY:
 DON'T LISTEN TO THEIR WORDS; PAY ATTENTION, INSTEAD, TO THEIR ACTIONS.
 -- A.EINSTEIN, 1934
 Job cpu time:       0 days  1 hours  6 minutes 28.7 seconds.
 File lengths (MBytes):  RWF=    373 Int=      0 D2E=      0 Chk=     11 Scr=      1
 Normal termination of Gaussian 09 at Mon Feb 26 15:03:41 2024.
