 Entering Gaussian System, Link 0=g09
 Input=lwpbeSAYang.gjf
 Output=lwpbeSAYang.log
 Initial command:
 /home/phzd/g09E/g09/l1.exe "/home/phzd/g09E/scratch/Gau-3275801.inp" -scrdir="/home/phzd/g09E/scratch/"
 Default is to use a total of  18 processors:
                               18 via shared-memory
                                1 via Linda
 Entering Link 1 = /home/phzd/g09E/g09/l1.exe PID=   3275803.
  
 Copyright (c) 1988,1990,1992,1993,1995,1998,2003,2009,2015,
            Gaussian, Inc.  All Rights Reserved.
  
 This is part of the Gaussian(R) 09 program.  It is based on
 the Gaussian(R) 03 system (copyright 2003, Gaussian, Inc.),
 the Gaussian(R) 98 system (copyright 1998, Gaussian, Inc.),
 the Gaussian(R) 94 system (copyright 1995, Gaussian, Inc.),
 the Gaussian 92(TM) system (copyright 1992, Gaussian, Inc.),
 the Gaussian 90(TM) system (copyright 1990, Gaussian, Inc.),
 the Gaussian 88(TM) system (copyright 1988, Gaussian, Inc.),
 the Gaussian 86(TM) system (copyright 1986, Carnegie Mellon
 University), and the Gaussian 82(TM) system (copyright 1983,
 Carnegie Mellon University). Gaussian is a federally registered
 trademark of Gaussian, Inc.
  
 This software contains proprietary and confidential information,
 including trade secrets, belonging to Gaussian, Inc.
  
 This software is provided under written license and may be
 used, copied, transmitted, or stored only in accord with that
 written license.
  
 The following legend is applicable only to US Government
 contracts under FAR:
  
                    RESTRICTED RIGHTS LEGEND
  
 Use, reproduction and disclosure by the US Government is
 subject to restrictions as set forth in subparagraphs (a)
 and (c) of the Commercial Computer Software - Restricted
 Rights clause in FAR 52.227-19.
  
 Gaussian, Inc.
 340 Quinnipiac St., Bldg. 40, Wallingford CT 06492
  
  
 ---------------------------------------------------------------
 Warning -- This program may not be used in any manner that
 competes with the business of Gaussian, Inc. or will provide
 assistance to any competitor of Gaussian, Inc.  The licensee
 of this program is prohibited from giving any competitor of
 Gaussian, Inc. access to this program.  By using this program,
 the user acknowledges that Gaussian, Inc. is engaged in the
 business of creating and licensing software in the field of
 computational chemistry and represents and warrants to the
 licensee that it is not a competitor of Gaussian, Inc. and that
 it will not use this program in any manner prohibited above.
 ---------------------------------------------------------------
  

 Cite this work as:
 Gaussian 09, Revision E.01,
 M. J. Frisch, G. W. Trucks, H. B. Schlegel, G. E. Scuseria, 
 M. A. Robb, J. R. Cheeseman, G. Scalmani, V. Barone, B. Mennucci, 
 G. A. Petersson, H. Nakatsuji, M. Caricato, X. Li, H. P. Hratchian, 
 A. F. Izmaylov, J. Bloino, G. Zheng, J. L. Sonnenberg, M. Hada, 
 M. Ehara, K. Toyota, R. Fukuda, J. Hasegawa, M. Ishida, T. Nakajima, 
 Y. Honda, O. Kitao, H. Nakai, T. Vreven, J. A. Montgomery, Jr., 
 J. E. Peralta, F. Ogliaro, M. Bearpark, J. J. Heyd, E. Brothers, 
 K. N. Kudin, V. N. Staroverov, T. Keith, R. Kobayashi, J. Normand, 
 K. Raghavachari, A. Rendell, J. C. Burant, S. S. Iyengar, J. Tomasi, 
 M. Cossi, N. Rega, J. M. Millam, M. Klene, J. E. Knox, J. B. Cross, 
 V. Bakken, C. Adamo, J. Jaramillo, R. Gomperts, R. E. Stratmann, 
 O. Yazyev, A. J. Austin, R. Cammi, C. Pomelli, J. W. Ochterski, 
 R. L. Martin, K. Morokuma, V. G. Zakrzewski, G. A. Voth, 
 P. Salvador, J. J. Dannenberg, S. Dapprich, A. D. Daniels, 
 O. Farkas, J. B. Foresman, J. V. Ortiz, J. Cioslowski, 
 and D. J. Fox, Gaussian, Inc., Wallingford CT, 2013.
 
 ******************************************
 Gaussian 09:  ES64L-G09RevE.01 30-Nov-2015
                19-May-2024 
 ******************************************
 %chk=lwpbeSAYang.chk
 -----------------------------
 # opt freq pbepbe/6-31+g(d,p)
 -----------------------------
 1/14=-1,18=20,19=15,26=3,38=1/1,3;
 2/9=110,12=2,17=6,18=5,40=1/2;
 3/5=1,6=6,7=111,11=2,16=1,25=1,30=1,71=1,74=1009/1,2,3;
 4//1;
 5/5=2,38=5/2;
 6/7=2,8=2,9=2,10=2,28=1/1;
 7//1,2,3,16;
 1/14=-1,18=20,19=15,26=3/3(2);
 2/9=110/2;
 99//99;
 2/9=110/2;
 3/5=1,6=6,7=111,11=2,16=1,25=1,30=1,71=1,74=1009/1,2,3;
 4/5=5,16=3,69=1/1;
 5/5=2,38=5/2;
 7//1,2,3,16;
 1/14=-1,18=20,19=15,26=3/3(-5);
 2/9=110/2;
 6/7=2,8=2,9=2,10=2,19=2,28=1/1;
 99/9=1/99;
 ----------
 [No Title]
 ----------
 Symbolic Z-matrix:
 Charge =  1 Multiplicity = 1
 C                    -2.39062   0.19781   0.00131 
 C                    -1.91859  -1.13235  -0.00602 
 C                    -0.55509  -1.34707  -0.01071 
 C                     0.35667  -0.26047  -0.00884 
 C                    -0.13048   1.07124   0.00184 
 C                    -1.48574   1.28725   0.00525 
 O                    -3.69383   0.4154    0.00558 
 O                    -2.87236  -2.07457  -0.00762 
 C                    -2.47649  -3.43982  -0.01708 
 O                    -2.11886   2.48223   0.01407 
 C                    -1.33898   3.67454   0.0169 
 C                     1.73157  -0.56177  -0.01226 
 C                     2.79247   0.33279  -0.01819 
 C                     4.10069  -0.11078   0.00112 
 O                     5.06981   0.77584  -0.09868 
 O                     4.38342  -1.39477   0.12753 
 H                    -0.16385  -2.35642  -0.01639 
 H                     0.5547    1.90737   0.007 
 H                    -3.86102   1.37394   0.01127 
 H                    -3.40056  -4.0139   -0.01792 
 H                    -1.90001  -3.67312  -0.91849 
 H                    -1.89484  -3.68417   0.87806 
 H                    -2.05118   4.49673   0.02242 
 H                    -0.71465   3.72212   0.91428 
 H                    -0.71974   3.72965  -0.88357 
 H                     1.98808  -1.61855  -0.00891 
 H                     2.66016   1.40582  -0.04005 
 H                     5.95615   0.45021   0.11974 
 H                     5.28881  -1.64087  -0.11442 
 

 GradGradGradGradGradGradGradGradGradGradGradGradGradGradGradGradGradGrad
 Berny optimization.
 Initialization pass.
                           ----------------------------
                           !    Initial Parameters    !
                           ! (Angstroms and Degrees)  !
 --------------------------                            --------------------------
 ! Name  Definition              Value          Derivative Info.                !
 --------------------------------------------------------------------------------
 ! R1    R(1,2)                  1.4115         estimate D2E/DX2                !
 ! R2    R(1,6)                  1.4162         estimate D2E/DX2                !
 ! R3    R(1,7)                  1.3213         estimate D2E/DX2                !
 ! R4    R(2,3)                  1.3803         estimate D2E/DX2                !
 ! R5    R(2,8)                  1.3407         estimate D2E/DX2                !
 ! R6    R(3,4)                  1.4185         estimate D2E/DX2                !
 ! R7    R(3,17)                 1.0825         estimate D2E/DX2                !
 ! R8    R(4,5)                  1.4181         estimate D2E/DX2                !
 ! R9    R(4,12)                 1.4075         estimate D2E/DX2                !
 ! R10   R(5,6)                  1.3724         estimate D2E/DX2                !
 ! R11   R(5,18)                 1.081          estimate D2E/DX2                !
 ! R12   R(6,10)                 1.3524         estimate D2E/DX2                !
 ! R13   R(7,19)                 0.973          estimate D2E/DX2                !
 ! R14   R(8,9)                  1.4215         estimate D2E/DX2                !
 ! R15   R(9,20)                 1.0879         estimate D2E/DX2                !
 ! R16   R(9,21)                 1.0951         estimate D2E/DX2                !
 ! R17   R(9,22)                 1.0951         estimate D2E/DX2                !
 ! R18   R(10,11)                1.4247         estimate D2E/DX2                !
 ! R19   R(11,23)                1.0878         estimate D2E/DX2                !
 ! R20   R(11,24)                1.0942         estimate D2E/DX2                !
 ! R21   R(11,25)                1.0942         estimate D2E/DX2                !
 ! R22   R(12,13)                1.3877         estimate D2E/DX2                !
 ! R23   R(12,26)                1.0875         estimate D2E/DX2                !
 ! R24   R(13,14)                1.3815         estimate D2E/DX2                !
 ! R25   R(13,27)                1.0814         estimate D2E/DX2                !
 ! R26   R(14,15)                1.3173         estimate D2E/DX2                !
 ! R27   R(14,16)                1.3208         estimate D2E/DX2                !
 ! R28   R(15,28)                0.9692         estimate D2E/DX2                !
 ! R29   R(16,29)                0.9689         estimate D2E/DX2                !
 ! A1    A(2,1,6)              120.7495         estimate D2E/DX2                !
 ! A2    A(2,1,7)              119.0174         estimate D2E/DX2                !
 ! A3    A(6,1,7)              120.233          estimate D2E/DX2                !
 ! A4    A(1,2,3)              118.4881         estimate D2E/DX2                !
 ! A5    A(1,2,8)              115.1127         estimate D2E/DX2                !
 ! A6    A(3,2,8)              126.3992         estimate D2E/DX2                !
 ! A7    A(2,3,4)              121.0497         estimate D2E/DX2                !
 ! A8    A(2,3,17)             120.1375         estimate D2E/DX2                !
 ! A9    A(4,3,17)             118.8128         estimate D2E/DX2                !
 ! A10   A(3,4,5)              119.9073         estimate D2E/DX2                !
 ! A11   A(3,4,12)             117.6388         estimate D2E/DX2                !
 ! A12   A(5,4,12)             122.4534         estimate D2E/DX2                !
 ! A13   A(4,5,6)              119.1488         estimate D2E/DX2                !
 ! A14   A(4,5,18)             120.5748         estimate D2E/DX2                !
 ! A15   A(6,5,18)             120.2764         estimate D2E/DX2                !
 ! A16   A(1,6,5)              120.6562         estimate D2E/DX2                !
 ! A17   A(1,6,10)             112.3724         estimate D2E/DX2                !
 ! A18   A(5,6,10)             126.9713         estimate D2E/DX2                !
 ! A19   A(1,7,19)             109.3735         estimate D2E/DX2                !
 ! A20   A(2,8,9)              118.4804         estimate D2E/DX2                !
 ! A21   A(8,9,20)             105.6804         estimate D2E/DX2                !
 ! A22   A(8,9,21)             110.8963         estimate D2E/DX2                !
 ! A23   A(8,9,22)             110.9019         estimate D2E/DX2                !
 ! A24   A(20,9,21)            109.5173         estimate D2E/DX2                !
 ! A25   A(20,9,22)            109.5135         estimate D2E/DX2                !
 ! A26   A(21,9,22)            110.2233         estimate D2E/DX2                !
 ! A27   A(6,10,11)            118.8965         estimate D2E/DX2                !
 ! A28   A(10,11,23)           105.9122         estimate D2E/DX2                !
 ! A29   A(10,11,24)           110.5084         estimate D2E/DX2                !
 ! A30   A(10,11,25)           110.5047         estimate D2E/DX2                !
 ! A31   A(23,11,24)           109.6662         estimate D2E/DX2                !
 ! A32   A(23,11,25)           109.6717         estimate D2E/DX2                !
 ! A33   A(24,11,25)           110.4752         estimate D2E/DX2                !
 ! A34   A(4,12,13)            127.502          estimate D2E/DX2                !
 ! A35   A(4,12,26)            116.0033         estimate D2E/DX2                !
 ! A36   A(13,12,26)           116.4947         estimate D2E/DX2                !
 ! A37   A(12,13,14)           121.1247         estimate D2E/DX2                !
 ! A38   A(12,13,27)           123.1063         estimate D2E/DX2                !
 ! A39   A(14,13,27)           115.7688         estimate D2E/DX2                !
 ! A40   A(13,14,15)           118.6528         estimate D2E/DX2                !
 ! A41   A(13,14,16)           121.0756         estimate D2E/DX2                !
 ! A42   A(15,14,16)           120.2694         estimate D2E/DX2                !
 ! A43   A(14,15,28)           115.4419         estimate D2E/DX2                !
 ! A44   A(14,16,29)           115.0264         estimate D2E/DX2                !
 ! D1    D(6,1,2,3)             -0.0679         estimate D2E/DX2                !
 ! D2    D(6,1,2,8)            179.9278         estimate D2E/DX2                !
 ! D3    D(7,1,2,3)            179.9866         estimate D2E/DX2                !
 ! D4    D(7,1,2,8)             -0.0178         estimate D2E/DX2                !
 ! D5    D(2,1,6,5)              0.0081         estimate D2E/DX2                !
 ! D6    D(2,1,6,10)          -179.9131         estimate D2E/DX2                !
 ! D7    D(7,1,6,5)            179.9529         estimate D2E/DX2                !
 ! D8    D(7,1,6,10)             0.0317         estimate D2E/DX2                !
 ! D9    D(2,1,7,19)           179.948          estimate D2E/DX2                !
 ! D10   D(6,1,7,19)             0.0022         estimate D2E/DX2                !
 ! D11   D(1,2,3,4)             -0.0282         estimate D2E/DX2                !
 ! D12   D(1,2,3,17)          -179.9984         estimate D2E/DX2                !
 ! D13   D(8,2,3,4)            179.9767         estimate D2E/DX2                !
 ! D14   D(8,2,3,17)             0.0065         estimate D2E/DX2                !
 ! D15   D(1,2,8,9)            179.9001         estimate D2E/DX2                !
 ! D16   D(3,2,8,9)             -0.1047         estimate D2E/DX2                !
 ! D17   D(2,3,4,5)              0.1824         estimate D2E/DX2                !
 ! D18   D(2,3,4,12)           179.9241         estimate D2E/DX2                !
 ! D19   D(17,3,4,5)          -179.8471         estimate D2E/DX2                !
 ! D20   D(17,3,4,12)           -0.1054         estimate D2E/DX2                !
 ! D21   D(3,4,5,6)             -0.2393         estimate D2E/DX2                !
 ! D22   D(3,4,5,18)           179.776          estimate D2E/DX2                !
 ! D23   D(12,4,5,6)          -179.9682         estimate D2E/DX2                !
 ! D24   D(12,4,5,18)            0.0472         estimate D2E/DX2                !
 ! D25   D(3,4,12,13)          179.6402         estimate D2E/DX2                !
 ! D26   D(3,4,12,26)           -0.4221         estimate D2E/DX2                !
 ! D27   D(5,4,12,13)           -0.6251         estimate D2E/DX2                !
 ! D28   D(5,4,12,26)          179.3125         estimate D2E/DX2                !
 ! D29   D(4,5,6,1)              0.1455         estimate D2E/DX2                !
 ! D30   D(4,5,6,10)          -179.9457         estimate D2E/DX2                !
 ! D31   D(18,5,6,1)          -179.8698         estimate D2E/DX2                !
 ! D32   D(18,5,6,10)            0.039          estimate D2E/DX2                !
 ! D33   D(1,6,10,11)         -179.9054         estimate D2E/DX2                !
 ! D34   D(5,6,10,11)            0.1794         estimate D2E/DX2                !
 ! D35   D(2,8,9,20)          -179.9322         estimate D2E/DX2                !
 ! D36   D(2,8,9,21)           -61.3375         estimate D2E/DX2                !
 ! D37   D(2,8,9,22)            61.4746         estimate D2E/DX2                !
 ! D38   D(6,10,11,23)         179.9057         estimate D2E/DX2                !
 ! D39   D(6,10,11,24)         -61.3915         estimate D2E/DX2                !
 ! D40   D(6,10,11,25)          61.1984         estimate D2E/DX2                !
 ! D41   D(4,12,13,14)         178.9289         estimate D2E/DX2                !
 ! D42   D(4,12,13,27)          -1.2106         estimate D2E/DX2                !
 ! D43   D(26,12,13,14)         -1.0085         estimate D2E/DX2                !
 ! D44   D(26,12,13,27)        178.852          estimate D2E/DX2                !
 ! D45   D(12,13,14,15)        175.3772         estimate D2E/DX2                !
 ! D46   D(12,13,14,16)         -5.1609         estimate D2E/DX2                !
 ! D47   D(27,13,14,15)         -4.4931         estimate D2E/DX2                !
 ! D48   D(27,13,14,16)        174.9688         estimate D2E/DX2                !
 ! D49   D(13,14,15,28)        166.6523         estimate D2E/DX2                !
 ! D50   D(16,14,15,28)        -12.8141         estimate D2E/DX2                !
 ! D51   D(13,14,16,29)        163.6128         estimate D2E/DX2                !
 ! D52   D(15,14,16,29)        -16.934          estimate D2E/DX2                !
 --------------------------------------------------------------------------------
 Trust Radius=3.00D-01 FncErr=1.00D-07 GrdErr=1.00D-06
 Number of steps in this run=    135 maximum allowed number of steps=    174.
 GradGradGradGradGradGradGradGradGradGradGradGradGradGradGradGradGradGrad

                          Input orientation:                          
 ---------------------------------------------------------------------
 Center     Atomic      Atomic             Coordinates (Angstroms)
 Number     Number       Type             X           Y           Z
 ---------------------------------------------------------------------
      1          6           0       -2.390622    0.197810    0.001313
      2          6           0       -1.918592   -1.132350   -0.006022
      3          6           0       -0.555091   -1.347074   -0.010708
      4          6           0        0.356667   -0.260470   -0.008844
      5          6           0       -0.130478    1.071243    0.001841
      6          6           0       -1.485740    1.287251    0.005249
      7          8           0       -3.693827    0.415397    0.005578
      8          8           0       -2.872363   -2.074566   -0.007621
      9          6           0       -2.476489   -3.439819   -0.017081
     10          8           0       -2.118856    2.482227    0.014070
     11          6           0       -1.338977    3.674539    0.016902
     12          6           0        1.731568   -0.561770   -0.012261
     13          6           0        2.792471    0.332785   -0.018192
     14          6           0        4.100688   -0.110784    0.001123
     15          8           0        5.069812    0.775838   -0.098675
     16          8           0        4.383421   -1.394768    0.127532
     17          1           0       -0.163845   -2.356420   -0.016390
     18          1           0        0.554703    1.907370    0.007000
     19          1           0       -3.861015    1.373940    0.011265
     20          1           0       -3.400559   -4.013899   -0.017916
     21          1           0       -1.900007   -3.673119   -0.918491
     22          1           0       -1.894843   -3.684174    0.878061
     23          1           0       -2.051177    4.496728    0.022420
     24          1           0       -0.714648    3.722122    0.914277
     25          1           0       -0.719739    3.729645   -0.883569
     26          1           0        1.988077   -1.618546   -0.008910
     27          1           0        2.660162    1.405822   -0.040053
     28          1           0        5.956153    0.450211    0.119736
     29          1           0        5.288812   -1.640872   -0.114420
 ---------------------------------------------------------------------
                    Distance matrix (angstroms):
                    1          2          3          4          5
     1  C    0.000000
     2  C    1.411450   0.000000
     3  C    2.399163   1.380313   0.000000
     4  C    2.785268   2.436593   1.418455   0.000000
     5  C    2.423043   2.837822   2.455343   1.418056   0.000000
     6  C    1.416230   2.458039   2.793927   2.406263   1.372372
     7  O    1.321252   2.355231   3.599755   4.106520   3.623204
     8  O    2.322896   1.340691   2.428786   3.703725   4.173025
     9  C    3.638689   2.373981   2.841020   4.258533   5.084664
    10  O    2.300561   3.620176   4.136366   3.694743   2.438170
    11  C    3.632333   4.841762   5.082503   4.284877   2.870165
    12  C    4.191610   3.694492   2.417750   1.407532   2.476721
    13  C    5.184887   4.933648   3.745418   2.507026   3.014855
    14  C    6.498641   6.105357   4.817139   3.747025   4.393171
    15  O    7.483461   7.244830   6.012822   4.826566   5.209643
    16  O    6.959877   6.308888   4.940677   4.185687   5.145123
    17  H    3.388649   2.139531   1.082536   2.159629   3.427874
    18  H    3.405520   3.918833   3.438512   2.176924   1.081022
    19  H    1.882933   3.170930   4.281768   4.523333   3.742809
    20  H    4.331147   3.240323   3.899833   5.310844   6.045865
    21  H    4.008844   2.699713   2.836081   4.191206   5.146573
    22  H    4.010522   2.700736   2.836703   4.192570   5.147304
    23  H    4.312350   5.630711   6.032362   5.331944   3.927271
    24  H    4.007888   5.085502   5.155367   4.226217   2.863731
    25  H    4.006086   5.083929   5.153840   4.224312   2.863264
    26  H    4.740491   3.936808   2.557617   2.122703   3.423939
    27  H    5.193402   5.235309   4.232865   2.843166   2.810938
    28  H    8.351430   8.033176   6.756001   5.645870   6.119367
    29  H    7.897332   7.226134   5.852203   5.122764   6.061171
                    6          7          8          9         10
     6  C    0.000000
     7  O    2.373979   0.000000
     8  O    3.636578   2.622002   0.000000
     9  C    4.829832   4.042909   1.421521   0.000000
    10  O    1.352361   2.598537   4.618723   5.932917   0.000000
    11  C    2.391823   4.020877   5.950133   7.204802   1.424720
    12  C    3.710830   5.512720   4.846107   5.098130   4.908399
    13  C    4.383451   6.486868   6.155144   6.480315   5.361182
    14  C    5.758706   7.812256   7.244305   7.371707   6.738442
    15  O    6.576291   8.771668   8.438675   8.644367   7.389278
    16  O    6.454086   8.278497   7.288813   7.159714   7.571233
    17  H    3.876108   4.488232   2.723158   2.553836   5.218764
    18  H    2.132594   4.502887   5.253647   6.146636   2.734672
    19  H    2.376864   0.973031   3.587476   5.008991   2.064807
    20  H    5.636423   4.439056   2.010002   1.087876   6.621438
    21  H    5.062626   4.559348   2.080993   1.095126   6.229434
    22  H    5.064013   4.561146   2.081061   1.095126   6.230663
    23  H    3.258950   4.399528   6.622473   7.948033   2.015655
    24  H    2.710998   4.542650   6.253577   7.434037   2.078344
    25  H    2.709621   4.540927   6.252195   7.432240   2.078301
    26  H    4.528936   6.034995   4.881786   4.821769   5.803772
    27  H    4.147845   6.430879   6.536282   7.061583   4.899040
    28  H    7.489694   9.650718   9.183323   9.287653   8.327426
    29  H    7.381245   9.215772   8.173388   7.971548   8.478797
                   11         12         13         14         15
    11  C    0.000000
    12  C    5.232152   0.000000
    13  C    5.313889   1.387724   0.000000
    14  C    6.627132   2.411700   1.381506   0.000000
    15  O    7.034799   3.597296   2.321434   1.317293   0.000000
    16  O    7.645649   2.783119   2.353040   1.320807   2.287757
    17  H    6.144470   2.610244   3.996452   4.819692   6.099916
    18  H    2.590175   2.735331   2.736340   4.080072   4.655936
    19  H    3.413717   5.918151   6.734519   8.098964   8.951507
    20  H    7.960114   6.185140   7.566193   8.455967   9.731150
    21  H    7.428176   4.867246   6.235155   7.038768   8.309253
    22  H    7.429754   4.867539   6.237799   7.034524   8.327793
    23  H    1.087775   6.316547   6.387566   7.686030   8.035432
    24  H    1.094227   5.019380   4.965580   6.221935   6.570132
    25  H    1.094231   5.018399   4.962172   6.226403   6.546750
    26  H    6.251936   1.087467   2.110646   2.595491   3.903617
    27  H    4.598199   2.175885   1.081384   2.092105   2.491331
    28  H    7.976577   4.346107   3.168864   1.942044   0.969194
    29  H    8.496966   3.718721   3.183756   1.940659   2.426664
                   16         17         18         19         20
    16  O    0.000000
    17  H    4.650066   0.000000
    18  H    5.057443   4.323975   0.000000
    19  H    8.697700   5.252182   4.447823   0.000000
    20  H    8.214094   3.636421   7.120825   5.407558   0.000000
    21  H    6.765095   2.358334   6.166360   5.493888   1.782925
    22  H    6.724676   2.357823   6.166392   5.495606   1.782884
    23  H    8.724954   7.108387   3.673639   3.609355   8.617031
    24  H    7.265799   6.173994   2.393267   4.028525   8.241913
    25  H    7.302340   6.172617   2.395413   4.027119   8.240062
    26  H    2.409640   2.274925   3.806166   6.570179   5.897050
    27  H    3.292569   4.704258   2.164884   6.521457   8.130572
    28  H    2.424354   6.734247   5.595684   9.861127  10.367993
    29  H    0.968938   5.500281   5.917479   9.634533   9.008093
                   21         22         23         24         25
    21  H    0.000000
    22  H    1.796593   0.000000
    23  H    8.225240   8.227012   0.000000
    24  H    7.710623   7.499826   1.783741   0.000000
    25  H    7.496344   7.710313   1.783805   1.797869   0.000000
    26  H    4.490635   4.486714   7.328924   6.056379   6.058089
    27  H    6.882037   6.891956   5.635097   4.203015   4.187530
    28  H    8.933029   8.905410   8.972241   7.472368   7.505254
    29  H    7.513699   7.534255   9.568924   8.115507   8.095476
                   26         27         28         29
    26  H    0.000000
    27  H    3.098301   0.000000
    28  H    4.476822   3.435445   0.000000
    29  H    3.302496   4.024634   2.207442   0.000000
 Stoichiometry    C11H13O5(1+)
 Framework group  C1[X(C11H13O5)]
 Deg. of freedom    81
 Full point group                 C1      NOp   1
 Largest Abelian subgroup         C1      NOp   1
 Largest concise Abelian subgroup C1      NOp   1
                         Standard orientation:                         
 ---------------------------------------------------------------------
 Center     Atomic      Atomic             Coordinates (Angstroms)
 Number     Number       Type             X           Y           Z
 ---------------------------------------------------------------------
      1          6           0        2.390622    0.197810   -0.001313
      2          6           0        1.918592   -1.132350    0.006022
      3          6           0        0.555091   -1.347074    0.010708
      4          6           0       -0.356667   -0.260470    0.008844
      5          6           0        0.130478    1.071243   -0.001841
      6          6           0        1.485740    1.287251   -0.005249
      7          8           0        3.693827    0.415397   -0.005578
      8          8           0        2.872363   -2.074566    0.007621
      9          6           0        2.476489   -3.439819    0.017081
     10          8           0        2.118856    2.482227   -0.014070
     11          6           0        1.338977    3.674539   -0.016902
     12          6           0       -1.731568   -0.561770    0.012261
     13          6           0       -2.792471    0.332785    0.018192
     14          6           0       -4.100688   -0.110784   -0.001123
     15          8           0       -5.069812    0.775838    0.098675
     16          8           0       -4.383421   -1.394768   -0.127532
     17          1           0        0.163845   -2.356420    0.016390
     18          1           0       -0.554703    1.907370   -0.007000
     19          1           0        3.861015    1.373940   -0.011265
     20          1           0        3.400559   -4.013899    0.017916
     21          1           0        1.900007   -3.673119    0.918491
     22          1           0        1.894843   -3.684174   -0.878061
     23          1           0        2.051177    4.496728   -0.022420
     24          1           0        0.714648    3.722122   -0.914277
     25          1           0        0.719739    3.729645    0.883569
     26          1           0       -1.988077   -1.618546    0.008910
     27          1           0       -2.660162    1.405822    0.040053
     28          1           0       -5.956153    0.450211   -0.119736
     29          1           0       -5.288812   -1.640872    0.114420
 ---------------------------------------------------------------------
 Rotational constants (GHZ):      0.7152517      0.2761758      0.1998298
 Standard basis: 6-31+G(d,p) (6D, 7F)
 There are   369 symmetry adapted cartesian basis functions of A   symmetry.
 There are   369 symmetry adapted basis functions of A   symmetry.
   369 basis functions,   603 primitive gaussians,   369 cartesian basis functions
    59 alpha electrons       59 beta electrons
       nuclear repulsion energy      1075.6728382089 Hartrees.
 NAtoms=   29 NActive=   29 NUniq=   29 SFac= 1.00D+00 NAtFMM=   60 NAOKFM=F Big=F
 Integral buffers will be    131072 words long.
 Raffenetti 2 integral format.
 Two-electron integral symmetry is turned on.
 One-electron integrals computed using PRISM.
 NBasis=   369 RedAO= T EigKep=  1.38D-06  NBF=   369
 NBsUse=   367 1.00D-06 EigRej=  7.59D-07 NBFU=   367
 ExpMin= 4.38D-02 ExpMax= 5.48D+03 ExpMxC= 8.25D+02 IAcc=2 IRadAn=         4 AccDes= 0.00D+00
 Harris functional with IExCor= 1009 and IRadAn=       4 diagonalized for initial guess.
 HarFok:  IExCor= 1009 AccDes= 0.00D+00 IRadAn=         4 IDoV= 1 UseB2=F ITyADJ=14
 ICtDFT=  3500011 ScaDFX=  1.000000  1.000000  1.000000  1.000000
 FoFCou: FMM=F IPFlag=           0 FMFlag=      100000 FMFlg1=           0
         NFxFlg=           0 DoJE=T BraDBF=F KetDBF=T FulRan=T
         wScrn=  0.000000 ICntrl=     500 IOpCl=  0 I1Cent=   200000004 NGrid=           0
         NMat0=    1 NMatS0=      1 NMatT0=    0 NMatD0=    1 NMtDS0=    0 NMtDT0=    0
 Petite list used in FoFCou.
 Requested convergence on RMS density matrix=1.00D-08 within 128 cycles.
 Requested convergence on MAX density matrix=1.00D-06.
 Requested convergence on             energy=1.00D-06.
 No special actions if energy rises.
 EnCoef did     2 forward-backward iterations
 SCF Done:  E(RPBE-PBE) =  -801.968183096     A.U. after   19 cycles
            NFock= 19  Conv=0.79D-08     -V/T= 2.0086

 **********************************************************************

            Population analysis using the SCF density.

 **********************************************************************

 Orbital symmetries:
       Occupied  (A) (A) (A) (A) (A) (A) (A) (A) (A) (A) (A) (A)
                 (A) (A) (A) (A) (A) (A) (A) (A) (A) (A) (A) (A)
                 (A) (A) (A) (A) (A) (A) (A) (A) (A) (A) (A) (A)
                 (A) (A) (A) (A) (A) (A) (A) (A) (A) (A) (A) (A)
                 (A) (A) (A) (A) (A) (A) (A) (A) (A) (A) (A)
       Virtual   (A) (A) (A) (A) (A) (A) (A) (A) (A) (A) (A) (A)
                 (A) (A) (A) (A) (A) (A) (A) (A) (A) (A) (A) (A)
                 (A) (A) (A) (A) (A) (A) (A) (A) (A) (A) (A) (A)
                 (A) (A) (A) (A) (A) (A) (A) (A) (A) (A) (A) (A)
                 (A) (A) (A) (A) (A) (A) (A) (A) (A) (A) (A) (A)
                 (A) (A) (A) (A) (A) (A) (A) (A) (A) (A) (A) (A)
                 (A) (A) (A) (A) (A) (A) (A) (A) (A) (A) (A) (A)
                 (A) (A) (A) (A) (A) (A) (A) (A) (A) (A) (A) (A)
                 (A) (A) (A) (A) (A) (A) (A) (A) (A) (A) (A) (A)
                 (A) (A) (A) (A) (A) (A) (A) (A) (A) (A) (A) (A)
                 (A) (A) (A) (A) (A) (A) (A) (A) (A) (A) (A) (A)
                 (A) (A) (A) (A) (A) (A) (A) (A) (A) (A) (A) (A)
                 (A) (A) (A) (A) (A) (A) (A) (A) (A) (A) (A) (A)
                 (A) (A) (A) (A) (A) (A) (A) (A) (A) (A) (A) (A)
                 (A) (A) (A) (A) (A) (A) (A) (A) (A) (A) (A) (A)
                 (A) (A) (A) (A) (A) (A) (A) (A) (A) (A) (A) (A)
                 (A) (A) (A) (A) (A) (A) (A) (A) (A) (A) (A) (A)
                 (A) (A) (A) (A) (A) (A) (A) (A) (A) (A) (A) (A)
                 (A) (A) (A) (A) (A) (A) (A) (A) (A) (A) (A) (A)
                 (A) (A) (A) (A) (A) (A) (A) (A) (A) (A) (A) (A)
                 (A) (A) (A) (A) (A) (A) (A) (A) (A) (A) (A) (A)
                 (A) (A) (A) (A) (A) (A) (A) (A) (A) (A) (A) (A)
                 (A) (A) (A) (A) (A) (A) (A) (A) (A) (A) (A) (A)
                 (A) (A) (A) (A) (A) (A) (A) (A) (A) (A) (A) (A)
                 (A) (A) (A) (A) (A) (A) (A) (A) (A) (A) (A) (A)
                 (A) (A) (A) (A) (A) (A) (A) (A)
 The electronic state is 1-A.
 Alpha  occ. eigenvalues --  -19.00496 -19.00438 -18.95732 -18.95566 -18.93581
 Alpha  occ. eigenvalues --  -10.20473 -10.11267 -10.10227 -10.09573 -10.07543
 Alpha  occ. eigenvalues --  -10.07159 -10.05861 -10.05689 -10.05660 -10.04468
 Alpha  occ. eigenvalues --  -10.04225  -1.21626  -1.14597  -1.14170  -1.11801
 Alpha  occ. eigenvalues --   -1.10521  -0.92892  -0.89267  -0.84251  -0.82913
 Alpha  occ. eigenvalues --   -0.78521  -0.77785  -0.74861  -0.73773  -0.71729
 Alpha  occ. eigenvalues --   -0.67792  -0.65248  -0.64651  -0.62056  -0.60080
 Alpha  occ. eigenvalues --   -0.58680  -0.58064  -0.57650  -0.55724  -0.55553
 Alpha  occ. eigenvalues --   -0.54475  -0.53594  -0.52536  -0.50558  -0.50269
 Alpha  occ. eigenvalues --   -0.49835  -0.48927  -0.48283  -0.47310  -0.46985
 Alpha  occ. eigenvalues --   -0.46234  -0.44545  -0.43342  -0.42992  -0.41981
 Alpha  occ. eigenvalues --   -0.40754  -0.38061  -0.33256  -0.31763
 Alpha virt. eigenvalues --   -0.25776  -0.17488  -0.16372  -0.14913  -0.12215
 Alpha virt. eigenvalues --   -0.11856  -0.11403  -0.10734  -0.10203  -0.08509
 Alpha virt. eigenvalues --   -0.08178  -0.07581  -0.07196  -0.06401  -0.05992
 Alpha virt. eigenvalues --   -0.05605  -0.04948  -0.04388  -0.03821  -0.03413
 Alpha virt. eigenvalues --   -0.03086  -0.01903  -0.01475  -0.01166  -0.01046
 Alpha virt. eigenvalues --   -0.00910   0.00518   0.00921   0.01187   0.01331
 Alpha virt. eigenvalues --    0.01541   0.01954   0.02114   0.02613   0.03096
 Alpha virt. eigenvalues --    0.03626   0.03672   0.04354   0.04471   0.04817
 Alpha virt. eigenvalues --    0.05074   0.05692   0.05851   0.07017   0.07429
 Alpha virt. eigenvalues --    0.07958   0.08312   0.08780   0.08948   0.09385
 Alpha virt. eigenvalues --    0.10404   0.10435   0.11247   0.11636   0.12100
 Alpha virt. eigenvalues --    0.12898   0.12951   0.13187   0.13208   0.13871
 Alpha virt. eigenvalues --    0.14062   0.14600   0.15154   0.15381   0.15699
 Alpha virt. eigenvalues --    0.16480   0.17121   0.17733   0.18423   0.18624
 Alpha virt. eigenvalues --    0.19583   0.20153   0.20421   0.20631   0.20903
 Alpha virt. eigenvalues --    0.22049   0.22177   0.22669   0.23132   0.24119
 Alpha virt. eigenvalues --    0.24165   0.24992   0.26168   0.26270   0.27429
 Alpha virt. eigenvalues --    0.28925   0.29381   0.31297   0.32024   0.32540
 Alpha virt. eigenvalues --    0.33280   0.34931   0.36595   0.40861   0.42437
 Alpha virt. eigenvalues --    0.45165   0.49088   0.49697   0.49918   0.50643
 Alpha virt. eigenvalues --    0.52787   0.53118   0.53554   0.54572   0.54828
 Alpha virt. eigenvalues --    0.55314   0.56071   0.56733   0.58098   0.58622
 Alpha virt. eigenvalues --    0.59171   0.59582   0.61421   0.62322   0.63993
 Alpha virt. eigenvalues --    0.68445   0.69172   0.70037   0.72076   0.73983
 Alpha virt. eigenvalues --    0.74799   0.75279   0.76312   0.76541   0.76871
 Alpha virt. eigenvalues --    0.78546   0.80520   0.84593   0.84973   0.86937
 Alpha virt. eigenvalues --    0.88411   0.89152   0.90205   0.91756   0.92411
 Alpha virt. eigenvalues --    0.93601   0.94948   0.96107   0.96721   0.97944
 Alpha virt. eigenvalues --    0.98385   0.99638   1.00706   1.00890   1.01969
 Alpha virt. eigenvalues --    1.02314   1.02685   1.04078   1.04851   1.05298
 Alpha virt. eigenvalues --    1.06199   1.06810   1.07458   1.08499   1.08721
 Alpha virt. eigenvalues --    1.09520   1.10482   1.11206   1.12204   1.12817
 Alpha virt. eigenvalues --    1.13629   1.14778   1.16052   1.17526   1.18014
 Alpha virt. eigenvalues --    1.19210   1.20846   1.21523   1.22960   1.24943
 Alpha virt. eigenvalues --    1.27648   1.28021   1.29468   1.33140   1.34949
 Alpha virt. eigenvalues --    1.35966   1.37576   1.38582   1.39163   1.41114
 Alpha virt. eigenvalues --    1.42965   1.44564   1.48359   1.49873   1.52206
 Alpha virt. eigenvalues --    1.54969   1.56142   1.59593   1.61077   1.62066
 Alpha virt. eigenvalues --    1.63639   1.64005   1.64946   1.67171   1.67695
 Alpha virt. eigenvalues --    1.68389   1.70131   1.71038   1.72793   1.72918
 Alpha virt. eigenvalues --    1.73731   1.75162   1.76246   1.78218   1.78872
 Alpha virt. eigenvalues --    1.80056   1.83031   1.83247   1.84538   1.86084
 Alpha virt. eigenvalues --    1.87353   1.88668   1.88922   1.89773   1.91147
 Alpha virt. eigenvalues --    1.94121   1.95287   1.96540   1.97824   1.98768
 Alpha virt. eigenvalues --    2.00195   2.02842   2.03310   2.06248   2.06566
 Alpha virt. eigenvalues --    2.09025   2.11645   2.12010   2.16208   2.17830
 Alpha virt. eigenvalues --    2.18679   2.21076   2.22969   2.26122   2.27587
 Alpha virt. eigenvalues --    2.28806   2.29497   2.31296   2.32786   2.32911
 Alpha virt. eigenvalues --    2.34714   2.35558   2.36790   2.37861   2.39977
 Alpha virt. eigenvalues --    2.40939   2.42318   2.43453   2.44718   2.45309
 Alpha virt. eigenvalues --    2.47933   2.48801   2.49476   2.51289   2.51870
 Alpha virt. eigenvalues --    2.52930   2.54362   2.56673   2.58885   2.60491
 Alpha virt. eigenvalues --    2.63299   2.64548   2.64941   2.65838   2.67118
 Alpha virt. eigenvalues --    2.68798   2.69819   2.73376   2.77251   2.77952
 Alpha virt. eigenvalues --    2.79901   2.87616   2.88609   2.95963   2.98488
 Alpha virt. eigenvalues --    3.00295   3.01257   3.05358   3.06788   3.09116
 Alpha virt. eigenvalues --    3.17000   3.21246   3.21901   3.23331   3.24438
 Alpha virt. eigenvalues --    3.25006   3.28683   3.30332   3.35359   3.36741
 Alpha virt. eigenvalues --    3.41014   3.55240   3.97980   4.02320   4.08312
 Alpha virt. eigenvalues --    4.13008   4.15502   4.19632   4.20366   4.25200
 Alpha virt. eigenvalues --    4.28331   4.32612   4.37612   4.41662   4.46733
 Alpha virt. eigenvalues --    4.58977   4.63145   5.12206
          Condensed to atoms (all electrons):
               1          2          3          4          5          6
     1  C   27.408216  -1.228866  -9.039599   0.563202  -8.574271   0.245332
     2  C   -1.228866  22.179541  -1.403582  -3.250159  -0.503254  -8.308097
     3  C   -9.039599  -1.403582  27.242495  -0.697796  -1.695422  -4.973249
     4  C    0.563202  -3.250159  -0.697796  17.570278  -3.159407  -2.959752
     5  C   -8.574271  -0.503254  -1.695422  -3.159407  16.551031   1.039699
     6  C    0.245332  -8.308097  -4.973249  -2.959752   1.039699  20.895418
     7  O    0.067781  -0.994735  -0.005518  -0.078885   0.191844   0.754315
     8  O   -0.803322   0.244223   0.570486  -0.027568   0.000553   0.032196
     9  C    0.203035  -0.175759  -0.080133  -0.250155   0.019128   0.121704
    10  O   -0.777347   0.131464   0.005343  -0.028453   0.399316   0.191137
    11  C   -0.066435   0.074051   0.051722  -0.073723   0.059445  -0.202090
    12  C   -1.692075  -0.573208  -2.022265  -1.196641   1.648862  -0.239352
    13  C   -0.132853  -0.842146  -1.771584   0.584551  -0.220011  -0.297392
    14  C   -0.086013   0.073366  -0.806013  -1.348882   0.344324   0.135826
    15  O    0.000759   0.001786   0.007841   0.027800  -0.006085   0.002003
    16  O   -0.003772   0.002138  -0.005998   0.001618  -0.023648  -0.007763
    17  H    0.013209  -0.121501   0.119424   0.148558   0.039387  -0.003208
    18  H   -0.004982  -0.010957   0.099021   0.257008   0.150178  -0.135915
    19  H    0.179711   0.323541   0.022961   0.001931  -0.040968  -0.495332
    20  H    0.088823   0.109920  -0.174905  -0.024536  -0.000462   0.013702
    21  H   -0.044683  -0.155617   0.146585   0.052234   0.001519  -0.011113
    22  H   -0.049692  -0.153211   0.161558   0.029508   0.001591  -0.009135
    23  H    0.046613   0.005971  -0.004115  -0.023631  -0.087241   0.074954
    24  H   -0.025342  -0.003236   0.010125   0.042962   0.067891  -0.100034
    25  H   -0.012675  -0.004940   0.005883   0.037434   0.041611  -0.072077
    26  H    0.016550   0.017303   0.191733   0.030128   0.016718   0.003351
    27  H    0.001125   0.000097   0.029599   0.096519  -0.015672  -0.008019
    28  H    0.000073  -0.000053   0.000023  -0.004558   0.004272   0.000531
    29  H   -0.000087   0.000384   0.008039   0.013410  -0.003922  -0.000472
               7          8          9         10         11         12
     1  C    0.067781  -0.803322   0.203035  -0.777347  -0.066435  -1.692075
     2  C   -0.994735   0.244223  -0.175759   0.131464   0.074051  -0.573208
     3  C   -0.005518   0.570486  -0.080133   0.005343   0.051722  -2.022265
     4  C   -0.078885  -0.027568  -0.250155  -0.028453  -0.073723  -1.196641
     5  C    0.191844   0.000553   0.019128   0.399316   0.059445   1.648862
     6  C    0.754315   0.032196   0.121704   0.191137  -0.202090  -0.239352
     7  O    8.281326   0.050631  -0.000326  -0.031553  -0.000153   0.018341
     8  O    0.050631   8.405590   0.018493  -0.002439   0.000102  -0.042543
     9  C   -0.000326   0.018493   5.141583  -0.000074   0.001202  -0.029135
    10  O   -0.031553  -0.002439  -0.000074   8.554312   0.036081   0.013220
    11  C   -0.000153   0.000102   0.001202   0.036081   5.089664   0.002688
    12  C    0.018341  -0.042543  -0.029135   0.013220   0.002688  11.243620
    13  C    0.001587  -0.005751  -0.004789  -0.007921  -0.012537  -2.597822
    14  C    0.000895  -0.000537  -0.001259  -0.000626  -0.005280   1.046979
    15  O    0.000000   0.000001  -0.000007   0.000001  -0.000034  -0.111020
    16  O    0.000001  -0.000007   0.000083  -0.000002   0.000054   0.090249
    17  H   -0.000748  -0.016324  -0.001703   0.000148   0.000072   0.096486
    18  H   -0.000530   0.000174   0.000193  -0.017643   0.003101  -0.065962
    19  H    0.157233  -0.003389  -0.000275   0.054843   0.003689   0.002162
    20  H   -0.000845  -0.071171   0.425682  -0.000003   0.000006  -0.003924
    21  H    0.000061  -0.034942   0.390138   0.000002  -0.000016   0.006859
    22  H    0.000071  -0.034883   0.394869   0.000001  -0.000009   0.010339
    23  H    0.000139  -0.000001   0.000002  -0.062225   0.414010  -0.000068
    24  H   -0.000323  -0.000002   0.000002  -0.040758   0.403688  -0.001842
    25  H   -0.000353  -0.000001  -0.000009  -0.040854   0.401306  -0.001687
    26  H   -0.000018   0.000101   0.000713   0.000049   0.000140   0.253971
    27  H   -0.000007   0.000004   0.000029   0.000131   0.000582  -0.035688
    28  H   -0.000000   0.000000  -0.000000  -0.000000  -0.000004   0.057139
    29  H   -0.000000  -0.000000   0.000013   0.000000   0.000003  -0.003632
              13         14         15         16         17         18
     1  C   -0.132853  -0.086013   0.000759  -0.003772   0.013209  -0.004982
     2  C   -0.842146   0.073366   0.001786   0.002138  -0.121501  -0.010957
     3  C   -1.771584  -0.806013   0.007841  -0.005998   0.119424   0.099021
     4  C    0.584551  -1.348882   0.027800   0.001618   0.148558   0.257008
     5  C   -0.220011   0.344324  -0.006085  -0.023648   0.039387   0.150178
     6  C   -0.297392   0.135826   0.002003  -0.007763  -0.003208  -0.135915
     7  O    0.001587   0.000895   0.000000   0.000001  -0.000748  -0.000530
     8  O   -0.005751  -0.000537   0.000001  -0.000007  -0.016324   0.000174
     9  C   -0.004789  -0.001259  -0.000007   0.000083  -0.001703   0.000193
    10  O   -0.007921  -0.000626   0.000001  -0.000002   0.000148  -0.017643
    11  C   -0.012537  -0.005280  -0.000034   0.000054   0.000072   0.003101
    12  C   -2.597822   1.046979  -0.111020   0.090249   0.096486  -0.065962
    13  C   14.393615  -2.607874   0.242294  -0.175939   0.022260   0.007757
    14  C   -2.607874   8.383624  -0.053431   0.231315  -0.001202   0.010510
    15  O    0.242294  -0.053431   8.182998  -0.104033   0.000003   0.000072
    16  O   -0.175939   0.231315  -0.104033   8.220155  -0.000184   0.000061
    17  H    0.022260  -0.001202   0.000003  -0.000184   0.550022  -0.000125
    18  H    0.007757   0.010510   0.000072   0.000061  -0.000125   0.571120
    19  H    0.000740   0.000038   0.000000   0.000000   0.000005  -0.000038
    20  H   -0.000170  -0.000003   0.000000  -0.000000   0.000066  -0.000000
    21  H    0.000890  -0.000065  -0.000000  -0.000001  -0.000352   0.000000
    22  H    0.000771   0.000018  -0.000000   0.000002  -0.000376   0.000000
    23  H    0.000030   0.000065   0.000000  -0.000000  -0.000000   0.000072
    24  H    0.000670  -0.000569  -0.000002   0.000000   0.000000  -0.000240
    25  H   -0.000061  -0.000361   0.000001  -0.000000   0.000000  -0.000391
    26  H   -0.179258  -0.069263   0.001054  -0.005346   0.004142  -0.000035
    27  H    0.311520  -0.074200  -0.011701   0.009290  -0.000002   0.001776
    28  H   -0.057363   0.022672   0.200960  -0.003428  -0.000000  -0.000000
    29  H    0.084723  -0.072654  -0.004581   0.196290  -0.000000   0.000000
              19         20         21         22         23         24
     1  C    0.179711   0.088823  -0.044683  -0.049692   0.046613  -0.025342
     2  C    0.323541   0.109920  -0.155617  -0.153211   0.005971  -0.003236
     3  C    0.022961  -0.174905   0.146585   0.161558  -0.004115   0.010125
     4  C    0.001931  -0.024536   0.052234   0.029508  -0.023631   0.042962
     5  C   -0.040968  -0.000462   0.001519   0.001591  -0.087241   0.067891
     6  C   -0.495332   0.013702  -0.011113  -0.009135   0.074954  -0.100034
     7  O    0.157233  -0.000845   0.000061   0.000071   0.000139  -0.000323
     8  O   -0.003389  -0.071171  -0.034942  -0.034883  -0.000001  -0.000002
     9  C   -0.000275   0.425682   0.390138   0.394869   0.000002   0.000002
    10  O    0.054843  -0.000003   0.000002   0.000001  -0.062225  -0.040758
    11  C    0.003689   0.000006  -0.000016  -0.000009   0.414010   0.403688
    12  C    0.002162  -0.003924   0.006859   0.010339  -0.000068  -0.001842
    13  C    0.000740  -0.000170   0.000890   0.000771   0.000030   0.000670
    14  C    0.000038  -0.000003  -0.000065   0.000018   0.000065  -0.000569
    15  O    0.000000   0.000000  -0.000000  -0.000000   0.000000  -0.000002
    16  O    0.000000  -0.000000  -0.000001   0.000002  -0.000000   0.000000
    17  H    0.000005   0.000066  -0.000352  -0.000376  -0.000000   0.000000
    18  H   -0.000038  -0.000000   0.000000   0.000000   0.000072  -0.000240
    19  H    0.372766  -0.000002   0.000000   0.000000  -0.000111   0.000056
    20  H   -0.000002   0.488664  -0.024381  -0.024440  -0.000000   0.000000
    21  H    0.000000  -0.024381   0.538135  -0.042393   0.000000  -0.000000
    22  H    0.000000  -0.024440  -0.042393   0.538022   0.000000  -0.000000
    23  H   -0.000111  -0.000000   0.000000   0.000000   0.486260  -0.024109
    24  H    0.000056   0.000000  -0.000000  -0.000000  -0.024109   0.527579
    25  H    0.000057   0.000000  -0.000000  -0.000000  -0.024047  -0.039906
    26  H   -0.000000   0.000000  -0.000002  -0.000003   0.000000   0.000000
    27  H   -0.000000   0.000000   0.000000  -0.000000  -0.000000  -0.000004
    28  H    0.000000   0.000000   0.000000  -0.000000  -0.000000  -0.000000
    29  H   -0.000000  -0.000000  -0.000000   0.000000   0.000000   0.000000
              25         26         27         28         29
     1  C   -0.012675   0.016550   0.001125   0.000073  -0.000087
     2  C   -0.004940   0.017303   0.000097  -0.000053   0.000384
     3  C    0.005883   0.191733   0.029599   0.000023   0.008039
     4  C    0.037434   0.030128   0.096519  -0.004558   0.013410
     5  C    0.041611   0.016718  -0.015672   0.004272  -0.003922
     6  C   -0.072077   0.003351  -0.008019   0.000531  -0.000472
     7  O   -0.000353  -0.000018  -0.000007  -0.000000  -0.000000
     8  O   -0.000001   0.000101   0.000004   0.000000  -0.000000
     9  C   -0.000009   0.000713   0.000029  -0.000000   0.000013
    10  O   -0.040854   0.000049   0.000131  -0.000000   0.000000
    11  C    0.401306   0.000140   0.000582  -0.000004   0.000003
    12  C   -0.001687   0.253971  -0.035688   0.057139  -0.003632
    13  C   -0.000061  -0.179258   0.311520  -0.057363   0.084723
    14  C   -0.000361  -0.069263  -0.074200   0.022672  -0.072654
    15  O    0.000001   0.001054  -0.011701   0.200960  -0.004581
    16  O   -0.000000  -0.005346   0.009290  -0.003428   0.196290
    17  H    0.000000   0.004142  -0.000002  -0.000000  -0.000000
    18  H   -0.000391  -0.000035   0.001776  -0.000000   0.000000
    19  H    0.000057  -0.000000  -0.000000   0.000000  -0.000000
    20  H    0.000000   0.000000   0.000000   0.000000  -0.000000
    21  H   -0.000000  -0.000002   0.000000   0.000000  -0.000000
    22  H   -0.000000  -0.000003  -0.000000  -0.000000   0.000000
    23  H   -0.024047   0.000000  -0.000000  -0.000000   0.000000
    24  H   -0.039906   0.000000  -0.000004  -0.000000   0.000000
    25  H    0.527708   0.000000  -0.000000   0.000000  -0.000000
    26  H    0.000000   0.539873   0.003863   0.000013  -0.000090
    27  H   -0.000000   0.003863   0.520694   0.000086  -0.000202
    28  H    0.000000   0.000013   0.000086   0.393424   0.003303
    29  H   -0.000000  -0.000090  -0.000202   0.003303   0.393154
 Mulliken charges:
               1
     1  C   -0.292413
     2  C    0.565536
     3  C    0.007342
     4  C   -0.332995
     5  C   -0.247006
     6  C    0.312832
     7  O   -0.410232
     8  O   -0.279674
     9  C   -0.173243
    10  O   -0.376149
    11  C   -0.181324
    12  C    0.125949
    13  C   -0.737937
    14  C    0.878602
    15  O   -0.376680
    16  O   -0.421135
    17  H    0.151945
    18  H    0.135777
    19  H    0.420382
    20  H    0.197979
    21  H    0.177140
    22  H    0.177393
    23  H    0.197432
    24  H    0.183394
    25  H    0.183363
    26  H    0.174313
    27  H    0.170180
    28  H    0.382910
    29  H    0.386320
 Sum of Mulliken charges =   1.00000
 Mulliken charges with hydrogens summed into heavy atoms:
               1
     1  C   -0.292413
     2  C    0.565536
     3  C    0.159286
     4  C   -0.332995
     5  C   -0.111229
     6  C    0.312832
     7  O    0.010150
     8  O   -0.279674
     9  C    0.379269
    10  O   -0.376149
    11  C    0.382865
    12  C    0.300262
    13  C   -0.567757
    14  C    0.878602
    15  O    0.006230
    16  O   -0.034815
 Electronic spatial extent (au):  <R**2>=           5043.4274
 Charge=              1.0000 electrons
 Dipole moment (field-independent basis, Debye):
    X=             -9.1563    Y=              0.0458    Z=              0.0398  Tot=              9.1565
 Quadrupole moment (field-independent basis, Debye-Ang):
   XX=             -9.3682   YY=            -56.0270   ZZ=            -94.2067
   XY=             11.1149   XZ=              0.1231   YZ=             -1.1827
 Traceless Quadrupole moment (field-independent basis, Debye-Ang):
   XX=             43.8325   YY=             -2.8264   ZZ=            -41.0061
   XY=             11.1149   XZ=              0.1231   YZ=             -1.1827
 Octapole moment (field-independent basis, Debye-Ang**2):
  XXX=           -432.2038  YYY=              8.9885  ZZZ=             -0.2743  XYY=             43.7071
  XXY=            -38.9117  XXZ=             -2.7175  XZZ=             -0.9739  YZZ=              0.5385
  YYZ=              1.1208  XYZ=              5.0735
 Hexadecapole moment (field-independent basis, Debye-Ang**3):
 XXXX=          -1378.6141 YYYY=          -1428.3638 ZZZZ=           -111.2895 XXXY=            379.1493
 XXXZ=             23.8905 YYYX=             10.8616 YYYZ=             -3.9737 ZZZX=              0.5684
 ZZZY=             -0.1509 XXYY=           -789.3183 XXZZ=           -733.3046 YYZZ=           -337.1645
 XXYZ=            -29.3490 YYXZ=             -5.5773 ZZXY=              5.2100
 N-N= 1.075672838209D+03 E-N=-4.007582147431D+03  KE= 7.951509391012D+02
 Calling FoFJK, ICntrl=      2527 FMM=F ISym2X=0 I1Cent= 0 IOpClX= 0 NMat=1 NMatS=1 NMatT=0.
 ***** Axes restored to original set *****
 -------------------------------------------------------------------
 Center     Atomic                   Forces (Hartrees/Bohr)
 Number     Number              X              Y              Z
 -------------------------------------------------------------------
      1        6          -0.002139812    0.002649962    0.000021856
      2        6          -0.001874350   -0.005781775   -0.000031139
      3        6           0.004452912   -0.003012843   -0.000021403
      4        6           0.000432315    0.000287405    0.000043344
      5        6           0.005895470    0.001710746   -0.000011278
      6        6          -0.000035462    0.005245015   -0.000005641
      7        8          -0.012496522   -0.009556022   -0.000012753
      8        8          -0.010692244    0.003038132    0.000039889
      9        6           0.001746137   -0.002097494   -0.000010280
     10        8          -0.010159930    0.000192932    0.000027771
     11        6           0.001879738    0.001371479    0.000007868
     12        6           0.000646385   -0.001429770   -0.000212626
     13        6          -0.004453403    0.001175888   -0.000117059
     14        6           0.002384452   -0.000548731   -0.000036946
     15        8           0.004366230    0.018398366   -0.004073865
     16        8          -0.006942783   -0.015806412    0.004564536
     17        1           0.002460162   -0.005959056   -0.000036344
     18        1           0.004268902    0.005003104    0.000045377
     19        1          -0.000669058    0.010141180    0.000056765
     20        1          -0.005349394   -0.003265565   -0.000003576
     21        1           0.003358275   -0.001845687   -0.004974457
     22        1           0.003387885   -0.001908813    0.004931865
     23        1          -0.004090359    0.004714425    0.000033271
     24        1           0.003792889    0.000756742    0.005011131
     25        1           0.003762385    0.000799035   -0.005024054
     26        1           0.001399919   -0.005992063    0.000011370
     27        1          -0.000675291    0.006620914    0.000024355
     28        1           0.007341072   -0.003880791    0.002218752
     29        1           0.008003482   -0.001020303   -0.002466728
 -------------------------------------------------------------------
 Cartesian Forces:  Max     0.018398366 RMS     0.004801090

 GradGradGradGradGradGradGradGradGradGradGradGradGradGradGradGradGradGrad
 Berny optimization.
 FormGI is forming the generalized inverse of G from B-inverse, IUseBI=4.
 Internal  Forces:  Max     0.018532707 RMS     0.005257160
 Search for a local minimum.
 Step number   1 out of a maximum of  135
 All quantities printed in internal units (Hartrees-Bohrs-Radians)
 Mixed Optimization -- RFO/linear search
 Second derivative matrix not updated -- first step.
 ITU=  0
     Eigenvalues ---    0.01365   0.01407   0.01864   0.01899   0.01989
     Eigenvalues ---    0.01989   0.02061   0.02101   0.02121   0.02172
     Eigenvalues ---    0.02193   0.02225   0.02251   0.02280   0.02289
     Eigenvalues ---    0.02322   0.02333   0.02476   0.02549   0.02733
     Eigenvalues ---    0.02739   0.02786   0.10121   0.10176   0.10704
     Eigenvalues ---    0.10716   0.16000   0.16000   0.16000   0.16000
     Eigenvalues ---    0.16000   0.16000   0.16000   0.16000   0.16000
     Eigenvalues ---    0.16000   0.16000   0.16000   0.16000   0.22000
     Eigenvalues ---    0.22000   0.23476   0.23484   0.24999   0.25000
     Eigenvalues ---    0.25000   0.25000   0.25000   0.25000   0.25000
     Eigenvalues ---    0.25000   0.25000   0.34227   0.34227   0.34328
     Eigenvalues ---    0.34329   0.35059   0.35071   0.35107   0.35690
     Eigenvalues ---    0.35828   0.35871   0.39686   0.41287   0.41757
     Eigenvalues ---    0.42232   0.42874   0.43352   0.44395   0.47214
     Eigenvalues ---    0.47717   0.48828   0.49961   0.52762   0.53542
     Eigenvalues ---    0.53595   0.54522   0.57050   0.61621   0.61731
     Eigenvalues ---    0.62611
 RFO step:  Lambda=-7.28953656D-03 EMin= 1.36478162D-02
 Linear search not attempted -- first point.
 Iteration  1 RMS(Cart)=  0.03677135 RMS(Int)=  0.00006871
 Iteration  2 RMS(Cart)=  0.00014017 RMS(Int)=  0.00000424
 Iteration  3 RMS(Cart)=  0.00000002 RMS(Int)=  0.00000424
 Variable       Old X    -DE/DX   Delta X   Delta X   Delta X     New X
                                 (Linear)    (Quad)   (Total)
    R1        2.66725   0.01404   0.00000   0.03185   0.03186   2.69911
    R2        2.67629   0.01389   0.00000   0.03212   0.03213   2.70841
    R3        2.49680   0.01308   0.00000   0.02098   0.02098   2.51779
    R4        2.60841   0.01473   0.00000   0.02954   0.02954   2.63795
    R5        2.53354   0.00964   0.00000   0.01668   0.01668   2.55022
    R6        2.68049   0.01104   0.00000   0.02505   0.02505   2.70554
    R7        2.04570   0.00645   0.00000   0.01770   0.01770   2.06340
    R8        2.67974   0.01100   0.00000   0.02500   0.02499   2.70473
    R9        2.65985   0.01232   0.00000   0.02729   0.02729   2.68714
   R10        2.59341   0.01518   0.00000   0.02967   0.02967   2.62308
   R11        2.04284   0.00657   0.00000   0.01796   0.01796   2.06080
   R12        2.55559   0.00918   0.00000   0.01662   0.01662   2.57221
   R13        1.83876   0.01010   0.00000   0.01888   0.01888   1.85765
   R14        2.68629   0.00965   0.00000   0.02246   0.02246   2.70874
   R15        2.05579   0.00627   0.00000   0.01751   0.01751   2.07329
   R16        2.06949   0.00626   0.00000   0.01790   0.01790   2.08739
   R17        2.06949   0.00626   0.00000   0.01791   0.01791   2.08740
   R18        2.69233   0.00931   0.00000   0.02190   0.02190   2.71423
   R19        2.05560   0.00624   0.00000   0.01744   0.01744   2.07304
   R20        2.06779   0.00630   0.00000   0.01798   0.01798   2.08577
   R21        2.06780   0.00630   0.00000   0.01798   0.01798   2.08577
   R22        2.62242   0.01087   0.00000   0.02244   0.02244   2.64486
   R23        2.05501   0.00615   0.00000   0.01717   0.01717   2.07218
   R24        2.61067   0.01526   0.00000   0.03080   0.03080   2.64146
   R25        2.04352   0.00666   0.00000   0.01821   0.01821   2.06173
   R26        2.48932   0.01853   0.00000   0.02926   0.02926   2.51858
   R27        2.49596   0.01677   0.00000   0.02686   0.02686   2.52282
   R28        1.83151   0.00851   0.00000   0.01569   0.01569   1.84720
   R29        1.83103   0.00835   0.00000   0.01538   0.01538   1.84641
    A1        2.10748  -0.00132   0.00000  -0.00412  -0.00410   2.10337
    A2        2.07725  -0.00035   0.00000  -0.00184  -0.00185   2.07539
    A3        2.09846   0.00166   0.00000   0.00596   0.00595   2.10442
    A4        2.06801  -0.00019   0.00000  -0.00047  -0.00046   2.06755
    A5        2.00910  -0.00103   0.00000  -0.00413  -0.00414   2.00496
    A6        2.20608   0.00122   0.00000   0.00460   0.00460   2.21068
    A7        2.11272   0.00122   0.00000   0.00436   0.00435   2.11706
    A8        2.09679  -0.00046   0.00000  -0.00131  -0.00130   2.09549
    A9        2.07368  -0.00076   0.00000  -0.00305  -0.00305   2.07063
   A10        2.09278  -0.00054   0.00000  -0.00342  -0.00344   2.08934
   A11        2.05318   0.00002   0.00000   0.00074   0.00075   2.05393
   A12        2.13721   0.00052   0.00000   0.00268   0.00269   2.13991
   A13        2.07954   0.00092   0.00000   0.00344   0.00343   2.08297
   A14        2.10443  -0.00059   0.00000  -0.00250  -0.00250   2.10193
   A15        2.09922  -0.00033   0.00000  -0.00093  -0.00093   2.09829
   A16        2.10585  -0.00010   0.00000   0.00021   0.00022   2.10607
   A17        1.96127  -0.00092   0.00000  -0.00386  -0.00386   1.95741
   A18        2.21607   0.00101   0.00000   0.00365   0.00364   2.21971
   A19        1.90893  -0.00199   0.00000  -0.01188  -0.01188   1.89705
   A20        2.06787  -0.00017   0.00000  -0.00067  -0.00067   2.06720
   A21        1.84447  -0.00036   0.00000  -0.00248  -0.00248   1.84199
   A22        1.93551   0.00072   0.00000   0.00448   0.00447   1.93997
   A23        1.93560   0.00072   0.00000   0.00449   0.00448   1.94008
   A24        1.91144  -0.00027   0.00000  -0.00197  -0.00197   1.90947
   A25        1.91137  -0.00028   0.00000  -0.00199  -0.00199   1.90938
   A26        1.92376  -0.00054   0.00000  -0.00263  -0.00264   1.92112
   A27        2.07514   0.00037   0.00000   0.00144   0.00144   2.07657
   A28        1.84852  -0.00032   0.00000  -0.00226  -0.00226   1.84626
   A29        1.92874   0.00072   0.00000   0.00446   0.00446   1.93319
   A30        1.92867   0.00071   0.00000   0.00446   0.00445   1.93312
   A31        1.91404  -0.00030   0.00000  -0.00218  -0.00218   1.91186
   A32        1.91413  -0.00030   0.00000  -0.00218  -0.00217   1.91196
   A33        1.92816  -0.00050   0.00000  -0.00236  -0.00237   1.92578
   A34        2.22533   0.00065   0.00000   0.00287   0.00287   2.22820
   A35        2.02464  -0.00038   0.00000  -0.00175  -0.00175   2.02289
   A36        2.03322  -0.00027   0.00000  -0.00112  -0.00113   2.03209
   A37        2.11403   0.00413   0.00000   0.01816   0.01816   2.13219
   A38        2.14861  -0.00192   0.00000  -0.00823  -0.00823   2.14038
   A39        2.02055  -0.00221   0.00000  -0.00993  -0.00993   2.01061
   A40        2.07088  -0.00189   0.00000  -0.00735  -0.00735   2.06353
   A41        2.11317  -0.00127   0.00000  -0.00493  -0.00493   2.10823
   A42        2.09910   0.00316   0.00000   0.01228   0.01228   2.11137
   A43        2.01484  -0.00209   0.00000  -0.01252  -0.01252   2.00232
   A44        2.00759  -0.00216   0.00000  -0.01293  -0.01293   1.99466
    D1       -0.00118   0.00001   0.00000   0.00019   0.00019  -0.00100
    D2        3.14033   0.00000   0.00000   0.00013   0.00013   3.14046
    D3        3.14136   0.00001   0.00000   0.00021   0.00021   3.14156
    D4       -0.00031   0.00000   0.00000   0.00015   0.00015  -0.00016
    D5        0.00014  -0.00001   0.00000  -0.00025  -0.00025  -0.00011
    D6       -3.14008  -0.00000   0.00000  -0.00008  -0.00008  -3.14015
    D7        3.14077  -0.00001   0.00000  -0.00028  -0.00028   3.14049
    D8        0.00055  -0.00000   0.00000  -0.00010  -0.00010   0.00045
    D9        3.14068   0.00000   0.00000   0.00001   0.00001   3.14070
   D10        0.00004   0.00000   0.00000   0.00004   0.00004   0.00008
   D11       -0.00049  -0.00000   0.00000  -0.00002  -0.00002  -0.00052
   D12       -3.14156   0.00000   0.00000   0.00010   0.00010  -3.14146
   D13        3.14119   0.00000   0.00000   0.00004   0.00004   3.14123
   D14        0.00011   0.00001   0.00000   0.00017   0.00017   0.00028
   D15        3.13985   0.00001   0.00000   0.00039   0.00039   3.14024
   D16       -0.00183   0.00001   0.00000   0.00033   0.00033  -0.00150
   D17        0.00318  -0.00000   0.00000  -0.00008  -0.00008   0.00311
   D18        3.14027   0.00001   0.00000   0.00053   0.00053   3.14080
   D19       -3.13892  -0.00001   0.00000  -0.00020  -0.00020  -3.13913
   D20       -0.00184   0.00001   0.00000   0.00040   0.00040  -0.00143
   D21       -0.00418   0.00000   0.00000   0.00001   0.00001  -0.00417
   D22        3.13768  -0.00000   0.00000  -0.00004  -0.00004   3.13764
   D23       -3.14104  -0.00002   0.00000  -0.00062  -0.00062   3.14153
   D24        0.00082  -0.00002   0.00000  -0.00068  -0.00068   0.00015
   D25        3.13531  -0.00000   0.00000  -0.00011  -0.00011   3.13521
   D26       -0.00737  -0.00001   0.00000  -0.00041  -0.00041  -0.00778
   D27       -0.01091   0.00001   0.00000   0.00050   0.00050  -0.01041
   D28        3.12959   0.00000   0.00000   0.00020   0.00020   3.12979
   D29        0.00254   0.00001   0.00000   0.00016   0.00016   0.00270
   D30       -3.14064  -0.00000   0.00000  -0.00005  -0.00005  -3.14070
   D31       -3.13932   0.00001   0.00000   0.00021   0.00021  -3.13911
   D32        0.00068  -0.00000   0.00000   0.00000   0.00000   0.00068
   D33       -3.13994  -0.00001   0.00000  -0.00036  -0.00036  -3.14030
   D34        0.00313  -0.00001   0.00000  -0.00016  -0.00016   0.00297
   D35       -3.14041  -0.00000   0.00000  -0.00005  -0.00005  -3.14046
   D36       -1.07054  -0.00016   0.00000  -0.00150  -0.00151  -1.07206
   D37        1.07293   0.00016   0.00000   0.00141   0.00142   1.07435
   D38        3.13995   0.00000   0.00000   0.00006   0.00006   3.14001
   D39       -1.07148  -0.00017   0.00000  -0.00148  -0.00149  -1.07298
   D40        1.06811   0.00017   0.00000   0.00161   0.00162   1.06973
   D41        3.12290  -0.00003   0.00000  -0.00104  -0.00104   3.12186
   D42       -0.02113  -0.00001   0.00000  -0.00024  -0.00024  -0.02137
   D43       -0.01760  -0.00002   0.00000  -0.00073  -0.00073  -0.01833
   D44        3.12156   0.00000   0.00000   0.00007   0.00007   3.12162
   D45        3.06091  -0.00012   0.00000  -0.00380  -0.00381   3.05710
   D46       -0.09007  -0.00013   0.00000  -0.00447  -0.00447  -0.09455
   D47       -0.07842  -0.00014   0.00000  -0.00455  -0.00455  -0.08297
   D48        3.05378  -0.00015   0.00000  -0.00522  -0.00521   3.04857
   D49        2.90863  -0.00009   0.00000  -0.00238  -0.00239   2.90624
   D50       -0.22365  -0.00005   0.00000  -0.00163  -0.00162  -0.22527
   D51        2.85558  -0.00008   0.00000  -0.00260  -0.00259   2.85299
   D52       -0.29555  -0.00012   0.00000  -0.00338  -0.00339  -0.29894
         Item               Value     Threshold  Converged?
 Maximum Force            0.018533     0.000450     NO 
 RMS     Force            0.005257     0.000300     NO 
 Maximum Displacement     0.144116     0.001800     NO 
 RMS     Displacement     0.036808     0.001200     NO 
 Predicted change in Energy=-3.704686D-03
 GradGradGradGradGradGradGradGradGradGradGradGradGradGradGradGradGradGrad

                          Input orientation:                          
 ---------------------------------------------------------------------
 Center     Atomic      Atomic             Coordinates (Angstroms)
 Number     Number       Type             X           Y           Z
 ---------------------------------------------------------------------
      1          6           0       -2.420146    0.201341    0.001163
      2          6           0       -1.942396   -1.144676   -0.006424
      3          6           0       -0.563341   -1.361118   -0.010974
      4          6           0        0.361130   -0.267894   -0.008801
      5          6           0       -0.130029    1.076431    0.002027
      6          6           0       -1.499953    1.300148    0.005238
      7          8           0       -3.734720    0.418242    0.005518
      8          8           0       -2.906308   -2.089174   -0.008261
      9          6           0       -2.511816   -3.467195   -0.017482
     10          8           0       -2.136969    2.503008    0.014171
     11          6           0       -1.352256    3.706004    0.017615
     12          6           0        1.749193   -0.576567   -0.012761
     13          6           0        2.824524    0.319258   -0.018701
     14          6           0        4.153553   -0.113336    0.001201
     15          8           0        5.116233    0.802203   -0.105236
     16          8           0        4.448823   -1.408387    0.135122
     17          1           0       -0.169507   -2.379505   -0.016921
     18          1           0        0.563614    1.917907    0.007509
     19          1           0       -3.893964    1.388264    0.011350
     20          1           0       -3.447147   -4.040668   -0.018520
     21          1           0       -1.931681   -3.709654   -0.925665
     22          1           0       -1.927094   -3.720572    0.884764
     23          1           0       -2.073410    4.532637    0.023177
     24          1           0       -0.722216    3.759622    0.922281
     25          1           0       -0.726779    3.767698   -0.889700
     26          1           0        2.002698   -1.643406   -0.009555
     27          1           0        2.688569    1.401551   -0.040605
     28          1           0        6.011983    0.481577    0.119103
     29          1           0        5.365075   -1.639440   -0.113421
 ---------------------------------------------------------------------
                    Distance matrix (angstroms):
                    1          2          3          4          5
     1  C    0.000000
     2  C    1.428308   0.000000
     3  C    2.426757   1.395945   0.000000
     4  C    2.820599   2.464749   1.431709   0.000000
     5  C    2.451616   2.866717   2.475798   1.431281   0.000000
     6  C    1.433231   2.484564   2.821319   2.433636   1.388075
     7  O    1.332355   2.378083   3.636487   4.152948   3.664291
     8  O    2.341559   1.349519   2.453480   3.740750   4.210568
     9  C    3.669728   2.391329   2.869174   4.299933   5.130091
    10  O    2.319058   3.652928   4.172338   3.730807   2.462331
    11  C    3.663785   4.886506   5.128248   4.327615   2.899782
    12  C    4.241312   3.735054   2.441995   1.421975   2.502818
    13  C    5.246034   4.986661   3.781713   2.532421   3.050103
    14  C    6.581227   6.182582   4.879160   3.795584   4.445742
    15  O    7.561042   7.322865   6.078355   4.874977   5.254519
    16  O    7.056338   6.398223   5.014515   4.246253   5.211326
    17  H    3.424394   2.160567   1.091904   2.177279   3.456214
    18  H    3.442305   3.957233   3.467329   2.195220   1.090528
    19  H    1.892361   3.197611   4.318871   4.566080   3.776842
    20  H    4.364602   3.263615   3.936544   5.360680   6.098229
    21  H    4.048887   2.724744   2.867863   4.235958   5.197420
    22  H    4.050340   2.725746   2.868658   4.237383   5.198068
    23  H    4.345209   5.678902   6.084227   5.382667   3.965165
    24  H    4.048801   5.138431   5.207512   4.273340   2.897769
    25  H    4.047226   5.137054   5.206114   4.271479   2.897275
    26  H    4.792156   3.976495   2.581520   2.141677   3.456324
    27  H    5.247973   5.284911   4.267099   2.864442   2.837607
    28  H    8.437609   8.119890   6.829885   5.701772   6.171861
    29  H    8.000704   7.324983   5.935829   5.189561   6.130697
                    6          7          8          9         10
     6  C    0.000000
     7  O    2.402487   0.000000
     8  O    3.669539   2.640755   0.000000
     9  C    4.873597   4.073407   1.433406   0.000000
    10  O    1.361154   2.626620   4.656234   5.982043   0.000000
    11  C    2.410417   4.060254   5.999986   7.266402   1.436310
    12  C    3.752244   5.573445   4.895068   5.148976   4.958504
    13  C    4.434391   6.560036   6.216357   6.543222   5.420909
    14  C    5.827528   7.906166   7.331143   7.461626   6.812936
    15  O    6.635817   8.859970   8.528225   8.742001   7.450901
    16  O    6.537658   8.385926   7.387961   7.260335   7.660698
    17  H    3.912854   4.531958   2.752171   2.582534   5.264106
    18  H    2.154051   4.552436   5.300688   6.201469   2.763247
    19  H    2.395640   0.983023   3.615027   5.048430   2.080792
    20  H    5.684755   4.468238   2.025078   1.097140   6.673629
    21  H    5.113814   4.599737   2.101781   1.104599   6.286700
    22  H    5.115042   4.601127   2.101860   1.104602   6.287681
    23  H    3.283010   4.437174   6.674060   8.011939   2.030644
    24  H    2.737672   4.591346   6.312256   7.504179   2.098873
    25  H    2.736332   4.589988   6.311119   7.502720   2.098824
    26  H    4.575292   6.096605   4.929203   4.868994   5.859194
    27  H    4.190000   6.498283   6.594608   7.123849   4.949952
    28  H    7.557262   9.747572   9.282289   9.395031   8.396584
    29  H    7.468860   9.330299   8.284267   8.086736   8.570695
                   11         12         13         14         15
    11  C    0.000000
    12  C    5.287752   0.000000
    13  C    5.377440   1.399598   0.000000
    14  C    6.700863   2.448617   1.397802   0.000000
    15  O    7.091438   3.639576   2.343640   1.332776   0.000000
    16  O    7.734554   2.828744   2.376292   1.335020   2.321619
    17  H    6.199477   2.632872   4.030825   4.881055   6.170098
    18  H    2.620677   2.761957   2.769130   4.124761   4.688694
    19  H    3.439802   5.975480   6.803070   8.186418   9.029989
    20  H    8.025011   6.245156   7.638247   8.555406   9.838312
    21  H    7.497833   4.919194   6.298905   7.129002   8.408510
    22  H    7.499095   4.919900   6.301933   7.125105   8.428763
    23  H    1.097003   6.381030   6.460966   7.769210   8.100839
    24  H    1.103742   5.077864   5.030002   6.294547   6.624923
    25  H    1.103743   5.076622   5.026145   6.298712   6.599267
    26  H    6.314479   1.096550   2.127800   2.639585   3.960335
    27  H    4.652114   2.190012   1.091018   2.107797   2.501388
    28  H    8.039854   4.394137   3.194563   1.954888   0.977496
    29  H    8.585655   3.770203   3.209341   1.951901   2.454304
                   16         17         18         19         20
    16  O    0.000000
    17  H    4.721774   0.000000
    18  H    5.116187   4.359566   0.000000
    19  H    8.799924   5.297968   4.488935   0.000000
    20  H    8.324592   3.674559   7.182721   5.447369   0.000000
    21  H    6.865270   2.387545   6.226295   5.542321   1.796975
    22  H    6.823524   2.387595   6.226207   5.543612   1.796926
    23  H    8.823141   7.169670   3.713617   3.633406   8.682767
    24  H    7.353066   6.235100   2.425300   4.063634   8.315941
    25  H    7.391141   6.233811   2.427308   4.062593   8.314441
    26  H    2.461644   2.293549   3.841120   6.630391   5.953801
    27  H    3.320410   4.739783   2.187322   6.582752   8.201539
    28  H    2.452691   6.812864   5.635621   9.947939  10.485456
    29  H    0.977076   5.584675   5.976903   9.742297   9.134010
                   21         22         23         24         25
    21  H    0.000000
    22  H    1.810468   0.000000
    23  H    8.297937   8.299350   0.000000
    24  H    7.788953   7.576704   1.797683   0.000000
    25  H    7.573895   7.788689   1.797746   1.812005   0.000000
    26  H    4.537398   4.534059   7.399949   6.122597   6.124112
    27  H    6.946543   6.956781   5.699493   4.256889   4.240780
    28  H    9.042111   9.015168   9.043997   7.532603   7.564865
    29  H    7.628117   7.648739   9.666657   8.202296   8.182324
                   26         27         28         29
    26  H    0.000000
    27  H    3.121402   0.000000
    28  H    4.539436   3.452092   0.000000
    29  H    3.363983   4.051741   2.229635   0.000000
 Stoichiometry    C11H13O5(1+)
 Framework group  C1[X(C11H13O5)]
 Deg. of freedom    81
 Full point group                 C1      NOp   1
 Largest Abelian subgroup         C1      NOp   1
 Largest concise Abelian subgroup C1      NOp   1
                         Standard orientation:                         
 ---------------------------------------------------------------------
 Center     Atomic      Atomic             Coordinates (Angstroms)
 Number     Number       Type             X           Y           Z
 ---------------------------------------------------------------------
      1          6           0        2.420306    0.204538   -0.001315
      2          6           0        1.944137   -1.142037    0.006557
      3          6           0        0.565336   -1.360096    0.011199
      4          6           0       -0.360417   -0.267959    0.008841
      5          6           0        0.129163    1.076940   -0.002273
      6          6           0        1.498823    1.302264   -0.005577
      7          8           0        3.734625    0.422981   -0.005760
      8          8           0        2.909156   -2.085402    0.008548
      9          6           0        2.516282   -3.463884    0.018057
     10          8           0        2.134427    2.505869   -0.014772
     11          6           0        1.348302    3.707942   -0.018428
     12          6           0       -1.748117   -0.578259    0.012913
     13          6           0       -2.824499    0.316304    0.018712
     14          6           0       -4.153020   -0.117854   -0.001056
     15          8           0       -5.116769    0.796576    0.105233
     16          8           0       -4.446774   -1.413278   -0.134709
     17          1           0        0.172698   -2.378944    0.017363
     18          1           0       -0.565467    1.917600   -0.007897
     19          1           0        3.892729    1.393188   -0.011792
     20          1           0        3.452285   -4.036258    0.019176
     21          1           0        1.936464   -3.706842    0.926310
     22          1           0        1.931826   -3.718127   -0.884117
     23          1           0        2.068486    4.535420   -0.024181
     24          1           0        0.718168    3.760640   -0.923082
     25          1           0        0.722785    3.769083    0.888897
     26          1           0       -2.000370   -1.645396    0.009928
     27          1           0       -2.689813    1.398760    0.040396
     28          1           0       -6.012151    0.474854   -0.119011
     29          1           0       -5.362745   -1.645356    0.113913
 ---------------------------------------------------------------------
 Rotational constants (GHZ):      0.7027713      0.2698454      0.1955563
 Standard basis: 6-31+G(d,p) (6D, 7F)
 There are   369 symmetry adapted cartesian basis functions of A   symmetry.
 There are   369 symmetry adapted basis functions of A   symmetry.
   369 basis functions,   603 primitive gaussians,   369 cartesian basis functions
    59 alpha electrons       59 beta electrons
       nuclear repulsion energy      1064.8222634951 Hartrees.
 NAtoms=   29 NActive=   29 NUniq=   29 SFac= 1.00D+00 NAtFMM=   60 NAOKFM=F Big=F
 Integral buffers will be    131072 words long.
 Raffenetti 2 integral format.
 Two-electron integral symmetry is turned on.
 One-electron integrals computed using PRISM.
 NBasis=   369 RedAO= T EigKep=  1.56D-06  NBF=   369
 NBsUse=   367 1.00D-06 EigRej=  8.46D-07 NBFU=   367
 Initial guess from the checkpoint file:  "lwpbeSAYang.chk"
 B after Tr=     0.000000    0.000000    0.000000
         Rot=    1.000000    0.000033   -0.000025   -0.000546 Ang=   0.06 deg.
 ExpMin= 4.38D-02 ExpMax= 5.48D+03 ExpMxC= 8.25D+02 IAcc=2 IRadAn=         4 AccDes= 0.00D+00
 Harris functional with IExCor= 1009 and IRadAn=       4 diagonalized for initial guess.
 HarFok:  IExCor= 1009 AccDes= 0.00D+00 IRadAn=         4 IDoV= 1 UseB2=F ITyADJ=14
 ICtDFT=  3500011 ScaDFX=  1.000000  1.000000  1.000000  1.000000
 FoFCou: FMM=F IPFlag=           0 FMFlag=      100000 FMFlg1=           0
         NFxFlg=           0 DoJE=T BraDBF=F KetDBF=T FulRan=T
         wScrn=  0.000000 ICntrl=     500 IOpCl=  0 I1Cent=   200000004 NGrid=           0
         NMat0=    1 NMatS0=      1 NMatT0=    0 NMatD0=    1 NMtDS0=    0 NMtDT0=    0
 Petite list used in FoFCou.
 Requested convergence on RMS density matrix=1.00D-08 within 128 cycles.
 Requested convergence on MAX density matrix=1.00D-06.
 Requested convergence on             energy=1.00D-06.
 No special actions if energy rises.
 EnCoef did     5 forward-backward iterations
 SCF Done:  E(RPBE-PBE) =  -801.971759689     A.U. after   14 cycles
[...]
 9,-0.00004160,-0.00021121,-0.00000068,0.00000678,-0.00001249,-0.000000
 02,-0.00000291,-0.00000217,-0.00000143,-0.00000290,-0.00000217,0.00000
 143,0.18104303,0.00128758,-0.00120679,-0.00001114,-0.00036548,0.000056
 01,-0.00000074,-0.00003562,0.00001048,0.00000127,0.00042486,0.00001508
 ,-0.00000364,-0.00079338,0.00011826,-0.00000236,-0.00396723,-0.0019309
 6,0.00000331,-0.00020622,0.00021855,0.00000304,0.00000039,-0.00027299,
 -0.00000113,-0.00005286,0.00004551,0.00000057,0.01323926,-0.03269832,-
 0.00020291,0.13240589,-0.18780405,-0.00096977,-0.00022991,-0.00012364,
 0.00000258,0.00019708,-0.00000269,0.00000311,-0.00023765,0.00007212,0.
 00000171,0.00014161,0.00007169,-0.00002231,0.00005237,-0.00009003,0.00
 001823,0.00002220,0.00001270,0.00000013,0.00021797,0.00017979,0.000004
 21,0.00006004,-0.00025513,-0.00000269,0.00000470,-0.00001995,-0.000000
 07,0.00000855,-0.00000617,-0.00000010,0.00000857,-0.00000620,0.,-0.140
 84702,0.21729583,0.00000564,-0.00000619,0.00032303,-0.00000097,-0.0000
 0010,-0.00003824,-0.00000163,-0.00000078,0.00000196,0.00000341,0.00000
 125,0.00015081,-0.00000331,-0.00000084,0.00024032,-0.00001790,-0.00000
 856,0.00048949,-0.00000150,0.00000127,-0.00011524,-0.00000002,-0.00000
 109,-0.00002629,-0.00000014,0.00000009,-0.00000651,0.00004774,-0.00012
 753,-0.00029801,0.00092954,-0.00099770,-0.04683741,-0.00000126,-0.0000
 0168,0.00003900,0.00000042,0.00000116,0.00000954,-0.00000064,0.0000007
 3,0.00000140,0.00000078,0.00000058,0.00000152,-0.00000070,-0.00000042,
 -0.00000184,0.00000009,0.00000024,-0.00002137,0.00000167,0.00000143,-0
 .00048610,0.00000067,-0.00000228,0.00019574,0.00000004,-0.00000013,0.0
 0000326,0.00000255,-0.00000128,-0.00000037,-0.00000247,0.00000125,-0.0
 0000036,-0.00098332,0.00115835,0.04369883,-0.00025896,-0.00068412,0.00
 007048,0.00007827,0.00024359,0.00004268,0.00003801,-0.00028479,0.00000
 438,0.00012466,0.00026517,-0.00036820,0.00037499,-0.00063295,0.0002237
 1,-0.00056656,0.00370520,0.00049275,0.00004647,-0.00033722,0.00013465,
 -0.00006773,-0.00020150,-0.00000300,-0.00002318,0.00008524,-0.00001565
 ,-0.01519148,-0.01323573,-0.01261527,-0.12244511,0.00045570,-0.1147125
 5,-0.00023965,-0.00018655,0.00003680,0.00029245,0.00002343,-0.00001291
 ,-0.00042503,0.00011829,-0.00001547,0.00023710,0.00010894,-0.00003572,
 0.00012044,-0.00018015,0.00004126,0.00001184,-0.00000122,0.00002375,0.
 00004962,0.00037634,0.00045232,0.00057188,0.00047670,-0.00029936,-0.00
 000508,-0.00000853,-0.00000255,0.00001292,-0.00001219,0.00000575,0.000
 01367,-0.00000790,-0.00000512,-0.00886757,-0.00056819,-0.01680235,0.13
 539043,-0.00117229,-0.00098604,0.00065236,-0.00040779,0.00033367,0.000
 11749,0.00027117,0.00021257,0.00004226,0.00037432,-0.00029746,0.000382
 25,0.00099686,0.00060371,0.00023267,-0.00351857,0.00557490,-0.00184969
 ,0.00063173,-0.00070378,0.00004728,-0.00000743,-0.00010621,-0.00002500
 ,0.00000275,0.00002198,-0.00004396,-0.02368102,-0.01571385,-0.02362926
 ,0.00381028,-0.04552334,0.00285218,-0.00023471,-0.00017367,-0.00000261
 ,0.00014946,0.00000377,0.00001912,-0.00016807,0.00009331,-0.00000196,0
 .00011431,0.00005814,-0.00002547,0.00003161,-0.00009107,0.00002071,0.0
 0002427,0.00000844,-0.00003286,0.00054083,-0.00101932,-0.00121541,0.00
 061990,0.00055295,-0.00028674,0.00000151,-0.00000274,-0.00000105,0.000
 00161,-0.00002234,0.00000121,0.00000111,-0.00000366,0.00000491,0.01102
 521,0.00305652,0.01889165,0.00878966,0.05281794,-0.00007272,-0.0004973
 6,-0.00023115,-0.00018711,0.00007054,-0.00002707,0.00006167,0.00003340
 ,-0.00002850,0.00045459,0.00023005,-0.00013703,-0.00088262,-0.00045970
 ,-0.00014290,-0.00046380,0.00136226,0.00078798,0.00023285,0.00010355,0
 .00004215,0.00009871,0.00006730,0.00001109,0.00001047,-0.00003038,0.00
 000312,0.00101381,-0.00430031,0.00624035,-0.11752296,-0.00166591,-0.22
 564239,-0.00010226,-0.00012605,0.00002642,0.00005401,-0.00005795,-0.00
 000356,-0.00002175,-0.00000510,0.00000811,0.00004108,0.00004672,-0.000
 00063,-0.00002547,0.00002314,-0.00000051,0.00003778,0.00004098,0.00000
 342,0.00065272,-0.00026300,-0.00005866,0.00002914,0.00006150,-0.000005
 77,0.00000198,0.,-0.00000026,-0.00000652,0.00000384,-0.00000147,-0.000
 00788,-0.00000187,0.00000120,0.00227212,0.00003581,0.00148205,0.128842
 99,0.00451230,0.23537559,-0.00025738,-0.00067936,-0.00008253,0.0000786
 9,0.00024462,-0.00003809,0.00003952,-0.00028583,-0.00001118,0.00011997
 ,0.00025800,0.00037584,0.00037211,-0.00063259,-0.00023098,-0.00055694,
 0.00370539,-0.00044659,0.00004417,-0.00033554,-0.00013882,-0.00006763,
 -0.00020149,0.00000214,-0.00002327,0.00008492,0.00001653,-0.01515625,-
 0.01335014,0.01256016,-0.12159420,-0.00073022,0.11432230,-0.00023845,-
 0.00018425,-0.00004306,0.00029131,0.00002642,0.00001695,-0.00042209,0.
 00011611,0.00001032,0.00023830,0.00011029,-0.00003444,0.00011730,-0.00
 017729,0.00003184,0.00001179,-0.00000148,-0.00002389,0.00005176,0.0003
 7642,-0.00045050,0.00057309,0.00047310,0.00030293,-0.00000507,-0.00000
 855,0.00000246,0.00001373,-0.00000782,0.00000501,0.00001292,-0.0000120
 9,-0.00000596,-0.00880662,-0.00074639,0.01682372,0.01081821,0.00181933
 ,-0.01455967,0.13443677,-0.00117873,-0.00097930,-0.00065988,-0.0004098
 0,0.00033703,-0.00010917,0.00027307,0.00021542,-0.00003770,0.00037959,
 -0.00029796,-0.00039006,0.00098688,0.00060859,-0.00022061,-0.00350690,
 0.00558148,0.00191123,0.00063508,-0.00070394,-0.00005656,-0.00000754,-
 0.00010619,0.00002414,0.00000296,0.00002165,0.00004391,-0.02358770,-0.
 01600796,0.02347433,0.00258609,-0.04555061,-0.00098027,-0.00024072,-0.
 00017836,0.00000027,0.00014903,0.00000690,-0.00000891,-0.00016784,0.00
 009038,0.00000659,0.00011146,0.00005752,-0.00001868,0.00003302,-0.0000
 8844,0.00000903,0.00002466,0.00000879,0.00003271,0.00053098,-0.0010438
 3,0.00120751,0.00062123,0.00055028,0.00028986,0.00000154,-0.00000276,0
 .00000096,0.00000095,-0.00000378,-0.00000503,0.00000166,-0.00002228,-0
 .00000137,0.01097336,0.00325447,-0.01890870,0.00167340,0.00127386,0.00
 082783,0.01012175,0.05294740,0.00006073,0.00049374,-0.00023636,0.00018
 270,-0.00006823,-0.00002947,-0.00006060,-0.00002877,-0.00003055,-0.000
 44740,-0.00023287,-0.00014075,0.00088936,0.00047292,-0.00014955,0.0004
 2421,-0.00132339,0.00080385,-0.00022615,-0.00011049,0.00004194,-0.0000
 9848,-0.00006770,0.00001126,-0.00001036,0.00003015,0.00000404,-0.00118
 276,0.00410459,0.00648564,0.11717098,0.00355662,-0.22646596,0.00010001
 ,0.00012247,0.00002879,-0.00005543,0.00006042,-0.00001174,0.00002282,0
 .00000992,-0.00001156,-0.00004531,-0.00004370,0.00001664,0.00002919,-0
 .00002492,0.00000167,-0.00003735,-0.00004042,0.00000364,-0.00064044,0.
 00024895,-0.00004661,-0.00002456,-0.00005756,-0.00000436,-0.00000194,0
 .,-0.00000025,0.00000786,0.00000188,0.00000111,0.00000648,-0.00000390,
 -0.00000153,-0.00212531,-0.00001340,0.00123804,0.01447592,-0.00063606,
 -0.01765788,-0.12836429,-0.00645886,0.23618265,-0.00003030,0.00024066,
 -0.00000721,0.00018172,-0.00053112,-0.00002052,0.00017585,0.00234780,0
 .00007362,-0.00566748,0.02825092,-0.00013955,-0.00502686,-0.00081146,-
 0.00005041,0.00044072,0.00155380,0.00000787,0.00011264,-0.00022248,0.0
 0000586,0.00001663,-0.00007145,-0.00000438,-0.00005830,0.00010624,0.00
 000288,-0.00062454,0.00004375,0.00001443,-0.00005089,-0.00011564,-0.00
 000028,-0.06684236,0.05937691,-0.00009550,0.00683953,-0.02394136,0.000
 21741,0.00097455,-0.00338611,0.00014371,0.00030513,0.00065978,-0.00008
 012,-0.00203711,0.00130233,-0.00060638,-0.00087791,-0.00102149,-0.0000
 0645,0.00011039,-0.00001420,-0.00000348,0.00006582,0.00008137,0.000001
 88,0.00003024,-0.00002675,-0.00000009,-0.00000970,-0.00000736,-0.00005
 535,-0.00000941,-0.00001122,0.00005528,0.00000355,0.00000706,0.0000002
 8,0.00000801,-0.00000700,-0.00000456,0.00000835,-0.00000661,0.00000371
 ,0.07517624,0.00022658,-0.00005992,0.00001468,-0.00025082,0.00052550,-
 0.00000411,-0.00219141,0.00143467,-0.00007356,0.00047134,-0.00538878,0
 .00010862,0.00071812,0.00106507,0.00012224,-0.00045557,-0.00054727,-0.
 00002259,-0.00013359,0.00010859,-0.00000176,0.00000472,-0.00010508,0.0
 0000820,0.00001223,0.00002774,-0.00000206,0.00015331,0.00011283,-0.000
 01653,-0.00001991,-0.00002012,0.00000183,0.05963241,-0.30746312,0.0007
 4456,0.00427091,-0.01739842,0.00025390,0.00108813,-0.00198750,0.000222
 75,-0.00021121,0.00022034,-0.00003459,0.00078835,0.00140690,-0.0001140
 3,0.00040589,0.00042372,0.00000737,-0.00009317,0.00006498,0.00000400,-
 0.00002165,-0.00004756,-0.00000007,0.00000337,-0.00000563,0.00000030,-
 0.00000422,-0.00000899,-0.00001511,-0.00000575,-0.00000965,0.00001504,
 0.00000996,0.00000473,-0.00000038,-0.00000547,0.00001253,0.00001971,-0
 .00000655,0.00001408,-0.00001939,-0.06212168,0.32719619,-0.00002267,-0
 .00001474,0.00048502,-0.00000039,-0.00001281,0.00031210,-0.00003053,-0
 .00000581,-0.00361918,0.00023025,-0.00018978,0.00563511,0.00002600,-0.
 00000029,0.00524647,0.00004093,0.00000973,0.00026541,0.00002501,-0.000
 00630,-0.00014639,0.00000460,0.00000814,0.00022058,0.00000266,-0.00000
 401,0.00001520,0.00000364,-0.00000991,-0.00097314,0.00000408,0.0000031
 5,0.00011244,-0.00040814,0.00083156,-0.04073725,0.00051287,0.00021391,
 0.00593512,-0.00016434,0.00040750,-0.00399389,0.00033593,-0.00013001,-
 0.00000426,-0.00080987,-0.00052871,0.00042961,-0.00000904,-0.00000257,
 0.00034932,-0.00000181,0.00000787,-0.00002589,-0.00000164,0.00000390,-
 0.00004079,0.00000063,0.00000003,-0.00000916,0.00000665,-0.00002544,-0
 .00002322,-0.00000896,0.00002518,-0.00002200,-0.00000003,-0.00000060,-
 0.00001665,0.00001807,-0.00001503,0.00000454,-0.00001875,0.00001483,0.
 00000419,0.00020284,-0.00113743,0.02430128,0.00023391,-0.00026774,0.00
 001761,-0.00043893,0.00042679,-0.00000410,0.00047041,0.00028718,-0.000
 01498,-0.00003530,0.00086746,0.00006968,-0.00066788,-0.00121849,-0.000
 03052,-0.00015722,0.00038971,0.00001359,-0.00011721,0.00016730,-0.0000
 1167,0.00013705,0.00013665,0.00000144,0.00003977,-0.00009210,-0.000000
 91,0.00009865,-0.00003138,0.00000030,-0.00003898,-0.00006459,0.,0.0096
 4635,-0.02330917,0.00047013,-0.05791926,0.03361589,-0.00117545,-0.0006
 4519,0.02948536,-0.00112457,0.00008492,-0.00011686,0.00006832,-0.00602
 869,0.00126632,0.00105431,0.00013803,0.00014723,-0.00000088,-0.0019814
 9,0.00114589,0.00009558,-0.00006435,-0.00006356,0.00000143,-0.00000081
 ,0.00000567,0.00000021,-0.00001072,-0.00000132,0.00000987,-0.00001095,
 -0.00000080,-0.00000985,0.00003734,0.00001455,-0.00000101,-0.00001793,
 0.00002667,0.00005554,-0.00002036,0.00003233,-0.00005682,-0.00334172,-
 0.00236421,-0.00007853,0.06057558,0.00007573,-0.00014368,-0.00000581,-
 0.00010296,0.00003502,-0.00000687,-0.00006008,-0.00008578,-0.00000569,
 0.00151535,-0.00010516,-0.00010089,0.00058659,0.00026231,-0.00000362,-
 0.00013817,0.00049429,-0.00000424,0.00008242,0.00003763,0.00000736,0.0
 0000698,0.00005276,0.00000109,0.00001826,-0.00003521,0.00000033,-0.000
 03255,-0.00016184,-0.00000152,0.00005127,0.00008942,-0.00000215,0.0018
 4949,-0.01471041,0.00028596,0.04083448,-0.32752595,0.00680566,-0.00084
 265,-0.00856652,0.00045488,-0.00144502,0.00037760,-0.00016732,0.000722
 45,0.00142338,-0.00057408,0.00002918,0.00010359,0.00000368,0.00058140,
 0.00073692,0.00000875,-0.00001518,0.00001312,-0.00000147,-0.00000230,0
 .00000398,0.,-0.00000179,-0.00000040,0.00000802,-0.00000157,0.00000001
 ,-0.00000811,-0.00000079,-0.00000632,0.00000069,0.00000516,0.00000286,
 -0.00002531,0.00000541,0.00000179,0.00002764,-0.00212215,-0.00001870,0
 .00015903,-0.04147168,0.34754600,-0.00004343,0.00002469,-0.00032721,0.
 00004439,-0.00004328,-0.00008709,-0.00009156,-0.00004547,-0.00003382,0
 .00018716,-0.00007994,-0.00306796,-0.00001247,0.00008398,-0.00027717,0
 .00001360,-0.00000266,-0.00038865,0.00001710,-0.00001312,0.00024332,-0
 .00000273,0.00000781,0.00003349,-0.00000009,-0.00000142,0.00002430,-0.
 00000139,-0.00001364,0.00005722,0.00000511,0.00000664,0.00018081,-0.00
 045849,-0.00000381,0.00225603,-0.00047539,0.00660080,-0.02993755,-0.00
 061725,0.00096750,-0.00031527,0.00061065,0.00000524,-0.00206953,-0.000
 24615,-0.00094427,0.00455182,-0.00000181,-0.00000133,0.00011078,0.0000
 8636,-0.00003294,0.00110309,0.00000085,0.00000503,0.00001133,-0.000000
 36,0.00000045,-0.00000049,0.00000147,0.00000145,-0.00000349,-0.0000008
 1,0.00000044,-0.00000423,-0.00000135,-0.00000091,-0.00002718,0.0000230
 7,-0.00001489,-0.00003901,-0.00001997,0.00001256,-0.00003120,0.0001179
 0,-0.00010564,0.00621726,0.00141293,-0.00729439,0.02114128,-0.00127936
 ,0.00020872,0.00001215,0.00006005,-0.00119991,-0.00002317,-0.00070865,
 -0.00030455,-0.00012580,0.00138970,-0.00076883,0.00002116,-0.00037079,
 0.00059685,0.00003742,0.00045052,0.00105387,0.00002122,0.00112676,-0.0
 0037617,-0.00001036,0.00032070,0.00064866,0.00003192,0.00005897,-0.000
 30549,-0.00000908,0.00010944,-0.00075203,-0.00000267,0.00017314,0.0003
 0763,-0.00000562,-0.00315924,-0.00001121,0.00082306,0.00301369,-0.0044
 7582,-0.00078803,-0.03582328,0.01374651,-0.00715667,-0.37719212,0.1107
 0898,-0.11162632,0.00531070,0.00370408,0.00053000,-0.00003474,0.000011
 67,-0.00000863,-0.00003913,0.00000445,-0.00001464,-0.00008417,0.000229
 85,0.00000026,0.00001235,0.00002185,0.00000102,-0.00003133,0.00003669,
 0.00000134,-0.00003316,0.00003547,-0.00000014,0.00000733,-0.00002326,0
 .00000031,-0.00004426,-0.00001921,0.00000004,-0.00004533,-0.00001770,0
 .00000233,-0.00014497,-0.00008116,-0.00007595,0.00042512,-0.00008419,-
 0.00028359,0.40512258,0.00016260,-0.00003801,-0.00001692,-0.00002935,0
 .00017651,0.00001602,0.00008877,0.00009314,-0.00006936,-0.00030913,-0.
 00012828,-0.00029796,0.00014294,-0.00015635,0.00000770,-0.00012980,-0.
 00009391,0.00001406,-0.00012961,0.00004025,-0.00000107,-0.00004384,-0.
 00011903,0.00002039,-0.00002391,0.00007135,-0.00000301,0.00000939,0.00
 001527,0.00000743,-0.00000153,-0.00000613,0.00000866,-0.00033250,0.000
 95966,0.00077213,-0.00201119,-0.00301042,0.00116435,-0.03428990,0.0070
 9749,-0.00975474,0.15698808,-0.08693959,0.05761577,0.00156142,0.000732
 24,0.00103230,-0.00001325,-0.00001697,-0.00000959,-0.00001322,0.000024
 93,0.00000222,0.00000460,-0.00002459,0.00000335,0.00000041,-0.00000547
 ,0.00000088,0.00000374,-0.00000564,-0.00000811,0.00000238,-0.00000760,
 0.00000745,0.00000445,0.00000231,-0.00000028,0.00000047,0.00000634,-0.
 00000029,-0.00000037,0.00000638,-0.00000317,-0.00002421,-0.00000048,0.
 00009819,-0.00018853,0.00022484,-0.00006133,-0.12053654,0.08428299,0.0
 0053206,-0.00008810,0.00000093,-0.00007220,0.00050217,0.00006238,0.000
 33306,0.00015605,-0.00037314,-0.00061229,0.00025389,-0.00055022,0.0002
 4441,-0.00030053,0.00011035,-0.00023931,-0.00040846,0.00001031,-0.0004
 4251,0.00014813,-0.00002205,-0.00011527,-0.00026892,0.00006305,-0.0000
 2823,0.00013152,0.00000624,-0.00002081,0.00025890,0.00000355,-0.000059
 38,-0.00010763,0.00002387,0.00187367,0.00048836,0.00241486,-0.00031189
 ,0.00101767,0.00277746,0.00923267,-0.00090871,-0.00312216,-0.12930152,
 0.04873584,-0.04399185,0.00025453,0.00088794,-0.00297500,0.00000251,-0
 .00001328,-0.00002366,0.00000362,0.00001980,-0.00001649,0.00002755,-0.
 00009312,0.00001164,-0.00000287,-0.00001013,0.00000292,0.00001429,-0.0
 0001688,-0.00000822,0.00000754,-0.00001507,0.00000219,-0.00000006,0.00
 000911,0.00000123,0.00001384,0.00000921,-0.00000007,0.00001390,0.00000
 984,-0.00000706,-0.00006483,-0.00000430,0.00009210,-0.00002981,0.00005
 448,-0.00088700,0.11916332,-0.04881567,0.04457662,-0.00107538,0.000212
 36,0.00001627,0.00005972,-0.00099141,-0.00001474,-0.00050107,-0.000326
 60,0.00000987,0.00121588,-0.00015857,-0.00007413,-0.00041627,0.0005326
 4,-0.00013267,0.00038164,0.00085719,0.00003530,0.00094359,-0.00031944,
 -0.00001201,0.00028713,0.00055753,-0.00000761,0.00005162,-0.00027074,0
 .00001094,0.00007385,-0.00059859,0.00000749,0.00013909,0.00024580,0.00
 000044,-0.00193866,-0.00108620,0.00021855,0.00580877,0.00136679,0.0014
 3984,-0.01390495,0.00196293,0.00043695,0.00148261,-0.00426385,0.000160
 33,-0.40428845,0.10561392,0.13493248,-0.00002583,0.00001409,0.00001294
 ,-0.00003057,-0.00002628,-0.00000831,-0.00006725,0.00019246,0.00000476
 ,0.00001044,0.00001917,-0.00000078,-0.00002862,0.00003069,0.00000063,-
 0.00002800,0.00003160,-0.00000369,0.00000406,-0.00001945,0.00000034,-0
 .00003640,-0.00001652,-0.00000220,-0.00003440,-0.00001550,0.00000089,0
 .00027218,0.00018104,0.00021649,-0.00039012,-0.00004311,-0.00026375,0.
 00140947,-0.00089239,-0.00041601,0.41062593,0.00058820,-0.00008188,-0.
 00007019,0.00005909,0.00053781,0.00002704,0.00018886,0.00020018,0.0000
 2518,-0.00044735,0.00036726,-0.00031316,0.00006510,-0.00027547,0.00007
 066,-0.00021554,-0.00038047,0.00000065,-0.00050701,0.00015779,0.000031
 51,-0.00020361,-0.00040997,-0.00000182,-0.00005781,0.00021725,0.000004
 31,-0.00008132,0.00028552,0.00000153,-0.00004753,-0.00010741,0.0000026
 1,-0.00003857,0.00025424,-0.00024893,-0.00296802,-0.00539423,0.0006416
 5,0.04744829,-0.01657825,-0.01278336,-0.00210890,0.00442983,0.00114164
 ,0.06166739,-0.05222798,-0.01615400,0.00002869,0.00001454,0.00001429,0
 .00001883,0.00002337,0.00003610,0.00004677,-0.00008927,-0.00000267,-0.
 00000864,-0.00001271,-0.00000049,0.00001942,-0.00001576,-0.00001120,0.
 00001962,-0.00001598,0.00000775,-0.00000166,0.00000918,-0.00000073,0.0
 0001925,0.00000996,-0.00000571,0.00001818,0.00000938,0.00000352,0.0004
 7166,0.00044336,0.00030042,0.00117540,-0.00004556,0.00094246,-0.002359
 23,-0.00318124,-0.00163210,-0.10278955,0.07185651,-0.00049949,0.000132
 76,-0.00001462,0.00006090,-0.00050293,-0.00002504,-0.00028398,-0.00016
 172,-0.00009019,0.00062463,-0.00008660,0.00011610,-0.00023530,0.000312
 78,0.00014477,0.00017524,0.00039806,-0.00010245,0.00044130,-0.00015808
 ,0.00003386,0.00012096,0.00025802,-0.00001260,0.00002529,-0.00012354,0
 .00003571,0.00001592,-0.00027770,-0.00003870,0.00007531,0.00012184,0.0
 0003872,-0.00129326,-0.00072296,-0.00060685,0.00176050,0.00267062,0.00
 195901,-0.00951104,0.00550150,-0.00265598,0.00013476,0.00091230,-0.002
 80374,0.14598939,-0.03501473,-0.05157310,-0.00000576,0.00000932,0.0000
 3836,0.00000203,-0.00003349,0.00009882,-0.00002427,0.00009441,0.000002
 35,0.00000402,0.00000900,-0.00000004,-0.00001012,0.00001596,-0.0000031
 1,-0.00001375,0.00001432,-0.00000880,0.00000029,-0.00000965,-0.0000006
 5,-0.00001427,-0.00000561,-0.00000917,-0.00001540,-0.00000978,0.000001
 35,0.00029143,0.00002834,-0.00001391,-0.00073184,0.00038388,0.00156612
 ,-0.00051488,-0.00172939,0.00181721,-0.13656860,0.02797305,0.05210655\
 \-0.00001402,-0.00000454,0.00000009,-0.00002244,-0.00003796,0.00000233
 ,-0.00000757,-0.00000186,-0.00000096,0.00001807,-0.00000437,-0.0000000
 4,-0.00001252,0.00000543,-0.00000087,-0.00000652,0.00004071,0.00000057
 ,0.00002362,0.00001241,-0.00000015,-0.00000406,0.00008029,-0.00000242,
 0.00003854,-0.00010552,0.00000124,-0.00003230,-0.00006591,-0.00000231,
 0.00005881,0.00006160,0.00000046,-0.00001552,-0.00000259,0.00000492,0.
 00002516,0.00001611,0.00000143,0.00001234,-0.00001782,-0.00002139,-0.0
 0000747,-0.00001634,0.00002246,0.00000830,0.00004300,-0.00000326,0.000
 00807,0.00000776,-0.00000006,-0.00000092,-0.00000472,-0.00000037,-0.00
 000981,-0.00001708,-0.00000073,0.00000763,0.00000689,0.00000043,-0.000
 00674,0.00000855,0.00000631,-0.00000619,0.00000908,-0.00000634,-0.0000
 0923,-0.00001979,-0.00000077,-0.00001480,-0.00000650,-0.00000528,-0.00
 001485,-0.00000661,0.00000418,0.00000519,0.00000633,-0.00000027,-0.000
 00345,-0.00000389,0.00000144,-0.00000699,0.00001538,-0.00000723,-0.000
 01032,0.00000195,0.00000658\\\@


 Human beings, who are almost unique in having the
 ability to learn from the experience of others, are
 also remarkable for their apparent disinclination to do so.
                               -- Douglas Adams,
                                Last Chance to See
 Job cpu time:       0 days  1 hours 41 minutes 54.0 seconds.
 File lengths (MBytes):  RWF=    391 Int=      0 D2E=      0 Chk=     11 Scr=      1
 Normal termination of Gaussian 09 at Sun May 19 23:26:33 2024.
