 Entering Gaussian System, Link 0=g09
 Input=lwpbeSA.gjf
 Output=lwpbeSA.log
 Initial command:
 /home/phzd/g09E/g09/l1.exe "/home/phzd/g09E/scratch/Gau-3250032.inp" -scrdir="/home/phzd/g09E/scratch/"
 Default is to use a total of  18 processors:
                               18 via shared-memory
                                1 via Linda
 Entering Link 1 = /home/phzd/g09E/g09/l1.exe PID=   3250034.
  
 Copyright (c) 1988,1990,1992,1993,1995,1998,2003,2009,2015,
            Gaussian, Inc.  All Rights Reserved.
  
 This is part of the Gaussian(R) 09 program.  It is based on
 the Gaussian(R) 03 system (copyright 2003, Gaussian, Inc.),
 the Gaussian(R) 98 system (copyright 1998, Gaussian, Inc.),
 the Gaussian(R) 94 system (copyright 1995, Gaussian, Inc.),
 the Gaussian 92(TM) system (copyright 1992, Gaussian, Inc.),
 the Gaussian 90(TM) system (copyright 1990, Gaussian, Inc.),
 the Gaussian 88(TM) system (copyright 1988, Gaussian, Inc.),
 the Gaussian 86(TM) system (copyright 1986, Carnegie Mellon
 University), and the Gaussian 82(TM) system (copyright 1983,
 Carnegie Mellon University). Gaussian is a federally registered
 trademark of Gaussian, Inc.
  
 This software contains proprietary and confidential information,
 including trade secrets, belonging to Gaussian, Inc.
  
 This software is provided under written license and may be
 used, copied, transmitted, or stored only in accord with that
 written license.
  
 The following legend is applicable only to US Government
 contracts under FAR:
  
                    RESTRICTED RIGHTS LEGEND
  
 Use, reproduction and disclosure by the US Government is
 subject to restrictions as set forth in subparagraphs (a)
 and (c) of the Commercial Computer Software - Restricted
 Rights clause in FAR 52.227-19.
  
 Gaussian, Inc.
 340 Quinnipiac St., Bldg. 40, Wallingford CT 06492
  
  
 ---------------------------------------------------------------
 Warning -- This program may not be used in any manner that
 competes with the business of Gaussian, Inc. or will provide
 assistance to any competitor of Gaussian, Inc.  The licensee
 of this program is prohibited from giving any competitor of
 Gaussian, Inc. access to this program.  By using this program,
 the user acknowledges that Gaussian, Inc. is engaged in the
 business of creating and licensing software in the field of
 computational chemistry and represents and warrants to the
 licensee that it is not a competitor of Gaussian, Inc. and that
 it will not use this program in any manner prohibited above.
 ---------------------------------------------------------------
  

 Cite this work as:
 Gaussian 09, Revision E.01,
 M. J. Frisch, G. W. Trucks, H. B. Schlegel, G. E. Scuseria, 
 M. A. Robb, J. R. Cheeseman, G. Scalmani, V. Barone, B. Mennucci, 
 G. A. Petersson, H. Nakatsuji, M. Caricato, X. Li, H. P. Hratchian, 
 A. F. Izmaylov, J. Bloino, G. Zheng, J. L. Sonnenberg, M. Hada, 
 M. Ehara, K. Toyota, R. Fukuda, J. Hasegawa, M. Ishida, T. Nakajima, 
 Y. Honda, O. Kitao, H. Nakai, T. Vreven, J. A. Montgomery, Jr., 
 J. E. Peralta, F. Ogliaro, M. Bearpark, J. J. Heyd, E. Brothers, 
 K. N. Kudin, V. N. Staroverov, T. Keith, R. Kobayashi, J. Normand, 
 K. Raghavachari, A. Rendell, J. C. Burant, S. S. Iyengar, J. Tomasi, 
 M. Cossi, N. Rega, J. M. Millam, M. Klene, J. E. Knox, J. B. Cross, 
 V. Bakken, C. Adamo, J. Jaramillo, R. Gomperts, R. E. Stratmann, 
 O. Yazyev, A. J. Austin, R. Cammi, C. Pomelli, J. W. Ochterski, 
 R. L. Martin, K. Morokuma, V. G. Zakrzewski, G. A. Voth, 
 P. Salvador, J. J. Dannenberg, S. Dapprich, A. D. Daniels, 
 O. Farkas, J. B. Foresman, J. V. Ortiz, J. Cioslowski, 
 and D. J. Fox, Gaussian, Inc., Wallingford CT, 2013.
 
 ******************************************
 Gaussian 09:  ES64L-G09RevE.01 30-Nov-2015
                19-May-2024 
 ******************************************
 %chk=lwpbeSA.chk
 -----------------------------
 # opt freq pbepbe/6-31+g(d,p)
 -----------------------------
 1/14=-1,18=20,19=15,26=3,38=1/1,3;
 2/9=110,12=2,17=6,18=5,40=1/2;
 3/5=1,6=6,7=111,11=2,16=1,25=1,30=1,71=1,74=1009/1,2,3;
 4//1;
 5/5=2,38=5/2;
 6/7=2,8=2,9=2,10=2,28=1/1;
 7//1,2,3,16;
 1/14=-1,18=20,19=15,26=3/3(2);
 2/9=110/2;
 99//99;
 2/9=110/2;
 3/5=1,6=6,7=111,11=2,16=1,25=1,30=1,71=1,74=1009/1,2,3;
 4/5=5,16=3,69=1/1;
 5/5=2,38=5/2;
 7//1,2,3,16;
 1/14=-1,18=20,19=15,26=3/3(-5);
 2/9=110/2;
 6/7=2,8=2,9=2,10=2,19=2,28=1/1;
 99/9=1/99;
 ----------
 [No Title]
 ----------
 Symbolic Z-matrix:
 Charge =  0 Multiplicity = 1
 C                     2.27767  -0.11768   0.00073 
 C                     1.69785   1.17535   0.00031 
 C                     0.31783   1.33864   0.00003 
 C                    -0.5321    0.2147    0.00012 
 C                     0.04007  -1.05866   0.00038 
 C                     1.42611  -1.23872   0.00055 
 O                     3.64683  -0.12942   0.00106 
 O                     2.59622   2.19748   0.00033 
 C                     2.09265   3.52691  -0.00004 
 O                     1.79196  -2.5678    0.00052 
 C                     3.1357   -3.01992  -0.00126 
 C                    -1.97271   0.43749  -0.00012 
 C                    -2.95023  -0.49152  -0.00019 
 C                    -4.35863  -0.07734  -0.00043 
 O                    -5.19757  -1.1527   -0.00079 
 O                    -4.78402   1.06608  -0.00081 
 H                    -0.11815   2.32919  -0.0002 
 H                    -0.5693   -1.95421   0.00032 
 H                     3.98701  -1.02806   0.00367 
 H                     2.97014   4.1737    0.00002 
 H                     1.4916    3.72497  -0.89606 
 H                     1.49122   3.72533   0.89565 
 H                     3.07694  -4.10929  -0.00199 
 H                     3.67355  -2.7132   -0.90899 
 H                     3.67541  -2.71481   0.90599 
 H                    -2.29461   1.47756  -0.00026 
 H                    -2.75445  -1.55782  -0.00008 
 H                    -6.10195  -0.798    -0.00114 
 

 GradGradGradGradGradGradGradGradGradGradGradGradGradGradGradGradGradGrad
 Berny optimization.
 Initialization pass.
                           ----------------------------
                           !    Initial Parameters    !
                           ! (Angstroms and Degrees)  !
 --------------------------                            --------------------------
 ! Name  Definition              Value          Derivative Info.                !
 --------------------------------------------------------------------------------
 ! R1    R(1,2)                  1.4171         estimate D2E/DX2                !
 ! R2    R(1,6)                  1.4078         estimate D2E/DX2                !
 ! R3    R(1,7)                  1.3692         estimate D2E/DX2                !
 ! R4    R(2,3)                  1.3897         estimate D2E/DX2                !
 ! R5    R(2,8)                  1.3608         estimate D2E/DX2                !
 ! R6    R(3,4)                  1.4091         estimate D2E/DX2                !
 ! R7    R(3,17)                 1.0823         estimate D2E/DX2                !
 ! R8    R(4,5)                  1.396          estimate D2E/DX2                !
 ! R9    R(4,12)                 1.4577         estimate D2E/DX2                !
 ! R10   R(5,6)                  1.3977         estimate D2E/DX2                !
 ! R11   R(5,18)                 1.0832         estimate D2E/DX2                !
 ! R12   R(6,10)                 1.3785         estimate D2E/DX2                !
 ! R13   R(7,19)                 0.9609         estimate D2E/DX2                !
 ! R14   R(8,9)                  1.4216         estimate D2E/DX2                !
 ! R15   R(9,20)                 1.0901         estimate D2E/DX2                !
 ! R16   R(9,21)                 1.097          estimate D2E/DX2                !
 ! R17   R(9,22)                 1.097          estimate D2E/DX2                !
 ! R18   R(10,11)                1.4178         estimate D2E/DX2                !
 ! R19   R(11,23)                1.091          estimate D2E/DX2                !
 ! R20   R(11,24)                1.0988         estimate D2E/DX2                !
 ! R21   R(11,25)                1.0988         estimate D2E/DX2                !
 ! R22   R(12,13)                1.3486         estimate D2E/DX2                !
 ! R23   R(12,26)                1.0887         estimate D2E/DX2                !
 ! R24   R(13,14)                1.468          estimate D2E/DX2                !
 ! R25   R(13,27)                1.0841         estimate D2E/DX2                !
 ! R26   R(14,15)                1.3639         estimate D2E/DX2                !
 ! R27   R(14,16)                1.22           estimate D2E/DX2                !
 ! R28   R(15,28)                0.9714         estimate D2E/DX2                !
 ! A1    A(2,1,6)              118.6267         estimate D2E/DX2                !
 ! A2    A(2,1,7)              114.6437         estimate D2E/DX2                !
 ! A3    A(6,1,7)              126.7296         estimate D2E/DX2                !
 ! A4    A(1,2,3)              120.9002         estimate D2E/DX2                !
 ! A5    A(1,2,8)              114.5346         estimate D2E/DX2                !
 ! A6    A(3,2,8)              124.5651         estimate D2E/DX2                !
 ! A7    A(2,3,4)              120.349          estimate D2E/DX2                !
 ! A8    A(2,3,17)             120.5033         estimate D2E/DX2                !
 ! A9    A(4,3,17)             119.1477         estimate D2E/DX2                !
 ! A10   A(3,4,5)              118.7073         estimate D2E/DX2                !
 ! A11   A(3,4,12)             118.3056         estimate D2E/DX2                !
 ! A12   A(5,4,12)             122.9871         estimate D2E/DX2                !
 ! A13   A(4,5,6)              121.5977         estimate D2E/DX2                !
 ! A14   A(4,5,18)             121.5711         estimate D2E/DX2                !
 ! A15   A(6,5,18)             116.8312         estimate D2E/DX2                !
 ! A16   A(1,6,5)              119.8191         estimate D2E/DX2                !
 ! A17   A(1,6,10)             127.389          estimate D2E/DX2                !
 ! A18   A(5,6,10)             112.7919         estimate D2E/DX2                !
 ! A19   A(1,7,19)             111.2253         estimate D2E/DX2                !
 ! A20   A(2,8,9)              117.9412         estimate D2E/DX2                !
 ! A21   A(8,9,20)             105.6478         estimate D2E/DX2                !
 ! A22   A(8,9,21)             111.2933         estimate D2E/DX2                !
 ! A23   A(8,9,22)             111.2932         estimate D2E/DX2                !
 ! A24   A(20,9,21)            109.5101         estimate D2E/DX2                !
 ! A25   A(20,9,22)            109.51           estimate D2E/DX2                !
 ! A26   A(21,9,22)            109.5041         estimate D2E/DX2                !
 ! A27   A(6,10,11)            123.9864         estimate D2E/DX2                !
 ! A28   A(10,11,23)           105.5086         estimate D2E/DX2                !
 ! A29   A(10,11,24)           112.0829         estimate D2E/DX2                !
 ! A30   A(10,11,25)           112.0821         estimate D2E/DX2                !
 ! A31   A(23,11,24)           107.731          estimate D2E/DX2                !
 ! A32   A(23,11,25)           107.7143         estimate D2E/DX2                !
 ! A33   A(24,11,25)           111.3554         estimate D2E/DX2                !
 ! A34   A(4,12,13)            127.6665         estimate D2E/DX2                !
 ! A35   A(4,12,26)            115.9886         estimate D2E/DX2                !
 ! A36   A(13,12,26)           116.3449         estimate D2E/DX2                !
 ! A37   A(12,13,14)           120.0704         estimate D2E/DX2                !
 ! A38   A(12,13,27)           123.1386         estimate D2E/DX2                !
 ! A39   A(14,13,27)           116.791          estimate D2E/DX2                !
 ! A40   A(13,14,15)           111.5722         estimate D2E/DX2                !
 ! A41   A(13,14,16)           126.7941         estimate D2E/DX2                !
 ! A42   A(15,14,16)           121.6337         estimate D2E/DX2                !
 ! A43   A(14,15,28)           106.5441         estimate D2E/DX2                !
 ! D1    D(6,1,2,3)              0.0146         estimate D2E/DX2                !
 ! D2    D(6,1,2,8)           -179.9907         estimate D2E/DX2                !
 ! D3    D(7,1,2,3)           -179.9962         estimate D2E/DX2                !
 ! D4    D(7,1,2,8)             -0.0015         estimate D2E/DX2                !
 ! D5    D(2,1,6,5)             -0.0199         estimate D2E/DX2                !
 ! D6    D(2,1,6,10)           179.9807         estimate D2E/DX2                !
 ! D7    D(7,1,6,5)            179.9923         estimate D2E/DX2                !
 ! D8    D(7,1,6,10)            -0.007          estimate D2E/DX2                !
 ! D9    D(2,1,7,19)           179.8507         estimate D2E/DX2                !
 ! D10   D(6,1,7,19)            -0.1612         estimate D2E/DX2                !
 ! D11   D(1,2,3,4)             -0.0019         estimate D2E/DX2                !
 ! D12   D(1,2,3,17)           179.9941         estimate D2E/DX2                !
 ! D13   D(8,2,3,4)           -179.996          estimate D2E/DX2                !
 ! D14   D(8,2,3,17)             0.0            estimate D2E/DX2                !
 ! D15   D(1,2,8,9)           -179.9981         estimate D2E/DX2                !
 ! D16   D(3,2,8,9)             -0.0036         estimate D2E/DX2                !
 ! D17   D(2,3,4,5)             -0.0055         estimate D2E/DX2                !
 ! D18   D(2,3,4,12)           179.997          estimate D2E/DX2                !
 ! D19   D(17,3,4,5)           179.9984         estimate D2E/DX2                !
 ! D20   D(17,3,4,12)            0.0009         estimate D2E/DX2                !
 ! D21   D(3,4,5,6)              0.0            estimate D2E/DX2                !
 ! D22   D(3,4,5,18)          -179.9913         estimate D2E/DX2                !
 ! D23   D(12,4,5,6)           179.9973         estimate D2E/DX2                !
 ! D24   D(12,4,5,18)            0.006          estimate D2E/DX2                !
 ! D25   D(3,4,12,13)          179.9942         estimate D2E/DX2                !
 ! D26   D(3,4,12,26)           -0.0056         estimate D2E/DX2                !
 ! D27   D(5,4,12,13)           -0.0032         estimate D2E/DX2                !
 ! D28   D(5,4,12,26)          179.9971         estimate D2E/DX2                !
 ! D29   D(4,5,6,1)              0.0129         estimate D2E/DX2                !
 ! D30   D(4,5,6,10)          -179.9876         estimate D2E/DX2                !
 ! D31   D(18,5,6,1)          -179.9953         estimate D2E/DX2                !
 ! D32   D(18,5,6,10)            0.0041         estimate D2E/DX2                !
 ! D33   D(1,6,10,11)           -0.0943         estimate D2E/DX2                !
 ! D34   D(5,6,10,11)          179.9063         estimate D2E/DX2                !
 ! D35   D(2,8,9,20)          -179.9987         estimate D2E/DX2                !
 ! D36   D(2,8,9,21)           -61.2213         estimate D2E/DX2                !
 ! D37   D(2,8,9,22)            61.224          estimate D2E/DX2                !
 ! D38   D(6,10,11,23)        -179.9329         estimate D2E/DX2                !
 ! D39   D(6,10,11,24)         -62.9544         estimate D2E/DX2                !
 ! D40   D(6,10,11,25)          63.1091         estimate D2E/DX2                !
 ! D41   D(4,12,13,14)         179.9998         estimate D2E/DX2                !
 ! D42   D(4,12,13,27)          -0.0005         estimate D2E/DX2                !
 ! D43   D(26,12,13,14)         -0.0005         estimate D2E/DX2                !
 ! D44   D(26,12,13,27)        179.9992         estimate D2E/DX2                !
 ! D45   D(12,13,14,15)        179.9857         estimate D2E/DX2                !
 ! D46   D(12,13,14,16)          0.0133         estimate D2E/DX2                !
 ! D47   D(27,13,14,15)         -0.0141         estimate D2E/DX2                !
 ! D48   D(27,13,14,16)       -179.9864         estimate D2E/DX2                !
 ! D49   D(13,14,15,28)       -179.9867         estimate D2E/DX2                !
 ! D50   D(16,14,15,28)         -0.0127         estimate D2E/DX2                !
 --------------------------------------------------------------------------------
 Trust Radius=3.00D-01 FncErr=1.00D-07 GrdErr=1.00D-06
 Number of steps in this run=    131 maximum allowed number of steps=    168.
 GradGradGradGradGradGradGradGradGradGradGradGradGradGradGradGradGradGrad

                          Input orientation:                          
 ---------------------------------------------------------------------
 Center     Atomic      Atomic             Coordinates (Angstroms)
 Number     Number       Type             X           Y           Z
 ---------------------------------------------------------------------
      1          6           0        2.277674   -0.117680    0.000733
      2          6           0        1.697850    1.175354    0.000311
      3          6           0        0.317825    1.338636    0.000031
      4          6           0       -0.532100    0.214700    0.000122
      5          6           0        0.040065   -1.058665    0.000380
      6          6           0        1.426114   -1.238724    0.000548
      7          8           0        3.646826   -0.129419    0.001057
      8          8           0        2.596219    2.197482    0.000328
      9          6           0        2.092652    3.526914   -0.000040
     10          8           0        1.791957   -2.567797    0.000520
     11          6           0        3.135704   -3.019919   -0.001255
     12          6           0       -1.972708    0.437489   -0.000115
     13          6           0       -2.950226   -0.491515   -0.000186
     14          6           0       -4.358631   -0.077339   -0.000429
     15          8           0       -5.197572   -1.152701   -0.000785
     16          8           0       -4.784019    1.066078   -0.000811
     17          1           0       -0.118145    2.329193   -0.000195
     18          1           0       -0.569301   -1.954212    0.000320
     19          1           0        3.987006   -1.028063    0.003670
     20          1           0        2.970142    4.173705    0.000019
     21          1           0        1.491596    3.724974   -0.896063
     22          1           0        1.491218    3.725326    0.895653
     23          1           0        3.076941   -4.109286   -0.001990
     24          1           0        3.673549   -2.713197   -0.908992
     25          1           0        3.675408   -2.714813    0.905985
     26          1           0       -2.294613    1.477557   -0.000255
     27          1           0       -2.754450   -1.557824   -0.000076
     28          1           0       -6.101951   -0.797999   -0.001143
 ---------------------------------------------------------------------
                    Distance matrix (angstroms):
                    1          2          3          4          5
     1  C    0.000000
     2  C    1.417086   0.000000
     3  C    2.441693   1.389651   0.000000
     4  C    2.829365   2.428072   1.409115   0.000000
     5  C    2.427416   2.781922   2.413339   1.396005   0.000000
     6  C    1.407798   2.429324   2.805546   2.438656   1.397696
     7  O    1.369202   2.345408   3.638328   4.193071   3.724543
     8  O    2.336974   1.360813   2.434891   3.703755   4.139616
     9  C    3.649287   2.384471   2.817547   4.226119   5.024007
    10  O    2.497798   3.744334   4.175318   3.625401   2.312273
    11  C    3.026419   4.434833   5.190130   4.890353   3.664628
    12  C    4.286486   3.743987   2.461424   1.457733   2.507934
    13  C    5.241249   4.937921   3.745612   2.519141   3.043600
    14  C    6.636428   6.184675   4.886126   3.837659   4.506831
    15  O    7.546560   7.277822   6.051972   4.861730   5.238481
    16  O    7.160223   6.482790   5.109119   4.336319   5.271273
    17  H    3.424491   2.151554   1.082254   2.154632   3.391550
    18  H    3.387937   3.864474   3.410255   2.169231   1.083204
    19  H    1.936652   3.177309   4.366253   4.686874   3.947061
    20  H    4.346895   3.257121   3.882319   5.285775   5.996920
    21  H    4.023450   2.710459   2.806302   4.149761   5.078755
    22  H    4.023443   2.710478   2.806293   4.149733   5.078772
    23  H    4.070842   5.461622   6.106765   5.632232   4.304522
    24  H    3.084279   4.455451   5.338966   5.204474   4.094709
    25  H    3.085165   4.456947   5.340839   5.206319   4.096177
    26  H    4.842581   4.003884   2.616129   2.168239   3.447194
    27  H    5.234146   5.224293   4.222364   2.842654   2.838745
    28  H    8.407196   8.045559   6.765998   5.661166   6.147545
                    6          7          8          9         10
     6  C    0.000000
     7  O    2.482362   0.000000
     8  O    3.629967   2.553085   0.000000
     9  C    4.812024   3.972937   1.421608   0.000000
    10  O    1.378505   3.063695   4.832672   6.102124   0.000000
    11  C    2.468878   2.935343   5.245219   6.629403   1.417771
    12  C    3.789681   5.648057   4.896189   5.106045   4.817099
    13  C    4.439670   6.606982   6.163908   6.448131   5.176799
    14  C    5.900177   8.005627   7.317428   7.389837   6.635670
    15  O    6.624245   8.903397   8.483331   8.662919   7.131340
    16  O    6.624037   8.515184   7.466458   7.303719   7.513222
    17  H    3.887772   4.496641   2.717558   2.514390   5.256330
    18  H    2.119812   4.594083   5.220831   6.093335   2.439677
    19  H    2.569544   0.960880   3.512612   4.933194   2.681237
    20  H    5.628358   4.356005   2.011287   1.090104   6.843681
    21  H    5.044452   4.506239   2.087329   1.096975   6.363415
    22  H    5.044526   4.506219   2.087329   1.096976   6.363576
    23  H    3.311399   4.020463   6.325063   7.699375   2.006833
    24  H    2.837657   2.739491   5.109038   6.501109   2.094932
    25  H    2.838658   2.739338   5.110333   6.502704   2.094963
    26  H    4.606733   6.154922   4.943534   4.842309   5.750213
    27  H    4.192725   6.558710   6.536970   7.024881   4.657238
    28  H    7.540955   9.771676   9.199515   9.265872   8.089868
                   11         12         13         14         15
    11  C    0.000000
    12  C    6.168431   0.000000
    13  C    6.590248   1.348551   0.000000
    14  C    8.051325   2.440835   1.468042   0.000000
    15  O    8.539906   3.595616   2.342591   1.363901   0.000000
    16  O    8.911643   2.880728   2.406012   1.219983   2.256991
    17  H    6.261033   2.649141   3.997134   4.875768   6.158260
    18  H    3.855230   2.773046   2.794331   4.228673   4.697160
    19  H    2.166156   6.137267   6.957951   8.399616   9.185425
    20  H    7.195529   6.196053   7.537575   8.472443   9.751008
    21  H    6.999811   4.859185   6.189601   7.034550   8.326957
    22  H    7.000508   4.859121   6.189564   7.034483   8.326984
    23  H    1.090951   6.795007   7.029581   8.458388   8.786863
    24  H    1.098791   6.529403   7.045296   8.502303   9.052998
    25  H    1.098842   6.531404   7.047214   8.504331   9.054954
    26  H    7.050931   1.088744   2.075349   2.584158   3.917324
    27  H    6.068907   2.142987   1.084132   2.182941   2.476483
    28  H    9.501116   4.310114   3.166592   1.886403   0.971450
                   16         17         18         19         20
    16  O    0.000000
    17  H    4.833823   0.000000
    18  H    5.185171   4.307099   0.000000
    19  H    9.017557   5.303154   4.649483   0.000000
    20  H    8.353703   3.597185   7.076653   5.300228   0.000000
    21  H    6.874194   2.311288   6.107696   5.443156   1.786175
    22  H    6.874143   2.311229   6.107742   5.442361   1.786175
    23  H    9.411646   7.187669   4.235496   3.212816   8.283680
    24  H    9.307963   6.374053   4.405075   1.941876   6.982156
    25  H    9.310173   6.376065   4.406393   1.938141   6.983542
    26  H    2.523184   2.337156   3.841060   6.762905   5.914969
    27  H    3.317230   4.696702   2.220811   6.762240   8.100702
    28  H    2.282921   6.751686   5.652172  10.091581  10.345082
                   21         22         23         24         25
    21  H    0.000000
    22  H    1.791716   0.000000
    23  H    8.042905   8.043720   0.000000
    24  H    6.797877   7.033768   1.768519   0.000000
    25  H    7.034719   6.800455   1.768371   1.814979   0.000000
    26  H    4.493187   4.493065   7.750252   7.348958   7.351081
    27  H    6.836641   6.836644   6.365146   6.593951   6.595653
    28  H    8.883700   8.883745   9.757903  10.002628  10.004689
                   26         27         28
    26  H    0.000000
    27  H    3.070014   0.000000
    28  H    4.435536   3.432652   0.000000
 Stoichiometry    C11H12O5
 Framework group  C1[X(C11H12O5)]
 Deg. of freedom    78
 Full point group                 C1      NOp   1
 Largest Abelian subgroup         C1      NOp   1
 Largest concise Abelian subgroup C1      NOp   1
                         Standard orientation:                         
 ---------------------------------------------------------------------
 Center     Atomic      Atomic             Coordinates (Angstroms)
 Number     Number       Type             X           Y           Z
 ---------------------------------------------------------------------
      1          6           0       -2.277674   -0.117680   -0.000733
      2          6           0       -1.697850    1.175354   -0.000311
      3          6           0       -0.317825    1.338636   -0.000031
      4          6           0        0.532100    0.214700   -0.000122
      5          6           0       -0.040065   -1.058665   -0.000380
      6          6           0       -1.426114   -1.238724   -0.000548
      7          8           0       -3.646826   -0.129419   -0.001057
      8          8           0       -2.596219    2.197482   -0.000328
      9          6           0       -2.092652    3.526914    0.000040
     10          8           0       -1.791957   -2.567797   -0.000520
     11          6           0       -3.135704   -3.019919    0.001255
     12          6           0        1.972708    0.437489    0.000115
     13          6           0        2.950226   -0.491515    0.000186
     14          6           0        4.358631   -0.077339    0.000429
     15          8           0        5.197572   -1.152701    0.000785
     16          8           0        4.784019    1.066078    0.000811
     17          1           0        0.118145    2.329193    0.000195
     18          1           0        0.569301   -1.954212   -0.000320
     19          1           0       -3.987006   -1.028063   -0.003670
     20          1           0       -2.970142    4.173705   -0.000019
     21          1           0       -1.491596    3.724974    0.896063
     22          1           0       -1.491218    3.725326   -0.895653
     23          1           0       -3.076941   -4.109286    0.001990
     24          1           0       -3.673549   -2.713197    0.908992
     25          1           0       -3.675408   -2.714813   -0.905985
     26          1           0        2.294613    1.477557    0.000255
     27          1           0        2.754450   -1.557824    0.000076
     28          1           0        6.101951   -0.797999    0.001143
 ---------------------------------------------------------------------
 Rotational constants (GHZ):      0.7735246      0.2571162      0.1934571
 Standard basis: 6-31+G(d,p) (6D, 7F)
 There are   364 symmetry adapted cartesian basis functions of A   symmetry.
 There are   364 symmetry adapted basis functions of A   symmetry.
   364 basis functions,   596 primitive gaussians,   364 cartesian basis functions
    59 alpha electrons       59 beta electrons
       nuclear repulsion energy      1050.4649160283 Hartrees.
 NAtoms=   28 NActive=   28 NUniq=   28 SFac= 1.00D+00 NAtFMM=   60 NAOKFM=F Big=F
 Integral buffers will be    131072 words long.
 Raffenetti 2 integral format.
 Two-electron integral symmetry is turned on.
 One-electron integrals computed using PRISM.
 NBasis=   364 RedAO= T EigKep=  1.43D-06  NBF=   364
 NBsUse=   362 1.00D-06 EigRej=  5.32D-07 NBFU=   362
 ExpMin= 4.38D-02 ExpMax= 5.48D+03 ExpMxC= 8.25D+02 IAcc=2 IRadAn=         4 AccDes= 0.00D+00
 Harris functional with IExCor= 1009 and IRadAn=       4 diagonalized for initial guess.
 HarFok:  IExCor= 1009 AccDes= 0.00D+00 IRadAn=         4 IDoV= 1 UseB2=F ITyADJ=14
 ICtDFT=  3500011 ScaDFX=  1.000000  1.000000  1.000000  1.000000
 FoFCou: FMM=F IPFlag=           0 FMFlag=      100000 FMFlg1=           0
         NFxFlg=           0 DoJE=T BraDBF=F KetDBF=T FulRan=T
         wScrn=  0.000000 ICntrl=     500 IOpCl=  0 I1Cent=   200000004 NGrid=           0
         NMat0=    1 NMatS0=      1 NMatT0=    0 NMatD0=    1 NMtDS0=    0 NMtDT0=    0
 Petite list used in FoFCou.
 Requested convergence on RMS density matrix=1.00D-08 within 128 cycles.
 Requested convergence on MAX density matrix=1.00D-06.
 Requested convergence on             energy=1.00D-06.
 No special actions if energy rises.
 EnCoef did     2 forward-backward iterations
 SCF Done:  E(RPBE-PBE) =  -801.602876873     A.U. after   18 cycles
            NFock= 18  Conv=0.28D-08     -V/T= 2.0089

 **********************************************************************

            Population analysis using the SCF density.

 **********************************************************************

 Orbital symmetries:
       Occupied  (A) (A) (A) (A) (A) (A) (A) (A) (A) (A) (A) (A)
                 (A) (A) (A) (A) (A) (A) (A) (A) (A) (A) (A) (A)
                 (A) (A) (A) (A) (A) (A) (A) (A) (A) (A) (A) (A)
                 (A) (A) (A) (A) (A) (A) (A) (A) (A) (A) (A) (A)
                 (A) (A) (A) (A) (A) (A) (A) (A) (A) (A) (A)
       Virtual   (A) (A) (A) (A) (A) (A) (A) (A) (A) (A) (A) (A)
                 (A) (A) (A) (A) (A) (A) (A) (A) (A) (A) (A) (A)
                 (A) (A) (A) (A) (A) (A) (A) (A) (A) (A) (A) (A)
                 (A) (A) (A) (A) (A) (A) (A) (A) (A) (A) (A) (A)
                 (A) (A) (A) (A) (A) (A) (A) (A) (A) (A) (A) (A)
                 (A) (A) (A) (A) (A) (A) (A) (A) (A) (A) (A) (A)
                 (A) (A) (A) (A) (A) (A) (A) (A) (A) (A) (A) (A)
                 (A) (A) (A) (A) (A) (A) (A) (A) (A) (A) (A) (A)
                 (A) (A) (A) (A) (A) (A) (A) (A) (A) (A) (A) (A)
                 (A) (A) (A) (A) (A) (A) (A) (A) (A) (A) (A) (A)
                 (A) (A) (A) (A) (A) (A) (A) (A) (A) (A) (A) (A)
                 (A) (A) (A) (A) (A) (A) (A) (A) (A) (A) (A) (A)
                 (A) (A) (A) (A) (A) (A) (A) (A) (A) (A) (A) (A)
                 (A) (A) (A) (A) (A) (A) (A) (A) (A) (A) (A) (A)
                 (A) (A) (A) (A) (A) (A) (A) (A) (A) (A) (A) (A)
                 (A) (A) (A) (A) (A) (A) (A) (A) (A) (A) (A) (A)
                 (A) (A) (A) (A) (A) (A) (A) (A) (A) (A) (A) (A)
                 (A) (A) (A) (A) (A) (A) (A) (A) (A) (A) (A) (A)
                 (A) (A) (A) (A) (A) (A) (A) (A) (A) (A) (A) (A)
                 (A) (A) (A) (A) (A) (A) (A) (A) (A) (A) (A) (A)
                 (A) (A) (A) (A) (A) (A) (A) (A) (A) (A) (A) (A)
                 (A) (A) (A) (A) (A) (A) (A) (A) (A) (A) (A) (A)
                 (A) (A) (A) (A) (A) (A) (A) (A) (A) (A) (A) (A)
                 (A) (A) (A) (A) (A) (A) (A) (A) (A) (A) (A) (A)
                 (A) (A) (A) (A) (A) (A) (A) (A) (A) (A) (A) (A)
                 (A) (A) (A)
 The electronic state is 1-A.
 Alpha  occ. eigenvalues --  -18.83179 -18.82796 -18.82273 -18.82009 -18.75973
 Alpha  occ. eigenvalues --  -10.01825  -9.98192  -9.98027  -9.97941  -9.97222
 Alpha  occ. eigenvalues --   -9.95878  -9.92411  -9.92350  -9.91121  -9.91038
 Alpha  occ. eigenvalues --   -9.90878  -1.00904  -1.00847  -0.99480  -0.98039
 Alpha  occ. eigenvalues --   -0.92045  -0.79524  -0.73743  -0.71314  -0.69117
 Alpha  occ. eigenvalues --   -0.65295  -0.64266  -0.61324  -0.57494  -0.55578
 Alpha  occ. eigenvalues --   -0.52127  -0.50337  -0.48404  -0.47244  -0.45810
 Alpha  occ. eigenvalues --   -0.44624  -0.44152  -0.42744  -0.41978  -0.41497
 Alpha  occ. eigenvalues --   -0.40416  -0.39168  -0.38790  -0.37989  -0.36827
 Alpha  occ. eigenvalues --   -0.35938  -0.34907  -0.33640  -0.33160  -0.32243
 Alpha  occ. eigenvalues --   -0.31641  -0.30032  -0.29528  -0.29506  -0.27198
 Alpha  occ. eigenvalues --   -0.23994  -0.22720  -0.20202  -0.18857
 Alpha virt. eigenvalues --   -0.09347  -0.03254  -0.03079  -0.01163  -0.00910
 Alpha virt. eigenvalues --   -0.00534  -0.00368   0.00643   0.01760   0.02471
 Alpha virt. eigenvalues --    0.02488   0.03075   0.03654   0.04440   0.04496
 Alpha virt. eigenvalues --    0.05086   0.05665   0.05986   0.07006   0.07577
 Alpha virt. eigenvalues --    0.07685   0.08394   0.08700   0.09053   0.09936
 Alpha virt. eigenvalues --    0.10082   0.10378   0.10721   0.11682   0.12242
 Alpha virt. eigenvalues --    0.12434   0.12977   0.13475   0.13575   0.14015
 Alpha virt. eigenvalues --    0.15481   0.15860   0.16295   0.16390   0.16524
 Alpha virt. eigenvalues --    0.16635   0.17239   0.17747   0.17791   0.18949
 Alpha virt. eigenvalues --    0.19229   0.19477   0.20128   0.20375   0.20531
 Alpha virt. eigenvalues --    0.21020   0.21584   0.22133   0.22302   0.22729
 Alpha virt. eigenvalues --    0.23996   0.24045   0.24336   0.25173   0.25552
 Alpha virt. eigenvalues --    0.25895   0.26261   0.26824   0.27093   0.27681
 Alpha virt. eigenvalues --    0.28049   0.28847   0.28862   0.29532   0.30462
 Alpha virt. eigenvalues --    0.30679   0.31167   0.31726   0.32046   0.32495
 Alpha virt. eigenvalues --    0.32740   0.33933   0.34355   0.34949   0.35520
 Alpha virt. eigenvalues --    0.36070   0.37075   0.38511   0.39594   0.39975
 Alpha virt. eigenvalues --    0.41511   0.41604   0.43454   0.44528   0.45708
 Alpha virt. eigenvalues --    0.47424   0.49696   0.51585   0.55425   0.57214
 Alpha virt. eigenvalues --    0.61070   0.61707   0.62110   0.62352   0.64127
 Alpha virt. eigenvalues --    0.64465   0.64993   0.66016   0.67234   0.67538
 Alpha virt. eigenvalues --    0.68751   0.68770   0.70337   0.71440   0.72535
 Alpha virt. eigenvalues --    0.74211   0.75506   0.76086   0.77094   0.80938
 Alpha virt. eigenvalues --    0.81767   0.82070   0.84416   0.85704   0.85860
 Alpha virt. eigenvalues --    0.86466   0.87539   0.88693   0.90958   0.92459
 Alpha virt. eigenvalues --    0.93896   0.95525   0.97743   0.99692   1.01309
 Alpha virt. eigenvalues --    1.03883   1.04477   1.06697   1.07338   1.08500
 Alpha virt. eigenvalues --    1.09534   1.10440   1.10532   1.11042   1.11994
 Alpha virt. eigenvalues --    1.13476   1.14375   1.14729   1.15320   1.16480
 Alpha virt. eigenvalues --    1.16827   1.17086   1.18913   1.19256   1.20230
 Alpha virt. eigenvalues --    1.21423   1.21993   1.22985   1.23850   1.24564
 Alpha virt. eigenvalues --    1.25782   1.27113   1.28107   1.28617   1.29397
 Alpha virt. eigenvalues --    1.29820   1.31096   1.31489   1.31836   1.33216
 Alpha virt. eigenvalues --    1.33397   1.36885   1.37715   1.39236   1.40603
 Alpha virt. eigenvalues --    1.42962   1.44521   1.46272   1.48079   1.51239
 Alpha virt. eigenvalues --    1.52303   1.52535   1.53475   1.57959   1.59943
 Alpha virt. eigenvalues --    1.62718   1.67933   1.68966   1.69849   1.70685
 Alpha virt. eigenvalues --    1.71858   1.72422   1.73072   1.75663   1.76484
 Alpha virt. eigenvalues --    1.76676   1.78649   1.80577   1.81023   1.83103
 Alpha virt. eigenvalues --    1.83659   1.84756   1.85059   1.87658   1.88426
 Alpha virt. eigenvalues --    1.89081   1.89325   1.90573   1.90773   1.92683
 Alpha virt. eigenvalues --    1.94114   1.95073   1.96344   1.97537   1.98624
 Alpha virt. eigenvalues --    2.00138   2.00776   2.03081   2.03511   2.03918
 Alpha virt. eigenvalues --    2.06744   2.08047   2.12285   2.12517   2.13393
 Alpha virt. eigenvalues --    2.14403   2.17619   2.19801   2.23264   2.23678
 Alpha virt. eigenvalues --    2.26986   2.30230   2.31887   2.33056   2.35462
 Alpha virt. eigenvalues --    2.37189   2.38758   2.39309   2.40329   2.42899
 Alpha virt. eigenvalues --    2.44319   2.44653   2.46458   2.47775   2.48667
 Alpha virt. eigenvalues --    2.52631   2.53311   2.53374   2.53972   2.55708
 Alpha virt. eigenvalues --    2.56158   2.56937   2.59095   2.60811   2.61913
 Alpha virt. eigenvalues --    2.65289   2.65745   2.67783   2.69289   2.70570
 Alpha virt. eigenvalues --    2.71747   2.73662   2.74488   2.74513   2.76181
 Alpha virt. eigenvalues --    2.77686   2.81764   2.82790   2.86223   2.90316
 Alpha virt. eigenvalues --    2.93428   2.96394   2.99801   3.04176   3.06807
 Alpha virt. eigenvalues --    3.09388   3.11464   3.13317   3.16210   3.16514
 Alpha virt. eigenvalues --    3.21536   3.30461   3.31167   3.32977   3.35742
 Alpha virt. eigenvalues --    3.37371   3.38910   3.39824   3.45759   3.50641
 Alpha virt. eigenvalues --    3.54910   3.67632   4.08627   4.13132   4.20638
 Alpha virt. eigenvalues --    4.25225   4.29600   4.30776   4.34489   4.36730
 Alpha virt. eigenvalues --    4.41638   4.47202   4.52042   4.52298   4.58615
 Alpha virt. eigenvalues --    4.64620   4.74157   5.20091
          Condensed to atoms (all electrons):
               1          2          3          4          5          6
     1  C   37.937486 -13.723925 -14.933379   2.901022  -4.166815   2.679909
     2  C  -13.723925  33.996670  -0.310491  -2.876595   0.022713 -10.324751
     3  C  -14.933379  -0.310491  35.646060  -2.468505  -5.557583  -4.028738
     4  C    2.901022  -2.876595  -2.468505  14.526223  -1.247883  -0.555389
     5  C   -4.166815   0.022713  -5.557583  -1.247883  12.431561   1.880685
     6  C    2.679909 -10.324751  -4.028738  -0.555389   1.880685  16.733996
     7  O    0.126007  -1.131559   0.203931  -0.094237   0.110271   0.638811
     8  O   -0.937842   0.389507   0.560338  -0.071421  -0.029168   0.078327
     9  C    0.040028  -0.113001  -0.018886  -0.191748  -0.011153   0.071413
    10  O    0.427989   0.061806  -0.050208   0.018578  -0.438758  -0.075444
    11  C   -0.278316  -0.212698  -0.011375   0.034200   0.100836   0.252882
    12  C   -4.108963   0.825091  -0.610458  -2.768741   1.869360  -1.171726
    13  C    0.011227  -0.950179  -2.857058  -0.990804   1.358189   0.219445
    14  C   -0.086559   0.066860  -0.270343  -0.729035   0.058676   0.045971
    15  O    0.000113   0.001998   0.023110   0.103667  -0.040308  -0.002096
    16  O   -0.000855  -0.004020   0.055517   0.117724  -0.031795  -0.000105
    17  H    0.054315  -0.224266   0.111939   0.228360   0.051345  -0.012443
    18  H    0.006412   0.007215   0.117729   0.147392   0.178383  -0.102135
    19  H   -0.004881   0.469927   0.026741  -0.001013  -0.013712  -0.456894
    20  H    0.105857   0.114210  -0.184509  -0.025620  -0.002571   0.013199
    21  H   -0.050142  -0.150450   0.141784   0.039329   0.006613  -0.008025
    22  H   -0.049555  -0.150571   0.141508   0.039378   0.006558  -0.007998
    23  H   -0.054731  -0.006987  -0.003510   0.000344   0.004901   0.073593
    24  H    0.057722   0.012259   0.004531  -0.000901  -0.006970  -0.071241
    25  H    0.060973   0.012615   0.004577  -0.000948  -0.007864  -0.073797
    26  H    0.018508   0.022500   0.130677   0.005838  -0.011176  -0.000728
    27  H    0.002920  -0.001425   0.023184   0.075760  -0.016587   0.002491
    28  H    0.000063   0.000017  -0.000876  -0.008233   0.004882   0.000195
               7          8          9         10         11         12
     1  C    0.126007  -0.937842   0.040028   0.427989  -0.278316  -4.108963
     2  C   -1.131559   0.389507  -0.113001   0.061806  -0.212698   0.825091
     3  C    0.203931   0.560338  -0.018886  -0.050208  -0.011375  -0.610458
     4  C   -0.094237  -0.071421  -0.191748   0.018578   0.034200  -2.768741
     5  C    0.110271  -0.029168  -0.011153  -0.438758   0.100836   1.869360
     6  C    0.638811   0.078327   0.071413  -0.075444   0.252882  -1.171726
     7  O    8.463132   0.057607  -0.007177  -0.025218   0.006813   0.029127
     8  O    0.057607   8.422278   0.040251  -0.001581   0.001505  -0.044507
     9  C   -0.007177   0.040251   5.161002  -0.000427  -0.000135   0.003962
    10  O   -0.025218  -0.001581  -0.000427   8.555674   0.009531  -0.023943
    11  C    0.006813   0.001505  -0.000135   0.009531   5.131938  -0.013931
    12  C    0.029127  -0.044507   0.003962  -0.023943  -0.013931  12.668740
    13  C    0.000235  -0.005361  -0.009868   0.011476   0.001985  -2.085107
    14  C    0.000531  -0.000123   0.000291  -0.000180  -0.000079   0.837004
    15  O    0.000000   0.000001   0.000001   0.000004   0.000002  -0.052602
    16  O    0.000001   0.000002   0.000109  -0.000005   0.000007   0.073501
    17  H   -0.000875  -0.017087  -0.006868   0.000176   0.000107   0.073242
    18  H   -0.000422   0.000151   0.000301  -0.018128  -0.002947  -0.042570
    19  H    0.129168  -0.004849   0.000986   0.004837   0.024517   0.005943
    20  H   -0.001068  -0.079391   0.420623  -0.000004   0.000031  -0.004353
    21  H    0.000039  -0.036515   0.400082   0.000004  -0.000024   0.007893
    22  H    0.000037  -0.036507   0.399971   0.000004  -0.000022   0.007799
    23  H    0.002663   0.000005   0.000014  -0.075753   0.414865   0.000088
    24  H   -0.012853  -0.000106  -0.000071  -0.042369   0.392054  -0.000127
    25  H   -0.013224  -0.000110  -0.000073  -0.042301   0.391718  -0.000147
    26  H   -0.000013   0.000072   0.000325   0.000025  -0.000002   0.279424
    27  H   -0.000004   0.000004   0.000037  -0.000008   0.000051  -0.087080
    28  H   -0.000000   0.000000  -0.000001   0.000000  -0.000000   0.025730
              13         14         15         16         17         18
     1  C    0.011227  -0.086559   0.000113  -0.000855   0.054315   0.006412
     2  C   -0.950179   0.066860   0.001998  -0.004020  -0.224266   0.007215
     3  C   -2.857058  -0.270343   0.023110   0.055517   0.111939   0.117729
     4  C   -0.990804  -0.729035   0.103667   0.117724   0.228360   0.147392
     5  C    1.358189   0.058676  -0.040308  -0.031795   0.051345   0.178383
     6  C    0.219445   0.045971  -0.002096  -0.000105  -0.012443  -0.102135
     7  O    0.000235   0.000531   0.000000   0.000001  -0.000875  -0.000422
     8  O   -0.005361  -0.000123   0.000001   0.000002  -0.017087   0.000151
     9  C   -0.009868   0.000291   0.000001   0.000109  -0.006868   0.000301
    10  O    0.011476  -0.000180   0.000004  -0.000005   0.000176  -0.018128
    11  C    0.001985  -0.000079   0.000002   0.000007   0.000107  -0.002947
    12  C   -2.085107   0.837004  -0.052602   0.073501   0.073242  -0.042570
    13  C   13.878695  -1.986321   0.113875  -0.178538   0.029867  -0.014092
    14  C   -1.986321   7.240282  -0.167209   0.262820   0.001768   0.015278
    15  O    0.113875  -0.167209   8.417364  -0.150876   0.000003   0.000122
    16  O   -0.178538   0.262820  -0.150876   8.318321  -0.000083   0.000041
    17  H    0.029867   0.001768   0.000003  -0.000083   0.574316  -0.000143
    18  H   -0.014092   0.015278   0.000122   0.000041  -0.000143   0.571220
    19  H    0.000480   0.000039   0.000000   0.000000   0.000005  -0.000010
    20  H   -0.000110  -0.000001   0.000000  -0.000000   0.000156  -0.000000
    21  H    0.000632  -0.000038  -0.000000   0.000000  -0.000913   0.000000
    22  H    0.000634  -0.000039  -0.000000   0.000000  -0.000912   0.000000
    23  H   -0.000339  -0.000009   0.000000  -0.000000   0.000000  -0.000041
    24  H    0.000209   0.000006  -0.000000   0.000000  -0.000000   0.000005
    25  H    0.000215   0.000006  -0.000000   0.000000  -0.000000   0.000005
    26  H   -0.140862  -0.020244   0.001242  -0.002216   0.003803  -0.000018
    27  H    0.308344  -0.011222  -0.005612   0.006121  -0.000001   0.002061
    28  H   -0.013966   0.035699   0.175924   0.008272  -0.000000  -0.000000
              19         20         21         22         23         24
     1  C   -0.004881   0.105857  -0.050142  -0.049555  -0.054731   0.057722
     2  C    0.469927   0.114210  -0.150450  -0.150571  -0.006987   0.012259
     3  C    0.026741  -0.184509   0.141784   0.141508  -0.003510   0.004531
     4  C   -0.001013  -0.025620   0.039329   0.039378   0.000344  -0.000901
     5  C   -0.013712  -0.002571   0.006613   0.006558   0.004901  -0.006970
     6  C   -0.456894   0.013199  -0.008025  -0.007998   0.073593  -0.071241
     7  O    0.129168  -0.001068   0.000039   0.000037   0.002663  -0.012853
     8  O   -0.004849  -0.079391  -0.036515  -0.036507   0.000005  -0.000106
     9  C    0.000986   0.420623   0.400082   0.399971   0.000014  -0.000071
    10  O    0.004837  -0.000004   0.000004   0.000004  -0.075753  -0.042369
    11  C    0.024517   0.000031  -0.000024  -0.000022   0.414865   0.392054
    12  C    0.005943  -0.004353   0.007893   0.007799   0.000088  -0.000127
    13  C    0.000480  -0.000110   0.000632   0.000634  -0.000339   0.000209
    14  C    0.000039  -0.000001  -0.000038  -0.000039  -0.000009   0.000006
    15  O    0.000000   0.000000  -0.000000  -0.000000   0.000000  -0.000000
    16  O    0.000000  -0.000000   0.000000   0.000000  -0.000000   0.000000
    17  H    0.000005   0.000156  -0.000913  -0.000912   0.000000  -0.000000
    18  H   -0.000010  -0.000000   0.000000   0.000000  -0.000041   0.000005
    19  H    0.451798  -0.000003   0.000001   0.000001  -0.000778   0.007747
    20  H   -0.000003   0.526683  -0.027505  -0.027507  -0.000000   0.000000
    21  H    0.000001  -0.027505   0.553267  -0.045091   0.000000  -0.000000
    22  H    0.000001  -0.027507  -0.045091   0.553258   0.000000   0.000000
    23  H   -0.000778  -0.000000   0.000000   0.000000   0.516422  -0.027954
    24  H    0.007747   0.000000  -0.000000   0.000000  -0.027954   0.571959
    25  H    0.008035   0.000000   0.000000  -0.000000  -0.027978  -0.050208
    26  H   -0.000000   0.000000  -0.000003  -0.000003   0.000000  -0.000000
    27  H   -0.000000   0.000000  -0.000000  -0.000000   0.000000  -0.000000
    28  H    0.000000   0.000000   0.000000   0.000000   0.000000   0.000000
              25         26         27         28
     1  C    0.060973   0.018508   0.002920   0.000063
     2  C    0.012615   0.022500  -0.001425   0.000017
     3  C    0.004577   0.130677   0.023184  -0.000876
     4  C   -0.000948   0.005838   0.075760  -0.008233
     5  C   -0.007864  -0.011176  -0.016587   0.004882
     6  C   -0.073797  -0.000728   0.002491   0.000195
     7  O   -0.013224  -0.000013  -0.000004  -0.000000
     8  O   -0.000110   0.000072   0.000004   0.000000
     9  C   -0.000073   0.000325   0.000037  -0.000001
    10  O   -0.042301   0.000025  -0.000008   0.000000
    11  C    0.391718  -0.000002   0.000051  -0.000000
    12  C   -0.000147   0.279424  -0.087080   0.025730
    13  C    0.000215  -0.140862   0.308344  -0.013966
    14  C    0.000006  -0.020244  -0.011222   0.035699
    15  O   -0.000000   0.001242  -0.005612   0.175924
    16  O    0.000000  -0.002216   0.006121   0.008272
    17  H   -0.000000   0.003803  -0.000001  -0.000000
    18  H    0.000005  -0.000018   0.002061  -0.000000
    19  H    0.008035  -0.000000  -0.000000   0.000000
    20  H    0.000000   0.000000   0.000000   0.000000
    21  H    0.000000  -0.000003  -0.000000   0.000000
    22  H   -0.000000  -0.000003  -0.000000   0.000000
    23  H   -0.027978   0.000000   0.000000   0.000000
    24  H   -0.050208  -0.000000  -0.000000   0.000000
    25  H    0.572596  -0.000000  -0.000000   0.000000
    26  H   -0.000000   0.546431   0.004755  -0.000005
    27  H   -0.000000   0.004755   0.550861   0.000005
    28  H    0.000000  -0.000005   0.000005   0.406935
 Mulliken charges:
               1
     1  C   -0.034588
     2  C    0.177531
     3  C    0.114293
     4  C   -0.206742
     5  C   -0.502630
     6  C    0.200593
     7  O   -0.481722
     8  O   -0.285480
     9  C   -0.179993
    10  O   -0.295776
    11  C   -0.243516
    12  C    0.307353
    13  C   -0.702902
    14  C    0.706172
    15  O   -0.418721
    16  O   -0.473942
    17  H    0.134189
    18  H    0.134191
    19  H    0.351916
    20  H    0.171883
    21  H    0.169061
    22  H    0.169055
    23  H    0.185185
    24  H    0.166306
    25  H    0.165910
    26  H    0.161672
    27  H    0.145344
    28  H    0.365359
 Sum of Mulliken charges =  -0.00000
 Mulliken charges with hydrogens summed into heavy atoms:
               1
     1  C   -0.034588
     2  C    0.177531
     3  C    0.248483
     4  C   -0.206742
     5  C   -0.368439
     6  C    0.200593
     7  O   -0.129806
     8  O   -0.285480
     9  C    0.330006
    10  O   -0.295776
    11  C    0.273885
    12  C    0.469025
    13  C   -0.557558
    14  C    0.706172
    15  O   -0.053362
    16  O   -0.473942
 Electronic spatial extent (au):  <R**2>=           5246.1619
 Charge=             -0.0000 electrons
 Dipole moment (field-independent basis, Debye):
    X=             -4.0870    Y=             -1.6933    Z=             -0.0010  Tot=              4.4239
 Quadrupole moment (field-independent basis, Debye-Ang):
   XX=            -91.7496   YY=            -80.0731   ZZ=            -96.5694
   XY=              3.1530   XZ=              0.0081   YZ=             -0.0020
 Traceless Quadrupole moment (field-independent basis, Debye-Ang):
   XX=             -2.2856   YY=              9.3909   ZZ=             -7.1053
   XY=              3.1530   XZ=              0.0081   YZ=             -0.0020
 Octapole moment (field-independent basis, Debye-Ang**2):
  XXX=             -8.1136  YYY=             17.9466  ZZZ=              0.0056  XYY=            -67.2163
  XXY=            -92.8174  XXZ=             -0.0413  XZZ=             -1.8758  YZZ=             -0.9252
  YYZ=              0.0217  XYZ=             -0.0174
 Hexadecapole moment (field-independent basis, Debye-Ang**3):
 XXXX=          -4201.2039 YYYY=          -1557.8733 ZZZZ=           -117.8865 XXXY=            -47.2131
 XXXZ=              0.1233 YYYX=              2.5536 YYYZ=             -0.0314 ZZZX=             -0.2737
 ZZZY=              0.0495 XXYY=          -1040.6681 XXZZ=           -820.2127 YYZZ=           -324.6400
 XXYZ=              0.0293 YYXZ=             -0.1535 ZZXY=              4.8001
 N-N= 1.050464916028D+03 E-N=-3.972940670265D+03  KE= 7.945333229717D+02
 Calling FoFJK, ICntrl=      2527 FMM=F ISym2X=0 I1Cent= 0 IOpClX= 0 NMat=1 NMatS=1 NMatT=0.
 ***** Axes restored to original set *****
 -------------------------------------------------------------------
 Center     Atomic                   Forces (Hartrees/Bohr)
 Number     Number              X              Y              Z
 -------------------------------------------------------------------
      1        6           0.004926901   -0.001081226    0.000011780
      2        6          -0.000355694    0.003659155   -0.000005988
      3        6          -0.000537191   -0.000059206   -0.000000800
      4        6          -0.006458176    0.001882819   -0.000001931
      5        6           0.000818024   -0.001077664   -0.000000932
      6        6           0.000355085   -0.003439545   -0.000021784
      7        8           0.001817980    0.010782816   -0.000022148
      8        8           0.007220119   -0.000585035    0.000001499
      9        6          -0.000613438   -0.002347107    0.000001179
     10        8          -0.004216375   -0.004285516    0.000040278
     11        6          -0.001375109    0.003236132   -0.000024585
     12        6           0.009168759    0.001280828    0.000004700
     13        6          -0.007329735   -0.002440737    0.000017296
     14        6           0.006404085   -0.007416596   -0.000056067
     15        8           0.003077056   -0.012830824    0.000019658
     16        8          -0.005725388    0.017451556    0.000018787
     17        1          -0.002575505    0.005913536   -0.000001037
     18        1          -0.003508528   -0.005222630   -0.000001827
     19        1           0.002181340   -0.009757849    0.000023840
     20        1           0.004503017    0.003277968    0.000000309
     21        1          -0.003165879    0.001479320   -0.004555348
     22        1          -0.003167669    0.001480899    0.004553172
     23        1          -0.000145854   -0.005643255   -0.000002696
     24        1           0.003330473    0.000939702   -0.004926100
     25        1           0.003343992    0.000922104    0.004930701
     26        1          -0.002022184    0.006058017   -0.000000822
     27        1           0.001271305   -0.006297072    0.000001483
     28        1          -0.007221412    0.004119410   -0.000002615
 -------------------------------------------------------------------
 Cartesian Forces:  Max     0.017451556 RMS     0.004379765

 GradGradGradGradGradGradGradGradGradGradGradGradGradGradGradGradGradGrad
 Berny optimization.
 FormGI is forming the generalized inverse of G from B-inverse, IUseBI=4.
 Internal  Forces:  Max     0.018353203 RMS     0.003687511
 Search for a local minimum.
 Step number   1 out of a maximum of  131
 All quantities printed in internal units (Hartrees-Bohrs-Radians)
 Mixed Optimization -- RFO/linear search
 Second derivative matrix not updated -- first step.
 ITU=  0
     Eigenvalues ---    0.01189   0.01325   0.01406   0.01457   0.01489
     Eigenvalues ---    0.01826   0.01936   0.01976   0.01983   0.02029
     Eigenvalues ---    0.02032   0.02049   0.02054   0.02083   0.02099
     Eigenvalues ---    0.02105   0.02131   0.02138   0.02169   0.02210
     Eigenvalues ---    0.02769   0.09813   0.10065   0.10679   0.10738
     Eigenvalues ---    0.16000   0.16000   0.16000   0.16000   0.16000
     Eigenvalues ---    0.16000   0.16000   0.16000   0.16000   0.16000
     Eigenvalues ---    0.16000   0.16000   0.22000   0.22000   0.23467
     Eigenvalues ---    0.23485   0.25000   0.25000   0.25000   0.25000
     Eigenvalues ---    0.25000   0.25000   0.25000   0.25000   0.25000
     Eigenvalues ---    0.33810   0.33816   0.34019   0.34019   0.34703
     Eigenvalues ---    0.34801   0.34958   0.35500   0.35610   0.35723
     Eigenvalues ---    0.35976   0.37250   0.40650   0.41444   0.42219
     Eigenvalues ---    0.42798   0.44243   0.44450   0.45926   0.46935
     Eigenvalues ---    0.49377   0.51130   0.52167   0.52783   0.53082
     Eigenvalues ---    0.55285   0.55331   0.95391
 RFO step:  Lambda=-3.41773794D-03 EMin= 1.18869435D-02
 Linear search not attempted -- first point.
 Iteration  1 RMS(Cart)=  0.01906512 RMS(Int)=  0.00003095
 Iteration  2 RMS(Cart)=  0.00004782 RMS(Int)=  0.00000729
 Iteration  3 RMS(Cart)=  0.00000000 RMS(Int)=  0.00000729
 Variable       Old X    -DE/DX   Delta X   Delta X   Delta X     New X
                                 (Linear)    (Quad)   (Total)
    R1        2.67790   0.00789   0.00000   0.01826   0.01826   2.69617
    R2        2.66035   0.00887   0.00000   0.01986   0.01986   2.68021
    R3        2.58742   0.00399   0.00000   0.00775   0.00775   2.59517
    R4        2.62606   0.00789   0.00000   0.01652   0.01652   2.64258
    R5        2.57156   0.00564   0.00000   0.01061   0.01061   2.58217
    R6        2.66284   0.00749   0.00000   0.01681   0.01681   2.67965
    R7        2.04516   0.00645   0.00000   0.01788   0.01788   2.06305
    R8        2.63807   0.00854   0.00000   0.01830   0.01830   2.65637
    R9        2.75472   0.00234   0.00000   0.00622   0.00622   2.76094
   R10        2.64126   0.00681   0.00000   0.01471   0.01471   2.65597
   R11        2.04696   0.00629   0.00000   0.01750   0.01750   2.06446
   R12        2.60500   0.00491   0.00000   0.00987   0.00987   2.61487
   R13        1.81580   0.00990   0.00000   0.01779   0.01779   1.83359
   R14        2.68645   0.00450   0.00000   0.01058   0.01058   2.69703
   R15        2.06000   0.00557   0.00000   0.01585   0.01585   2.07585
   R16        2.07298   0.00572   0.00000   0.01665   0.01665   2.08964
   R17        2.07298   0.00572   0.00000   0.01665   0.01665   2.08964
   R18        2.67920   0.00506   0.00000   0.01172   0.01172   2.69092
   R19        2.06160   0.00564   0.00000   0.01610   0.01610   2.07770
   R20        2.07641   0.00596   0.00000   0.01745   0.01745   2.09387
   R21        2.07651   0.00597   0.00000   0.01748   0.01748   2.09399
   R22        2.54839   0.01201   0.00000   0.02157   0.02157   2.56996
   R23        2.05743   0.00639   0.00000   0.01809   0.01809   2.07552
   R24        2.77420   0.00370   0.00000   0.01019   0.01019   2.78438
   R25        2.04871   0.00642   0.00000   0.01792   0.01792   2.06663
   R26        2.57740   0.00942   0.00000   0.01793   0.01793   2.59533
   R27        2.30543   0.01835   0.00000   0.01917   0.01917   2.32460
   R28        1.83577   0.00823   0.00000   0.01540   0.01540   1.85117
    A1        2.07043  -0.00006   0.00000  -0.00028  -0.00028   2.07015
    A2        2.00091  -0.00005   0.00000  -0.00019  -0.00019   2.00072
    A3        2.21185   0.00012   0.00000   0.00047   0.00047   2.21232
    A4        2.11011  -0.00021   0.00000  -0.00091  -0.00091   2.10920
    A5        1.99901  -0.00102   0.00000  -0.00398  -0.00398   1.99503
    A6        2.17407   0.00123   0.00000   0.00489   0.00489   2.17896
    A7        2.10049   0.00046   0.00000   0.00191   0.00191   2.10240
    A8        2.10318  -0.00025   0.00000  -0.00111  -0.00111   2.10207
    A9        2.07952  -0.00020   0.00000  -0.00080  -0.00080   2.07872
   A10        2.07183  -0.00044   0.00000  -0.00184  -0.00184   2.06999
   A11        2.06482  -0.00008   0.00000  -0.00028  -0.00027   2.06455
   A12        2.14653   0.00052   0.00000   0.00212   0.00212   2.14865
   A13        2.12228   0.00039   0.00000   0.00165   0.00165   2.12393
   A14        2.12182  -0.00016   0.00000  -0.00059  -0.00059   2.12123
   A15        2.03909  -0.00023   0.00000  -0.00106  -0.00106   2.03803
   A16        2.09124  -0.00013   0.00000  -0.00053  -0.00053   2.09071
   A17        2.22336  -0.00013   0.00000  -0.00049  -0.00049   2.22287
   A18        1.96859   0.00025   0.00000   0.00102   0.00102   1.96961
   A19        1.94125  -0.00257   0.00000  -0.01572  -0.01572   1.92553
   A20        2.05846  -0.00137   0.00000  -0.00542  -0.00542   2.05305
   A21        1.84390  -0.00034   0.00000  -0.00249  -0.00249   1.84142
   A22        1.94243   0.00062   0.00000   0.00402   0.00401   1.94645
   A23        1.94243   0.00062   0.00000   0.00402   0.00401   1.94645
   A24        1.91131  -0.00027   0.00000  -0.00206  -0.00206   1.90925
   A25        1.91131  -0.00027   0.00000  -0.00206  -0.00206   1.90925
   A26        1.91121  -0.00039   0.00000  -0.00160  -0.00162   1.90959
   A27        2.16397  -0.00138   0.00000  -0.00543  -0.00543   2.15854
   A28        1.84147  -0.00037   0.00000  -0.00368  -0.00368   1.83779
   A29        1.95621   0.00094   0.00000   0.00649   0.00646   1.96267
   A30        1.95620   0.00094   0.00000   0.00651   0.00648   1.96268
   A31        1.88026  -0.00070   0.00000  -0.00566  -0.00566   1.87460
   A32        1.87997  -0.00070   0.00000  -0.00572  -0.00572   1.87425
   A33        1.94352  -0.00026   0.00000   0.00069   0.00065   1.94417
   A34        2.22820   0.00130   0.00000   0.00581   0.00581   2.23401
   A35        2.02438  -0.00050   0.00000  -0.00202  -0.00202   2.02236
   A36        2.03060  -0.00079   0.00000  -0.00379  -0.00379   2.02681
   A37        2.09562   0.00055   0.00000   0.00246   0.00246   2.09809
   A38        2.14917  -0.00039   0.00000  -0.00194  -0.00194   2.14723
   A39        2.03839  -0.00016   0.00000  -0.00052  -0.00052   2.03787
   A40        1.94730  -0.00157   0.00000  -0.00620  -0.00620   1.94111
   A41        2.21297  -0.00004   0.00000  -0.00017  -0.00017   2.21280
   A42        2.12291   0.00161   0.00000   0.00637   0.00637   2.12928
   A43        1.85955  -0.00220   0.00000  -0.01347  -0.01347   1.84608
    D1        0.00026   0.00000   0.00000   0.00006   0.00006   0.00032
    D2       -3.14143   0.00000   0.00000   0.00002   0.00002  -3.14141
    D3       -3.14153   0.00000   0.00000   0.00007   0.00007  -3.14146
    D4       -0.00003   0.00000   0.00000   0.00003   0.00003   0.00001
    D5       -0.00035  -0.00000   0.00000  -0.00007  -0.00007  -0.00042
    D6        3.14126  -0.00000   0.00000  -0.00002  -0.00002   3.14124
    D7        3.14146  -0.00000   0.00000  -0.00008  -0.00008   3.14138
    D8       -0.00012  -0.00000   0.00000  -0.00003  -0.00003  -0.00015
    D9        3.13899   0.00000   0.00000   0.00014   0.00014   3.13913
   D10       -0.00281   0.00000   0.00000   0.00015   0.00015  -0.00266
   D11       -0.00003  -0.00000   0.00000  -0.00001  -0.00001  -0.00004
   D12        3.14149  -0.00000   0.00000  -0.00003  -0.00003   3.14146
   D13       -3.14152   0.00000   0.00000   0.00003   0.00003  -3.14149
   D14        0.00000   0.00000   0.00000   0.00001   0.00001   0.00001
   D15       -3.14156   0.00000   0.00000   0.00003   0.00003  -3.14153
   D16       -0.00006  -0.00000   0.00000  -0.00001  -0.00001  -0.00007
   D17       -0.00010  -0.00000   0.00000  -0.00003  -0.00003  -0.00013
   D18        3.14154  -0.00000   0.00000  -0.00002  -0.00002   3.14152
   D19        3.14156  -0.00000   0.00000  -0.00001  -0.00001   3.14156
   D20        0.00002   0.00000   0.00000   0.00000   0.00000   0.00002
   D21       -0.00000   0.00000   0.00000   0.00002   0.00002   0.00002
   D22       -3.14144   0.00000   0.00000   0.00004   0.00004  -3.14140
   D23        3.14155   0.00000   0.00000   0.00001   0.00001   3.14155
   D24        0.00010   0.00000   0.00000   0.00003   0.00003   0.00014
   D25        3.14149  -0.00000   0.00000  -0.00001  -0.00001   3.14148
   D26       -0.00010   0.00000   0.00000   0.00003   0.00003  -0.00007
   D27       -0.00006  -0.00000   0.00000   0.00000   0.00000  -0.00006
   D28        3.14154   0.00000   0.00000   0.00004   0.00004   3.14159
   D29        0.00023   0.00000   0.00000   0.00004   0.00004   0.00026
   D30       -3.14138  -0.00000   0.00000  -0.00001  -0.00001  -3.14139
   D31       -3.14151   0.00000   0.00000   0.00001   0.00001  -3.14150
   D32        0.00007  -0.00000   0.00000  -0.00004  -0.00004   0.00003
   D33       -0.00165  -0.00001   0.00000  -0.00061  -0.00061  -0.00225
   D34        3.13996  -0.00001   0.00000  -0.00055  -0.00055   3.13941
   D35       -3.14157   0.00000   0.00000  -0.00000  -0.00000  -3.14157
   D36       -1.06851  -0.00019   0.00000  -0.00182  -0.00183  -1.07034
   D37        1.06856   0.00019   0.00000   0.00182   0.00182   1.07039
   D38       -3.14042   0.00000   0.00000   0.00031   0.00031  -3.14011
   D39       -1.09876  -0.00057   0.00000  -0.00530  -0.00533  -1.10410
   D40        1.10146   0.00058   0.00000   0.00599   0.00603   1.10749
   D41        3.14159   0.00000   0.00000   0.00007   0.00007  -3.14153
   D42       -0.00001   0.00000   0.00000   0.00005   0.00005   0.00004
   D43       -0.00001   0.00000   0.00000   0.00003   0.00003   0.00002
   D44        3.14158   0.00000   0.00000   0.00001   0.00001   3.14159
   D45        3.14134   0.00002   0.00000   0.00085   0.00085  -3.14099
   D46        0.00023  -0.00002   0.00000  -0.00085  -0.00085  -0.00062
   D47       -0.00025   0.00002   0.00000   0.00087   0.00087   0.00062
   D48       -3.14136  -0.00002   0.00000  -0.00083  -0.00083   3.14100
   D49       -3.14136  -0.00001   0.00000  -0.00081  -0.00081   3.14102
   D50       -0.00022   0.00001   0.00000   0.00079   0.00080   0.00057
         Item               Value     Threshold  Converged?
 Maximum Force            0.018353     0.000450     NO 
 RMS     Force            0.003688     0.000300     NO 
 Maximum Displacement     0.064166     0.001800     NO 
 RMS     Displacement     0.019066     0.001200     NO 
 Predicted change in Energy=-1.722826D-03
 GradGradGradGradGradGradGradGradGradGradGradGradGradGradGradGradGradGrad

                          Input orientation:                          
 ---------------------------------------------------------------------
 Center     Atomic      Atomic             Coordinates (Angstroms)
 Number     Number       Type             X           Y           Z
 ---------------------------------------------------------------------
      1          6           0        2.290742   -0.118672    0.001003
      2          6           0        1.705495    1.182519    0.000393
      3          6           0        0.316455    1.343999   -0.000074
      4          6           0       -0.538696    0.212862    0.000001
      5          6           0        0.039960   -1.068199    0.000394
      6          6           0        1.433786   -1.248812    0.000733
      7          8           0        3.664011   -0.128629    0.001583
      8          8           0        2.610491    2.206291    0.000480
      9          6           0        2.101513    3.539655   -0.000025
     10          8           0        1.802804   -2.582427    0.000833
     11          6           0        3.155472   -3.027385   -0.001427
     12          6           0       -1.982524    0.436372   -0.000407
     13          6           0       -2.973880   -0.494606   -0.000538
     14          6           0       -4.385994   -0.073970   -0.001051
     15          8           0       -5.227844   -1.159092   -0.000340
     16          8           0       -4.810686    1.080521   -0.000789
     17          1           0       -0.124249    2.342812   -0.000413
     18          1           0       -0.573372   -1.972248    0.000286
     19          1           0        3.994424   -1.040931    0.004221
     20          1           0        2.985700    4.191496    0.000122
     21          1           0        1.496036    3.742428   -0.902824
     22          1           0        1.495408    3.742873    0.902254
     23          1           0        3.099637   -4.125438   -0.002248
     24          1           0        3.699731   -2.722478   -0.917144
     25          1           0        3.702214   -2.724329    0.913503
     26          1           0       -2.304980    1.486287   -0.000684
     27          1           0       -2.780715   -1.571026   -0.000299
     28          1           0       -6.135906   -0.791616   -0.000201
 ---------------------------------------------------------------------
                    Distance matrix (angstroms):
                    1          2          3          4          5
     1  C    0.000000
     2  C    1.426749   0.000000
     3  C    2.457076   1.398395   0.000000
     4  C    2.848796   2.444714   1.418011   0.000000
     5  C    2.442872   2.799953   2.427993   1.405688   0.000000
     6  C    1.418305   2.446466   2.823313   2.455030   1.405480
     7  O    1.373305   2.356882   3.657153   4.216558   3.743867
     8  O    2.346847   1.366428   2.450744   3.727081   4.162921
     9  C    3.663218   2.390172   2.829724   4.247147   5.048001
    10  O    2.511608   3.766203   4.198340   3.646404   2.323899
    11  C    3.034530   4.452609   5.212391   4.913865   3.680330
    12  C    4.309162   3.762741   2.471657   1.461026   2.520749
    13  C    5.278028   4.970845   3.769187   2.535869   3.067938
    14  C    6.676887   6.219727   4.911585   3.857976   4.536250
    15  O    7.590232   7.318083   6.083151   4.885732   5.268588
    16  O    7.201969   6.516980   5.133907   4.359213   5.305258
    17  H    3.448346   2.166621   1.091718   2.169897   3.414961
    18  H    3.411582   3.891759   3.433553   2.185385   1.092465
    19  H    1.937293   3.191072   4.383534   4.703317   3.954560
    20  H    4.365835   3.269995   3.902962   5.315157   6.028414
    21  H    4.044324   2.722648   2.821140   4.172896   5.106672
    22  H    4.044297   2.722664   2.821120   4.172843   5.106671
    23  H    4.087603   5.487991   6.136844   5.662007   4.325315
    24  H    3.099685   4.479716   5.368781   5.236567   4.119762
    25  H    3.100702   4.481530   5.371152   5.238978   4.121728
    26  H    4.867912   4.021963   2.625294   2.177469   3.467584
    27  H    5.275321   5.263848   4.253215   2.865119   2.865142
    28  H    8.453476   8.086086   6.796603   5.686628   6.182056
                    6          7          8          9         10
     6  C    0.000000
     7  O    2.495739   0.000000
     8  O    3.649982   2.561593   0.000000
     9  C    4.834798   3.987193   1.427207   0.000000
    10  O    1.383728   3.079808   4.856354   6.129365   0.000000
    11  C    2.475384   2.943027   5.261974   6.651079   1.423974
    12  C    3.809333   5.674732   4.922235   5.129300   4.841679
    13  C    4.471728   6.647973   6.203228   6.483431   5.213033
    14  C    5.937179   8.050191   7.358695   7.426038   6.677843
    15  O    6.662235   8.951366   8.530258   8.706188   7.173277
    16  O    6.664775   8.560522   7.506079   7.336610   7.560122
    17  H    3.915001   4.523156   2.738146   2.527143   5.288810
    18  H    2.133551   4.621076   5.253300   6.126669   2.453269
    19  H    2.569065   0.970297   3.529835   4.956299   2.679444
    20  H    5.657330   4.373053   2.020352   1.098491   6.876429
    21  H    5.072748   4.528041   2.101830   1.105787   6.396445
    22  H    5.072815   4.527976   2.101830   1.105788   6.396598
    23  H    3.324161   4.036461   6.350596   7.729807   2.015607
    24  H    2.854592   2.751979   5.130423   6.527612   2.112020
    25  H    2.855882   2.751493   5.131908   6.529492   2.112075
    26  H    4.632401   6.183592   4.967923   4.861430   5.781723
    27  H    4.226800   6.604166   6.582797   7.067900   4.693781
    28  H    7.583487   9.822318   9.245913   9.306717   8.138189
                   11         12         13         14         15
    11  C    0.000000
    12  C    6.196500   0.000000
    13  C    6.632038   1.359966   0.000000
    14  C    8.099158   2.457055   1.473432   0.000000
    15  O    8.588976   3.616298   2.349872   1.373391   0.000000
    16  O    8.962955   2.900592   2.419687   1.230128   2.278133
    17  H    6.292502   2.662273   4.021360   4.899317   6.189509
    18  H    3.875253   2.790548   2.818841   4.259055   4.724970
    19  H    2.156356   6.156814   6.989690   8.436021   9.223027
    20  H    7.220877   6.227696   7.581302   8.516812   9.802607
    21  H    7.028273   4.883108   6.224687   7.069397   8.369585
    22  H    7.029142   4.883007   6.224612   7.069310   8.369353
    23  H    1.099472   6.829237   7.076055   8.511702   8.840032
    24  H    1.108027   6.565573   7.095115   8.557615   9.109682
    25  H    1.108091   6.568219   7.097701   8.560369   9.112135
    26  H    7.084474   1.098317   2.090780   2.600965   3.942229
    27  H    6.112225   2.160268   1.093615   2.195017   2.481558
    28  H    9.556587   4.331113   3.175945   1.891351   0.979599
                   16         17         18         19         20
    16  O    0.000000
    17  H    4.853460   0.000000
    18  H    5.222474   4.338369   0.000000
    19  H    9.057072   5.330405   4.661773   0.000000
    20  H    8.394153   3.617930   7.117494   5.328775   0.000000
    21  H    6.904648   2.323488   6.144557   5.472221   1.798909
    22  H    6.904378   2.323417   6.144591   5.471409   1.798909
    23  H    9.469701   7.227151   4.257609   3.211677   8.317715
    24  H    9.366414   6.412518   4.434403   1.939938   7.011010
    25  H    9.369220   6.415059   4.436239   1.935460   7.012581
    26  H    2.538348   2.342909   3.867807   6.787441   5.942176
    27  H    3.339385   4.730215   2.243511   6.795847   8.152190
    28  H    2.293710   6.779724   5.686447  10.133399  10.393994
                   21         22         23         24         25
    21  H    0.000000
    22  H    1.805078   0.000000
    23  H    8.079969   8.080965   0.000000
    24  H    6.830190   7.068946   1.779170   0.000000
    25  H    7.070022   6.833360   1.778990   1.830650   0.000000
    26  H    4.511292   4.511145   7.791107   7.389868   7.392659
    27  H    6.880258   6.880215   6.411206   6.645496   6.647819
    28  H    8.922938   8.922610   9.818841  10.065225  10.067712
                   26         27         28
    26  H    0.000000
    27  H    3.094105   0.000000
    28  H    4.456998   3.444530   0.000000
 Stoichiometry    C11H12O5
 Framework group  C1[X(C11H12O5)]
 Deg. of freedom    78
 Full point group                 C1      NOp   1
 Largest Abelian subgroup         C1      NOp   1
 Largest concise Abelian subgroup C1      NOp   1
                         Standard orientation:                         
 ---------------------------------------------------------------------
 Center     Atomic      Atomic             Coordinates (Angstroms)
 Number     Number       Type             X           Y           Z
 ---------------------------------------------------------------------
      1          6           0       -2.292214   -0.116687   -0.000963
      2          6           0       -1.705870    1.184011   -0.000353
      3          6           0       -0.316694    1.344320    0.000114
      4          6           0        0.537503    0.212462    0.000039
      5          6           0       -0.042232   -1.068110   -0.000354
      6          6           0       -1.436210   -1.247548   -0.000693
      7          8           0       -3.665490   -0.125486   -0.001543
      8          8           0       -2.610002    2.208545   -0.000440
      9          6           0       -2.099900    3.541480    0.000065
     10          8           0       -1.806352   -2.580852   -0.000793
     11          6           0       -3.159395   -3.024669    0.001467
     12          6           0        1.981519    0.434755    0.000447
     13          6           0        2.972090   -0.497058    0.000578
     14          6           0        4.384558   -0.077613    0.001091
     15          8           0        5.225493   -1.163445    0.000380
     16          8           0        4.810224    1.076520    0.000829
     17          1           0        0.124852    2.342761    0.000453
     18          1           0        0.570337   -1.972676   -0.000246
     19          1           0       -3.996672   -1.037509   -0.004181
     20          1           0       -2.983537    4.194066   -0.000082
     21          1           0       -1.494252    3.743743    0.902864
     22          1           0       -1.493625    3.744186   -0.902214
     23          1           0       -3.104486   -4.122770    0.002288
     24          1           0       -3.703396   -2.719304    0.917184
     25          1           0       -3.705881   -2.721152   -0.913463
     26          1           0        2.304860    1.484398    0.000724
     27          1           0        2.778017   -1.573316    0.000339
     28          1           0        6.133865   -0.796734    0.000241
 ---------------------------------------------------------------------
 Rotational constants (GHZ):      0.7664377      0.2541888      0.1913641
 Standard basis: 6-31+G(d,p) (6D, 7F)
 There are   364 symmetry adapted cartesian basis functions of A   symmetry.
 There are   364 symmetry adapted basis functions of A   symmetry.
   364 basis functions,   596 primitive gaussians,   364 cartesian basis functions
    59 alpha electrons       59 beta electrons
       nuclear repulsion energy      1044.6843310950 Hartrees.
 NAtoms=   28 NActive=   28 NUniq=   28 SFac= 1.00D+00 NAtFMM=   60 NAOKFM=F Big=F
 Integral buffers will be    131072 words long.
 Raffenetti 2 integral format.
 Two-electron integral symmetry is turned on.
 One-electron integrals computed using PRISM.
 NBasis=   364 RedAO= T EigKep=  1.53D-06  NBF=   364
 NBsUse=   362 1.00D-06 EigRej=  5.78D-07 NBFU=   362
 Initial guess from the checkpoint file:  "lwpbeSA.chk"
 B after Tr=     0.000000   -0.000000   -0.000000
         Rot=    1.000000   -0.000007    0.000013    0.000351 Ang=  -0.04 deg.
 ExpMin= 4.38D-02 ExpMax= 5.48D+03 ExpMxC= 8.25D+02 IAcc=2 IRadAn=         4 AccDes= 0.00D+00
 Harris functional with IExCor= 1009 and IRadAn=       4 diagonalized for initial guess.
 HarFok:  IExCor= 1009 AccDes= 0.00D+00 IRadAn=         4 IDoV= 1 UseB2=F ITyADJ=14
 ICtDFT=  3500011 ScaDFX=  1.000000  1.000000  1.000000  1.000000
 FoFCou: FMM=F IPFlag=           0 FMFlag=      100000 FMFlg1=           0
         NFxFlg=           0 DoJE=T BraDBF=F KetDBF=T FulRan=T
         wScrn=  0.000000 ICntrl=     500 IOpCl=  0 I1Cent=   200000004 NGrid=           0
         NMat0=    1 NMatS0=      1 NMatT0=    0 NMatD0=    1 NMtDS0=    0 NMtDT0=    0
 Petite list used in FoFCou.
 Requested convergence on RMS density matrix=1.00D-08 within 128 cycles.
 Requested convergence on MAX density matrix=1.00D-06.
 Requested convergence on             energy=1.00D-06.
 No special actions if energy rises.
 EnCoef did     4 forward-backward iterations
 SCF Done:  E(RPBE-PBE) =  -801.604594216     A.U. after   13 cycles
            NFock= 13  Conv=0.74D-08     -V/T= 2.0095
 Calling FoFJK, ICntrl=      2527 FMM=F ISym2X=0 I1Cent= 0 IOpClX= 0 NMat=1 NMatS=1 NMatT=0.
 ***** Axes restored to original set *****
 -------------------------------------------------------------------
 Center     Atomic                   Forces (Hartrees/Bohr)
 Number     Number              X              Y              Z
 -------------------------------------------------------------------
      1        6          -0.000287795   -0.000045084    0.000006485
      2        6          -0.002000806   -0.000399701   -0.000004797
      3        6           0.000696882   -0.000463270    0.000002134
      4        6          -0.001458549    0.000320794    0.000004944
      5        6           0.001194655   -0.000131548   -0.000003634
      6        6          -0.000557052    0.001269161   -0.000024641
      7        8           0.000281215    0.001630994    0.000003054
      8        8           0.001477677   -0.000355472   -0.000000436
      9        6          -0.000625789    0.000561422    0.000000156
     10        8          -0.000690589   -0.001075028    0.000042582
     11        6           0.000360511    0.000450519   -0.000033926
     12        6           0.001877453   -0.000362652   -0.000006549
     13        6          -0.001395719    0.000297411   -0.000044304
     14        6           0.003662208    0.000038874    0.000155383
     15        8          -0.000305396   -0.001909317   -0.000045407
     16        8          -0.001101658    0.000917426   -0.000059471
     17        1           0.000031428   -0.000008724    0.000000432
     18        1          -0.000046211    0.000053250   -0.000001525
     19        1          -0.000122223   -0.001214224    0.000000934
     20        1           0.000115904   -0.000070615    0.000000117
     21        1          -0.000026994   -0.000140100   -0.000085891
     22        1          -0.000026949   -0.000140174    0.000086026
     23        1          -0.000009772   -0.000151378    0.000001081
     24        1          -0.000070997    0.000047743   -0.000244260
     25        1          -0.000067385    0.000036919    0.000255207
     26        1          -0.000260669   -0.000037412   -0.000001566
     27        1           0.000106880    0.000064840   -0.000001661
     28        1          -0.000750258    0.000815347   -0.000000466
 -------------------------------------------------------------------
 Cartesian Forces:  Max     0.003662208 RMS     0.000741973

 GradGradGradGradGradGradGradGradGradGradGradGradGradGradGradGradGradGrad
 Berny optimization.
 Using GEDIIS/GDIIS optimizer.
 FormGI is forming the generalized inverse of G from B-inverse, IUseBI=4.
[...]
 0.00010860,0.00000513,0.00000340,-0.00008731,0.00010267,-0.00000860,0.
 00000316,-0.00002688,0.00000229,0.00003680,-0.00009328,0.00001348,0.00
 067869,-0.00009898,-0.00003841,0.00002889,-0.00006137,0.00002278,0.000
 03350,-0.00002796,-0.00002408,0.00097902,-0.00009508,-0.00069469,0.115
 09728,-0.03137250,0.24403065,0.00043511,0.00053967,0.00001338,-0.00113
 818,-0.00328263,-0.00093376,0.00037962,0.00056024,-0.00032864,0.000048
 55,-0.00028524,0.00035091,0.00015572,0.00040726,0.00008521,0.00002919,
 -0.00035197,-0.00005302,-0.00034557,0.00000453,-0.00008703,-0.01105265
 ,0.01384745,0.00942411,-0.13570706,0.00677926,0.11704872,-0.00000337,0
 .00024353,0.00000557,-0.00005160,-0.00009667,0.00000509,-0.00019480,-0
 .00000014,-0.00003361,0.00025392,0.00005970,0.00000782,-0.00035411,0.0
 0007464,-0.00001739,0.00012514,0.00006765,0.00000912,0.00014860,-0.000
 11360,0.00000306,-0.00012137,-0.00069667,-0.00068798,0.00001181,0.0000
 0177,-0.00005475,0.00006375,-0.00004566,0.00004716,-0.01156024,0.00128
 717,0.01817007,0.00960930,-0.00231078,-0.01249729,0.14926624,0.0003335
 6,-0.00162617,0.00056537,0.00470362,0.00610305,-0.00114740,-0.00089302
 ,0.00075201,0.00014119,-0.00039293,-0.00064895,0.00040282,-0.00060086,
 0.00030842,-0.00007843,0.00076449,0.00058756,0.00039067,-0.00029619,0.
 00008908,-0.00014075,0.02423275,-0.01884436,-0.02453470,0.00384219,-0.
 04602224,-0.00696992,-0.00000967,-0.00021642,-0.00004262,0.00001797,0.
 00005434,-0.00005039,0.00020689,-0.00003644,-0.00005785,-0.00019044,-0
 .00004632,0.00004384,0.00015820,-0.00005450,-0.00000489,-0.00004712,-0
 .00002966,-0.00000438,-0.00005449,0.00006686,0.00000771,-0.00080786,-0
 .00083546,-0.00129477,-0.00001871,0.00001700,-0.00006636,-0.00008690,-
 0.00003251,-0.00001406,-0.01057309,0.00330015,0.01581594,-0.00357586,0
 .00188115,0.00170385,-0.01669280,0.05526693,-0.00021250,-0.00054938,-0
 .00026006,0.00115386,0.00166796,0.00079354,0.00093081,-0.00059632,-0.0
 0007449,-0.00047265,0.00019458,-0.00007597,-0.00014565,0.00001445,-0.0
 0003659,0.00025010,0.00018606,-0.00001623,-0.00005526,0.00010353,0.000
 08377,-0.00080597,-0.00600445,0.00595165,0.11774424,-0.01042213,-0.202
 62166,-0.00009687,0.00001785,0.00000569,-0.00000477,-0.00000067,0.0000
 0155,0.00010582,-0.00008916,0.00005948,-0.00008768,0.00000014,-0.00000
 806,0.00005081,-0.00009703,-0.00000688,0.00001066,0.00003440,0.0000048
 8,-0.00002226,0.00008226,0.00001643,-0.00075548,-0.00005762,-0.0003267
 2,-0.00003233,0.00006196,0.00001039,-0.00002788,0.00002124,-0.00002107
 ,-0.00335658,0.00059448,0.00299831,0.01635180,-0.00051663,-0.01888913,
 -0.13048239,0.01535170,0.21244575,0.00078448,-0.00064115,0.00000915,-0
 .00045128,-0.00007029,-0.00003316,0.00005061,0.00018693,0.00001130,0.0
 0045900,0.00001145,0.00002258,-0.00087843,-0.00024790,-0.00009113,-0.0
 0098646,-0.00350776,-0.00024563,0.00005448,0.00020514,0.00001982,0.000
 13166,0.00004142,0.00001310,0.00000898,-0.00006965,-0.00000145,0.01312
 619,-0.01721943,0.00028424,-0.20190330,0.14073630,-0.00565340,0.000030
 05,-0.00004405,-0.00000317,-0.00008157,-0.00005195,-0.00000880,0.00019
 132,0.00000738,0.00001393,-0.00007473,-0.00004385,-0.00000718,-0.00009
 068,0.00004660,-0.00000453,0.00002559,0.00004093,0.00000535,0.00048996
 ,0.00054901,0.00009183,-0.00008717,-0.00015512,-0.00002385,0.00001041,
 -0.00000346,0.00000037,-0.00001026,-0.00000010,-0.00000049,-0.00001065
 ,0.00000010,-0.00000095,0.20961835,0.00181702,-0.00121529,0.00007089,-
 0.00049538,0.00012846,-0.00002944,0.00004719,0.00000509,0.00000383,0.0
 0046166,-0.00001079,0.00002680,-0.00098132,-0.00003620,-0.00008150,-0.
 00433461,-0.00231030,-0.00041919,-0.00034072,0.00019409,-0.00001248,0.
 00003688,-0.00039286,-0.00001128,-0.00008752,0.00006807,-0.00000330,0.
 01874362,-0.03460383,0.00001459,0.12776359,-0.15340706,0.00502533,-0.0
 0024149,-0.00012460,-0.00002391,0.00021613,0.00004530,0.00001659,-0.00
 026229,0.00002140,-0.00001784,0.00010105,0.00007639,0.00001003,0.00008
 848,-0.00005294,0.00000434,0.00002604,0.00001377,0.00000343,0.00019730
 ,0.00034987,0.00004674,0.00014026,-0.00020006,-0.00000396,0.00000409,-
 0.00003103,-0.00000102,0.00001697,-0.00000917,0.00000465,0.00001728,-0
 .00000878,-0.00000287,-0.13919411,0.18376661,0.00010335,-0.00010409,0.
 00031397,-0.00004945,0.00000079,-0.00002671,0.00000595,0.00001380,-0.0
 0000662,0.00003981,-0.00000527,0.00015063,-0.00011924,-0.00002936,0.00
 025902,-0.00027723,-0.00036067,0.00054431,-0.00000107,0.00002642,-0.00
 011276,0.00001294,-0.00001094,-0.00002963,-0.00000213,-0.00000204,-0.0
 0000843,0.00166151,-0.00254666,-0.00010085,-0.00615058,0.00594966,-0.0
 4713863,-0.00001072,-0.00000985,0.00004971,0.00000147,-0.00000250,0.00
 001399,0.00000360,0.00000136,0.,-0.00000163,-0.00000029,0.00000235,-0.
 00000293,0.00000137,-0.00000213,0.00000477,0.00000449,-0.00002697,0.00
 007833,0.00007184,-0.00049643,-0.00001258,-0.00002500,0.00016296,0.000
 00066,-0.00000156,0.00000328,-0.00000306,0.00000096,-0.00000036,0.0000
 0293,-0.00000162,-0.00000035,0.00650784,-0.00454407,0.04374260,0.00013
 853,-0.00045687,-0.00002788,0.00008497,0.00029975,-0.00000041,0.000116
 22,-0.00033723,0.00000668,0.00006909,0.00018101,0.00042302,0.00023975,
 -0.00047190,-0.00031107,-0.00068781,0.00282864,-0.00071712,-0.00009363
 ,-0.00021274,-0.00014082,-0.00003354,-0.00023441,-0.00000940,-0.000051
 45,0.00009478,0.00001198,-0.01177282,-0.01409727,0.00832474,-0.1370891
 0,-0.01508508,0.11750904,-0.00020989,-0.00013877,-0.00006189,0.0002651
 3,0.00007578,0.00002406,-0.00038014,0.00000646,-0.00000792,0.00014723,
 0.00010834,0.00001164,0.00014521,-0.00007793,-0.00000006,0.00001854,-0
 .00000107,-0.00004846,-0.00006971,0.00062147,-0.00059996,0.00042271,0.
 00043026,0.00031045,-0.00001009,-0.00001693,0.00000123,0.00001978,-0.0
 0000796,-0.00000119,0.00001877,-0.00000681,0.00000322,-0.01139498,-0.0
 0255786,0.01774205,0.15025391,-0.00080673,-0.00147047,-0.00066014,-0.0
 0063307,0.00052673,-0.00016744,0.00049514,0.00026895,-0.00002055,0.000
 48600,-0.00060260,-0.00028158,0.00075820,0.00072330,-0.00017201,-0.004
 25564,0.00564000,0.00144013,0.00065683,-0.00054009,-0.00004260,0.00002
 564,-0.00015157,0.00001991,-0.00001166,0.00004147,0.00005337,-0.025323
 23,-0.02102018,0.02210298,-0.01162313,-0.04768385,0.01773868,-0.000274
 56,-0.00013631,-0.00005120,0.00015222,0.00006602,0.00000165,-0.0001243
 7,0.00004433,0.00000054,0.00004118,0.00003221,0.00000385,0.00003058,-0
 .00003973,-0.00000276,0.00002731,0.00001932,0.00004511,0.00070968,-0.0
 0096008,0.00118875,0.00058909,0.00067688,0.00041677,0.00000046,-0.0000
 0684,0.00000152,0.00000769,-0.00003034,-0.00000181,0.00000413,-0.00000
 824,-0.00000722,0.01096064,0.00452185,-0.01588200,0.02600626,0.0581719
 9,-0.00018490,0.00033816,-0.00025252,0.00015756,-0.00007926,-0.0000429
 4,-0.00007622,-0.00000234,-0.00005164,-0.00046990,-0.00017319,-0.00008
 870,0.00099880,0.00054384,0.00003418,0.00063535,-0.00101375,0.00064242
 ,-0.00013863,-0.00015183,0.00004340,-0.00008938,-0.00006179,0.00000614
 ,-0.00000991,0.00001643,0.00000699,-0.00286856,0.00342620,0.00823765,0
 .11889436,0.02157876,-0.20274609,0.00013150,0.00008309,0.00002067,-0.0
 0008639,0.00005873,0.00000455,0.00002390,0.00002676,-0.00000235,-0.000
 02198,-0.00004912,0.00001054,0.00003428,-0.00004260,0.00000557,-0.0000
 3277,-0.00005374,0.00000774,-0.00069660,0.00004240,-0.00017816,-0.0000
 2387,-0.00003545,0.00000633,-0.00000203,0.00000128,-0.00000015,0.00000
 584,-0.00000386,-0.00000086,0.00000591,0.00000512,0.00000159,-0.002694
 23,-0.00044386,0.00188684,-0.13008110,-0.02583674,0.21111252,0.0001080
 2,-0.00040051,0.00004519,0.00010641,0.00028084,0.00004258,0.00010232,-
 0.00033526,-0.00001061,0.00005601,0.00018853,-0.00039052,0.00033023,-0
 .00041810,0.00032113,-0.00066505,0.00257367,0.00073803,-0.00013235,-0.
 00023785,0.00009750,-0.00004544,-0.00023967,-0.00001636,-0.00005048,0.
 00009688,-0.00001247,-0.01041626,-0.01254725,-0.01187001,-0.10517557,-
 0.00427939,-0.10410698,-0.00019331,-0.00012790,0.00002125,0.00024990,0
 .00008325,0.00001747,-0.00036972,0.00001131,-0.00004384,0.00014228,0.0
 0010004,0.00001494,0.00014750,-0.00008346,0.00001394,0.00000681,-0.000
 01240,0.00004776,-0.00026153,0.00057779,0.00064091,0.00044866,0.000436
 91,-0.00021212,-0.00000992,-0.00001635,-0.00000388,0.00001972,-0.00000
 579,-0.00000111,0.00002002,-0.00000845,0.00000352,-0.00905127,-0.00118
 622,-0.01953987,0.00987427,0.00209890,0.01662017,0.11478787,-0.0008988
 4,-0.00148098,0.00044324,-0.00064039,0.00050648,0.00011974,0.00047749,
 0.00026457,0.00011358,0.00040630,-0.00063775,0.00030264,0.00079447,0.0
 0074579,0.00034085,-0.00396840,0.00565091,-0.00164156,0.00063582,-0.00
 055351,0.00008735,0.00002246,-0.00015265,-0.00002919,-0.00000462,0.000
 04611,-0.00005149,-0.02183586,-0.01870417,-0.02749087,-0.00130028,-0.0
 4555266,-0.00533947,-0.00026622,-0.00013079,0.00000155,0.00014218,0.00
 006905,0.00002381,-0.00011909,0.00004676,-0.00001387,0.00003869,0.0000
 2784,0.00000305,0.00003189,-0.00004266,0.00000363,0.00003079,0.0000184
 9,-0.00004058,0.00081960,-0.00086870,-0.00113996,0.00063221,0.00069605
 ,-0.00027567,0.00000061,-0.00000650,-0.00000193,0.00000346,-0.00000833
 ,0.00000704,0.00000782,-0.00003060,0.00000065,0.00841661,0.00321632,0.
 01745088,0.00308226,0.00189787,0.00185868,0.01348909,0.05496503,0.0001
 6968,-0.00049477,-0.00021139,-0.00018642,0.00016357,-0.00004406,0.0001
 3533,-0.00002173,-0.00003332,0.00052235,0.00015704,-0.00004070,-0.0008
 9499,-0.00054895,-0.00007849,-0.00113605,0.00178260,0.00060864,0.00016
 204,0.00007247,0.00009565,0.00008364,0.00001532,0.00001912,0.00000144,
 0.00000026,0.00000138,-0.00146255,-0.00735239,0.00456311,-0.10524547,-
 0.00963902,-0.23680158,-0.00018263,-0.00011321,-0.00000142,0.00013310,
 -0.00004290,0.00001674,-0.00008568,-0.00002149,-0.00001520,0.00004365,
 0.00006518,0.00001986,-0.00001181,0.00002754,0.00000623,0.00003481,0.0
 0005316,0.00002030,0.00075010,-0.00001709,-0.00007773,0.00013592,0.000
 15152,-0.00003914,0.00000068,-0.00000414,-0.00000067,-0.00000303,-0.00
 000673,0.00000073,-0.00000228,0.00000043,-0.00000084,0.00178156,0.0003
 6616,0.00085189,-0.01233631,0.00009605,-0.01861688,0.11755914,0.015279
 65,0.24979506,0.00002315,-0.00014289,-0.00001495,0.00002254,-0.0001897
 1,-0.00001299,0.00080331,0.00209133,0.00026814,-0.01009417,0.02632902,
 0.00002168,-0.00476536,-0.00161294,-0.00061458,0.00044283,0.00162291,0
 .00006937,0.00001588,-0.00015197,-0.00000211,0.00002935,-0.00017001,-0
 .00000585,-0.00010734,0.00012123,-0.00000772,-0.00059383,-0.00005383,-
 0.00000570,-0.00003054,-0.00010791,-0.00001086,-0.08769796,0.09126476,
 0.00013287,0.01012090,-0.01952897,-0.00049015,0.00016074,-0.00429356,0
 .00032720,0.00073578,0.00184480,0.00009605,-0.00019215,0.00195879,0.00
 005588,-0.00053292,-0.00124031,-0.00010816,0.00013873,0.00003115,0.000
 01350,0.00005115,0.00005171,0.00000607,0.00004048,-0.00001762,0.000003
 11,-0.00000721,-0.00002115,0.00005526,0.00000075,-0.00001415,-0.000053
 95,-0.00000158,0.00000950,0.00000079,0.00000833,-0.00001011,0.00000657
 ,0.00000851,-0.00000885,-0.00000607,0.09422079,-0.00016000,0.00001350,
 -0.00001686,-0.00004725,0.00012934,-0.00000230,-0.00219588,0.00127573,
 -0.00003688,-0.00066121,-0.00121993,-0.00023890,-0.00039258,0.00092028
 ,-0.00010782,-0.00019449,-0.00001328,-0.00002739,0.00014249,0.00002218
 ,0.00001238,0.00008105,0.00011450,0.00000938,0.00004590,-0.00006556,-0
 .00000180,0.00004404,0.00000734,0.00002422,-0.00001212,0.00000918,-0.0
 0000296,0.09068267,-0.27824141,-0.00266610,0.00800794,-0.02230439,-0.0
 0053407,0.00182010,-0.00280706,0.00028070,-0.00007865,0.00062987,0.000
 00399,0.00051426,0.00241437,0.00012619,0.00040890,0.00038598,0.0000315
 9,-0.00011426,0.00005260,-0.00000483,-0.00003023,0.00001870,-0.0000012
 0,0.00000271,0.00000483,0.00000087,-0.00000864,0.00000554,0.00000264,-
 0.00000824,0.00000722,-0.00000167,0.00001366,0.00000013,0.00000127,-0.
 00000947,0.00000332,-0.00001877,-0.00001244,0.00000236,0.00001744,-0.0
 9506542,0.29998239,-0.00001555,-0.00001561,0.00015495,-0.00000757,-0.0
 0001240,0.00010176,0.00010405,0.00026823,-0.00182161,-0.00101400,0.001
 68283,0.00377549,-0.00056783,-0.00019458,0.00295332,-0.00000033,0.0001
 0188,0.00034431,0.00000911,-0.00000856,-0.00003608,0.00000378,-0.00000
 850,0.00001999,-0.00001062,0.00000358,0.00006587,-0.00000197,0.0000172
 6,-0.00054205,-0.00000719,-0.00000980,0.00006293,0.00011116,-0.0026245
 6,-0.04048810,0.00056571,-0.00249487,0.00642839,0.00056175,-0.00015460
 ,-0.00671283,0.00002231,0.00014090,0.00038690,0.00000043,0.00022919,0.
 00008687,-0.00004504,-0.00008571,0.00031343,0.00000791,0.00000551,-0.0
 0003311,0.00000294,0.00000462,-0.00000593,0.00000389,-0.00000058,-0.00
 001251,0.00000196,0.00001943,-0.00001705,0.00000006,-0.00001977,-0.000
 02669,0.00000095,0.00000097,-0.00000741,-0.00000484,0.00000495,-0.0000
 0056,0.00000523,-0.00000606,0.00000023,0.00123428,0.00375272,0.0259024
 4,0.00004640,-0.00002959,0.00003340,-0.00022983,0.00015474,-0.00000430
 ,0.00024512,0.00020299,0.00002641,-0.00011150,0.00078410,0.00036276,-0
 .00073988,-0.00104224,-0.00008367,-0.00009887,0.00020467,0.00003635,-0
 .00002484,0.00006987,-0.00002292,0.00010609,0.00017700,0.00001191,0.00
 004879,-0.00008169,-0.00000181,0.00006541,-0.00003782,-0.00000082,-0.0
 0001321,-0.00003451,-0.00001514,0.01083229,-0.02002753,-0.00026584,-0.
 07081444,0.06719427,-0.00025766,-0.00047288,0.02909822,0.00108376,-0.0
 0059091,-0.00158234,-0.00005269,-0.00746834,0.00162305,-0.00067842,0.0
 0009652,0.00014422,0.00000313,-0.00170749,0.00060656,-0.00017363,-0.00
 003575,-0.00002774,-0.00000399,-0.00000198,0.00000729,0.00000023,-0.00
 000948,0.00000430,-0.00001112,-0.00001091,0.00000357,0.00001069,0.0000
 3037,0.00000672,0.00000424,-0.00001086,0.00001807,-0.00003644,-0.00001
 939,0.00001642,0.00004081,-0.00264829,-0.00266572,-0.00093429,0.072873
 79,0.00012316,-0.00007848,0.00002259,-0.00012876,-0.00005682,-0.000008
 03,-0.00007978,0.00002437,-0.00000410,0.00136799,0.00011257,0.00028527
 ,0.00044349,0.00003471,0.00003782,-0.00029967,0.00056079,0.00001929,0.
 00005582,0.00009808,-0.00000511,0.00003684,0.00020872,0.00000931,0.000
 06874,-0.00010166,-0.00000017,-0.00000585,-0.00002234,-0.00000344,-0.0
 0003643,-0.00000638,-0.00000976,0.00761811,-0.01765010,-0.00027944,0.0
 7056616,-0.30594912,-0.00552412,-0.00267545,-0.00599378,-0.00041950,-0
 .00094827,0.00121021,0.00000588,0.00114715,0.00142743,0.00002375,0.000
 05513,0.00017476,0.00000562,-0.00002894,0.00083002,-0.00001076,-0.0000
 4277,-0.00001157,-0.00000370,-0.00000514,0.00000951,0.00000005,-0.0000
 0932,0.00000690,-0.00002046,-0.00001212,0.00000541,0.00001979,0.000023
 46,0.00000166,0.00000271,-0.00001034,0.00001623,-0.00001171,-0.0000138
 0,0.00001595,0.00001402,-0.00261898,-0.00132535,-0.00058402,-0.0747276
 5,0.32643389,0.00003927,0.00001157,-0.00043534,-0.00001529,0.00001221,
 -0.00008670,0.00001574,0.00001610,-0.00001487,0.00038492,0.00024369,-0
 .00474791,-0.00002687,-0.00006822,-0.00013023,0.00001708,0.00005528,-0
 .00049559,-0.00002343,-0.00000406,0.00033270,0.00000655,0.00001931,0.0
 0003532,0.00000396,-0.00001088,0.00003011,0.00000042,-0.00000571,0.000
 05622,-0.00001522,-0.00000964,0.00017935,0.00079493,-0.00224749,0.0037
 4590,-0.00012843,-0.00576437,-0.03121624,-0.00013507,0.00184231,0.0000
 4186,-0.00002832,-0.00003918,-0.00070705,-0.00069666,0.00005773,0.0028
 8793,-0.00000025,0.00001200,0.00013049,-0.00019797,0.00003463,0.001041
 78,-0.00000459,-0.00000263,0.00000509,-0.00000024,0.00000093,-0.000001
 29,0.00000017,0.00000149,-0.00000653,-0.00000172,-0.00000007,-0.000003
 61,0.00000489,0.00000152,-0.00002517,-0.00001987,0.00001256,-0.0000407
 1,0.00002199,-0.00000608,-0.00003188,-0.00093254,-0.00058724,0.0089498
 0,0.00086192,0.00641557,0.02081181,-0.00037071,0.00000099,-0.00002308,
 0.00004236,-0.00039496,-0.00002012,-0.00027503,-0.00009762,-0.00000730
 ,0.00046337,-0.00050355,0.00005459,-0.00007004,0.00015310,0.00000046,0
 .00007477,0.00034763,0.00001549,0.00040304,-0.00006190,0.00002671,0.00
 006190,0.00021328,0.00001182,0.00003434,-0.00008429,-0.00000241,0.0000
 7937,-0.00024025,-0.00000296,0.00004371,0.00010396,0.00000495,-0.00177
 305,0.00036534,-0.00017265,0.00049701,-0.00490442,-0.00049090,-0.03880
 246,0.00312983,-0.00291217,-0.41107936,0.10876516,-0.02401970,0.004948
 51,0.00678310,0.00101416,-0.00001962,-0.00000675,-0.00000012,-0.000012
 40,0.00000391,-0.00000013,-0.00003439,0.00005787,-0.00000086,0.0000109
 0,0.00001165,0.00000112,-0.00001597,0.00000568,0.00000117,-0.00001597,
 0.00000600,-0.00000237,0.00001091,-0.00001224,0.00000025,-0.00001844,-
 0.00000551,-0.00000130,-0.00001824,-0.00000561,-0.00000096,-0.00015187
 ,-0.00010712,-0.00002628,0.00066407,0.00013724,0.00007466,0.44532333,-
 0.00014048,-0.00000962,-0.00000860,-0.00000532,-0.00013826,-0.00000999
 ,-0.00009321,0.00001566,0.00000262,-0.00009008,-0.00036674,0.00000152,
 0.00005597,-0.00000546,0.00000354,-0.00002219,0.00015949,0.00000284,0.
 00017053,-0.00002694,0.00001132,0.00002415,0.00005737,0.00000350,-0.00
 000285,-0.00001462,-0.00000164,0.00004854,-0.00014034,-0.00000160,0.00
 002812,0.00006342,0.00000327,-0.00142851,0.00064531,-0.00010954,-0.001
 81367,-0.00485075,-0.00049719,-0.04354800,0.01556983,-0.00264863,0.153
 43541,-0.08882377,0.00809750,0.00725280,-0.00142969,0.00067794,-0.0000
 1400,-0.00001779,-0.00000085,-0.00002270,0.00001615,-0.00000067,-0.000
 01633,0.00002521,-0.00000053,0.00000575,0.00000371,0.00000049,-0.00000
 627,0.00000092,0.00000552,-0.00000559,0.00000146,-0.00000594,0.0000091
 9,-0.00000610,0.00000039,-0.00001237,-0.00000019,-0.00000141,-0.000012
 35,-0.00000029,0.00000005,-0.00007681,-0.00002240,-0.00001244,-0.00005
 922,0.00002438,0.00000864,-0.11366052,0.07927005,-0.00002849,0.0000014
 6,-0.00004790,-0.00000520,-0.00003769,0.00011055,-0.00000710,0.0000022
 8,-0.00022552,0.00007038,-0.00002786,-0.00057025,-0.00000326,0.0000104
 5,0.00000622,0.00000133,0.00002915,0.00004529,0.00003560,-0.00000523,-
 0.00000315,0.00000457,0.00001697,0.00001169,0.00000071,-0.00000743,0.0
 0002262,0.00000809,-0.00002215,-0.00000848,0.00000204,0.00000867,0.000
 03065,-0.00024136,0.00001821,0.00083252,-0.00037226,-0.00071728,0.0046
 9556,-0.00470201,0.00067445,0.00348069,-0.02230699,0.00491730,-0.01651
 666,0.00103218,0.00064451,-0.00554570,-0.00000039,-0.00000033,-0.00002
 169,-0.00000115,0.00000122,-0.00000853,-0.00000370,0.00000475,0.000008
 65,0.00000089,0.00000091,0.00000158,-0.00000285,0.00000190,-0.00000416
 ,0.00000074,-0.00000064,-0.00000469,0.00000107,-0.00000114,0.00000088,
 0.00000018,-0.00000077,-0.00000556,-0.00000295,0.00000038,-0.00000566,
 -0.00002512,-0.00001460,0.00015725,0.00006712,0.00002265,-0.00030525,0
 .02647793,-0.00552012,0.01386903\\0.00000152,0.00000712,0.00000147,0.0
 0000609,0.00000134,-0.00000075,-0.00000878,-0.00000452,-0.00000066,-0.
 00000053,0.00000715,0.00000154,0.00000917,-0.00000652,-0.00000036,0.00
 000030,-0.00000434,-0.00000131,-0.00000250,0.00000458,0.00000072,-0.00
 000528,0.00000338,-0.00000048,-0.00000179,0.00000025,0.00000109,-0.000
 00347,0.00000268,-0.00000022,0.00000593,0.00000030,-0.00000434,-0.0000
 0144,-0.00000136,-0.00000061,-0.00000493,-0.00000451,-0.00000085,0.000
 00119,0.00000395,0.00000136,-0.00000161,-0.00000842,-0.00000060,0.0000
 0294,-0.00001225,-0.00000075,-0.00000094,0.00000058,-0.00000031,0.0000
 0054,0.00000222,0.00000024,-0.00000009,0.00000401,-0.00000136,-0.00000
 577,0.00000319,-0.00000034,-0.00000503,0.00000132,0.00000023,-0.000005
 23,0.00000159,-0.00000127,0.00000512,0.00000577,0.00000424,0.00000404,
 -0.00000059,0.00000027,0.00000351,0.00000462,0.00000310,-0.00000017,-0
 .00000281,0.,0.00000327,-0.00000210,-0.00000005,0.00000396,-0.00000662
 ,0.\\\@


 ONE BIG VICE IN A MAN IS APT TO KEEP OUT MANY SMALLER ONES.

                           -- BRET HARTE
 Job cpu time:       0 days  1 hours 28 minutes  5.9 seconds.
 File lengths (MBytes):  RWF=    373 Int=      0 D2E=      0 Chk=     11 Scr=      1
 Normal termination of Gaussian 09 at Sun May 19 16:58:05 2024.
