 Entering Gaussian System, Link 0=g09
 Input=lwWB97XDSA.gjf
 Output=lwWB97XDSA.log
 Initial command:
 /home/phzd/g09E/g09/l1.exe "/home/phzd/g09E/scratch/Gau-3261063.inp" -scrdir="/home/phzd/g09E/scratch/"
 Default is to use a total of  18 processors:
                               18 via shared-memory
                                1 via Linda
 Entering Link 1 = /home/phzd/g09E/g09/l1.exe PID=   3261065.
  
 Copyright (c) 1988,1990,1992,1993,1995,1998,2003,2009,2015,
            Gaussian, Inc.  All Rights Reserved.
  
 This is part of the Gaussian(R) 09 program.  It is based on
 the Gaussian(R) 03 system (copyright 2003, Gaussian, Inc.),
 the Gaussian(R) 98 system (copyright 1998, Gaussian, Inc.),
 the Gaussian(R) 94 system (copyright 1995, Gaussian, Inc.),
 the Gaussian 92(TM) system (copyright 1992, Gaussian, Inc.),
 the Gaussian 90(TM) system (copyright 1990, Gaussian, Inc.),
 the Gaussian 88(TM) system (copyright 1988, Gaussian, Inc.),
 the Gaussian 86(TM) system (copyright 1986, Carnegie Mellon
 University), and the Gaussian 82(TM) system (copyright 1983,
 Carnegie Mellon University). Gaussian is a federally registered
 trademark of Gaussian, Inc.
  
 This software contains proprietary and confidential information,
 including trade secrets, belonging to Gaussian, Inc.
  
 This software is provided under written license and may be
 used, copied, transmitted, or stored only in accord with that
 written license.
  
 The following legend is applicable only to US Government
 contracts under FAR:
  
                    RESTRICTED RIGHTS LEGEND
  
 Use, reproduction and disclosure by the US Government is
 subject to restrictions as set forth in subparagraphs (a)
 and (c) of the Commercial Computer Software - Restricted
 Rights clause in FAR 52.227-19.
  
 Gaussian, Inc.
 340 Quinnipiac St., Bldg. 40, Wallingford CT 06492
  
  
 ---------------------------------------------------------------
 Warning -- This program may not be used in any manner that
 competes with the business of Gaussian, Inc. or will provide
 assistance to any competitor of Gaussian, Inc.  The licensee
 of this program is prohibited from giving any competitor of
 Gaussian, Inc. access to this program.  By using this program,
 the user acknowledges that Gaussian, Inc. is engaged in the
 business of creating and licensing software in the field of
 computational chemistry and represents and warrants to the
 licensee that it is not a competitor of Gaussian, Inc. and that
 it will not use this program in any manner prohibited above.
 ---------------------------------------------------------------
  

 Cite this work as:
 Gaussian 09, Revision E.01,
 M. J. Frisch, G. W. Trucks, H. B. Schlegel, G. E. Scuseria, 
 M. A. Robb, J. R. Cheeseman, G. Scalmani, V. Barone, B. Mennucci, 
 G. A. Petersson, H. Nakatsuji, M. Caricato, X. Li, H. P. Hratchian, 
 A. F. Izmaylov, J. Bloino, G. Zheng, J. L. Sonnenberg, M. Hada, 
 M. Ehara, K. Toyota, R. Fukuda, J. Hasegawa, M. Ishida, T. Nakajima, 
 Y. Honda, O. Kitao, H. Nakai, T. Vreven, J. A. Montgomery, Jr., 
 J. E. Peralta, F. Ogliaro, M. Bearpark, J. J. Heyd, E. Brothers, 
 K. N. Kudin, V. N. Staroverov, T. Keith, R. Kobayashi, J. Normand, 
 K. Raghavachari, A. Rendell, J. C. Burant, S. S. Iyengar, J. Tomasi, 
 M. Cossi, N. Rega, J. M. Millam, M. Klene, J. E. Knox, J. B. Cross, 
 V. Bakken, C. Adamo, J. Jaramillo, R. Gomperts, R. E. Stratmann, 
 O. Yazyev, A. J. Austin, R. Cammi, C. Pomelli, J. W. Ochterski, 
 R. L. Martin, K. Morokuma, V. G. Zakrzewski, G. A. Voth, 
 P. Salvador, J. J. Dannenberg, S. Dapprich, A. D. Daniels, 
 O. Farkas, J. B. Foresman, J. V. Ortiz, J. Cioslowski, 
 and D. J. Fox, Gaussian, Inc., Wallingford CT, 2013.
 
 ******************************************
 Gaussian 09:  ES64L-G09RevE.01 30-Nov-2015
                19-May-2024 
 ******************************************
 %chk=lwWB97XDSA.chk
 -----------------------------
 # opt freq wb97xd/6-31+g(d,p)
 -----------------------------
 1/14=-1,18=20,19=15,26=3,38=1/1,3;
 2/9=110,12=2,17=6,18=5,40=1/2;
 3/5=1,6=6,7=111,11=2,16=1,25=1,30=1,71=1,74=-58/1,2,3;
 4//1;
 5/5=2,38=5/2;
 6/7=2,8=2,9=2,10=2,28=1/1;
 7//1,2,3,16;
 1/14=-1,18=20,19=15,26=3/3(2);
 2/9=110/2;
 99//99;
 2/9=110/2;
 3/5=1,6=6,7=111,11=2,16=1,25=1,30=1,71=1,74=-58/1,2,3;
 4/5=5,16=3,69=1/1;
 5/5=2,38=5/2;
 7//1,2,3,16;
 1/14=-1,18=20,19=15,26=3/3(-5);
 2/9=110/2;
 6/7=2,8=2,9=2,10=2,19=2,28=1/1;
 99/9=1/99;
 ----------
 [No Title]
 ----------
 Symbolic Z-matrix:
 Charge =  0 Multiplicity = 1
 C                     2.27767  -0.11768   0.00073 
 C                     1.69785   1.17535   0.00031 
 C                     0.31783   1.33864   0.00003 
 C                    -0.5321    0.2147    0.00012 
 C                     0.04007  -1.05866   0.00038 
 C                     1.42611  -1.23872   0.00055 
 O                     3.64683  -0.12942   0.00106 
 O                     2.59622   2.19748   0.00033 
 C                     2.09265   3.52691  -0.00004 
 O                     1.79196  -2.5678    0.00052 
 C                     3.1357   -3.01992  -0.00126 
 C                    -1.97271   0.43749  -0.00012 
 C                    -2.95023  -0.49152  -0.00019 
 C                    -4.35863  -0.07734  -0.00043 
 O                    -5.19757  -1.1527   -0.00079 
 O                    -4.78402   1.06608  -0.00081 
 H                    -0.11815   2.32919  -0.0002 
 H                    -0.5693   -1.95421   0.00032 
 H                     3.98701  -1.02806   0.00367 
 H                     2.97014   4.1737    0.00002 
 H                     1.4916    3.72497  -0.89606 
 H                     1.49122   3.72533   0.89565 
 H                     3.07694  -4.10929  -0.00199 
 H                     3.67355  -2.7132   -0.90899 
 H                     3.67541  -2.71481   0.90599 
 H                    -2.29461   1.47756  -0.00026 
 H                    -2.75445  -1.55782  -0.00008 
 H                    -6.10195  -0.798    -0.00114 
 

 GradGradGradGradGradGradGradGradGradGradGradGradGradGradGradGradGradGrad
 Berny optimization.
 Initialization pass.
                           ----------------------------
                           !    Initial Parameters    !
                           ! (Angstroms and Degrees)  !
 --------------------------                            --------------------------
 ! Name  Definition              Value          Derivative Info.                !
 --------------------------------------------------------------------------------
 ! R1    R(1,2)                  1.4171         estimate D2E/DX2                !
 ! R2    R(1,6)                  1.4078         estimate D2E/DX2                !
 ! R3    R(1,7)                  1.3692         estimate D2E/DX2                !
 ! R4    R(2,3)                  1.3897         estimate D2E/DX2                !
 ! R5    R(2,8)                  1.3608         estimate D2E/DX2                !
 ! R6    R(3,4)                  1.4091         estimate D2E/DX2                !
 ! R7    R(3,17)                 1.0823         estimate D2E/DX2                !
 ! R8    R(4,5)                  1.396          estimate D2E/DX2                !
 ! R9    R(4,12)                 1.4577         estimate D2E/DX2                !
 ! R10   R(5,6)                  1.3977         estimate D2E/DX2                !
 ! R11   R(5,18)                 1.0832         estimate D2E/DX2                !
 ! R12   R(6,10)                 1.3785         estimate D2E/DX2                !
 ! R13   R(7,19)                 0.9609         estimate D2E/DX2                !
 ! R14   R(8,9)                  1.4216         estimate D2E/DX2                !
 ! R15   R(9,20)                 1.0901         estimate D2E/DX2                !
 ! R16   R(9,21)                 1.097          estimate D2E/DX2                !
 ! R17   R(9,22)                 1.097          estimate D2E/DX2                !
 ! R18   R(10,11)                1.4178         estimate D2E/DX2                !
 ! R19   R(11,23)                1.091          estimate D2E/DX2                !
 ! R20   R(11,24)                1.0988         estimate D2E/DX2                !
 ! R21   R(11,25)                1.0988         estimate D2E/DX2                !
 ! R22   R(12,13)                1.3486         estimate D2E/DX2                !
 ! R23   R(12,26)                1.0887         estimate D2E/DX2                !
 ! R24   R(13,14)                1.468          estimate D2E/DX2                !
 ! R25   R(13,27)                1.0841         estimate D2E/DX2                !
 ! R26   R(14,15)                1.3639         estimate D2E/DX2                !
 ! R27   R(14,16)                1.22           estimate D2E/DX2                !
 ! R28   R(15,28)                0.9714         estimate D2E/DX2                !
 ! A1    A(2,1,6)              118.6267         estimate D2E/DX2                !
 ! A2    A(2,1,7)              114.6437         estimate D2E/DX2                !
 ! A3    A(6,1,7)              126.7296         estimate D2E/DX2                !
 ! A4    A(1,2,3)              120.9002         estimate D2E/DX2                !
 ! A5    A(1,2,8)              114.5346         estimate D2E/DX2                !
 ! A6    A(3,2,8)              124.5651         estimate D2E/DX2                !
 ! A7    A(2,3,4)              120.349          estimate D2E/DX2                !
 ! A8    A(2,3,17)             120.5033         estimate D2E/DX2                !
 ! A9    A(4,3,17)             119.1477         estimate D2E/DX2                !
 ! A10   A(3,4,5)              118.7073         estimate D2E/DX2                !
 ! A11   A(3,4,12)             118.3056         estimate D2E/DX2                !
 ! A12   A(5,4,12)             122.9871         estimate D2E/DX2                !
 ! A13   A(4,5,6)              121.5977         estimate D2E/DX2                !
 ! A14   A(4,5,18)             121.5711         estimate D2E/DX2                !
 ! A15   A(6,5,18)             116.8312         estimate D2E/DX2                !
 ! A16   A(1,6,5)              119.8191         estimate D2E/DX2                !
 ! A17   A(1,6,10)             127.389          estimate D2E/DX2                !
 ! A18   A(5,6,10)             112.7919         estimate D2E/DX2                !
 ! A19   A(1,7,19)             111.2253         estimate D2E/DX2                !
 ! A20   A(2,8,9)              117.9412         estimate D2E/DX2                !
 ! A21   A(8,9,20)             105.6478         estimate D2E/DX2                !
 ! A22   A(8,9,21)             111.2933         estimate D2E/DX2                !
 ! A23   A(8,9,22)             111.2932         estimate D2E/DX2                !
 ! A24   A(20,9,21)            109.5101         estimate D2E/DX2                !
 ! A25   A(20,9,22)            109.51           estimate D2E/DX2                !
 ! A26   A(21,9,22)            109.5041         estimate D2E/DX2                !
 ! A27   A(6,10,11)            123.9864         estimate D2E/DX2                !
 ! A28   A(10,11,23)           105.5086         estimate D2E/DX2                !
 ! A29   A(10,11,24)           112.0829         estimate D2E/DX2                !
 ! A30   A(10,11,25)           112.0821         estimate D2E/DX2                !
 ! A31   A(23,11,24)           107.731          estimate D2E/DX2                !
 ! A32   A(23,11,25)           107.7143         estimate D2E/DX2                !
 ! A33   A(24,11,25)           111.3554         estimate D2E/DX2                !
 ! A34   A(4,12,13)            127.6665         estimate D2E/DX2                !
 ! A35   A(4,12,26)            115.9886         estimate D2E/DX2                !
 ! A36   A(13,12,26)           116.3449         estimate D2E/DX2                !
 ! A37   A(12,13,14)           120.0704         estimate D2E/DX2                !
 ! A38   A(12,13,27)           123.1386         estimate D2E/DX2                !
 ! A39   A(14,13,27)           116.791          estimate D2E/DX2                !
 ! A40   A(13,14,15)           111.5722         estimate D2E/DX2                !
 ! A41   A(13,14,16)           126.7941         estimate D2E/DX2                !
 ! A42   A(15,14,16)           121.6337         estimate D2E/DX2                !
 ! A43   A(14,15,28)           106.5441         estimate D2E/DX2                !
 ! D1    D(6,1,2,3)              0.0146         estimate D2E/DX2                !
 ! D2    D(6,1,2,8)           -179.9907         estimate D2E/DX2                !
 ! D3    D(7,1,2,3)           -179.9962         estimate D2E/DX2                !
 ! D4    D(7,1,2,8)             -0.0015         estimate D2E/DX2                !
 ! D5    D(2,1,6,5)             -0.0199         estimate D2E/DX2                !
 ! D6    D(2,1,6,10)           179.9807         estimate D2E/DX2                !
 ! D7    D(7,1,6,5)            179.9923         estimate D2E/DX2                !
 ! D8    D(7,1,6,10)            -0.007          estimate D2E/DX2                !
 ! D9    D(2,1,7,19)           179.8507         estimate D2E/DX2                !
 ! D10   D(6,1,7,19)            -0.1612         estimate D2E/DX2                !
 ! D11   D(1,2,3,4)             -0.0019         estimate D2E/DX2                !
 ! D12   D(1,2,3,17)           179.9941         estimate D2E/DX2                !
 ! D13   D(8,2,3,4)           -179.996          estimate D2E/DX2                !
 ! D14   D(8,2,3,17)             0.0            estimate D2E/DX2                !
 ! D15   D(1,2,8,9)           -179.9981         estimate D2E/DX2                !
 ! D16   D(3,2,8,9)             -0.0036         estimate D2E/DX2                !
 ! D17   D(2,3,4,5)             -0.0055         estimate D2E/DX2                !
 ! D18   D(2,3,4,12)           179.997          estimate D2E/DX2                !
 ! D19   D(17,3,4,5)           179.9984         estimate D2E/DX2                !
 ! D20   D(17,3,4,12)            0.0009         estimate D2E/DX2                !
 ! D21   D(3,4,5,6)              0.0            estimate D2E/DX2                !
 ! D22   D(3,4,5,18)          -179.9913         estimate D2E/DX2                !
 ! D23   D(12,4,5,6)           179.9973         estimate D2E/DX2                !
 ! D24   D(12,4,5,18)            0.006          estimate D2E/DX2                !
 ! D25   D(3,4,12,13)          179.9942         estimate D2E/DX2                !
 ! D26   D(3,4,12,26)           -0.0056         estimate D2E/DX2                !
 ! D27   D(5,4,12,13)           -0.0032         estimate D2E/DX2                !
 ! D28   D(5,4,12,26)          179.9971         estimate D2E/DX2                !
 ! D29   D(4,5,6,1)              0.0129         estimate D2E/DX2                !
 ! D30   D(4,5,6,10)          -179.9876         estimate D2E/DX2                !
 ! D31   D(18,5,6,1)          -179.9953         estimate D2E/DX2                !
 ! D32   D(18,5,6,10)            0.0041         estimate D2E/DX2                !
 ! D33   D(1,6,10,11)           -0.0943         estimate D2E/DX2                !
 ! D34   D(5,6,10,11)          179.9063         estimate D2E/DX2                !
 ! D35   D(2,8,9,20)          -179.9987         estimate D2E/DX2                !
 ! D36   D(2,8,9,21)           -61.2213         estimate D2E/DX2                !
 ! D37   D(2,8,9,22)            61.224          estimate D2E/DX2                !
 ! D38   D(6,10,11,23)        -179.9329         estimate D2E/DX2                !
 ! D39   D(6,10,11,24)         -62.9544         estimate D2E/DX2                !
 ! D40   D(6,10,11,25)          63.1091         estimate D2E/DX2                !
 ! D41   D(4,12,13,14)         179.9998         estimate D2E/DX2                !
 ! D42   D(4,12,13,27)          -0.0005         estimate D2E/DX2                !
 ! D43   D(26,12,13,14)         -0.0005         estimate D2E/DX2                !
 ! D44   D(26,12,13,27)        179.9992         estimate D2E/DX2                !
 ! D45   D(12,13,14,15)        179.9857         estimate D2E/DX2                !
 ! D46   D(12,13,14,16)          0.0133         estimate D2E/DX2                !
 ! D47   D(27,13,14,15)         -0.0141         estimate D2E/DX2                !
 ! D48   D(27,13,14,16)       -179.9864         estimate D2E/DX2                !
 ! D49   D(13,14,15,28)       -179.9867         estimate D2E/DX2                !
 ! D50   D(16,14,15,28)         -0.0127         estimate D2E/DX2                !
 --------------------------------------------------------------------------------
 Trust Radius=3.00D-01 FncErr=1.00D-07 GrdErr=1.00D-06
 Number of steps in this run=    131 maximum allowed number of steps=    168.
 GradGradGradGradGradGradGradGradGradGradGradGradGradGradGradGradGradGrad

                          Input orientation:                          
 ---------------------------------------------------------------------
 Center     Atomic      Atomic             Coordinates (Angstroms)
 Number     Number       Type             X           Y           Z
 ---------------------------------------------------------------------
      1          6           0        2.277674   -0.117680    0.000733
      2          6           0        1.697850    1.175354    0.000311
      3          6           0        0.317825    1.338636    0.000031
      4          6           0       -0.532100    0.214700    0.000122
      5          6           0        0.040065   -1.058665    0.000380
      6          6           0        1.426114   -1.238724    0.000548
      7          8           0        3.646826   -0.129419    0.001057
      8          8           0        2.596219    2.197482    0.000328
      9          6           0        2.092652    3.526914   -0.000040
     10          8           0        1.791957   -2.567797    0.000520
     11          6           0        3.135704   -3.019919   -0.001255
     12          6           0       -1.972708    0.437489   -0.000115
     13          6           0       -2.950226   -0.491515   -0.000186
     14          6           0       -4.358631   -0.077339   -0.000429
     15          8           0       -5.197572   -1.152701   -0.000785
     16          8           0       -4.784019    1.066078   -0.000811
     17          1           0       -0.118145    2.329193   -0.000195
     18          1           0       -0.569301   -1.954212    0.000320
     19          1           0        3.987006   -1.028063    0.003670
     20          1           0        2.970142    4.173705    0.000019
     21          1           0        1.491596    3.724974   -0.896063
     22          1           0        1.491218    3.725326    0.895653
     23          1           0        3.076941   -4.109286   -0.001990
     24          1           0        3.673549   -2.713197   -0.908992
     25          1           0        3.675408   -2.714813    0.905985
     26          1           0       -2.294613    1.477557   -0.000255
     27          1           0       -2.754450   -1.557824   -0.000076
     28          1           0       -6.101951   -0.797999   -0.001143
 ---------------------------------------------------------------------
                    Distance matrix (angstroms):
                    1          2          3          4          5
     1  C    0.000000
     2  C    1.417086   0.000000
     3  C    2.441693   1.389651   0.000000
     4  C    2.829365   2.428072   1.409115   0.000000
     5  C    2.427416   2.781922   2.413339   1.396005   0.000000
     6  C    1.407798   2.429324   2.805546   2.438656   1.397696
     7  O    1.369202   2.345408   3.638328   4.193071   3.724543
     8  O    2.336974   1.360813   2.434891   3.703755   4.139616
     9  C    3.649287   2.384471   2.817547   4.226119   5.024007
    10  O    2.497798   3.744334   4.175318   3.625401   2.312273
    11  C    3.026419   4.434833   5.190130   4.890353   3.664628
    12  C    4.286486   3.743987   2.461424   1.457733   2.507934
    13  C    5.241249   4.937921   3.745612   2.519141   3.043600
    14  C    6.636428   6.184675   4.886126   3.837659   4.506831
    15  O    7.546560   7.277822   6.051972   4.861730   5.238481
    16  O    7.160223   6.482790   5.109119   4.336319   5.271273
    17  H    3.424491   2.151554   1.082254   2.154632   3.391550
    18  H    3.387937   3.864474   3.410255   2.169231   1.083204
    19  H    1.936652   3.177309   4.366253   4.686874   3.947061
    20  H    4.346895   3.257121   3.882319   5.285775   5.996920
    21  H    4.023450   2.710459   2.806302   4.149761   5.078755
    22  H    4.023443   2.710478   2.806293   4.149733   5.078772
    23  H    4.070842   5.461622   6.106765   5.632232   4.304522
    24  H    3.084279   4.455451   5.338966   5.204474   4.094709
    25  H    3.085165   4.456947   5.340839   5.206319   4.096177
    26  H    4.842581   4.003884   2.616129   2.168239   3.447194
    27  H    5.234146   5.224293   4.222364   2.842654   2.838745
    28  H    8.407196   8.045559   6.765998   5.661166   6.147545
                    6          7          8          9         10
     6  C    0.000000
     7  O    2.482362   0.000000
     8  O    3.629967   2.553085   0.000000
     9  C    4.812024   3.972937   1.421608   0.000000
    10  O    1.378505   3.063695   4.832672   6.102124   0.000000
    11  C    2.468878   2.935343   5.245219   6.629403   1.417771
    12  C    3.789681   5.648057   4.896189   5.106045   4.817099
    13  C    4.439670   6.606982   6.163908   6.448131   5.176799
    14  C    5.900177   8.005627   7.317428   7.389837   6.635670
    15  O    6.624245   8.903397   8.483331   8.662919   7.131340
    16  O    6.624037   8.515184   7.466458   7.303719   7.513222
    17  H    3.887772   4.496641   2.717558   2.514390   5.256330
    18  H    2.119812   4.594083   5.220831   6.093335   2.439677
    19  H    2.569544   0.960880   3.512612   4.933194   2.681237
    20  H    5.628358   4.356005   2.011287   1.090104   6.843681
    21  H    5.044452   4.506239   2.087329   1.096975   6.363415
    22  H    5.044526   4.506219   2.087329   1.096976   6.363576
    23  H    3.311399   4.020463   6.325063   7.699375   2.006833
    24  H    2.837657   2.739491   5.109038   6.501109   2.094932
    25  H    2.838658   2.739338   5.110333   6.502704   2.094963
    26  H    4.606733   6.154922   4.943534   4.842309   5.750213
    27  H    4.192725   6.558710   6.536970   7.024881   4.657238
    28  H    7.540955   9.771676   9.199515   9.265872   8.089868
                   11         12         13         14         15
    11  C    0.000000
    12  C    6.168431   0.000000
    13  C    6.590248   1.348551   0.000000
    14  C    8.051325   2.440835   1.468042   0.000000
    15  O    8.539906   3.595616   2.342591   1.363901   0.000000
    16  O    8.911643   2.880728   2.406012   1.219983   2.256991
    17  H    6.261033   2.649141   3.997134   4.875768   6.158260
    18  H    3.855230   2.773046   2.794331   4.228673   4.697160
    19  H    2.166156   6.137267   6.957951   8.399616   9.185425
    20  H    7.195529   6.196053   7.537575   8.472443   9.751008
    21  H    6.999811   4.859185   6.189601   7.034550   8.326957
    22  H    7.000508   4.859121   6.189564   7.034483   8.326984
    23  H    1.090951   6.795007   7.029581   8.458388   8.786863
    24  H    1.098791   6.529403   7.045296   8.502303   9.052998
    25  H    1.098842   6.531404   7.047214   8.504331   9.054954
    26  H    7.050931   1.088744   2.075349   2.584158   3.917324
    27  H    6.068907   2.142987   1.084132   2.182941   2.476483
    28  H    9.501116   4.310114   3.166592   1.886403   0.971450
                   16         17         18         19         20
    16  O    0.000000
    17  H    4.833823   0.000000
    18  H    5.185171   4.307099   0.000000
    19  H    9.017557   5.303154   4.649483   0.000000
    20  H    8.353703   3.597185   7.076653   5.300228   0.000000
    21  H    6.874194   2.311288   6.107696   5.443156   1.786175
    22  H    6.874143   2.311229   6.107742   5.442361   1.786175
    23  H    9.411646   7.187669   4.235496   3.212816   8.283680
    24  H    9.307963   6.374053   4.405075   1.941876   6.982156
    25  H    9.310173   6.376065   4.406393   1.938141   6.983542
    26  H    2.523184   2.337156   3.841060   6.762905   5.914969
    27  H    3.317230   4.696702   2.220811   6.762240   8.100702
    28  H    2.282921   6.751686   5.652172  10.091581  10.345082
                   21         22         23         24         25
    21  H    0.000000
    22  H    1.791716   0.000000
    23  H    8.042905   8.043720   0.000000
    24  H    6.797877   7.033768   1.768519   0.000000
    25  H    7.034719   6.800455   1.768371   1.814979   0.000000
    26  H    4.493187   4.493065   7.750252   7.348958   7.351081
    27  H    6.836641   6.836644   6.365146   6.593951   6.595653
    28  H    8.883700   8.883745   9.757903  10.002628  10.004689
                   26         27         28
    26  H    0.000000
    27  H    3.070014   0.000000
    28  H    4.435536   3.432652   0.000000
 Stoichiometry    C11H12O5
 Framework group  C1[X(C11H12O5)]
 Deg. of freedom    78
 Full point group                 C1      NOp   1
 Largest Abelian subgroup         C1      NOp   1
 Largest concise Abelian subgroup C1      NOp   1
                         Standard orientation:                         
 ---------------------------------------------------------------------
 Center     Atomic      Atomic             Coordinates (Angstroms)
 Number     Number       Type             X           Y           Z
 ---------------------------------------------------------------------
      1          6           0       -2.277674   -0.117680   -0.000733
      2          6           0       -1.697850    1.175354   -0.000311
      3          6           0       -0.317825    1.338636   -0.000031
      4          6           0        0.532100    0.214700   -0.000122
      5          6           0       -0.040065   -1.058665   -0.000380
      6          6           0       -1.426114   -1.238724   -0.000548
      7          8           0       -3.646826   -0.129419   -0.001057
      8          8           0       -2.596219    2.197482   -0.000328
      9          6           0       -2.092652    3.526914    0.000040
     10          8           0       -1.791957   -2.567797   -0.000520
     11          6           0       -3.135704   -3.019919    0.001255
     12          6           0        1.972708    0.437489    0.000115
     13          6           0        2.950226   -0.491515    0.000186
     14          6           0        4.358631   -0.077339    0.000429
     15          8           0        5.197572   -1.152701    0.000785
     16          8           0        4.784019    1.066078    0.000811
     17          1           0        0.118145    2.329193    0.000195
     18          1           0        0.569301   -1.954212   -0.000320
     19          1           0       -3.987006   -1.028063   -0.003670
     20          1           0       -2.970142    4.173705   -0.000019
     21          1           0       -1.491596    3.724974    0.896063
     22          1           0       -1.491218    3.725326   -0.895653
     23          1           0       -3.076941   -4.109286    0.001990
     24          1           0       -3.673549   -2.713197    0.908992
     25          1           0       -3.675408   -2.714813   -0.905985
     26          1           0        2.294613    1.477557    0.000255
     27          1           0        2.754450   -1.557824    0.000076
     28          1           0        6.101951   -0.797999    0.001143
 ---------------------------------------------------------------------
 Rotational constants (GHZ):      0.7735246      0.2571162      0.1934571
 Standard basis: 6-31+G(d,p) (6D, 7F)
 There are   364 symmetry adapted cartesian basis functions of A   symmetry.
 There are   364 symmetry adapted basis functions of A   symmetry.
   364 basis functions,   596 primitive gaussians,   364 cartesian basis functions
    59 alpha electrons       59 beta electrons
       nuclear repulsion energy      1050.4649160283 Hartrees.
 NAtoms=   28 NActive=   28 NUniq=   28 SFac= 1.00D+00 NAtFMM=   60 NAOKFM=F Big=F
 Integral buffers will be    131072 words long.
 Raffenetti 2 integral format.
 Two-electron integral symmetry is turned on.
 Nuclear repulsion after empirical dispersion term =     1050.4493890116 Hartrees.
 One-electron integrals computed using PRISM.
 NBasis=   364 RedAO= T EigKep=  1.43D-06  NBF=   364
 NBsUse=   362 1.00D-06 EigRej=  5.32D-07 NBFU=   362
 ExpMin= 4.38D-02 ExpMax= 5.48D+03 ExpMxC= 8.25D+02 IAcc=2 IRadAn=         4 AccDes= 0.00D+00
 Harris functional with IExCor= 4639 and IRadAn=       4 diagonalized for initial guess.
 HarFok:  IExCor= 4639 AccDes= 0.00D+00 IRadAn=         4 IDoV= 1 UseB2=F ITyADJ=14
 ICtDFT=  3500011 ScaDFX=  1.000000  1.000000  1.000000  1.000000
 FoFCou: FMM=F IPFlag=           0 FMFlag=      100000 FMFlg1=           0
         NFxFlg=           0 DoJE=T BraDBF=F KetDBF=T FulRan=T
         wScrn=  0.000000 ICntrl=     500 IOpCl=  0 I1Cent=   200000004 NGrid=           0
         NMat0=    1 NMatS0=      1 NMatT0=    0 NMatD0=    1 NMtDS0=    0 NMtDT0=    0
 Petite list used in FoFCou.
 Requested convergence on RMS density matrix=1.00D-08 within 128 cycles.
 Requested convergence on MAX density matrix=1.00D-06.
 Requested convergence on             energy=1.00D-06.
 No special actions if energy rises.
 SCF Done:  E(RwB97XD) =  -802.262013907     A.U. after   17 cycles
            NFock= 17  Conv=0.66D-08     -V/T= 2.0091

 **********************************************************************

            Population analysis using the SCF density.

 **********************************************************************

 Orbital symmetries:
       Occupied  (A) (A) (A) (A) (A) (A) (A) (A) (A) (A) (A) (A)
                 (A) (A) (A) (A) (A) (A) (A) (A) (A) (A) (A) (A)
                 (A) (A) (A) (A) (A) (A) (A) (A) (A) (A) (A) (A)
                 (A) (A) (A) (A) (A) (A) (A) (A) (A) (A) (A) (A)
                 (A) (A) (A) (A) (A) (A) (A) (A) (A) (A) (A)
       Virtual   (A) (A) (A) (A) (A) (A) (A) (A) (A) (A) (A) (A)
                 (A) (A) (A) (A) (A) (A) (A) (A) (A) (A) (A) (A)
                 (A) (A) (A) (A) (A) (A) (A) (A) (A) (A) (A) (A)
                 (A) (A) (A) (A) (A) (A) (A) (A) (A) (A) (A) (A)
                 (A) (A) (A) (A) (A) (A) (A) (A) (A) (A) (A) (A)
                 (A) (A) (A) (A) (A) (A) (A) (A) (A) (A) (A) (A)
                 (A) (A) (A) (A) (A) (A) (A) (A) (A) (A) (A) (A)
                 (A) (A) (A) (A) (A) (A) (A) (A) (A) (A) (A) (A)
                 (A) (A) (A) (A) (A) (A) (A) (A) (A) (A) (A) (A)
                 (A) (A) (A) (A) (A) (A) (A) (A) (A) (A) (A) (A)
                 (A) (A) (A) (A) (A) (A) (A) (A) (A) (A) (A) (A)
                 (A) (A) (A) (A) (A) (A) (A) (A) (A) (A) (A) (A)
                 (A) (A) (A) (A) (A) (A) (A) (A) (A) (A) (A) (A)
                 (A) (A) (A) (A) (A) (A) (A) (A) (A) (A) (A) (A)
                 (A) (A) (A) (A) (A) (A) (A) (A) (A) (A) (A) (A)
                 (A) (A) (A) (A) (A) (A) (A) (A) (A) (A) (A) (A)
                 (A) (A) (A) (A) (A) (A) (A) (A) (A) (A) (A) (A)
                 (A) (A) (A) (A) (A) (A) (A) (A) (A) (A) (A) (A)
                 (A) (A) (A) (A) (A) (A) (A) (A) (A) (A) (A) (A)
                 (A) (A) (A) (A) (A) (A) (A) (A) (A) (A) (A) (A)
                 (A) (A) (A) (A) (A) (A) (A) (A) (A) (A) (A) (A)
                 (A) (A) (A) (A) (A) (A) (A) (A) (A) (A) (A) (A)
                 (A) (A) (A) (A) (A) (A) (A) (A) (A) (A) (A) (A)
                 (A) (A) (A) (A) (A) (A) (A) (A) (A) (A) (A) (A)
                 (A) (A) (A) (A) (A) (A) (A) (A) (A) (A) (A) (A)
                 (A) (A) (A)
 The electronic state is 1-A.
 Alpha  occ. eigenvalues --  -19.32617 -19.32515 -19.32149 -19.31615 -19.26440
 Alpha  occ. eigenvalues --  -10.43817 -10.38402 -10.38287 -10.38126 -10.37733
 Alpha  occ. eigenvalues --  -10.35868 -10.33384 -10.32695 -10.31551 -10.31402
 Alpha  occ. eigenvalues --  -10.31169  -1.20789  -1.19605  -1.18194  -1.16531
 Alpha  occ. eigenvalues --   -1.11432  -0.97500  -0.91502  -0.88069  -0.86123
 Alpha  occ. eigenvalues --   -0.81477  -0.80659  -0.77428  -0.72654  -0.71059
 Alpha  occ. eigenvalues --   -0.66342  -0.64732  -0.63108  -0.61245  -0.59892
 Alpha  occ. eigenvalues --   -0.58566  -0.58548  -0.56926  -0.56710  -0.55492
 Alpha  occ. eigenvalues --   -0.54254  -0.53705  -0.51984  -0.51427  -0.50617
 Alpha  occ. eigenvalues --   -0.49411  -0.48877  -0.46946  -0.46394  -0.45491
 Alpha  occ. eigenvalues --   -0.44445  -0.42861  -0.42329  -0.42291  -0.40596
 Alpha  occ. eigenvalues --   -0.36564  -0.35764  -0.30640  -0.28652
 Alpha virt. eigenvalues --   -0.00763   0.05400   0.06218   0.06708   0.07215
 Alpha virt. eigenvalues --    0.07777   0.08130   0.08492   0.09152   0.10035
 Alpha virt. eigenvalues --    0.10055   0.10928   0.11015   0.12101   0.12260
 Alpha virt. eigenvalues --    0.12710   0.13606   0.14330   0.14464   0.14542
 Alpha virt. eigenvalues --    0.16013   0.16391   0.16464   0.16837   0.17837
 Alpha virt. eigenvalues --    0.18261   0.18564   0.19164   0.20282   0.20923
 Alpha virt. eigenvalues --    0.21102   0.21260   0.21451   0.22101   0.22983
 Alpha virt. eigenvalues --    0.23896   0.24526   0.25171   0.25436   0.25683
 Alpha virt. eigenvalues --    0.25726   0.25863   0.26461   0.26735   0.27746
 Alpha virt. eigenvalues --    0.27976   0.28017   0.29515   0.29822   0.30273
 Alpha virt. eigenvalues --    0.30311   0.30822   0.31185   0.32442   0.32592
 Alpha virt. eigenvalues --    0.32950   0.33443   0.33684   0.34209   0.34555
 Alpha virt. eigenvalues --    0.34967   0.35520   0.36511   0.36827   0.37009
 Alpha virt. eigenvalues --    0.37310   0.37419   0.38045   0.38399   0.39900
 Alpha virt. eigenvalues --    0.40110   0.40606   0.41285   0.41892   0.42067
 Alpha virt. eigenvalues --    0.42752   0.43578   0.44109   0.44617   0.45397
 Alpha virt. eigenvalues --    0.45772   0.47676   0.49160   0.50028   0.50605
 Alpha virt. eigenvalues --    0.51140   0.51640   0.53796   0.55061   0.56807
 Alpha virt. eigenvalues --    0.59667   0.61103   0.64029   0.67989   0.70918
 Alpha virt. eigenvalues --    0.73612   0.74169   0.74389   0.75661   0.77268
 Alpha virt. eigenvalues --    0.77472   0.78252   0.78364   0.79879   0.80817
 Alpha virt. eigenvalues --    0.80898   0.82357   0.83707   0.84185   0.85326
 Alpha virt. eigenvalues --    0.86977   0.87893   0.89025   0.89796   0.94044
 Alpha virt. eigenvalues --    0.95169   0.96181   0.97624   0.99386   0.99726
 Alpha virt. eigenvalues --    0.99988   1.01491   1.02310   1.04516   1.05861
 Alpha virt. eigenvalues --    1.07157   1.08917   1.11086   1.13390   1.15061
 Alpha virt. eigenvalues --    1.17461   1.18037   1.20049   1.21104   1.22022
 Alpha virt. eigenvalues --    1.23977   1.24206   1.24619   1.25131   1.26856
 Alpha virt. eigenvalues --    1.27207   1.28514   1.28788   1.29076   1.30105
 Alpha virt. eigenvalues --    1.30722   1.32080   1.32922   1.33474   1.33496
 Alpha virt. eigenvalues --    1.35619   1.35797   1.36908   1.38790   1.39650
 Alpha virt. eigenvalues --    1.39759   1.41001   1.41683   1.42076   1.43291
 Alpha virt. eigenvalues --    1.43686   1.45705   1.46027   1.46546   1.47381
 Alpha virt. eigenvalues --    1.48110   1.50792   1.52573   1.54312   1.55819
 Alpha virt. eigenvalues --    1.57146   1.59372   1.60562   1.62682   1.66517
 Alpha virt. eigenvalues --    1.67274   1.67670   1.68112   1.72370   1.75070
 Alpha virt. eigenvalues --    1.78104   1.83295   1.83977   1.85123   1.86034
 Alpha virt. eigenvalues --    1.87384   1.87564   1.89102   1.91495   1.91934
 Alpha virt. eigenvalues --    1.92423   1.94152   1.96437   1.96962   1.99371
 Alpha virt. eigenvalues --    1.99699   2.01090   2.01438   2.03567   2.04077
 Alpha virt. eigenvalues --    2.04869   2.05392   2.06992   2.07253   2.09187
 Alpha virt. eigenvalues --    2.10549   2.11145   2.12848   2.12958   2.15180
 Alpha virt. eigenvalues --    2.16454   2.16919   2.19065   2.19691   2.20604
 Alpha virt. eigenvalues --    2.23424   2.24513   2.28159   2.29337   2.29768
 Alpha virt. eigenvalues --    2.30931   2.33931   2.36071   2.39770   2.40336
 Alpha virt. eigenvalues --    2.43057   2.46399   2.48107   2.49626   2.52137
 Alpha virt. eigenvalues --    2.53679   2.55566   2.55675   2.56660   2.59126
 Alpha virt. eigenvalues --    2.60927   2.61343   2.62880   2.63955   2.65387
 Alpha virt. eigenvalues --    2.69092   2.70010   2.70407   2.71332   2.72467
 Alpha virt. eigenvalues --    2.72570   2.73525   2.75666   2.77838   2.78726
 Alpha virt. eigenvalues --    2.82128   2.82437   2.84826   2.85919   2.87022
 Alpha virt. eigenvalues --    2.87964   2.90621   2.91457   2.91900   2.93532
 Alpha virt. eigenvalues --    2.94368   2.98657   2.99347   3.03369   3.06769
 Alpha virt. eigenvalues --    3.10681   3.13950   3.17155   3.21253   3.24009
 Alpha virt. eigenvalues --    3.26677   3.29159   3.31107   3.33444   3.34191
 Alpha virt. eigenvalues --    3.38998   3.48243   3.49038   3.50678   3.53180
 Alpha virt. eigenvalues --    3.54549   3.56501   3.57504   3.63211   3.68304
 Alpha virt. eigenvalues --    3.72795   3.85570   4.27131   4.32620   4.38805
 Alpha virt. eigenvalues --    4.43853   4.47762   4.49438   4.52721   4.55332
 Alpha virt. eigenvalues --    4.60052   4.65741   4.70640   4.70748   4.77082
 Alpha virt. eigenvalues --    4.83693   4.93128   5.39304
          Condensed to atoms (all electrons):
               1          2          3          4          5          6
     1  C   29.571813 -10.423607 -10.674045   2.012993  -3.211040   2.102432
     2  C  -10.423607  26.309720   1.122655  -1.969424  -0.376333  -8.576266
     3  C  -10.674045   1.122655  26.214418  -1.535862  -3.500985  -3.324262
     4  C    2.012993  -1.969424  -1.535862  11.756716  -0.612813  -0.405353
     5  C   -3.211040  -0.376333  -3.500985  -0.612813  10.030554   1.825260
     6  C    2.102432  -8.576266  -3.324262  -0.405353   1.825260  14.508265
     7  O    0.297540  -1.016208   0.161487  -0.082705   0.065198   0.489852
     8  O   -0.795701   0.449618   0.315130  -0.038731  -0.004941   0.074621
     9  C    0.062009  -0.014128  -0.091104  -0.145542  -0.006583   0.056316
    10  O    0.244775   0.063111  -0.016861   0.004070  -0.343695   0.007782
    11  C   -0.226623  -0.150679  -0.011287   0.015708   0.086515   0.221169
    12  C   -3.030461   0.756592  -0.697765  -1.965145   1.319954  -0.816435
    13  C    0.002205  -0.542997  -2.078839  -0.637224   0.719501   0.105973
    14  C   -0.043870   0.040309  -0.441187  -0.749333   0.180157   0.037991
    15  O    0.000289   0.000743   0.012931   0.079533  -0.027430  -0.001645
    16  O   -0.000178  -0.003224   0.052964   0.117848  -0.025496  -0.000028
    17  H    0.035037  -0.204823   0.156562   0.172488   0.035433  -0.008906
    18  H    0.025631   0.002900   0.077554   0.171238   0.155981  -0.094671
    19  H   -0.022601   0.395738   0.020125   0.000186  -0.003071  -0.373928
    20  H    0.087175   0.043312  -0.097781  -0.011597  -0.002916   0.010290
    21  H   -0.048447  -0.074883   0.086586   0.025823   0.006559  -0.007919
    22  H   -0.047925  -0.074896   0.086183   0.025859   0.006523  -0.007880
    23  H   -0.036118  -0.002332  -0.002656   0.002398   0.000260   0.058765
    24  H    0.053124   0.010319   0.001989  -0.003211  -0.007192  -0.055196
    25  H    0.056113   0.010500   0.001930  -0.003223  -0.008120  -0.057069
    26  H    0.018864   0.035982   0.192266  -0.000828  -0.042707  -0.002915
    27  H   -0.001056   0.002620   0.041731   0.110180  -0.035310  -0.009809
    28  H    0.000049   0.000026  -0.000278  -0.005413   0.003346   0.000175
               7          8          9         10         11         12
     1  C    0.297540  -0.795701   0.062009   0.244775  -0.226623  -3.030461
     2  C   -1.016208   0.449618  -0.014128   0.063111  -0.150679   0.756592
     3  C    0.161487   0.315130  -0.091104  -0.016861  -0.011287  -0.697765
     4  C   -0.082705  -0.038731  -0.145542   0.004070   0.015708  -1.965145
     5  C    0.065198  -0.004941  -0.006583  -0.343695   0.086515   1.319954
     6  C    0.489852   0.074621   0.056316   0.007782   0.221169  -0.816435
     7  O    8.427571   0.055307  -0.004984  -0.017210   0.004049   0.012656
     8  O    0.055307   8.454106   0.048225  -0.001284   0.001073  -0.025330
     9  C   -0.004984   0.048225   5.012748  -0.000294   0.000128  -0.003693
    10  O   -0.017210  -0.001284  -0.000294   8.583432   0.021897  -0.016564
    11  C    0.004049   0.001073   0.000128   0.021897   4.997587  -0.009283
    12  C    0.012656  -0.025330  -0.003693  -0.016564  -0.009283  10.341471
    13  C   -0.000498  -0.003249  -0.013226   0.009258  -0.000423  -0.836760
    14  C    0.000267  -0.000076  -0.000712   0.000141  -0.000395   0.441237
    15  O    0.000000   0.000000  -0.000001   0.000003   0.000000  -0.099676
    16  O    0.000000   0.000002   0.000084  -0.000004   0.000005   0.093786
    17  H   -0.000655  -0.011725  -0.002682   0.000136   0.000020   0.099990
    18  H   -0.000328   0.000112   0.000121  -0.016217  -0.002267  -0.024544
    19  H    0.157274  -0.004552   0.000856   0.005821   0.017078   0.005230
    20  H   -0.001227  -0.084550   0.423699  -0.000003   0.000031  -0.001348
    21  H    0.000161  -0.034233   0.404010   0.000004  -0.000024   0.002008
    22  H    0.000159  -0.034238   0.403932   0.000004  -0.000023   0.001958
    23  H    0.002033   0.000004   0.000010  -0.079659   0.422290   0.000267
    24  H   -0.011775  -0.000102  -0.000053  -0.040396   0.395940  -0.000148
    25  H   -0.012133  -0.000105  -0.000055  -0.040383   0.395516  -0.000164
    26  H   -0.000012   0.000071   0.000477   0.000020   0.000008   0.285285
    27  H   -0.000004   0.000003   0.000050  -0.000017   0.000096  -0.015754
    28  H   -0.000000   0.000000  -0.000001   0.000000  -0.000000   0.034638
              13         14         15         16         17         18
     1  C    0.002205  -0.043870   0.000289  -0.000178   0.035037   0.025631
     2  C   -0.542997   0.040309   0.000743  -0.003224  -0.204823   0.002900
     3  C   -2.078839  -0.441187   0.012931   0.052964   0.156562   0.077554
     4  C   -0.637224  -0.749333   0.079533   0.117848   0.172488   0.171238
     5  C    0.719501   0.180157  -0.027430  -0.025496   0.035433   0.155981
     6  C    0.105973   0.037991  -0.001645  -0.000028  -0.008906  -0.094671
     7  O   -0.000498   0.000267   0.000000   0.000000  -0.000655  -0.000328
     8  O   -0.003249  -0.000076   0.000000   0.000002  -0.011725   0.000112
     9  C   -0.013226  -0.000712  -0.000001   0.000084  -0.002682   0.000121
    10  O    0.009258   0.000141   0.000003  -0.000004   0.000136  -0.016217
    11  C   -0.000423  -0.000395   0.000000   0.000005   0.000020  -0.002267
    12  C   -0.836760   0.441237  -0.099676   0.093786   0.099990  -0.024544
    13  C   10.407220  -0.831682   0.277237  -0.189571   0.036979  -0.001723
    14  C   -0.831682   6.516597  -0.214557   0.292262   0.000998   0.017747
    15  O    0.277237  -0.214557   8.386052  -0.137773   0.000000   0.000113
    16  O   -0.189571   0.292262  -0.137773   8.307545  -0.000047   0.000042
    17  H    0.036979   0.000998   0.000000  -0.000047   0.545958  -0.000123
    18  H   -0.001723   0.017747   0.000113   0.000042  -0.000123   0.540575
    19  H    0.000396   0.000033   0.000000   0.000000   0.000003  -0.000007
    20  H    0.000113  -0.000001  -0.000000  -0.000000   0.000175  -0.000000
    21  H   -0.000475  -0.000010   0.000000   0.000000  -0.001460   0.000000
    22  H   -0.000474  -0.000011   0.000000   0.000000  -0.001458   0.000000
    23  H   -0.000126  -0.000001   0.000000  -0.000000   0.000000  -0.000028
    24  H    0.000149   0.000005  -0.000000   0.000000  -0.000000   0.000003
    25  H    0.000155   0.000005  -0.000000   0.000000  -0.000000   0.000003
    26  H   -0.159051  -0.020873   0.000958  -0.003724   0.002399  -0.000021
    27  H    0.266709  -0.040450  -0.005803   0.004359  -0.000001   0.000877
    28  H   -0.064885   0.064064   0.201360   0.006819  -0.000000  -0.000000
              19         20         21         22         23         24
     1  C   -0.022601   0.087175  -0.048447  -0.047925  -0.036118   0.053124
     2  C    0.395738   0.043312  -0.074883  -0.074896  -0.002332   0.010319
     3  C    0.020125  -0.097781   0.086586   0.086183  -0.002656   0.001989
     4  C    0.000186  -0.011597   0.025823   0.025859   0.002398  -0.003211
     5  C   -0.003071  -0.002916   0.006559   0.006523   0.000260  -0.007192
     6  C   -0.373928   0.010290  -0.007919  -0.007880   0.058765  -0.055196
     7  O    0.157274  -0.001227   0.000161   0.000159   0.002033  -0.011775
     8  O   -0.004552  -0.084550  -0.034233  -0.034238   0.000004  -0.000102
     9  C    0.000856   0.423699   0.404010   0.403932   0.000010  -0.000053
    10  O    0.005821  -0.000003   0.000004   0.000004  -0.079659  -0.040396
    11  C    0.017078   0.000031  -0.000024  -0.000023   0.422290   0.395940
    12  C    0.005230  -0.001348   0.002008   0.001958   0.000267  -0.000148
    13  C    0.000396   0.000113  -0.000475  -0.000474  -0.000126   0.000149
    14  C    0.000033  -0.000001  -0.000010  -0.000011  -0.000001   0.000005
    15  O    0.000000  -0.000000   0.000000   0.000000   0.000000  -0.000000
    16  O    0.000000  -0.000000   0.000000   0.000000  -0.000000   0.000000
    17  H    0.000003   0.000175  -0.001460  -0.001458   0.000000  -0.000000
    18  H   -0.000007  -0.000000   0.000000   0.000000  -0.000028   0.000003
    19  H    0.431238  -0.000003   0.000000   0.000000  -0.000433   0.005968
    20  H   -0.000003   0.520945  -0.026089  -0.026090  -0.000000  -0.000000
    21  H    0.000000  -0.026089   0.557884  -0.042947   0.000000  -0.000000
    22  H    0.000000  -0.026090  -0.042947   0.557880   0.000000   0.000000
    23  H   -0.000433  -0.000000   0.000000   0.000000   0.507902  -0.026167
    24  H    0.005968  -0.000000  -0.000000   0.000000  -0.026167   0.570491
    25  H    0.006221  -0.000000   0.000000  -0.000000  -0.026197  -0.046322
    26  H   -0.000000   0.000000  -0.000002  -0.000002   0.000000  -0.000000
    27  H   -0.000000  -0.000000   0.000000   0.000000   0.000000  -0.000000
    28  H    0.000000   0.000000   0.000000   0.000000   0.000000   0.000000
              25         26         27         28
     1  C    0.056113   0.018864  -0.001056   0.000049
     2  C    0.010500   0.035982   0.002620   0.000026
     3  C    0.001930   0.192266   0.041731  -0.000278
     4  C   -0.003223  -0.000828   0.110180  -0.005413
     5  C   -0.008120  -0.042707  -0.035310   0.003346
     6  C   -0.057069  -0.002915  -0.009809   0.000175
     7  O   -0.012133  -0.000012  -0.000004  -0.000000
     8  O   -0.000105   0.000071   0.000003   0.000000
     9  C   -0.000055   0.000477   0.000050  -0.000001
    10  O   -0.040383   0.000020  -0.000017   0.000000
    11  C    0.395516   0.000008   0.000096  -0.000000
    12  C   -0.000164   0.285285  -0.015754   0.034638
    13  C    0.000155  -0.159051   0.266709  -0.064885
    14  C    0.000005  -0.020873  -0.040450   0.064064
    15  O   -0.000000   0.000958  -0.005803   0.201360
    16  O    0.000000  -0.003724   0.004359   0.006819
    17  H   -0.000000   0.002399  -0.000001  -0.000000
    18  H    0.000003  -0.000021   0.000877  -0.000000
    19  H    0.006221  -0.000000  -0.000000   0.000000
    20  H   -0.000000   0.000000  -0.000000   0.000000
    21  H    0.000000  -0.000002   0.000000   0.000000
    22  H   -0.000000  -0.000002   0.000000   0.000000
    23  H   -0.026197   0.000000   0.000000   0.000000
    24  H   -0.046322  -0.000000  -0.000000   0.000000
    25  H    0.571200  -0.000000  -0.000000   0.000000
    26  H   -0.000000   0.516633   0.003589  -0.000003
    27  H   -0.000000   0.003589   0.521290   0.000005
    28  H    0.000000  -0.000003   0.000005   0.378421
 Mulliken charges:
               1
     1  C   -0.008376
     2  C    0.185656
     3  C   -0.071600
     4  C   -0.328637
     5  C   -0.226610
     6  C    0.243392
     7  O   -0.525815
     8  O   -0.359457
     9  C   -0.129608
    10  O   -0.367865
    11  C   -0.178107
    12  C    0.147999
    13  C   -0.464689
    14  C    0.751345
    15  O   -0.472336
    16  O   -0.515672
    17  H    0.145705
    18  H    0.147031
    19  H    0.358426
    20  H    0.165866
    21  H    0.153455
    22  H    0.153447
    23  H    0.179787
    24  H    0.152575
    25  H    0.152129
    26  H    0.173585
    27  H    0.156694
    28  H    0.381678
 Sum of Mulliken charges =  -0.00000
 Mulliken charges with hydrogens summed into heavy atoms:
               1
     1  C   -0.008376
     2  C    0.185656
     3  C    0.074105
     4  C   -0.328637
     5  C   -0.079579
     6  C    0.243392
     7  O   -0.167389
     8  O   -0.359457
     9  C    0.343160
    10  O   -0.367865
    11  C    0.306385
    12  C    0.321585
    13  C   -0.307995
    14  C    0.751345
    15  O   -0.090658
    16  O   -0.515672
 Electronic spatial extent (au):  <R**2>=           5244.8644
 Charge=             -0.0000 electrons
 Dipole moment (field-independent basis, Debye):
    X=             -3.3171    Y=             -1.6588    Z=             -0.0009  Tot=              3.7088
 Quadrupole moment (field-independent basis, Debye-Ang):
   XX=            -91.0427   YY=            -79.4980   ZZ=            -96.1062
   XY=              3.4126   XZ=              0.0079   YZ=             -0.0022
 Traceless Quadrupole moment (field-independent basis, Debye-Ang):
   XX=             -2.1604   YY=              9.3843   ZZ=             -7.2239
   XY=              3.4126   XZ=              0.0079   YZ=             -0.0022
 Octapole moment (field-independent basis, Debye-Ang**2):
  XXX=              4.5058  YYY=             20.2252  ZZZ=              0.0066  XYY=            -67.2187
  XXY=            -96.7517  XXZ=             -0.0420  XZZ=             -1.3775  YZZ=             -0.8370
  YYZ=              0.0235  XYZ=             -0.0173
 Hexadecapole moment (field-independent basis, Debye-Ang**3):
 XXXX=          -4116.9062 YYYY=          -1530.1196 ZZZZ=           -113.9333 XXXY=            -43.6676
 XXXZ=              0.1329 YYYX=              1.7852 YYYZ=             -0.0365 ZZZX=             -0.2731
 ZZZY=              0.0480 XXYY=          -1029.6363 XXZZ=           -811.4930 YYZZ=           -320.0839
 XXYZ=              0.0286 YYXZ=             -0.1575 ZZXY=              5.1769
 N-N= 1.050449389012D+03 E-N=-3.973574514460D+03  KE= 7.950004082619D+02
 Calling FoFJK, ICntrl=      2127 FMM=F ISym2X=0 I1Cent= 0 IOpClX= 0 NMat=1 NMatS=1 NMatT=0.
 ***** Axes restored to original set *****
 -------------------------------------------------------------------
 Center     Atomic                   Forces (Hartrees/Bohr)
 Number     Number              X              Y              Z
 -------------------------------------------------------------------
      1        6           0.001707157   -0.000705448    0.000006911
      2        6           0.001825991    0.001514418    0.000000659
      3        6           0.000713284   -0.004085563    0.000001380
      4        6           0.008361272   -0.002343164    0.000000465
      5        6           0.000064223    0.004714289   -0.000004652
      6        6           0.003063661   -0.001215504   -0.000024492
      7        8          -0.004571855   -0.002792836    0.000004537
      8        8          -0.005366789    0.000255221   -0.000001531
      9        6           0.001025677   -0.005284770    0.000002149
     10        8           0.002890271    0.003548276    0.000031834
     11        6          -0.004073822    0.002002201   -0.000020639
     12        6          -0.008529572   -0.003778282    0.000001836
     13        6           0.006482276    0.003944505    0.000020128
     14        6          -0.009746065    0.002756100   -0.000072725
     15        8           0.001525050    0.008752265    0.000020737
     16        8           0.003654700   -0.009621973    0.000028833
     17        1          -0.000312260    0.000639613   -0.000000790
     18        1           0.000026252   -0.000516204   -0.000000685
     19        1          -0.001464745    0.003972844   -0.000005078
     20        1          -0.000265325   -0.000409965   -0.000000088
     21        1           0.000436219   -0.000140723    0.000013012
     22        1           0.000435572   -0.000140380   -0.000013354
     23        1          -0.000378210    0.000656423   -0.000000633
     24        1          -0.000632266   -0.000242763    0.000095581
     25        1          -0.000634327   -0.000255325   -0.000086566
     26        1          -0.000402306    0.000388117    0.000000020
     27        1          -0.000103127   -0.000227660    0.000001056
     28        1           0.004269063   -0.001383711    0.000002093
 -------------------------------------------------------------------
 Cartesian Forces:  Max     0.009746065 RMS     0.002960637

 GradGradGradGradGradGradGradGradGradGradGradGradGradGradGradGradGradGrad
 Berny optimization.
 FormGI is forming the generalized inverse of G from B-inverse, IUseBI=4.
 Internal  Forces:  Max     0.010287380 RMS     0.002272159
 Search for a local minimum.
 Step number   1 out of a maximum of  131
 All quantities printed in internal units (Hartrees-Bohrs-Radians)
 Mixed Optimization -- RFO/linear search
 Second derivative matrix not updated -- first step.
 ITU=  0
     Eigenvalues ---    0.01189   0.01325   0.01406   0.01457   0.01489
     Eigenvalues ---    0.01826   0.01936   0.01976   0.01983   0.02029
     Eigenvalues ---    0.02032   0.02049   0.02054   0.02083   0.02099
     Eigenvalues ---    0.02105   0.02131   0.02138   0.02169   0.02210
     Eigenvalues ---    0.02769   0.09813   0.10065   0.10679   0.10738
     Eigenvalues ---    0.16000   0.16000   0.16000   0.16000   0.16000
     Eigenvalues ---    0.16000   0.16000   0.16000   0.16000   0.16000
     Eigenvalues ---    0.16000   0.16000   0.22000   0.22000   0.23467
     Eigenvalues ---    0.23485   0.25000   0.25000   0.25000   0.25000
     Eigenvalues ---    0.25000   0.25000   0.25000   0.25000   0.25000
     Eigenvalues ---    0.33810   0.33816   0.34019   0.34019   0.34703
     Eigenvalues ---    0.34801   0.34958   0.35500   0.35610   0.35723
     Eigenvalues ---    0.35976   0.37250   0.40650   0.41444   0.42219
     Eigenvalues ---    0.42798   0.44243   0.44450   0.45926   0.46935
     Eigenvalues ---    0.49377   0.51130   0.52167   0.52783   0.53082
     Eigenvalues ---    0.55285   0.55331   0.95391
 RFO step:  Lambda=-1.22549735D-03 EMin= 1.18869435D-02
 Linear search not attempted -- first point.
 Iteration  1 RMS(Cart)=  0.01357335 RMS(Int)=  0.00001917
 Iteration  2 RMS(Cart)=  0.00004255 RMS(Int)=  0.00000143
 Iteration  3 RMS(Cart)=  0.00000000 RMS(Int)=  0.00000143
 Variable       Old X    -DE/DX   Delta X   Delta X   Delta X     New X
                                 (Linear)    (Quad)   (Total)
    R1        2.67790  -0.00453   0.00000  -0.01046  -0.01046   2.66745
    R2        2.66035  -0.00467   0.00000  -0.01046  -0.01046   2.64989
    R3        2.58742  -0.00605   0.00000  -0.01180  -0.01180   2.57562
    R4        2.62606  -0.00345   0.00000  -0.00726  -0.00726   2.61880
    R5        2.57156  -0.00676   0.00000  -0.01277  -0.01277   2.55879
    R6        2.66284  -0.00457   0.00000  -0.01038  -0.01038   2.65246
    R7        2.04516   0.00071   0.00000   0.00198   0.00198   2.04715
    R8        2.63807  -0.00546   0.00000  -0.01182  -0.01182   2.62625
    R9        2.75472   0.00295   0.00000   0.00789   0.00789   2.76261
   R10        2.64126  -0.00260   0.00000  -0.00564  -0.00564   2.63562
   R11        2.04696   0.00041   0.00000   0.00115   0.00115   2.04811
   R12        2.60500  -0.00624   0.00000  -0.01261  -0.01261   2.59238
   R13        1.81580  -0.00423   0.00000  -0.00764  -0.00764   1.80816
   R14        2.68645  -0.00618   0.00000  -0.01460  -0.01460   2.67185
   R15        2.06000  -0.00045   0.00000  -0.00130  -0.00130   2.05870
   R16        2.07298  -0.00028   0.00000  -0.00081  -0.00081   2.07217
   R17        2.07298  -0.00028   0.00000  -0.00081  -0.00081   2.07217
   R18        2.67920  -0.00612   0.00000  -0.01425  -0.01425   2.66494
   R19        2.06160  -0.00063   0.00000  -0.00181  -0.00181   2.05978
   R20        2.07641  -0.00046   0.00000  -0.00135  -0.00135   2.07506
   R21        2.07651  -0.00046   0.00000  -0.00135  -0.00135   2.07517
   R22        2.54839  -0.00733   0.00000  -0.01323  -0.01323   2.53517
   R23        2.05743   0.00049   0.00000   0.00140   0.00140   2.05883
   R24        2.77420   0.00044   0.00000   0.00121   0.00121   2.77540
   R25        2.04871   0.00020   0.00000   0.00057   0.00057   2.04928
   R26        2.57740  -0.00938   0.00000  -0.01794  -0.01794   2.55945
   R27        2.30543  -0.01029   0.00000  -0.01077  -0.01077   2.29466
   R28        1.83577  -0.00448   0.00000  -0.00841  -0.00841   1.82736
    A1        2.07043  -0.00042   0.00000  -0.00146  -0.00146   2.06897
    A2        2.00091  -0.00127   0.00000  -0.00516  -0.00516   1.99575
    A3        2.21185   0.00169   0.00000   0.00662   0.00662   2.21847
    A4        2.11011   0.00062   0.00000   0.00265   0.00265   2.11275
    A5        1.99901  -0.00100   0.00000  -0.00407  -0.00407   1.99494
    A6        2.17407   0.00038   0.00000   0.00142   0.00142   2.17549
    A7        2.10049  -0.00048   0.00000  -0.00220  -0.00219   2.09829
    A8        2.10318   0.00027   0.00000   0.00126   0.00126   2.10444
    A9        2.07952   0.00021   0.00000   0.00094   0.00094   2.08046
   A10        2.07183   0.00027   0.00000   0.00092   0.00092   2.07275
   A11        2.06482  -0.00007   0.00000  -0.00020  -0.00020   2.06462
   A12        2.14653  -0.00020   0.00000  -0.00072  -0.00072   2.14581
   A13        2.12228   0.00013   0.00000   0.00049   0.00049   2.12277
   A14        2.12182   0.00025   0.00000   0.00172   0.00172   2.12354
   A15        2.03909  -0.00038   0.00000  -0.00221  -0.00221   2.03688
   A16        2.09124  -0.00012   0.00000  -0.00040  -0.00040   2.09084
   A17        2.22336   0.00171   0.00000   0.00677   0.00677   2.23013
   A18        1.96859  -0.00159   0.00000  -0.00637  -0.00637   1.96222
   A19        1.94125   0.00006   0.00000   0.00038   0.00038   1.94163
   A20        2.05846  -0.00118   0.00000  -0.00468  -0.00468   2.05378
   A21        1.84390  -0.00034   0.00000  -0.00264  -0.00265   1.84125
   A22        1.94243  -0.00013   0.00000  -0.00050  -0.00050   1.94193
   A23        1.94243  -0.00013   0.00000  -0.00049  -0.00049   1.94194
   A24        1.91131   0.00003   0.00000  -0.00037  -0.00038   1.91093
   A25        1.91131   0.00003   0.00000  -0.00037  -0.00037   1.91094
   A26        1.91121   0.00050   0.00000   0.00411   0.00410   1.91531
   A27        2.16397   0.00009   0.00000   0.00035   0.00035   2.16432
   A28        1.84147  -0.00066   0.00000  -0.00486  -0.00486   1.83661
   A29        1.95621  -0.00026   0.00000  -0.00120  -0.00121   1.95501
   A30        1.95620  -0.00026   0.00000  -0.00121  -0.00121   1.95499
   A31        1.88026   0.00020   0.00000   0.00051   0.00051   1.88077
   A32        1.87997   0.00020   0.00000   0.00046   0.00045   1.88042
   A33        1.94352   0.00074   0.00000   0.00582   0.00581   1.94933
   A34        2.22820  -0.00068   0.00000  -0.00306  -0.00306   2.22514
   A35        2.02438   0.00061   0.00000   0.00323   0.00323   2.02762
   A36        2.03060   0.00006   0.00000  -0.00018  -0.00018   2.03043
   A37        2.09562  -0.00129   0.00000  -0.00582  -0.00582   2.08981
   A38        2.14917   0.00079   0.00000   0.00382   0.00382   2.15300
   A39        2.03839   0.00050   0.00000   0.00199   0.00199   2.04038
   A40        1.94730   0.00035   0.00000   0.00140   0.00140   1.94870
   A41        2.21297  -0.00026   0.00000  -0.00104  -0.00104   2.21194
   A42        2.12291  -0.00009   0.00000  -0.00036  -0.00036   2.12255
   A43        1.85955  -0.00051   0.00000  -0.00316  -0.00316   1.85639
    D1        0.00026   0.00000   0.00000   0.00006   0.00006   0.00032
    D2       -3.14143   0.00000   0.00000   0.00004   0.00004  -3.14139
    D3       -3.14153   0.00000   0.00000   0.00007   0.00007  -3.14145
    D4       -0.00003   0.00000   0.00000   0.00005   0.00005   0.00003
    D5       -0.00035  -0.00000   0.00000  -0.00008  -0.00008  -0.00043
    D6        3.14126  -0.00000   0.00000  -0.00010  -0.00010   3.14116
    D7        3.14146  -0.00000   0.00000  -0.00009  -0.00009   3.14136
    D8       -0.00012  -0.00000   0.00000  -0.00011  -0.00011  -0.00023
    D9        3.13899  -0.00001   0.00000  -0.00025  -0.00025   3.13873
   D10       -0.00281  -0.00001   0.00000  -0.00024  -0.00024  -0.00305
   D11       -0.00003   0.00000   0.00000   0.00001   0.00001  -0.00002
   D12        3.14149  -0.00000   0.00000  -0.00001  -0.00001   3.14148
   D13       -3.14152   0.00000   0.00000   0.00003   0.00003  -3.14149
   D14        0.00000   0.00000   0.00000   0.00001   0.00001   0.00001
   D15       -3.14156  -0.00000   0.00000  -0.00003  -0.00003  -3.14159
   D16       -0.00006  -0.00000   0.00000  -0.00005  -0.00005  -0.00011
   D17       -0.00010  -0.00000   0.00000  -0.00006  -0.00006  -0.00015
   D18        3.14154  -0.00000   0.00000  -0.00005  -0.00005   3.14149
   D19        3.14156  -0.00000   0.00000  -0.00004  -0.00004   3.14153
   D20        0.00002  -0.00000   0.00000  -0.00003  -0.00003  -0.00001
   D21       -0.00000   0.00000   0.00000   0.00004   0.00004   0.00004
   D22       -3.14144   0.00000   0.00000   0.00005   0.00005  -3.14139
   D23        3.14155   0.00000   0.00000   0.00003   0.00003   3.14157
   D24        0.00010   0.00000   0.00000   0.00004   0.00004   0.00015
   D25        3.14149   0.00000   0.00000   0.00004   0.00004   3.14153
   D26       -0.00010   0.00000   0.00000   0.00005   0.00005  -0.00004
   D27       -0.00006   0.00000   0.00000   0.00005   0.00005  -0.00001
   D28        3.14154   0.00000   0.00000   0.00007   0.00007  -3.14158
   D29        0.00023   0.00000   0.00000   0.00004   0.00004   0.00026
   D30       -3.14138   0.00000   0.00000   0.00005   0.00005  -3.14133
   D31       -3.14151   0.00000   0.00000   0.00002   0.00002  -3.14149
   D32        0.00007   0.00000   0.00000   0.00003   0.00003   0.00010
   D33       -0.00165  -0.00001   0.00000  -0.00058  -0.00058  -0.00223
   D34        3.13996  -0.00001   0.00000  -0.00060  -0.00060   3.13936
   D35       -3.14157   0.00000   0.00000  -0.00002  -0.00002  -3.14159
   D36       -1.06851  -0.00023   0.00000  -0.00232  -0.00232  -1.07083
   D37        1.06856   0.00023   0.00000   0.00227   0.00226   1.07083
   D38       -3.14042   0.00001   0.00000   0.00065   0.00065  -3.13977
   D39       -1.09876  -0.00028   0.00000  -0.00226  -0.00225  -1.10101
   D40        1.10146   0.00030   0.00000   0.00362   0.00362   1.10508
   D41        3.14159   0.00000   0.00000   0.00005   0.00005  -3.14155
   D42       -0.00001   0.00000   0.00000   0.00005   0.00005   0.00004
   D43       -0.00001   0.00000   0.00000   0.00003   0.00003   0.00002
   D44        3.14158   0.00000   0.00000   0.00003   0.00003  -3.14157
   D45        3.14134   0.00002   0.00000   0.00107   0.00107  -3.14077
   D46        0.00023  -0.00002   0.00000  -0.00101  -0.00101  -0.00078
   D47       -0.00025   0.00002   0.00000   0.00107   0.00107   0.00082
   D48       -3.14136  -0.00002   0.00000  -0.00101  -0.00101   3.14082
   D49       -3.14136  -0.00002   0.00000  -0.00099  -0.00099   3.14083
   D50       -0.00022   0.00002   0.00000   0.00096   0.00096   0.00074
         Item               Value     Threshold  Converged?
 Maximum Force            0.010287     0.000450     NO 
 RMS     Force            0.002272     0.000300     NO 
 Maximum Displacement     0.049819     0.001800     NO 
 RMS     Displacement     0.013572     0.001200     NO 
 Predicted change in Energy=-6.143925D-04
 GradGradGradGradGradGradGradGradGradGradGradGradGradGradGradGradGradGrad

                          Input orientation:                          
 ---------------------------------------------------------------------
 Center     Atomic      Atomic             Coordinates (Angstroms)
 Number     Number       Type             X           Y           Z
 ---------------------------------------------------------------------
      1          6           0        2.276684   -0.113044    0.001054
      2          6           0        1.695508    1.173312    0.000423
      3          6           0        0.319271    1.335919   -0.000111
      4          6           0       -0.524700    0.214371   -0.000062
      5          6           0        0.046727   -1.052465    0.000342
      6          6           0        1.429985   -1.230824    0.000740
      7          8           0        3.639642   -0.113865    0.001704
      8          8           0        2.590693    2.189239    0.000536
      9          6           0        2.085336    3.509724   -0.000067
     10          8           0        1.786884   -2.555415    0.000765
     11          6           0        3.120863   -3.012840   -0.001481
     12          6           0       -1.969915    0.434683   -0.000510
     13          6           0       -2.937527   -0.494557   -0.000612
     14          6           0       -4.346295   -0.079354   -0.001144
     15          8           0       -5.181529   -1.145560   -0.000143
     16          8           0       -4.767830    1.059413   -0.000766
     17          1           0       -0.118531    2.326814   -0.000486
     18          1           0       -0.560147   -1.950440    0.000208
     19          1           0        3.985855   -1.005868    0.004664
     20          1           0        2.961768    4.156789    0.000140
     21          1           0        1.486067    3.705790   -0.897199
     22          1           0        1.485255    3.706310    0.896408
     23          1           0        3.050578   -4.100562   -0.002699
     24          1           0        3.657990   -2.710884   -0.910374
     25          1           0        3.660185   -2.713408    0.907014
     26          1           0       -2.297644    1.473709   -0.000816
     27          1           0       -2.740211   -1.560887   -0.000321
     28          1           0       -6.079931   -0.787847    0.000133
 ---------------------------------------------------------------------
                    Distance matrix (angstroms):
                    1          2          3          4          5
     1  C    0.000000
     2  C    1.411551   0.000000
     3  C    2.435357   1.385811   0.000000
     4  C    2.820453   2.418448   1.403622   0.000000
     5  C    2.419757   2.769939   2.403884   1.389749   0.000000
     6  C    1.402260   2.418754   2.796758   2.430922   1.394710
     7  O    1.362958   2.331626   3.623084   4.177258   3.713491
     8  O    2.323598   1.354054   2.426420   3.688601   4.120729
     9  C    3.627818   2.368710   2.800789   4.203765   4.996949
    10  O    2.491000   3.729846   4.158890   3.607650   2.299349
    11  C    3.020175   4.422160   5.173067   4.868780   3.646009
    12  C    4.281776   3.739104   2.460202   1.461911   2.505684
    13  C    5.228150   4.924105   3.735957   2.514819   3.035957
    14  C    6.623065   6.170296   4.875500   3.832866   4.499509
    15  O    7.529345   7.257466   6.034612   4.851337   5.229085
    16  O    7.141418   6.464342   5.094610   4.326460   5.257375
    17  H    3.419059   2.149723   1.083303   2.151136   3.383318
    18  H    3.379887   3.853026   3.401989   2.165102   1.083815
    19  H    1.928318   3.161412   4.350612   4.672698   3.939406
    20  H    4.324443   3.241072   3.865243   5.262900   5.969404
    21  H    4.001928   2.695002   2.789708   4.127716   5.051561
    22  H    4.001935   2.695010   2.789628   4.127616   5.051558
    23  H    4.061924   5.445178   6.084025   5.603683   4.279489
    24  H    3.080175   4.446106   5.324681   5.184658   4.076883
    25  H    3.081677   4.448421   5.327441   5.187286   4.078954
    26  H    4.841721   4.004435   2.620539   2.174687   3.446393
    27  H    5.221637   5.210705   4.213302   2.839020   2.832934
    28  H    8.383817   8.018953   6.742416   5.644913   6.132370
                    6          7          8          9         10
     6  C    0.000000
     7  O    2.475921   0.000000
     8  O    3.611658   2.530727   0.000000
     9  C    4.785633   3.942875   1.413884   0.000000
    10  O    1.371830   3.064944   4.812260   6.072478   0.000000
    11  C    2.456553   2.945030   5.229025   6.604253   1.410227
    12  C    3.785926   5.636314   4.886472   5.089297   4.801482
    13  C    4.429137   6.588178   6.145241   6.423661   5.154338
    14  C    5.889932   7.986012   7.298515   7.365281   6.614134
    15  O    6.612064   8.881298   8.457442   8.630122   7.109605
    16  O    6.607428   8.488945   7.444755   7.278043   7.485404
    17  H    3.880038   4.481159   2.712715   2.501261   5.240875
    18  H    2.116240   4.583802   5.202378   6.067287   2.423747
    19  H    2.565753   0.956840   3.486431   4.899241   2.690090
    20  H    5.601137   4.324118   2.002236   1.089415   6.814252
    21  H    5.017928   4.476122   2.079917   1.096544   6.332418
    22  H    5.018025   4.476116   2.079925   1.096545   6.332642
    23  H    3.295713   4.029984   6.306592   7.671255   1.996099
    24  H    2.825723   2.752586   5.097066   6.480576   2.086955
    25  H    2.827221   2.752750   5.099163   6.483080   2.086984
    26  H    4.605401   6.145873   4.940427   4.832791   5.737352
    27  H    4.183238   6.541896   6.517820   6.999786   4.635049
    28  H    7.522970   9.742913   9.167484   9.227172   8.062945
                   11         12         13         14         15
    11  C    0.000000
    12  C    6.148286   0.000000
    13  C    6.560932   1.341552   0.000000
    14  C    8.022704   2.431340   1.468680   0.000000
    15  O    8.509785   3.579334   2.336525   1.354405   0.000000
    16  O    8.877766   2.866814   2.401007   1.214283   2.243447
    17  H    6.245445   2.647222   3.988342   4.864528   6.139327
    18  H    3.831257   2.770606   2.787747   4.223255   4.690949
    19  H    2.185449   6.127512   6.942239   8.383506   9.168449
    20  H    7.171394   6.178638   7.512436   8.447052   9.717417
    21  H    6.972435   4.842314   6.165628   7.010469   8.294405
    22  H    6.973406   4.842128   6.165463   7.010265   8.294001
    23  H    1.089991   6.765633   6.990041   8.419254   8.746407
    24  H    1.098076   6.511202   7.017166   8.474681   9.023073
    25  H    1.098130   6.513992   7.019750   8.477423   9.025352
    26  H    7.034865   1.089487   2.069667   2.570793   3.895814
    27  H    6.038241   2.139078   1.084432   2.185050   2.476395
    28  H    9.466003   4.287985   3.156062   1.872821   0.966998
                   16         17         18         19         20
    16  O    0.000000
    17  H    4.818951   0.000000
    18  H    5.173376   4.299992   0.000000
    19  H    8.994021   5.287039   4.643099   0.000000
    20  H    8.327090   3.582883   7.049974   5.263250   0.000000
    21  H    6.849681   2.297913   6.081551   5.409437   1.785024
    22  H    6.849238   2.297729   6.081584   5.408589   1.785026
    23  H    9.367649   7.166200   4.202424   3.232944   8.257829
    24  H    9.275612   6.361478   4.381793   1.962618   6.962664
    25  H    9.278453   6.364439   4.383562   1.958569   6.964899
    26  H    2.504688   2.340154   3.839751   6.755048   5.904264
    27  H    3.313188   4.689075   2.214595   6.748928   8.074923
    28  H    2.265829   6.726025   5.640890  10.068148  10.305423
                   21         22         23         24         25
    21  H    0.000000
    22  H    1.793607   0.000000
    23  H    8.011676   8.012857   0.000000
    24  H    6.774299   7.011820   1.767492   0.000000
    25  H    7.013421   6.778142   1.767313   1.817391   0.000000
    26  H    4.483543   4.483284   7.725022   7.335372   7.338380
    27  H    6.812026   6.811905   6.323226   6.564119   6.566325
    28  H    8.845468   8.844931   9.712893   9.967658   9.969959
                   26         27         28
    26  H    0.000000
    27  H    3.066698   0.000000
    28  H    4.406851   3.428020   0.000000
 Stoichiometry    C11H12O5
 Framework group  C1[X(C11H12O5)]
 Deg. of freedom    78
 Full point group                 C1      NOp   1
 Largest Abelian subgroup         C1      NOp   1
 Largest concise Abelian subgroup C1      NOp   1
                         Standard orientation:                         
 ---------------------------------------------------------------------
 Center     Atomic      Atomic             Coordinates (Angstroms)
 Number     Number       Type             X           Y           Z
 ---------------------------------------------------------------------
      1          6           0       -2.274798   -0.116201   -0.001013
      2          6           0       -1.694835    1.170702   -0.000382
      3          6           0       -0.318751    1.334606    0.000153
      4          6           0        0.526276    0.213854    0.000103
      5          6           0       -0.043957   -1.053520   -0.000301
      6          6           0       -1.427046   -1.233183   -0.000698
      7          8           0       -3.637755   -0.118306   -0.001663
      8          8           0       -2.590977    2.185785   -0.000495
      9          6           0       -2.086864    3.506746    0.000109
     10          8           0       -1.782697   -2.558109   -0.000723
     11          6           0       -3.116244   -3.016791    0.001522
     12          6           0        1.971283    0.435527    0.000551
     13          6           0        2.939770   -0.492800    0.000653
     14          6           0        4.348146   -0.076270    0.001185
     15          8           0        5.184385   -1.141688    0.000184
     16          8           0        4.768608    1.062894    0.000807
     17          1           0        0.118117    2.325913    0.000527
     18          1           0        0.563763   -1.950923   -0.000166
     19          1           0       -3.983127   -1.010635   -0.004622
     20          1           0       -2.963906    4.152984   -0.000098
     21          1           0       -1.487780    3.703376    0.897240
     22          1           0       -1.486969    3.703897   -0.896367
     23          1           0       -3.044934   -4.104447    0.002740
     24          1           0       -3.653655   -2.715341    0.910416
     25          1           0       -3.655847   -2.717868   -0.906973
     26          1           0        2.298032    1.474862    0.000857
     27          1           0        2.743459   -1.559315    0.000362
     28          1           0        6.082450   -0.783128   -0.000091
 ---------------------------------------------------------------------
 Rotational constants (GHZ):      0.7798047      0.2586146      0.1946992
 Standard basis: 6-31+G(d,p) (6D, 7F)
 There are   364 symmetry adapted cartesian basis functions of A   symmetry.
 There are   364 symmetry adapted basis functions of A   symmetry.
   364 basis functions,   596 primitive gaussians,   364 cartesian basis functions
    59 alpha electrons       59 beta electrons
       nuclear repulsion energy      1054.0781060639 Hartrees.
 NAtoms=   28 NActive=   28 NUniq=   28 SFac= 1.00D+00 NAtFMM=   60 NAOKFM=F Big=F
 Integral buffers will be    131072 words long.
 Raffenetti 2 integral format.
 Two-electron integral symmetry is turned on.
 Nuclear repulsion after empirical dispersion term =     1054.0625362723 Hartrees.
 One-electron integrals computed using PRISM.
 NBasis=   364 RedAO= T EigKep=  1.38D-06  NBF=   364
 NBsUse=   362 1.00D-06 EigRej=  5.12D-07 NBFU=   362
 Initial guess from the checkpoint file:  "lwWB97XDSA.chk"
 B after Tr=     0.000000   -0.000000    0.000000
         Rot=    1.000000   -0.000007    0.000013   -0.000297 Ang=  -0.03 deg.
 ExpMin= 4.38D-02 ExpMax= 5.48D+03 ExpMxC= 8.25D+02 IAcc=2 IRadAn=         4 AccDes= 0.00D+00
 Harris functional with IExCor= 4639 and IRadAn=       4 diagonalized for initial guess.
 HarFok:  IExCor= 4639 AccDes= 0.00D+00 IRadAn=         4 IDoV= 1 UseB2=F ITyADJ=14
 ICtDFT=  3500011 ScaDFX=  1.000000  1.000000  1.000000  1.000000
 FoFCou: FMM=F IPFlag=           0 FMFlag=      100000 FMFlg1=           0
         NFxFlg=           0 DoJE=T BraDBF=F KetDBF=T FulRan=T
         wScrn=  0.000000 ICntrl=     500 IOpCl=  0 I1Cent=   200000004 NGrid=           0
         NMat0=    1 NMatS0=      1 NMatT0=    0 NMatD0=    1 NMtDS0=    0 NMtDT0=    0
 Petite list used in FoFCou.
 Requested convergence on RMS density matrix=1.00D-08 within 128 cycles.
 Requested convergence on MAX density matrix=1.00D-06.
 Requested convergence on             energy=1.00D-06.
 No special actions if energy rises.
 SCF Done:  E(RwB97XD) =  -802.262609001     A.U. after   13 cycles
            NFock= 13  Conv=0.86D-08     -V/T= 2.0088
 Calling FoFJK, ICntrl=      2127 FMM=F ISym2X=0 I1Cent= 0 IOpClX= 0 NMat=1 NMatS=1 NMatT=0.
 ***** Axes restored to original set *****
 -------------------------------------------------------------------
 Center     Atomic                   Forces (Hartrees/Bohr)
 Number     Number              X              Y              Z
 -------------------------------------------------------------------
      1        6           0.000819528   -0.001075077    0.000010349
      2        6           0.000462391    0.001136320   -0.000001819
      3        6          -0.000599211    0.000544505    0.000001914
      4        6           0.001290671   -0.000685962    0.000007715
      5        6          -0.001918493    0.001212243   -0.000004286
      6        6           0.001021349   -0.001665487   -0.000031846
      7        8          -0.000475762   -0.000788161   -0.000005495
      8        8          -0.001593181    0.000812160   -0.000000625
      9        6           0.001405047   -0.001407443    0.000001544
     10        8           0.000983893    0.000861966    0.000047598
     11        6          -0.001680402    0.000412050   -0.000028898
     12        6          -0.001290773    0.000206951   -0.000007717
     13        6           0.001856832   -0.000125598   -0.000066377
     14        6          -0.003004963   -0.001530776    0.000228803
     15        8           0.000917458    0.001652709   -0.000070135
     16        8           0.000544876    0.000238636   -0.000087180
     17        1          -0.000020960   -0.000119654   -0.000000232
     18        1           0.000215324   -0.000139726   -0.000001135
     19        1           0.000497854   -0.000202249    0.000008400
     20        1          -0.000180747    0.000614716   -0.000000264
     21        1          -0.000063329    0.000332409   -0.000043946
     22        1          -0.000063494    0.000333217    0.000043320
     23        1           0.000573352   -0.000241721   -0.000004177
     24        1           0.000314404    0.000031001    0.000012128
     25        1           0.000314558    0.000023631   -0.000003101
     26        1           0.000193995    0.000039117   -0.000002997
     27        1          -0.000185537   -0.000031971   -0.000001393
     28        1          -0.000334678   -0.000437803   -0.000000149
 -------------------------------------------------------------------
 Cartesian Forces:  Max     0.003004963 RMS     0.000773991

 GradGradGradGradGradGradGradGradGradGradGradGradGradGradGradGradGradGrad
 Berny optimization.
[...]
 0.00004439,-0.00002005,0.00000299,-0.00001610,0.00009489,-0.00001573,-
 0.00002199,-0.00004738,0.00000510,0.00001490,-0.00007384,0.00001933,0.
 00068091,-0.00011745,-0.00005887,0.00002694,-0.00005515,0.00002039,0.0
 0003470,-0.00003804,-0.00002342,0.00069218,-0.00010234,-0.00071267,0.1
 1744373,-0.03429986,0.26569788,0.00049232,0.00045625,0.00007550,-0.001
 28439,-0.00314016,-0.00089642,0.00037943,0.00060680,-0.00027770,0.0000
 2774,-0.00025804,0.00028650,0.00017921,0.00039836,0.00008892,-0.000016
 96,-0.00032933,-0.00007160,-0.00039055,0.00004721,-0.00010428,-0.01133
 698,0.01461008,0.00960673,-0.15105384,0.00894301,0.12448339,0.00002614
 ,0.00023455,0.00000962,-0.00004941,-0.00010021,0.00000280,-0.00015011,
 0.00001116,-0.00005935,0.00021197,0.00005313,0.00001174,-0.00029917,0.
 00006129,-0.00002223,0.00010705,0.00004699,0.00000271,0.00013253,-0.00
 009050,0.00001323,-0.00019355,-0.00094294,-0.00083969,0.00001398,0.000
 00252,-0.00003984,0.00007206,-0.00005752,0.00004568,-0.01250248,0.0018
 7628,0.01919472,0.01067865,-0.00244040,-0.01255591,0.16495804,0.000225
 22,-0.00180640,0.00059852,0.00471190,0.00630698,-0.00135521,-0.0006889
 9,0.00074588,0.00015129,-0.00034488,-0.00087106,0.00034813,-0.00079960
 ,0.00041220,-0.00007975,0.00094572,0.00072649,0.00040964,-0.00024197,0
 .00004681,-0.00013606,0.02695503,-0.01983783,-0.02602202,0.00548244,-0
 .05169224,-0.00932959,-0.00003162,-0.00023012,-0.00005400,0.00002270,0
 .00005876,-0.00003886,0.00014870,-0.00004760,-0.00006410,-0.00012892,-
 0.00002330,0.00003382,0.00009684,-0.00003470,-0.00000096,-0.00002673,-
 0.00001267,0.00000128,-0.00003623,0.00003998,0.00000283,-0.00081993,-0
 .00100055,-0.00142212,-0.00002030,0.00001751,-0.00006370,-0.00009306,-
 0.00001365,-0.00001553,-0.01165850,0.00393905,0.01678494,-0.00368066,0
 .00212344,0.00182449,-0.01999703,0.06118484,-0.00022438,-0.00051405,-0
 .00024841,0.00115770,0.00146310,0.00058135,0.00099323,-0.00064496,0.00
 001098,-0.00041144,0.00015580,-0.00008072,-0.00020595,0.00004984,-0.00
 004598,0.00032157,0.00017638,-0.00001615,-0.00004451,0.00007794,0.0000
 7025,-0.00162302,-0.00557015,0.00710288,0.12538385,-0.01338865,-0.2092
 2153,-0.00013243,0.00006614,0.00000615,-0.00001018,-0.00001128,-0.0000
 0129,0.00003555,-0.00009241,0.00003684,-0.00001718,0.00002293,0.000011
 02,-0.00003422,-0.00008282,-0.00001058,0.00003926,0.00005382,0.0000044
 8,0.00000659,0.00005788,0.00001772,-0.00076000,-0.00009424,-0.00041744
 ,-0.00003060,0.00005655,0.00000513,-0.00002222,0.00002843,-0.00002025,
 -0.00374584,0.00077424,0.00399059,0.01832426,-0.00102512,-0.01952064,-
 0.13896270,0.01844180,0.21778999,0.00072002,-0.00065248,0.00001463,-0.
 00049726,-0.00007323,-0.00005043,0.00012852,0.00021139,0.00002505,0.00
 041888,-0.00004103,0.00002678,-0.00093553,-0.00024391,-0.00013407,-0.0
 0109367,-0.00331350,-0.00029164,0.00005497,0.00018395,0.00002393,0.000
 14870,0.00010549,0.00002083,0.00001835,-0.00008116,-0.00000007,0.01453
 449,-0.01907029,0.00059312,-0.21423451,0.14911647,-0.00946634,0.000063
 58,-0.00003088,-0.00000350,-0.00010822,-0.00006795,0.00000405,0.000234
 46,0.00000560,0.00001768,-0.00009267,-0.00004965,-0.00000467,-0.000109
 95,0.00005530,-0.00001304,0.00002361,0.00004174,0.00000549,0.00054531,
 0.00049477,0.00012104,-0.00007531,-0.00011720,-0.00002785,0.00000995,0
 .00000053,0.00000076,-0.00001144,0.00000048,-0.00000136,-0.00001208,0.
 00000035,-0.00000088,0.22129426,0.00185710,-0.00135296,0.00010465,-0.0
 0054929,0.00023027,-0.00004455,0.00016272,0.00000870,0.00002336,0.0004
 2082,-0.00007381,0.00003290,-0.00099611,-0.00001964,-0.00010771,-0.004
 61587,-0.00216968,-0.00055417,-0.00043413,0.00020440,-0.00002658,0.000
 01860,-0.00043186,-0.00001075,-0.00008306,0.00009149,-0.00000486,0.020
 65750,-0.03688632,0.00045631,0.13492129,-0.16367884,0.00841875,-0.0002
 3274,-0.00011348,-0.00002323,0.00020886,0.00004589,0.00001959,-0.00025
 326,0.00000820,-0.00002137,0.00009730,0.00006957,0.00000391,0.00008826
 ,-0.00004059,0.00001068,0.00002742,0.00000917,0.00000364,0.00018755,0.
 00037418,0.00005574,0.00019132,-0.00018714,0.00000318,-0.00000038,-0.0
 0003024,-0.00000108,0.00001695,-0.00001049,0.00000370,0.00001712,-0.00
 001023,-0.00000084,-0.14715018,0.19523500,0.00011995,-0.00013039,0.000
 28677,-0.00006896,0.00000512,-0.00003057,0.00002291,0.00001773,-0.0000
 2112,0.00004431,-0.00001505,0.00013572,-0.00015549,-0.00003318,0.00027
 698,-0.00034875,-0.00043329,0.00051997,-0.00000133,0.00003118,-0.00012
 121,0.00001845,-0.00000644,-0.00002790,-0.00000100,-0.00000406,-0.0000
 0513,0.00223030,-0.00337666,0.00034504,-0.01004279,0.00978899,-0.05322
 995,-0.00000796,-0.00001149,0.00004754,-0.00000470,0.00000530,0.000016
 53,0.00001136,-0.00000169,-0.00000049,-0.00000421,-0.00000172,0.000003
 05,-0.00000456,0.00000215,-0.00000230,0.00000547,0.00000499,-0.0000235
 9,0.00010687,0.00007850,-0.00046598,-0.00001582,-0.00002509,0.00016890
 ,0.00000060,-0.00000130,0.00000299,-0.00000283,0.00000043,-0.00000083,
 0.00000198,-0.00000117,-0.00000045,0.01070053,-0.00808774,0.04844859,0
 .00021824,-0.00039378,0.00001128,0.00002224,0.00029483,-0.00002219,0.0
 0015136,-0.00032525,0.00004608,0.00007898,0.00016874,0.00030964,0.0000
 4905,-0.00025469,-0.00035819,-0.00087623,0.00275658,-0.00065360,-0.000
 13679,-0.00018941,-0.00014734,-0.00000468,-0.00022916,-0.00000596,-0.0
 0004840,0.00009805,0.00000874,-0.01233315,-0.01485439,0.00872218,-0.15
 288863,-0.01707859,0.12508053,-0.00016397,-0.00011245,-0.00004929,0.00
 022022,0.00006759,0.00001972,-0.00031533,-0.00001192,-0.00001479,0.000
 12719,0.00008653,0.00000094,0.00012555,-0.00005152,0.00000869,0.000020
 85,-0.00000007,-0.00003827,-0.00021302,0.00093802,-0.00075527,0.000393
 18,0.00035469,0.00029594,-0.00001142,-0.00001710,0.00000053,0.00001699
 ,-0.00000700,-0.00000233,0.00001773,-0.00000613,0.00000425,-0.01224757
 ,-0.00305886,0.01860997,0.16690906,-0.00065319,-0.00162167,-0.00071200
 ,-0.00080849,0.00066403,-0.00021939,0.00071149,0.00036775,0.00001874,0
 .00040281,-0.00081715,-0.00027303,0.00076298,0.00039928,-0.00009592,-0
 .00418525,0.00572147,0.00160670,0.00057334,-0.00044123,0.00000117,0.00
 003910,-0.00017183,0.00003447,-0.00001743,0.00004604,0.00004314,-0.028
 04566,-0.02165777,0.02361744,-0.01301800,-0.05414460,0.01907038,-0.000
 21495,-0.00009688,-0.00002907,0.00010011,0.00003275,-0.00000889,-0.000
 06811,0.00003085,0.00000013,0.00001847,0.00001423,0.00000102,0.0000123
 9,-0.00001644,0.00000089,0.00002649,0.00001589,0.00004904,0.00085714,-
 0.00118902,0.00136174,0.00054178,0.00051947,0.00034723,0.00000044,-0.0
 0000796,0.00000073,0.00000637,-0.00002773,-0.00000113,0.00000439,-0.00
 001111,-0.00000627,0.01214559,0.00513801,-0.01696806,0.02872109,0.0652
 0237,-0.00018070,0.00028644,-0.00024509,0.00021912,-0.00005127,-0.0000
 3619,-0.00012866,-0.00002371,-0.00006072,-0.00041568,-0.00017149,-0.00
 011215,0.00107160,0.00061835,0.00007248,0.00068535,-0.00077777,0.00049
 079,-0.00013913,-0.00010073,0.00003347,-0.00012409,-0.00011149,0.00000
 206,-0.00001515,0.00002795,0.00000253,-0.00375678,0.00295715,0.0093736
 8,0.12670444,0.02350085,-0.20871355,0.00007811,0.00004563,0.00002364,-
 0.00004307,0.00008368,0.00000315,-0.00004666,0.00004830,-0.00001595,0.
 00000559,-0.00003814,0.00001448,0.00006495,-0.00007203,0.00001505,-0.0
 0003089,-0.00005085,0.00000632,-0.00078957,0.00012479,-0.00029036,-0.0
 0002719,-0.00006980,0.00000021,-0.00000206,-0.00000080,-0.00000056,0.0
 0000753,-0.00000328,0.00000087,0.00000654,0.00000334,0.00000226,-0.003
 04776,-0.00063086,0.00280704,-0.13861017,-0.02785097,0.21584459,0.0001
 8821,-0.00032448,0.00003461,0.00006038,0.00027531,0.00005692,0.0001298
 9,-0.00032564,-0.00002685,0.00004862,0.00014691,-0.00026225,0.00022218
 ,-0.00019427,0.00034850,-0.00079981,0.00245728,0.00062939,-0.00019575,
 -0.00020211,0.00009272,-0.00002853,-0.00024452,-0.00001490,-0.00004795
 ,0.00010230,-0.00001246,-0.01031061,-0.01284565,-0.01346439,-0.1070981
 9,-0.00413626,-0.10545869,-0.00015948,-0.00010214,0.00002370,0.0002087
 6,0.00006875,-0.00000336,-0.00031578,0.00000173,-0.00003528,0.00012460
 ,0.00007688,0.00000480,0.00013241,-0.00006376,0.00001988,0.00000603,-0
 .00001219,0.00003507,-0.00045660,0.00080347,0.00079513,0.00041892,0.00
 034313,-0.00019045,-0.00001131,-0.00001673,-0.00000368,0.00001890,-0.0
 0000591,-0.00000109,0.00001752,-0.00000721,0.00000546,-0.00882471,-0.0
 0150231,-0.02121659,0.01090600,0.00207732,0.01856073,0.11578655,-0.000
 77228,-0.00162831,0.00047293,-0.00081831,0.00065161,0.00010875,0.00068
 564,0.00035425,0.00015308,0.00028860,-0.00084856,0.00030003,0.00078860
 ,0.00047606,0.00027721,-0.00379593,0.00573735,-0.00198057,0.00054165,-
 0.00043652,0.00006624,0.00003679,-0.00017459,-0.00003971,-0.00000938,0
 .00004900,-0.00004278,-0.02281348,-0.01900517,-0.03078673,-0.00089340,
 -0.05153623,-0.00542298,-0.00019374,-0.00007983,-0.00001010,0.00009720
 ,0.00004838,0.00002177,-0.00007134,0.00002836,-0.00001283,0.00002038,0
 .00001255,-0.00000078,0.00001841,-0.00002336,0.00000557,0.00003328,0.0
 0001458,-0.00004238,0.00097143,-0.00094632,-0.00122206,0.00058375,0.00
 052268,-0.00020429,0.00000057,-0.00000780,-0.00000115,0.00000349,-0.00
 001104,0.00000617,0.00000610,-0.00002750,0.00000077,0.00848257,0.00359
 971,0.01915974,0.00313904,0.00203057,0.00228319,0.01366908,0.06118724,
 0.00020609,-0.00048204,-0.00019077,-0.00027293,0.00016756,-0.00006125,
 0.00022206,-0.00000592,-0.00002045,0.00048545,0.00012597,-0.00001448,-
 0.00096953,-0.00059844,-0.00009950,-0.00126244,0.00171539,0.00037175,0
 .00013873,0.00002260,0.00009031,0.00012044,0.00004944,0.00002740,0.000
 00476,-0.00000508,-0.00000178,-0.00195577,-0.00790276,0.00464898,-0.10
 678300,-0.01053995,-0.25706148,-0.00012820,-0.00008435,-0.00000077,0.0
 0007973,-0.00004315,0.00004225,-0.00001969,-0.00004211,-0.00000945,0.0
 0001575,0.00005013,0.00001843,-0.00003208,0.00004975,0.00000055,0.0000
 3367,0.00005086,0.00001661,0.00083451,-0.00002783,-0.00009067,0.000156
 08,0.00018116,-0.00004131,0.00000001,-0.00000314,-0.00000077,-0.000002
 84,-0.00000572,0.00000091,-0.00000398,-0.00000017,0.00000067,0.0014888
 7,0.00038181,0.00090618,-0.01245067,0.00000068,-0.01918319,0.12005770,
 0.01692547,0.27072415,0.00020922,-0.00019924,-0.00004718,-0.00013497,-
 0.00001732,0.00000142,0.00105595,0.00193223,0.00042885,-0.00949384,0.0
 2782241,-0.00236935,-0.00496394,-0.00175035,-0.00088302,0.00025354,0.0
 0159035,0.00014264,-0.00014642,-0.00011960,-0.00000004,0.00005695,-0.0
 0019965,-0.00000425,-0.00010748,0.00013182,-0.00001635,-0.00052263,-0.
 00006232,0.00001336,-0.00003524,-0.00011962,-0.00001239,-0.09462929,0.
 09686662,-0.01013425,0.01148695,-0.02107966,0.00154398,-0.00013785,-0.
 00456201,0.00086711,0.00076925,0.00184008,-0.00008369,0.00017102,0.002
 05424,-0.00010569,-0.00081023,-0.00139898,-0.00024393,0.00015552,0.000
 00947,-0.00001913,0.00004600,0.00001756,0.00000753,0.00004161,-0.00001
 830,0.00000608,-0.00000741,-0.00002373,0.00005729,0.00000398,-0.000015
 12,-0.00005092,-0.00000412,0.00001175,0.00000058,0.00000712,-0.0000048
 6,0.00000478,0.00000934,-0.00000464,-0.00000515,0.09973884,-0.00020595
 ,0.00004146,-0.00003636,0.00005853,0.00001765,-0.00009528,-0.00201353,
 0.00135363,-0.00025843,-0.00123313,-0.00013592,0.00002226,-0.00051639,
 0.00072407,0.00014030,-0.00014958,0.00010406,-0.00001615,0.00019251,0.
 00000278,0.00003353,0.00006346,0.00010187,0.00001942,0.00003496,-0.000
 05286,0.00000195,0.00003955,-0.00002442,-0.00001078,-0.00000798,0.0000
 1272,0.00000818,0.09490625,-0.29834240,0.02212094,0.00954881,-0.021949
 60,0.00258501,0.00150182,-0.00310856,-0.00009850,0.00003512,0.00079328
 ,-0.00002887,0.00075617,0.00245015,-0.00008098,0.00005156,0.00026634,0
 .00008241,-0.00012845,0.00007341,-0.00000023,-0.00002540,0.00002168,0.
 00000680,0.00000292,0.00000576,0.00000083,-0.00000657,0.00000717,0.000
 00527,-0.00000355,0.00000898,-0.00000479,0.00001322,-0.00000135,-0.000
 00002,-0.00000894,0.00000248,-0.00001899,-0.00001109,0.00000049,0.0000
 1430,-0.09987093,0.31909787,-0.00016010,-0.00016903,0.00014074,0.00001
 951,-0.00008726,0.00008250,0.00016609,0.00016880,-0.00137277,-0.000137
 50,0.00233609,0.00471555,-0.00088934,-0.00013787,0.00232099,0.00032544
 ,0.00037853,0.00017504,0.00013215,-0.00002760,-0.00004391,-0.00000953,
 -0.00001615,-0.00000642,-0.00001732,0.00000687,0.00007723,-0.00000914,
 -0.00007353,-0.00040930,0.00000647,0.00001350,0.00005714,-0.01086014,0
 .02196754,-0.04780789,0.00037069,0.00049260,0.00816378,0.00025238,-0.0
 0058525,-0.00794978,0.00009177,0.00019575,0.00042828,0.00000883,-0.000
 11080,0.00018458,-0.00016310,-0.00017945,0.00031043,0.00002595,0.00002
 445,0.00003111,-0.00000052,0.00002182,-0.00000005,0.00000741,-0.000000
 22,-0.00001289,0.00000272,0.00001556,-0.00001360,-0.00000122,-0.000015
 81,-0.00003278,-0.00000059,-0.00000277,-0.00000548,-0.00000145,-0.0000
 0377,0.00000105,0.00000095,-0.00000825,-0.00000638,0.01180409,-0.02475
 700,0.03054950,0.00002412,-0.00003012,0.00002191,-0.00025239,0.0000984
 8,-0.00001490,0.00030449,0.00022296,0.00001484,-0.00019332,0.00092584,
 0.00040894,-0.00091863,-0.00109235,-0.00002207,-0.00010232,0.00029841,
 -0.00000207,0.00000192,0.00006459,-0.00001335,0.00013213,0.00025191,0.
 00001766,0.00006067,-0.00010736,-0.00000052,0.00010230,-0.00009648,0.0
 0001303,-0.00000602,-0.00001727,0.00000139,0.01251905,-0.02132109,0.00
 205634,-0.07851376,0.07061978,-0.00860662,0.00029253,0.03051632,-0.001
 98870,-0.00043933,-0.00162627,0.00013226,-0.00818993,0.00213896,-0.001
 05934,0.00009308,0.00015253,0.00000720,-0.00222292,0.00042934,0.000094
 35,-0.00003962,-0.00002081,-0.00000590,-0.00000179,0.00001032,0.000000
 02,-0.00001086,0.00000708,-0.00001324,-0.00001337,0.00000494,0.0000117
 0,0.00003625,0.00000369,0.00000083,-0.00000744,0.00001653,-0.00004320,
 -0.00001157,0.00000857,0.00003715,-0.00289528,-0.00291989,-0.00093205,
 0.07964001,0.00006232,-0.00000435,-0.00001602,-0.00006769,-0.00015178,
 -0.00002663,-0.00011456,0.00000754,-0.00003824,0.00136635,-0.00006396,
 -0.00031773,0.00039798,0.00004002,-0.00007394,-0.00030114,0.00056623,-
 0.00005457,0.00009421,0.00006991,0.00003462,0.00005263,0.00025926,0.00
 002019,0.00007071,-0.00011475,0.00000750,0.00001085,-0.00010327,0.0000
 0001,-0.00000980,0.00003283,-0.00000326,0.00817484,-0.01776325,0.00211
 409,0.07449509,-0.32548939,0.02659799,-0.00364244,-0.00497628,-0.00002
 652,-0.00079883,0.00134474,-0.00020462,0.00110322,0.00108472,0.0002424
 5,0.00005596,0.00016101,0.00003235,0.00023826,0.00087845,0.00009718,-0
 .00003872,-0.00000117,-0.00000246,-0.00000438,0.00001120,-0.00000058,-
 0.00000869,0.00000852,-0.00002129,-0.00001173,0.00000734,0.00001747,0.
 00002372,-0.00000149,0.00000275,-0.00001453,0.00001729,-0.00000549,-0.
 00001690,0.00001183,0.00000629,-0.00276207,-0.00144535,0.00054740,-0.0
 7851075,0.34554160,-0.00000682,0.00022669,-0.00031817,0.00020530,-0.00
 013980,0.00001231,-0.00029121,-0.00013584,-0.00005065,0.00083056,-0.00
 024061,-0.00575193,0.00015516,0.00016971,-0.00013223,-0.00014656,-0.00
 018001,-0.00050044,-0.00001392,-0.00003650,0.00026580,-0.00001182,-0.0
 0000056,0.00001840,-0.00001052,0.00000945,0.00003163,-0.00000531,-0.00
 001182,0.00004357,-0.00000318,0.00001365,0.00019477,-0.00040588,-0.000
 62779,0.00496533,-0.00873475,0.02674473,-0.03814285,0.00024074,0.00295
 846,0.00043713,0.00008306,-0.00029705,-0.00071765,-0.00099455,0.000267
 60,0.00251322,-0.00002881,-0.00002442,0.00011184,0.00012094,-0.0001309
 3,0.00117915,0.00000706,0.00000632,0.00000660,0.00000015,-0.00000013,-
 0.00000220,0.00000071,0.00000398,-0.00000542,0.00000302,-0.00000020,-0
 .00000876,-0.00000134,-0.00000050,-0.00003076,-0.00001052,0.00001640,-
 0.00003021,0.00002692,-0.00000743,-0.00005776,-0.00087858,0.00036031,0
 .01019511,0.00980481,-0.02891669,0.02602974,-0.00036393,-0.00000542,-0
 .00003206,-0.00000609,-0.00034363,-0.00002102,-0.00016005,-0.00009615,
 0.00000007,0.00039133,-0.00041659,0.00008322,-0.00001596,0.00012940,-0
 .00001051,0.00004397,0.00032131,0.00001715,0.00041908,-0.00005254,0.00
 003883,0.00008063,0.00021591,0.00001322,0.00002714,-0.00008629,-0.0000
 0261,0.00009096,-0.00023133,0.00000160,0.00003059,0.00009452,0.0000036
 8,-0.00177035,0.00019329,-0.00019700,0.00088776,-0.00446227,-0.0000110
 5,-0.03940401,0.00315262,-0.00388430,-0.46567652,0.11093509,-0.0447318
 5,0.00507354,0.00750207,0.00045082,-0.00002643,-0.00001678,0.00000200,
 -0.00002629,0.00001722,-0.00000222,-0.00004091,0.00004651,-0.00000314,
 0.00001494,0.00001191,0.00000173,-0.00001587,0.00000289,0.00000500,-0.
 00001545,0.00000305,-0.00000695,0.00001569,-0.00001205,0.00000089,-0.0
 0001713,-0.00000186,-0.00000800,-0.00001803,-0.00000266,0.00000527,-0.
 00011657,-0.00010352,-0.00003243,0.00061197,0.00015608,0.00006535,0.49
 998600,-0.00014452,-0.00001037,-0.00001968,-0.00000195,-0.00012803,0.0
 0001592,-0.00008455,0.00000486,-0.00005402,-0.00002025,-0.00034814,-0.
 00002726,0.00004633,0.00000936,0.00001128,-0.00001829,0.00016451,0.000
 00372,0.00017540,-0.00002666,0.00001513,0.00002590,0.00004568,0.000004
 60,-0.00000852,-0.00000840,-0.00000029,0.00004599,-0.00015186,-0.00000
 097,0.00002976,0.00006813,0.00000695,-0.00156483,0.00058484,-0.0000593
 0,-0.00160635,-0.00487788,0.00045858,-0.04798090,0.01617920,-0.0047221
 1,0.16079918,-0.09293778,0.01823278,0.00742099,-0.00101283,0.00028954,
 -0.00001418,-0.00001877,-0.00000126,-0.00002102,0.00001702,0.00000144,
 -0.00001676,0.00002381,-0.00000062,0.00000622,0.00000339,0.00000069,-0
 .00000501,0.00000021,0.00000658,-0.00000384,0.00000072,-0.00000755,0.0
 0001028,-0.00000648,0.00000048,-0.00001136,0.00000091,-0.00000200,-0.0
 0001098,0.00000057,-0.00000073,-0.00006811,-0.00002540,0.00000586,-0.0
 0002788,0.00007256,-0.00002701,-0.11695077,0.08237683,-0.00002677,-0.0
 0000023,-0.00003256,0.00000317,-0.00003968,0.00009725,-0.00002662,-0.0
 0000597,-0.00015069,0.00010806,-0.00006551,-0.00061892,-0.00000044,0.0
 0001290,0.00000092,0.00000090,0.00003413,0.00003653,0.00003874,-0.0000
 0467,-0.00000597,0.00000021,0.00000982,-0.00000026,-0.00000226,-0.0000
 0420,0.00002282,0.00000569,-0.00002547,-0.00001445,0.00000339,0.000011
 62,0.00003574,-0.00013743,0.00001590,0.00062183,-0.00025056,0.00027170
 ,0.00513975,-0.00064192,-0.00048576,0.00432557,-0.04782859,0.01409714,
 -0.02152208,0.00044838,0.00031184,-0.00603654,-0.00000078,0.00000052,-
 0.00001111,-0.00000037,-0.00000082,0.00000219,-0.00000325,0.00000527,0
 .00001028,0.00000088,0.00000065,0.00000087,-0.00000213,0.00000127,-0.0
 0000455,0.00000181,-0.00000085,-0.00000533,0.00000077,-0.00000119,0.00
 000044,0.00000156,-0.00000139,-0.00000571,-0.00000248,0.00000111,-0.00
 000819,-0.00002382,0.00000488,0.00022820,0.00007953,-0.00001227,-0.000
 25555,0.04825431,-0.01413076,0.01814951\\-0.00000317,0.00004442,-0.000
 00080,0.00000772,0.00002391,-0.00002709,-0.00003090,-0.00002510,0.0000
 0500,-0.00000290,0.00005998,-0.00000708,0.00001876,-0.00003400,0.00000
 928,0.00000541,-0.00006393,-0.00000083,0.00004156,-0.00001625,0.000010
 34,-0.00001003,-0.00001417,0.00003381,-0.00000910,0.00002226,-0.000010
 90,0.00000786,0.00000073,0.00000507,-0.00004642,-0.00000957,-0.0000076
 2,0.00000557,-0.00000373,0.00001150,0.00002336,-0.00000438,0.00000304,
 -0.00003210,0.00000392,-0.00001189,-0.00001054,0.00000675,0.00000524,0
 .00000057,-0.00001256,0.00000959,-0.00000635,0.00000117,0.00000599,-0.
 00000230,0.00000246,-0.00001003,0.00000910,0.00000194,-0.00001449,-0.0
 0000212,0.00000426,0.00000446,-0.00000255,-0.00000076,0.00000861,0.000
 00350,0.00000208,0.00000966,0.00001119,0.00000824,-0.00001884,0.000016
 17,0.00001511,-0.00000219,0.00001199,-0.00000454,-0.00001553,-0.000005
 96,0.00000034,0.00000502,0.00000089,-0.00000055,-0.00000201,0.00000080
 ,-0.00000803,0.00000269\\\@


 HO!  SUCH BUGS AND GOBLINS IN MY LIFE!

                            -- HAMLET, ACT 5, SCENE 2
 Job cpu time:       0 days  3 hours 14 minutes 50.9 seconds.
 File lengths (MBytes):  RWF=    686 Int=      0 D2E=      0 Chk=     11 Scr=      1
 Normal termination of Gaussian 09 at Sun May 19 19:05:40 2024.
