 Entering Gaussian System, Link 0=g09
 Input=pvdzPNA.gjf
 Output=pvdzPNA.log
 Initial command:
 /home/c612/g09E/g09/l1.exe "/mnt/ja_sm883/scratch/Gau-547216.inp" -scrdir="/mnt/ja_sm883/scratch/"
 Default is to use a total of  18 processors:
                               18 via shared-memory
                                1 via Linda
 Entering Link 1 = /home/c612/g09E/g09/l1.exe PID=    547218.
  
 Copyright (c) 1988,1990,1992,1993,1995,1998,2003,2009,2015,
            Gaussian, Inc.  All Rights Reserved.
  
 This is part of the Gaussian(R) 09 program.  It is based on
 the Gaussian(R) 03 system (copyright 2003, Gaussian, Inc.),
 the Gaussian(R) 98 system (copyright 1998, Gaussian, Inc.),
 the Gaussian(R) 94 system (copyright 1995, Gaussian, Inc.),
 the Gaussian 92(TM) system (copyright 1992, Gaussian, Inc.),
 the Gaussian 90(TM) system (copyright 1990, Gaussian, Inc.),
 the Gaussian 88(TM) system (copyright 1988, Gaussian, Inc.),
 the Gaussian 86(TM) system (copyright 1986, Carnegie Mellon
 University), and the Gaussian 82(TM) system (copyright 1983,
 Carnegie Mellon University). Gaussian is a federally registered
 trademark of Gaussian, Inc.
  
 This software contains proprietary and confidential information,
 including trade secrets, belonging to Gaussian, Inc.
  
 This software is provided under written license and may be
 used, copied, transmitted, or stored only in accord with that
 written license.
  
 The following legend is applicable only to US Government
 contracts under FAR:
  
                    RESTRICTED RIGHTS LEGEND
  
 Use, reproduction and disclosure by the US Government is
 subject to restrictions as set forth in subparagraphs (a)
 and (c) of the Commercial Computer Software - Restricted
 Rights clause in FAR 52.227-19.
  
 Gaussian, Inc.
 340 Quinnipiac St., Bldg. 40, Wallingford CT 06492
  
  
 ---------------------------------------------------------------
 Warning -- This program may not be used in any manner that
 competes with the business of Gaussian, Inc. or will provide
 assistance to any competitor of Gaussian, Inc.  The licensee
 of this program is prohibited from giving any competitor of
 Gaussian, Inc. access to this program.  By using this program,
 the user acknowledges that Gaussian, Inc. is engaged in the
 business of creating and licensing software in the field of
 computational chemistry and represents and warrants to the
 licensee that it is not a competitor of Gaussian, Inc. and that
 it will not use this program in any manner prohibited above.
 ---------------------------------------------------------------
  

 Cite this work as:
 Gaussian 09, Revision E.01,
 M. J. Frisch, G. W. Trucks, H. B. Schlegel, G. E. Scuseria, 
 M. A. Robb, J. R. Cheeseman, G. Scalmani, V. Barone, B. Mennucci, 
 G. A. Petersson, H. Nakatsuji, M. Caricato, X. Li, H. P. Hratchian, 
 A. F. Izmaylov, J. Bloino, G. Zheng, J. L. Sonnenberg, M. Hada, 
 M. Ehara, K. Toyota, R. Fukuda, J. Hasegawa, M. Ishida, T. Nakajima, 
 Y. Honda, O. Kitao, H. Nakai, T. Vreven, J. A. Montgomery, Jr., 
 J. E. Peralta, F. Ogliaro, M. Bearpark, J. J. Heyd, E. Brothers, 
 K. N. Kudin, V. N. Staroverov, T. Keith, R. Kobayashi, J. Normand, 
 K. Raghavachari, A. Rendell, J. C. Burant, S. S. Iyengar, J. Tomasi, 
 M. Cossi, N. Rega, J. M. Millam, M. Klene, J. E. Knox, J. B. Cross, 
 V. Bakken, C. Adamo, J. Jaramillo, R. Gomperts, R. E. Stratmann, 
 O. Yazyev, A. J. Austin, R. Cammi, C. Pomelli, J. W. Ochterski, 
 R. L. Martin, K. Morokuma, V. G. Zakrzewski, G. A. Voth, 
 P. Salvador, J. J. Dannenberg, S. Dapprich, A. D. Daniels, 
 O. Farkas, J. B. Foresman, J. V. Ortiz, J. Cioslowski, 
 and D. J. Fox, Gaussian, Inc., Wallingford CT, 2013.
 
 ******************************************
 Gaussian 09:  ES64L-G09RevE.01 30-Nov-2015
                15-Dec-2024 
 ******************************************
 %chk=pvdzPNA.chk
 ----------------------------
 # opt freq m062x/aug-cc-pvdz
 ----------------------------
 1/14=-1,18=20,19=15,26=3,38=1/1,3;
 2/9=110,12=2,17=6,18=5,40=1/2;
 3/5=16,7=10,11=2,16=1,25=1,30=1,71=1,74=-55/1,2,3;
 4//1;
 5/5=2,38=5/2;
 6/7=2,8=2,9=2,10=2,28=1/1;
 7//1,2,3,16;
 1/14=-1,18=20,19=15,26=3/3(2);
 2/9=110/2;
 99//99;
 2/9=110/2;
 3/5=16,7=10,11=2,16=1,25=1,30=1,71=1,74=-55/1,2,3;
 4/5=5,16=3,69=1/1;
 5/5=2,38=5/2;
 7//1,2,3,16;
 1/14=-1,18=20,19=15,26=3/3(-5);
 2/9=110/2;
 6/7=2,8=2,9=2,10=2,19=2,28=1/1;
 99/9=1/99;
 ----------
 [No Title]
 ----------
 Symbolic Z-matrix:
 Charge =  0 Multiplicity = 1
 C                     0.02405  -1.21435   0.00003 
 C                     0.70568   0.        0.00007 
 C                     0.02405   1.21435   0.0001 
 C                    -1.3592    1.21357   0.00008 
 C                    -2.075     0.        0.00003 
 C                    -1.3592   -1.21357   0.00001 
 N                    -3.44155   0.        0.00002 
 N                     2.16312   0.        0.00009 
 O                     2.73357   1.08002  -0.00014 
 O                     2.73357  -1.08002  -0.00021 
 H                     0.58577  -2.14095   0. 
 H                     0.58577   2.14095   0.00013 
 H                    -1.90095   2.15455   0.0001 
 H                    -1.90095  -2.15455  -0.00003 
 H                    -3.96005  -0.86128  -0.00003 
 H                    -3.96005   0.86128   0.00003 
 

 GradGradGradGradGradGradGradGradGradGradGradGradGradGradGradGradGradGrad
 Berny optimization.
 Initialization pass.
                           ----------------------------
                           !    Initial Parameters    !
                           ! (Angstroms and Degrees)  !
 --------------------------                            --------------------------
 ! Name  Definition              Value          Derivative Info.                !
 --------------------------------------------------------------------------------
 ! R1    R(1,2)                  1.3926         estimate D2E/DX2                !
 ! R2    R(1,6)                  1.3832         estimate D2E/DX2                !
 ! R3    R(1,11)                 1.0836         estimate D2E/DX2                !
 ! R4    R(2,3)                  1.3926         estimate D2E/DX2                !
 ! R5    R(2,8)                  1.4574         estimate D2E/DX2                !
 ! R6    R(3,4)                  1.3832         estimate D2E/DX2                !
 ! R7    R(3,12)                 1.0836         estimate D2E/DX2                !
 ! R8    R(4,5)                  1.4089         estimate D2E/DX2                !
 ! R9    R(4,13)                 1.0858         estimate D2E/DX2                !
 ! R10   R(5,6)                  1.4089         estimate D2E/DX2                !
 ! R11   R(5,7)                  1.3666         estimate D2E/DX2                !
 ! R12   R(6,14)                 1.0858         estimate D2E/DX2                !
 ! R13   R(7,15)                 1.0053         estimate D2E/DX2                !
 ! R14   R(7,16)                 1.0053         estimate D2E/DX2                !
 ! R15   R(8,9)                  1.2214         estimate D2E/DX2                !
 ! R16   R(8,10)                 1.2214         estimate D2E/DX2                !
 ! A1    A(2,1,6)              119.2736         estimate D2E/DX2                !
 ! A2    A(2,1,11)             119.4685         estimate D2E/DX2                !
 ! A3    A(6,1,11)             121.2579         estimate D2E/DX2                !
 ! A4    A(1,2,3)              121.3877         estimate D2E/DX2                !
 ! A5    A(1,2,8)              119.3061         estimate D2E/DX2                !
 ! A6    A(3,2,8)              119.3062         estimate D2E/DX2                !
 ! A7    A(2,3,4)              119.2736         estimate D2E/DX2                !
 ! A8    A(2,3,12)             119.4685         estimate D2E/DX2                !
 ! A9    A(4,3,12)             121.2579         estimate D2E/DX2                !
 ! A10   A(3,4,5)              120.566          estimate D2E/DX2                !
 ! A11   A(3,4,13)             119.8981         estimate D2E/DX2                !
 ! A12   A(5,4,13)             119.5359         estimate D2E/DX2                !
 ! A13   A(4,5,6)              118.9329         estimate D2E/DX2                !
 ! A14   A(4,5,7)              120.5335         estimate D2E/DX2                !
 ! A15   A(6,5,7)              120.5335         estimate D2E/DX2                !
 ! A16   A(1,6,5)              120.566          estimate D2E/DX2                !
 ! A17   A(1,6,14)             119.898          estimate D2E/DX2                !
 ! A18   A(5,6,14)             119.5359         estimate D2E/DX2                !
 ! A19   A(5,7,15)             121.0482         estimate D2E/DX2                !
 ! A20   A(5,7,16)             121.0483         estimate D2E/DX2                !
 ! A21   A(15,7,16)            117.9035         estimate D2E/DX2                !
 ! A22   A(2,8,9)              117.8422         estimate D2E/DX2                !
 ! A23   A(2,8,10)             117.8421         estimate D2E/DX2                !
 ! A24   A(9,8,10)             124.3157         estimate D2E/DX2                !
 ! D1    D(6,1,2,3)             -0.0001         estimate D2E/DX2                !
 ! D2    D(6,1,2,8)           -179.9997         estimate D2E/DX2                !
 ! D3    D(11,1,2,3)           179.9998         estimate D2E/DX2                !
 ! D4    D(11,1,2,8)             0.0001         estimate D2E/DX2                !
 ! D5    D(2,1,6,5)              0.0            estimate D2E/DX2                !
 ! D6    D(2,1,6,14)          -180.0            estimate D2E/DX2                !
 ! D7    D(11,1,6,5)          -179.9999         estimate D2E/DX2                !
 ! D8    D(11,1,6,14)            0.0002         estimate D2E/DX2                !
 ! D9    D(1,2,3,4)              0.0001         estimate D2E/DX2                !
 ! D10   D(1,2,3,12)          -179.9998         estimate D2E/DX2                !
 ! D11   D(8,2,3,4)            179.9998         estimate D2E/DX2                !
 ! D12   D(8,2,3,12)            -0.0001         estimate D2E/DX2                !
 ! D13   D(1,2,8,9)            179.9861         estimate D2E/DX2                !
 ! D14   D(1,2,8,10)             0.0141         estimate D2E/DX2                !
 ! D15   D(3,2,8,9)             -0.0136         estimate D2E/DX2                !
 ! D16   D(3,2,8,10)          -179.9855         estimate D2E/DX2                !
 ! D17   D(2,3,4,5)             -0.0001         estimate D2E/DX2                !
 ! D18   D(2,3,4,13)          -180.0            estimate D2E/DX2                !
 ! D19   D(12,3,4,5)           179.9998         estimate D2E/DX2                !
 ! D20   D(12,3,4,13)           -0.0001         estimate D2E/DX2                !
 ! D21   D(3,4,5,6)              0.0            estimate D2E/DX2                !
 ! D22   D(3,4,5,7)            179.9999         estimate D2E/DX2                !
 ! D23   D(13,4,5,6)           179.9999         estimate D2E/DX2                !
 ! D24   D(13,4,5,7)            -0.0002         estimate D2E/DX2                !
 ! D25   D(4,5,6,1)              0.0            estimate D2E/DX2                !
 ! D26   D(4,5,6,14)          -180.0            estimate D2E/DX2                !
 ! D27   D(7,5,6,1)           -179.9998         estimate D2E/DX2                !
 ! D28   D(7,5,6,14)             0.0002         estimate D2E/DX2                !
 ! D29   D(4,5,7,15)           179.9991         estimate D2E/DX2                !
 ! D30   D(4,5,7,16)             0.0008         estimate D2E/DX2                !
 ! D31   D(6,5,7,15)            -0.0011         estimate D2E/DX2                !
 ! D32   D(6,5,7,16)          -179.9993         estimate D2E/DX2                !
 --------------------------------------------------------------------------------
 Trust Radius=3.00D-01 FncErr=1.00D-07 GrdErr=1.00D-06
 Number of steps in this run=     82 maximum allowed number of steps=    100.
 GradGradGradGradGradGradGradGradGradGradGradGradGradGradGradGradGradGrad

                          Input orientation:                          
 ---------------------------------------------------------------------
 Center     Atomic      Atomic             Coordinates (Angstroms)
 Number     Number       Type             X           Y           Z
 ---------------------------------------------------------------------
      1          6           0        0.024046   -1.214350    0.000026
      2          6           0        0.705678    0.000001    0.000071
      3          6           0        0.024045    1.214351    0.000096
      4          6           0       -1.359195    1.213566    0.000078
      5          6           0       -2.074997    0.000000    0.000033
      6          6           0       -1.359195   -1.213566    0.000007
      7          7           0       -3.441553    0.000000    0.000018
      8          7           0        2.163125    0.000000    0.000085
      9          8           0        2.733574    1.080023   -0.000138
     10          8           0        2.733571   -1.080024   -0.000210
     11          1           0        0.585774   -2.140946    0.000004
     12          1           0        0.585772    2.140947    0.000127
     13          1           0       -1.900953    2.154550    0.000097
     14          1           0       -1.900952   -2.154550   -0.000028
     15          1           0       -3.960050   -0.861281   -0.000028
     16          1           0       -3.960050    0.861279    0.000026
 ---------------------------------------------------------------------
                    Distance matrix (angstroms):
                    1          2          3          4          5
     1  C    0.000000
     2  C    1.392577   0.000000
     3  C    2.428701   1.392577   0.000000
     4  C    2.794303   2.395087   1.383240   0.000000
     5  C    2.425001   2.780675   2.425000   1.408941   0.000000
     6  C    1.383241   2.395088   2.794304   2.427132   1.408941
     7  N    3.672196   4.147231   3.672195   2.410178   1.366556
     8  N    2.459737   1.457447   2.459738   3.725517   4.238122
     9  O    3.550449   2.297566   2.712857   4.094947   4.928367
    10  O    2.712853   2.297565   3.550449   4.691619   4.928365
    11  H    1.083567   2.144302   3.401993   3.877584   3.415165
    12  H    3.401993   2.144301   1.083567   2.154746   3.415164
    13  H    3.880091   3.381805   2.142333   1.085796   2.161568
    14  H    2.142334   3.381806   3.880091   3.411408   2.161568
    15  H    3.999710   4.744557   4.492356   3.327076   2.072494
    16  H    4.492355   4.744557   3.999709   2.624605   2.072493
                    6          7          8          9         10
     6  C    0.000000
     7  N    2.410178   0.000000
     8  N    3.725517   5.604678   0.000000
     9  O    4.691621   6.268863   1.221418   0.000000
    10  O    4.094944   6.268860   1.221417   2.160047   0.000000
    11  H    2.154748   4.561032   2.659264   3.871393   2.395535
    12  H    3.877584   4.561031   2.659266   2.395540   3.871394
    13  H    3.411408   2.648685   4.599871   4.757462   5.651662
    14  H    1.085795   2.648686   4.599870   5.651663   4.757458
    15  H    2.624605   1.005308   6.183452   6.969452   6.697194
    16  H    3.327075   1.005306   6.183452   6.697197   6.969449
                   11         12         13         14         15
    11  H    0.000000
    12  H    4.281893   0.000000
    13  H    4.963376   2.486762   0.000000
    14  H    2.486763   4.963375   4.309100   0.000000
    15  H    4.722506   5.447740   3.651728   2.431549   0.000000
    16  H    5.447740   4.722504   2.431549   3.651727   1.722560
                   16
    16  H    0.000000
 Stoichiometry    C6H6N2O2
 Framework group  C1[X(C6H6N2O2)]
 Deg. of freedom    42
 Full point group                 C1      NOp   1
 Largest Abelian subgroup         C1      NOp   1
 Largest concise Abelian subgroup C1      NOp   1
                         Standard orientation:                         
 ---------------------------------------------------------------------
 Center     Atomic      Atomic             Coordinates (Angstroms)
 Number     Number       Type             X           Y           Z
 ---------------------------------------------------------------------
      1          6           0       -0.024046    1.214350    0.000026
      2          6           0       -0.705678   -0.000001    0.000071
      3          6           0       -0.024045   -1.214351    0.000096
      4          6           0        1.359195   -1.213566    0.000078
      5          6           0        2.074997    0.000000    0.000033
      6          6           0        1.359195    1.213566    0.000007
      7          7           0        3.441553    0.000000    0.000018
      8          7           0       -2.163125    0.000000    0.000085
      9          8           0       -2.733574   -1.080023   -0.000138
     10          8           0       -2.733571    1.080024   -0.000210
     11          1           0       -0.585774    2.140946    0.000004
     12          1           0       -0.585772   -2.140947    0.000127
     13          1           0        1.900953   -2.154550    0.000097
     14          1           0        1.900952    2.154550   -0.000028
     15          1           0        3.960050    0.861281   -0.000028
     16          1           0        3.960050   -0.861279    0.000026
 ---------------------------------------------------------------------
 Rotational constants (GHZ):      3.9438679      0.8268494      0.6835418
 Standard basis: Aug-CC-pVDZ (5D, 7F)
 There are   304 symmetry adapted cartesian basis functions of A   symmetry.
 There are   284 symmetry adapted basis functions of A   symmetry.
   284 basis functions,   496 primitive gaussians,   304 cartesian basis functions
    36 alpha electrons       36 beta electrons
       nuclear repulsion energy       496.5723845639 Hartrees.
 NAtoms=   16 NActive=   16 NUniq=   16 SFac= 1.00D+00 NAtFMM=   60 NAOKFM=F Big=F
 Integral buffers will be    131072 words long.
 Raffenetti 2 integral format.
 Two-electron integral symmetry is turned on.
 One-electron integrals computed using PRISM.
 NBasis=   284 RedAO= T EigKep=  1.82D-06  NBF=   284
 NBsUse=   284 1.00D-06 EigRej= -1.00D+00 NBFU=   284
 ExpMin= 2.97D-02 ExpMax= 1.17D+04 ExpMxC= 4.01D+02 IAcc=3 IRadAn=         5 AccDes= 0.00D+00
 Harris functional with IExCor= 1009 and IRadAn=       5 diagonalized for initial guess.
 HarFok:  IExCor= 1009 AccDes= 0.00D+00 IRadAn=         5 IDoV= 1 UseB2=F ITyADJ=14
 ICtDFT=  3500011 ScaDFX=  1.000000  1.000000  1.000000  1.000000
 FoFCou: FMM=F IPFlag=           0 FMFlag=      100000 FMFlg1=           0
         NFxFlg=           0 DoJE=T BraDBF=F KetDBF=T FulRan=T
         wScrn=  0.000000 ICntrl=     500 IOpCl=  0 I1Cent=   200000004 NGrid=           0
         NMat0=    1 NMatS0=      1 NMatT0=    0 NMatD0=    1 NMtDS0=    0 NMtDT0=    0
 Petite list used in FoFCou.
 Keep R1 ints in memory in canonical form, NReq=833420375.
 Requested convergence on RMS density matrix=1.00D-08 within 128 cycles.
 Requested convergence on MAX density matrix=1.00D-06.
 Requested convergence on             energy=1.00D-06.
 No special actions if energy rises.
 SCF Done:  E(RM062X) =  -491.998318008     A.U. after   15 cycles
            NFock= 15  Conv=0.59D-08     -V/T= 2.0057

 **********************************************************************

            Population analysis using the SCF density.

 **********************************************************************

 Orbital symmetries:
       Occupied  (A) (A) (A) (A) (A) (A) (A) (A) (A) (A) (A) (A)
                 (A) (A) (A) (A) (A) (A) (A) (A) (A) (A) (A) (A)
                 (A) (A) (A) (A) (A) (A) (A) (A) (A) (A) (A) (A)
       Virtual   (A) (A) (A) (A) (A) (A) (A) (A) (A) (A) (A) (A)
                 (A) (A) (A) (A) (A) (A) (A) (A) (A) (A) (A) (A)
                 (A) (A) (A) (A) (A) (A) (A) (A) (A) (A) (A) (A)
                 (A) (A) (A) (A) (A) (A) (A) (A) (A) (A) (A) (A)
                 (A) (A) (A) (A) (A) (A) (A) (A) (A) (A) (A) (A)
                 (A) (A) (A) (A) (A) (A) (A) (A) (A) (A) (A) (A)
                 (A) (A) (A) (A) (A) (A) (A) (A) (A) (A) (A) (A)
                 (A) (A) (A) (A) (A) (A) (A) (A) (A) (A) (A) (A)
                 (A) (A) (A) (A) (A) (A) (A) (A) (A) (A) (A) (A)
                 (A) (A) (A) (A) (A) (A) (A) (A) (A) (A) (A) (A)
                 (A) (A) (A) (A) (A) (A) (A) (A) (A) (A) (A) (A)
                 (A) (A) (A) (A) (A) (A) (A) (A) (A) (A) (A) (A)
                 (A) (A) (A) (A) (A) (A) (A) (A) (A) (A) (A) (A)
                 (A) (A) (A) (A) (A) (A) (A) (A) (A) (A) (A) (A)
                 (A) (A) (A) (A) (A) (A) (A) (A) (A) (A) (A) (A)
                 (A) (A) (A) (A) (A) (A) (A) (A) (A) (A) (A) (A)
                 (A) (A) (A) (A) (A) (A) (A) (A) (A) (A) (A) (A)
                 (A) (A) (A) (A) (A) (A) (A) (A) (A) (A) (A) (A)
                 (A) (A) (A) (A) (A) (A) (A) (A) (A) (A) (A) (A)
                 (A) (A) (A) (A) (A) (A) (A) (A) (A) (A) (A) (A)
                 (A) (A) (A) (A) (A) (A) (A) (A)
 The electronic state is 1-A.
 Alpha  occ. eigenvalues --  -19.66823 -19.66820 -15.00229 -14.80043 -10.62880
 Alpha  occ. eigenvalues --  -10.60227 -10.58109 -10.58105 -10.57164 -10.57162
 Alpha  occ. eigenvalues --   -1.35792  -1.17140  -1.06489  -0.98494  -0.89237
 Alpha  occ. eigenvalues --   -0.87267  -0.78529  -0.72972  -0.68679  -0.64748
 Alpha  occ. eigenvalues --   -0.62687  -0.61774  -0.61507  -0.59065  -0.53606
 Alpha  occ. eigenvalues --   -0.52459  -0.51335  -0.48849  -0.48534  -0.42737
 Alpha  occ. eigenvalues --   -0.40911  -0.38186  -0.37074  -0.36935  -0.33419
 Alpha  occ. eigenvalues --   -0.28227
 Alpha virt. eigenvalues --   -0.04329  -0.02052  -0.00298  -0.00148   0.00471
 Alpha virt. eigenvalues --    0.02370   0.02966   0.03828   0.04689   0.05385
 Alpha virt. eigenvalues --    0.06127   0.07201   0.07408   0.07864   0.08444
 Alpha virt. eigenvalues --    0.08820   0.09858   0.10330   0.11220   0.11365
 Alpha virt. eigenvalues --    0.11885   0.12018   0.12218   0.12587   0.12654
 Alpha virt. eigenvalues --    0.14002   0.14637   0.14746   0.14901   0.15798
 Alpha virt. eigenvalues --    0.16939   0.17785   0.18709   0.20327   0.20457
 Alpha virt. eigenvalues --    0.20727   0.21455   0.21522   0.22536   0.22920
 Alpha virt. eigenvalues --    0.24600   0.24617   0.25878   0.25894   0.27017
 Alpha virt. eigenvalues --    0.27230   0.27944   0.28195   0.28811   0.29206
 Alpha virt. eigenvalues --    0.30187   0.30611   0.31232   0.32241   0.32363
 Alpha virt. eigenvalues --    0.33242   0.33941   0.33964   0.34502   0.35111
 Alpha virt. eigenvalues --    0.36371   0.36897   0.37529   0.40129   0.40315
 Alpha virt. eigenvalues --    0.40681   0.40882   0.40962   0.42724   0.44852
 Alpha virt. eigenvalues --    0.45674   0.46368   0.47193   0.47362   0.47504
 Alpha virt. eigenvalues --    0.48182   0.51267   0.51509   0.51567   0.52716
 Alpha virt. eigenvalues --    0.53782   0.54858   0.55279   0.55670   0.56061
 Alpha virt. eigenvalues --    0.57692   0.57999   0.58629   0.59619   0.61565
 Alpha virt. eigenvalues --    0.61601   0.61715   0.62737   0.63466   0.64528
 Alpha virt. eigenvalues --    0.65578   0.66511   0.67069   0.68579   0.71606
 Alpha virt. eigenvalues --    0.72381   0.73120   0.73923   0.75268   0.75859
 Alpha virt. eigenvalues --    0.76415   0.77129   0.77568   0.77945   0.78181
 Alpha virt. eigenvalues --    0.78867   0.79348   0.80582   0.81624   0.84069
 Alpha virt. eigenvalues --    0.84666   0.86819   0.87591   0.87715   0.89822
 Alpha virt. eigenvalues --    0.91773   0.92807   0.95955   0.97069   0.98764
 Alpha virt. eigenvalues --    1.00742   1.01201   1.07194   1.08585   1.09439
 Alpha virt. eigenvalues --    1.10537   1.10562   1.12171   1.12417   1.14140
 Alpha virt. eigenvalues --    1.17246   1.19171   1.20804   1.22000   1.25843
 Alpha virt. eigenvalues --    1.27083   1.28741   1.30111   1.31022   1.31613
 Alpha virt. eigenvalues --    1.31671   1.34365   1.36345   1.36967   1.38470
 Alpha virt. eigenvalues --    1.40895   1.41100   1.42548   1.42920   1.44325
 Alpha virt. eigenvalues --    1.44574   1.45025   1.47690   1.47702   1.50256
 Alpha virt. eigenvalues --    1.50555   1.51392   1.52858   1.53655   1.55253
 Alpha virt. eigenvalues --    1.56538   1.58830   1.64106   1.66042   1.66089
 Alpha virt. eigenvalues --    1.66516   1.67078   1.67671   1.71783   1.74106
 Alpha virt. eigenvalues --    1.75932   1.76307   1.76741   1.77075   1.79991
 Alpha virt. eigenvalues --    1.83610   1.87897   1.88141   1.88745   1.89044
 Alpha virt. eigenvalues --    1.93964   1.95155   1.95298   1.96486   1.97344
 Alpha virt. eigenvalues --    1.99714   2.01171   2.01800   2.03425   2.04474
 Alpha virt. eigenvalues --    2.04798   2.09503   2.10359   2.10914   2.11852
 Alpha virt. eigenvalues --    2.15748   2.16655   2.19731   2.20898   2.23740
 Alpha virt. eigenvalues --    2.24502   2.29030   2.31869   2.32849   2.38309
 Alpha virt. eigenvalues --    2.39470   2.40519   2.43891   2.49452   2.49806
 Alpha virt. eigenvalues --    2.50576   2.55520   2.56278   2.58322   2.58653
 Alpha virt. eigenvalues --    2.67007   2.67859   2.72937   2.76202   2.83701
 Alpha virt. eigenvalues --    2.88001   2.93235   2.98185   2.99755   3.00797
 Alpha virt. eigenvalues --    3.19101   3.31653   3.32893   3.36643   3.36983
 Alpha virt. eigenvalues --    3.42906   3.43457   3.45436   3.46738   3.51410
 Alpha virt. eigenvalues --    3.52547   3.53650   3.65551   3.67476   3.86318
 Alpha virt. eigenvalues --    3.88496   4.09324   4.47463
          Condensed to atoms (all electrons):
               1          2          3          4          5          6
     1  C   20.345842  -6.673729   3.778053  -7.176578   5.193647  -9.154224
     2  C   -6.673729  13.698972  -6.673757   4.952976  -6.026738   4.952966
     3  C    3.778053  -6.673757  20.345914  -9.154267   5.193667  -7.176593
     4  C   -7.176578   4.952976  -9.154267  22.251893  -8.527171   4.507850
     5  C    5.193647  -6.026738   5.193667  -8.527171  16.849954  -8.527174
     6  C   -9.154224   4.952966  -7.176593   4.507850  -8.527174  22.251888
     7  N   -0.453621   0.345499  -0.453625   0.671539  -0.442113   0.671539
     8  N    0.416278  -0.647209   0.416281  -0.399779   0.312066  -0.399778
     9  O    0.100345  -0.011873   0.063919  -0.083489   0.031950  -0.057907
    10  O    0.063919  -0.011873   0.100345  -0.057907   0.031950  -0.083490
    11  H   -2.613914   1.352636  -0.026467   0.210471  -0.740708   1.172993
    12  H   -0.026466   1.352644  -2.613929   1.172999  -0.740710   0.210471
    13  H    0.215876  -0.753889   1.161334  -3.114157   1.721816  -0.056434
    14  H    1.161333  -0.753890   0.215877  -0.056435   1.721821  -3.114165
    15  H    0.136221  -0.004563  -0.043591  -0.242780  -0.198717   0.248510
    16  H   -0.043591  -0.004563   0.136222   0.248510  -0.198715  -0.242782
               7          8          9         10         11         12
     1  C   -0.453621   0.416278   0.100345   0.063919  -2.613914  -0.026466
     2  C    0.345499  -0.647209  -0.011873  -0.011873   1.352636   1.352644
     3  C   -0.453625   0.416281   0.063919   0.100345  -0.026467  -2.613929
     4  C    0.671539  -0.399779  -0.083489  -0.057907   0.210471   1.172999
     5  C   -0.442113   0.312066   0.031950   0.031950  -0.740708  -0.740710
     6  C    0.671539  -0.399778  -0.057907  -0.083490   1.172993   0.210471
     7  N    6.237585  -0.017863   0.000264   0.000264   0.011379   0.011379
     8  N   -0.017863   7.505071  -0.267478  -0.267477  -0.171702  -0.171703
     9  O    0.000264  -0.267478   8.999337  -0.077018  -0.013142  -0.024228
    10  O    0.000264  -0.267477  -0.077018   8.999336  -0.024228  -0.013142
    11  H    0.011379  -0.171702  -0.013142  -0.024228   2.941905  -0.022725
    12  H    0.011379  -0.171703  -0.024228  -0.013142  -0.022725   2.941909
    13  H   -0.218665   0.019192  -0.003197  -0.001135   0.017234  -0.230264
    14  H   -0.218665   0.019192  -0.001135  -0.003197  -0.230264   0.017234
    15  H    0.319200   0.000269   0.000018   0.000286   0.003302  -0.003749
    16  H    0.319198   0.000269   0.000286   0.000018  -0.003749   0.003302
              13         14         15         16
     1  C    0.215876   1.161333   0.136221  -0.043591
     2  C   -0.753889  -0.753890  -0.004563  -0.004563
     3  C    1.161334   0.215877  -0.043591   0.136222
     4  C   -3.114157  -0.056435  -0.242780   0.248510
     5  C    1.721816   1.721821  -0.198717  -0.198715
     6  C   -0.056434  -3.114165   0.248510  -0.242782
     7  N   -0.218665  -0.218665   0.319200   0.319198
     8  N    0.019192   0.019192   0.000269   0.000269
     9  O   -0.003197  -0.001135   0.000018   0.000286
    10  O   -0.001135  -0.003197   0.000286   0.000018
    11  H    0.017234  -0.230264   0.003302  -0.003749
    12  H   -0.230264   0.017234  -0.003749   0.003302
    13  H    3.238753  -0.038369   0.018691  -0.003469
    14  H   -0.038369   3.238756  -0.003469   0.018691
    15  H    0.018691  -0.003469   1.099615  -0.233975
    16  H   -0.003469   0.018691  -0.233975   1.099620
 Mulliken charges:
               1
     1  C    0.730609
     2  C    0.906391
     3  C    0.730618
     4  C    0.796328
     5  C    0.345173
     6  C    0.796330
     7  N    0.216709
     8  N    0.654370
     9  O   -0.656653
    10  O   -0.656652
    11  H   -0.863023
    12  H   -0.863023
    13  H   -0.973316
    14  H   -0.973317
    15  H   -0.095271
    16  H   -0.095275
 Sum of Mulliken charges =  -0.00000
 Mulliken charges with hydrogens summed into heavy atoms:
               1
     1  C   -0.132414
     2  C    0.906391
     3  C   -0.132405
     4  C   -0.176988
     5  C    0.345173
     6  C   -0.176987
     7  N    0.026163
     8  N    0.654370
     9  O   -0.656653
    10  O   -0.656652
 Electronic spatial extent (au):  <R**2>=           1552.5437
 Charge=             -0.0000 electrons
 Dipole moment (field-independent basis, Debye):
    X=              7.3656    Y=              0.0000    Z=              0.0005  Tot=              7.3656
 Quadrupole moment (field-independent basis, Debye-Ang):
   XX=            -56.1456   YY=            -52.5482   ZZ=            -60.8216
   XY=             -0.0000   XZ=             -0.0020   YZ=             -0.0002
 Traceless Quadrupole moment (field-independent basis, Debye-Ang):
   XX=              0.3595   YY=              3.9569   ZZ=             -4.3164
   XY=             -0.0000   XZ=             -0.0020   YZ=             -0.0002
 Octapole moment (field-independent basis, Debye-Ang**2):
  XXX=            102.1321  YYY=              0.0000  ZZZ=             -0.0019  XYY=             15.6883
  XXY=              0.0001  XXZ=              0.0039  XZZ=            -13.3256  YZZ=              0.0000
  YYZ=             -0.0001  XYZ=             -0.0009
 Hexadecapole moment (field-independent basis, Debye-Ang**3):
 XXXX=          -1357.7925 YYYY=           -361.4466 ZZZZ=            -64.7949 XXXY=              0.0000
 XXXZ=             -0.0343 YYYX=              0.0000 YYYZ=              0.0034 ZZZX=             -0.0165
 ZZZY=              0.0056 XXYY=           -294.8060 XXZZ=           -277.6521 YYZZ=            -83.8975
 XXYZ=              0.0006 YYXZ=             -0.0055 ZZXY=             -0.0000
 N-N= 4.965723845639D+02 E-N=-2.141279880849D+03  KE= 4.892028420774D+02
 Calling FoFJK, ICntrl=      2127 FMM=F ISym2X=0 I1Cent= 0 IOpClX= 0 NMat=1 NMatS=1 NMatT=0.
 ***** Axes restored to original set *****
 -------------------------------------------------------------------
 Center     Atomic                   Forces (Hartrees/Bohr)
 Number     Number              X              Y              Z
 -------------------------------------------------------------------
      1        6          -0.000744623    0.001342188    0.000002368
      2        6           0.000104285   -0.000000458    0.000020648
      3        6          -0.000743906   -0.001342146    0.000002389
      4        6           0.000068650   -0.001168363   -0.000000908
      5        6           0.000788755   -0.000000083    0.000000378
      6        6           0.000069756    0.001168779   -0.000000637
      7        7          -0.000685157   -0.000001417    0.000000162
      8        7           0.003526555    0.000000483   -0.000084340
      9        8          -0.001376836   -0.003888439    0.000030068
     10        8          -0.001376285    0.003887990    0.000030313
     11        1           0.001341065   -0.001896794    0.000000176
     12        1           0.001341300    0.001897140    0.000000268
     13        1          -0.001284393    0.002010499   -0.000000266
     14        1          -0.001284581   -0.002010775   -0.000000421
     15        1           0.000128100   -0.000382444   -0.000000106
     16        1           0.000127314    0.000383841   -0.000000091
 -------------------------------------------------------------------
 Cartesian Forces:  Max     0.003888439 RMS     0.001270924

 GradGradGradGradGradGradGradGradGradGradGradGradGradGradGradGradGradGrad
 Berny optimization.
 FormGI is forming the generalized inverse of G from B-inverse, IUseBI=4.
 Internal  Forces:  Max     0.004081342 RMS     0.000935222
 Search for a local minimum.
 Step number   1 out of a maximum of   82
 All quantities printed in internal units (Hartrees-Bohrs-Radians)
 Mixed Optimization -- En-DIIS/RFO-DIIS
 Second derivative matrix not updated -- first step.
 ITU=  0
     Eigenvalues ---    0.00932   0.00932   0.01809   0.01995   0.02062
     Eigenvalues ---    0.02120   0.02134   0.02134   0.02152   0.02210
     Eigenvalues ---    0.02212   0.02254   0.02260   0.16000   0.16000
     Eigenvalues ---    0.16000   0.16000   0.16000   0.16000   0.22000
     Eigenvalues ---    0.22974   0.24000   0.25000   0.25000   0.25000
     Eigenvalues ---    0.25000   0.35303   0.35303   0.35567   0.35567
     Eigenvalues ---    0.37286   0.41339   0.42255   0.45466   0.45865
     Eigenvalues ---    0.46767   0.46767   0.47351   0.48515   0.51644
     Eigenvalues ---    0.94758   0.94758
 RFO step:  Lambda=-1.20075685D-04 EMin= 9.31866625D-03
 Linear search not attempted -- first point.
 Iteration  1 RMS(Cart)=  0.00275814 RMS(Int)=  0.00000403
 Iteration  2 RMS(Cart)=  0.00000444 RMS(Int)=  0.00000131
 Iteration  3 RMS(Cart)=  0.00000000 RMS(Int)=  0.00000131
 Variable       Old X    -DE/DX   Delta X   Delta X   Delta X     New X
                                 (Linear)    (Quad)   (Total)
    R1        2.63159   0.00085   0.00000   0.00183   0.00183   2.63342
    R2        2.61395   0.00104   0.00000   0.00213   0.00213   2.61608
    R3        2.04765   0.00232   0.00000   0.00651   0.00651   2.05416
    R4        2.63159   0.00085   0.00000   0.00183   0.00183   2.63342
    R5        2.75418   0.00077   0.00000   0.00207   0.00207   2.75625
    R6        2.61395   0.00104   0.00000   0.00214   0.00214   2.61608
    R7        2.04764   0.00232   0.00000   0.00651   0.00651   2.05416
    R8        2.66251   0.00049   0.00000   0.00108   0.00108   2.66359
    R9        2.05186   0.00238   0.00000   0.00675   0.00675   2.05861
   R10        2.66251   0.00049   0.00000   0.00108   0.00108   2.66359
   R11        2.58242   0.00043   0.00000   0.00083   0.00083   2.58325
   R12        2.05186   0.00238   0.00000   0.00675   0.00675   2.05861
   R13        1.89976   0.00026   0.00000   0.00056   0.00056   1.90032
   R14        1.89975   0.00026   0.00000   0.00056   0.00056   1.90032
   R15        2.30815  -0.00408   0.00000  -0.00431  -0.00431   2.30384
   R16        2.30814  -0.00408   0.00000  -0.00431  -0.00431   2.30384
    A1        2.08172  -0.00000   0.00000   0.00010   0.00010   2.08182
    A2        2.08512  -0.00017   0.00000  -0.00109  -0.00109   2.08402
    A3        2.11635   0.00017   0.00000   0.00100   0.00100   2.11735
    A4        2.11862   0.00006   0.00000   0.00038   0.00038   2.11899
    A5        2.08228  -0.00003   0.00000  -0.00019  -0.00019   2.08210
    A6        2.08229  -0.00003   0.00000  -0.00019  -0.00019   2.08210
    A7        2.08172  -0.00000   0.00000   0.00010   0.00010   2.08182
    A8        2.08512  -0.00017   0.00000  -0.00109  -0.00109   2.08402
    A9        2.11635   0.00017   0.00000   0.00100   0.00100   2.11735
   A10        2.10427  -0.00034   0.00000  -0.00151  -0.00151   2.10276
   A11        2.09262   0.00028   0.00000   0.00146   0.00146   2.09408
   A12        2.08630   0.00006   0.00000   0.00005   0.00005   2.08635
   A13        2.07577   0.00062   0.00000   0.00245   0.00245   2.07822
   A14        2.10371  -0.00031   0.00000  -0.00122  -0.00122   2.10248
   A15        2.10371  -0.00031   0.00000  -0.00122  -0.00122   2.10248
   A16        2.10427  -0.00034   0.00000  -0.00151  -0.00151   2.10276
   A17        2.09262   0.00028   0.00000   0.00146   0.00146   2.09408
   A18        2.08630   0.00005   0.00000   0.00005   0.00005   2.08635
   A19        2.11269  -0.00019   0.00000  -0.00121  -0.00121   2.11148
   A20        2.11269  -0.00019   0.00000  -0.00121  -0.00121   2.11148
   A21        2.05780   0.00039   0.00000   0.00243   0.00243   2.06023
   A22        2.05673   0.00046   0.00000   0.00184   0.00184   2.05857
   A23        2.05673   0.00046   0.00000   0.00184   0.00184   2.05857
   A24        2.16972  -0.00092   0.00000  -0.00368  -0.00369   2.16603
    D1       -0.00000   0.00000   0.00000   0.00005   0.00005   0.00005
    D2       -3.14159   0.00000   0.00000   0.00004   0.00004  -3.14155
    D3        3.14159   0.00000   0.00000   0.00002   0.00002  -3.14158
    D4        0.00000   0.00000   0.00000   0.00001   0.00001   0.00001
    D5       -0.00000  -0.00000   0.00000  -0.00002  -0.00002  -0.00002
    D6       -3.14159  -0.00000   0.00000  -0.00003  -0.00003   3.14157
    D7       -3.14159   0.00000   0.00000   0.00001   0.00001  -3.14158
    D8        0.00000   0.00000   0.00000   0.00000   0.00000   0.00000
    D9        0.00000  -0.00000   0.00000  -0.00005  -0.00005  -0.00005
   D10       -3.14159  -0.00000   0.00000  -0.00002  -0.00002   3.14158
   D11        3.14159  -0.00000   0.00000  -0.00004  -0.00004   3.14155
   D12       -0.00000  -0.00000   0.00000  -0.00001  -0.00001  -0.00001
   D13        3.14135   0.00003   0.00000   0.00319   0.00319  -3.13864
   D14        0.00025  -0.00003   0.00000  -0.00318  -0.00318  -0.00293
   D15       -0.00024   0.00003   0.00000   0.00318   0.00318   0.00294
   D16       -3.14134  -0.00003   0.00000  -0.00319  -0.00319   3.13865
   D17       -0.00000   0.00000   0.00000   0.00002   0.00002   0.00002
   D18       -3.14159   0.00000   0.00000   0.00003   0.00003  -3.14157
   D19        3.14159  -0.00000   0.00000  -0.00001  -0.00001   3.14158
   D20       -0.00000  -0.00000   0.00000  -0.00000  -0.00000  -0.00000
   D21        0.00000   0.00000   0.00000   0.00000   0.00000   0.00000
   D22        3.14159   0.00000   0.00000   0.00001   0.00001  -3.14159
   D23        3.14159  -0.00000   0.00000  -0.00000  -0.00000   3.14159
   D24       -0.00000   0.00000   0.00000   0.00000   0.00000  -0.00000
   D25        0.00000  -0.00000   0.00000  -0.00000  -0.00000  -0.00000
   D26       -3.14159   0.00000   0.00000   0.00000   0.00000  -3.14159
   D27       -3.14159  -0.00000   0.00000  -0.00001  -0.00001   3.14159
   D28        0.00000  -0.00000   0.00000  -0.00000  -0.00000   0.00000
   D29        3.14158  -0.00000   0.00000  -0.00001  -0.00001   3.14157
   D30        0.00001   0.00000   0.00000   0.00000   0.00000   0.00002
   D31       -0.00002  -0.00000   0.00000  -0.00000  -0.00000  -0.00002
   D32       -3.14158   0.00000   0.00000   0.00001   0.00001  -3.14157
         Item               Value     Threshold  Converged?
 Maximum Force            0.004081     0.000450     NO 
 RMS     Force            0.000935     0.000300     NO 
 Maximum Displacement     0.007890     0.001800     NO 
 RMS     Displacement     0.002758     0.001200     NO 
 Predicted change in Energy=-6.005764D-05
 GradGradGradGradGradGradGradGradGradGradGradGradGradGradGradGradGradGrad

                          Input orientation:                          
 ---------------------------------------------------------------------
 Center     Atomic      Atomic             Coordinates (Angstroms)
 Number     Number       Type             X           Y           Z
 ---------------------------------------------------------------------
      1          6           0        0.023890   -1.215323   -0.000590
      2          6           0        0.705766   -0.000000   -0.000786
      3          6           0        0.023890    1.215323   -0.000520
      4          6           0       -1.360480    1.214934   -0.000109
      5          6           0       -2.075086   -0.000000    0.000066
      6          6           0       -1.360480   -1.214935   -0.000179
      7          7           0       -3.442082   -0.000000    0.000467
      8          7           0        2.164311    0.000000   -0.001270
      9          8           0        2.735673    1.076957    0.001746
     10          8           0        2.735674   -1.076956    0.001672
     11          1           0        0.588596   -2.144143   -0.000793
     12          1           0        0.588596    2.144142   -0.000669
     13          1           0       -1.905127    2.158375    0.000076
     14          1           0       -1.905127   -2.158375   -0.000049
     15          1           0       -3.959686   -0.862164    0.000575
     16          1           0       -3.959686    0.862163    0.000628
 ---------------------------------------------------------------------
                    Distance matrix (angstroms):
                    1          2          3          4          5
     1  C    0.000000
     2  C    1.393544   0.000000
     3  C    2.430645   1.393544   0.000000
     4  C    2.796897   2.396965   1.384370   0.000000
     5  C    2.425429   2.780853   2.425429   1.409513   0.000000
     6  C    1.384370   2.396965   2.796897   2.429869   1.409513
     7  N    3.672870   4.147849   3.672870   2.410214   1.366996
     8  N    2.461384   1.458544   2.461384   3.728300   4.239397
     9  O    3.550820   2.297904   2.715312   4.098477   4.929831
    10  O    2.715314   2.297905   3.550820   4.693746   4.929833
    11  H    1.087014   2.147342   3.406596   3.883593   3.419437
    12  H    3.406596   2.147341   1.087014   2.159242   3.419437
    13  H    3.886250   3.387528   2.147197   1.089367   2.165056
    14  H    2.147197   3.387528   3.886251   3.416995   2.165056
    15  H    3.999199   4.744446   4.492752   3.327192   2.072448
    16  H    4.492752   4.744447   3.999200   2.623036   2.072449
                    6          7          8          9         10
     6  C    0.000000
     7  N    2.410214   0.000000
     8  N    3.728300   5.606393   0.000000
     9  O    4.693745   6.270924   1.219139   0.000000
    10  O    4.098479   6.270926   1.219139   2.153913   0.000000
    11  H    2.159242   4.565492   2.660869   3.871102   2.397674
    12  H    3.883593   4.565492   2.660868   2.397671   3.871101
    13  H    3.416995   2.649682   4.606399   4.765133   5.657244
    14  H    1.089367   2.649682   4.606399   5.657243   4.765135
    15  H    2.623036   1.005604   6.184388   6.970510   6.698805
    16  H    3.327192   1.005604   6.184389   6.698803   6.970512
                   11         12         13         14         15
    11  H    0.000000
    12  H    4.288285   0.000000
    13  H    4.972958   2.493764   0.000000
    14  H    2.493764   4.972958   4.316750   0.000000
    15  H    4.725499   5.452040   3.653062   2.429275   0.000000
    16  H    5.452040   4.725499   2.429275   3.653063   1.724327
                   16
    16  H    0.000000
 Stoichiometry    C6H6N2O2
 Framework group  C1[X(C6H6N2O2)]
 Deg. of freedom    42
 Full point group                 C1      NOp   1
 Largest Abelian subgroup         C1      NOp   1
 Largest concise Abelian subgroup C1      NOp   1
                         Standard orientation:                         
 ---------------------------------------------------------------------
 Center     Atomic      Atomic             Coordinates (Angstroms)
 Number     Number       Type             X           Y           Z
 ---------------------------------------------------------------------
      1          6           0       -0.023626    1.215323   -0.000712
      2          6           0       -0.705503    0.000000   -0.000907
      3          6           0       -0.023627   -1.215322   -0.000642
      4          6           0        1.360743   -1.214934   -0.000231
      5          6           0        2.075349    0.000000   -0.000056
      6          6           0        1.360744    1.214935   -0.000301
      7          7           0        3.442345   -0.000000    0.000345
      8          7           0       -2.164048    0.000000   -0.001392
      9          8           0       -2.735410   -1.076957    0.001624
     10          8           0       -2.735411    1.076956    0.001550
     11          1           0       -0.588333    2.144143   -0.000914
     12          1           0       -0.588333   -2.144142   -0.000791
     13          1           0        1.905390   -2.158375   -0.000046
     14          1           0        1.905390    2.158375   -0.000171
     15          1           0        3.959949    0.862163    0.000453
     16          1           0        3.959949   -0.862164    0.000506
 ---------------------------------------------------------------------
 Rotational constants (GHZ):      3.9442104      0.8260289      0.6829915
 Standard basis: Aug-CC-pVDZ (5D, 7F)
 There are   304 symmetry adapted cartesian basis functions of A   symmetry.
 There are   284 symmetry adapted basis functions of A   symmetry.
   284 basis functions,   496 primitive gaussians,   304 cartesian basis functions
    36 alpha electrons       36 beta electrons
       nuclear repulsion energy       496.4311388765 Hartrees.
 NAtoms=   16 NActive=   16 NUniq=   16 SFac= 1.00D+00 NAtFMM=   60 NAOKFM=F Big=F
 Integral buffers will be    131072 words long.
 Raffenetti 2 integral format.
 Two-electron integral symmetry is turned on.
 One-electron integrals computed using PRISM.
 NBasis=   284 RedAO= T EigKep=  1.84D-06  NBF=   284
 NBsUse=   284 1.00D-06 EigRej= -1.00D+00 NBFU=   284
 Initial guess from the checkpoint file:  "pvdzPNA.chk"
 B after Tr=     0.000000    0.000000   -0.000000
         Rot=    1.000000    0.000000   -0.000068   -0.000000 Ang=   0.01 deg.
 Keep R1 ints in memory in canonical form, NReq=833420375.
 Requested convergence on RMS density matrix=1.00D-08 within 128 cycles.
 Requested convergence on MAX density matrix=1.00D-06.
 Requested convergence on             energy=1.00D-06.
 No special actions if energy rises.
 SCF Done:  E(RM062X) =  -491.998373990     A.U. after   11 cycles
            NFock= 11  Conv=0.77D-08     -V/T= 2.0058
 Calling FoFJK, ICntrl=      2127 FMM=F ISym2X=0 I1Cent= 0 IOpClX= 0 NMat=1 NMatS=1 NMatT=0.
 ***** Axes restored to original set *****
 -------------------------------------------------------------------
 Center     Atomic                   Forces (Hartrees/Bohr)
 Number     Number              X              Y              Z
 -------------------------------------------------------------------
      1        6          -0.000021059    0.000048801   -0.000032894
      2        6          -0.000598934   -0.000000082   -0.000247660
      3        6          -0.000021054   -0.000048715   -0.000032967
      4        6           0.000027912    0.000031678    0.000010332
      5        6           0.000422227    0.000000060   -0.000004217
      6        6           0.000027954   -0.000031721    0.000010308
      7        7          -0.000432946    0.000000026    0.000000243
      8        7           0.001667036    0.000000254    0.001005467
      9        8          -0.000700965   -0.000105939   -0.000357989
     10        8          -0.000701093    0.000105762   -0.000357986
     11        1           0.000041606    0.000121934   -0.000001125
     12        1           0.000041536   -0.000122002   -0.000001126
     13        1           0.000021127   -0.000122971    0.000004480
     14        1           0.000021105    0.000122979    0.000004492
     15        1           0.000102735   -0.000016764    0.000000321
     16        1           0.000102813    0.000016700    0.000000320
 -------------------------------------------------------------------
 Cartesian Forces:  Max     0.001667036 RMS     0.000351634

 GradGradGradGradGradGradGradGradGradGradGradGradGradGradGradGradGradGrad
 Berny optimization.
 Using GEDIIS/GDIIS optimizer.
 FormGI is forming the generalized inverse of G from B-inverse, IUseBI=4.
 Internal  Forces:  Max     0.000875370 RMS     0.000186167
 Search for a local minimum.
 Step number   2 out of a maximum of   82
 All quantities printed in internal units (Hartrees-Bohrs-Radians)
 Mixed Optimization -- En-DIIS/RFO-DIIS
 Swapping is turned off.
 Update second derivatives using D2CorX and points    1    2
 DE= -5.60D-05 DEPred=-6.01D-05 R= 9.32D-01
 TightC=F SS=  1.41D+00  RLast= 1.81D-02 DXNew= 5.0454D-01 5.4421D-02
 Trust test= 9.32D-01 RLast= 1.81D-02 DXMaxT set to 3.00D-01
 ITU=  1  0
     Eigenvalues ---    0.00932   0.00993   0.01809   0.01995   0.02061
     Eigenvalues ---    0.02120   0.02134   0.02134   0.02152   0.02210
     Eigenvalues ---    0.02212   0.02254   0.02260   0.15657   0.16000
     Eigenvalues ---    0.16000   0.16000   0.16000   0.16004   0.22000
     Eigenvalues ---    0.22841   0.23633   0.25000   0.25000   0.25000
     Eigenvalues ---    0.25893   0.35303   0.35439   0.35567   0.36200
     Eigenvalues ---    0.37940   0.41343   0.42265   0.45466   0.46634
     Eigenvalues ---    0.46767   0.46964   0.47351   0.49422   0.51632
     Eigenvalues ---    0.88475   0.94758
 En-DIIS/RFO-DIIS IScMMF=        0 using points:     2    1
 RFO step:  Lambda=-8.30237352D-06.
 DidBck=F Rises=F RFO-DIIS coefs:    0.93735    0.06265
 Iteration  1 RMS(Cart)=  0.00874759 RMS(Int)=  0.00025570
 Iteration  2 RMS(Cart)=  0.00022035 RMS(Int)=  0.00015676
 Iteration  3 RMS(Cart)=  0.00000007 RMS(Int)=  0.00015676
 Variable       Old X    -DE/DX   Delta X   Delta X   Delta X     New X
                                 (Linear)    (Quad)   (Total)
    R1        2.63342  -0.00024  -0.00011   0.00045   0.00033   2.63375
    R2        2.61608  -0.00015  -0.00013   0.00082   0.00069   2.61677
    R3        2.05416  -0.00008  -0.00041   0.00315   0.00275   2.05690
    R4        2.63342  -0.00024  -0.00011   0.00045   0.00033   2.63375
    R5        2.75625   0.00026  -0.00013   0.00174   0.00161   2.75786
    R6        2.61608  -0.00015  -0.00013   0.00082   0.00069   2.61677
    R7        2.05416  -0.00008  -0.00041   0.00315   0.00275   2.05690
    R8        2.66359  -0.00012  -0.00007   0.00033   0.00026   2.66385
    R9        2.05861  -0.00012  -0.00042   0.00318   0.00276   2.06136
   R10        2.66359  -0.00012  -0.00007   0.00033   0.00026   2.66385
   R11        2.58325   0.00023  -0.00005   0.00084   0.00079   2.58404
   R12        2.05861  -0.00012  -0.00042   0.00318   0.00276   2.06137
   R13        1.90032  -0.00004  -0.00004   0.00021   0.00018   1.90049
   R14        1.90032  -0.00004  -0.00004   0.00021   0.00018   1.90049
   R15        2.30384  -0.00042   0.00027  -0.00265  -0.00238   2.30146
   R16        2.30384  -0.00042   0.00027  -0.00265  -0.00238   2.30146
    A1        2.08182  -0.00004  -0.00001  -0.00012  -0.00013   2.08169
    A2        2.08402  -0.00008   0.00007  -0.00107  -0.00101   2.08302
    A3        2.11735   0.00012  -0.00006   0.00120   0.00114   2.11848
    A4        2.11899   0.00013  -0.00002   0.00064   0.00062   2.11961
    A5        2.08210  -0.00006   0.00001  -0.00032  -0.00031   2.08179
    A6        2.08210  -0.00006   0.00001  -0.00032  -0.00031   2.08179
    A7        2.08182  -0.00004  -0.00001  -0.00012  -0.00013   2.08169
    A8        2.08402  -0.00008   0.00007  -0.00107  -0.00101   2.08302
    A9        2.11735   0.00012  -0.00006   0.00120   0.00114   2.11848
   A10        2.10276  -0.00005   0.00009  -0.00097  -0.00087   2.10189
   A11        2.09408   0.00007  -0.00009   0.00111   0.00102   2.09509
   A12        2.08635  -0.00002  -0.00000  -0.00014  -0.00015   2.08620
   A13        2.07822   0.00006  -0.00015   0.00154   0.00138   2.07960
   A14        2.10248  -0.00003   0.00008  -0.00077  -0.00069   2.10179
   A15        2.10248  -0.00003   0.00008  -0.00077  -0.00069   2.10179
   A16        2.10276  -0.00005   0.00009  -0.00097  -0.00087   2.10189
   A17        2.09408   0.00007  -0.00009   0.00111   0.00102   2.09509
   A18        2.08635  -0.00002  -0.00000  -0.00014  -0.00015   2.08620
   A19        2.11148  -0.00006   0.00008  -0.00099  -0.00091   2.11057
   A20        2.11148  -0.00006   0.00008  -0.00099  -0.00091   2.11056
   A21        2.06023   0.00012  -0.00015   0.00197   0.00182   2.06206
   A22        2.05857  -0.00044  -0.00011  -0.00056  -0.00144   2.05713
   A23        2.05857  -0.00044  -0.00012  -0.00056  -0.00144   2.05713
   A24        2.16603   0.00088   0.00023   0.00150   0.00096   2.16699
    D1        0.00005  -0.00001  -0.00000  -0.00057  -0.00057  -0.00053
    D2       -3.14155  -0.00001  -0.00000  -0.00048  -0.00048   3.14115
    D3       -3.14158  -0.00000  -0.00000  -0.00019  -0.00019   3.14142
    D4        0.00001  -0.00000  -0.00000  -0.00010  -0.00010  -0.00009
    D5       -0.00002   0.00001   0.00000   0.00026   0.00026   0.00024
    D6        3.14157   0.00001   0.00000   0.00034   0.00034  -3.14128
    D7       -3.14158  -0.00000  -0.00000  -0.00013  -0.00013   3.14147
    D8        0.00000  -0.00000  -0.00000  -0.00005  -0.00006  -0.00005
    D9       -0.00005   0.00001   0.00000   0.00057   0.00057   0.00053
   D10        3.14158   0.00000   0.00000   0.00019   0.00019  -3.14142
   D11        3.14155   0.00001   0.00000   0.00048   0.00048  -3.14115
   D12       -0.00001   0.00000   0.00000   0.00010   0.00010   0.00009
   D13       -3.13864  -0.00036  -0.00020  -0.03479  -0.03496   3.10958
   D14       -0.00293   0.00036   0.00020   0.03470   0.03488   0.03194
   D15        0.00294  -0.00036  -0.00020  -0.03470  -0.03488  -0.03193
   D16        3.13865   0.00036   0.00020   0.03479   0.03497  -3.10957
   D17        0.00002  -0.00001  -0.00000  -0.00026  -0.00026  -0.00024
   D18       -3.14157  -0.00001  -0.00000  -0.00034  -0.00034   3.14128
   D19        3.14158   0.00000   0.00000   0.00013   0.00013  -3.14147
   D20       -0.00000   0.00000   0.00000   0.00005   0.00005   0.00005
   D21        0.00000  -0.00000  -0.00000  -0.00004  -0.00004  -0.00004
   D22       -3.14159  -0.00000  -0.00000  -0.00007  -0.00007   3.14152
   D23        3.14159   0.00000   0.00000   0.00004   0.00004  -3.14156
   D24       -0.00000   0.00000  -0.00000   0.00000   0.00000   0.00000
   D25       -0.00000   0.00000   0.00000   0.00004   0.00004   0.00004
   D26       -3.14159  -0.00000  -0.00000  -0.00004  -0.00004   3.14156
   D27        3.14159   0.00000   0.00000   0.00007   0.00007  -3.14152
   D28        0.00000  -0.00000   0.00000  -0.00000  -0.00000  -0.00000
   D29        3.14157   0.00000   0.00000   0.00003   0.00003  -3.14158
   D30        0.00002  -0.00000  -0.00000  -0.00000  -0.00000   0.00002
   D31       -0.00002   0.00000   0.00000   0.00000   0.00000  -0.00002
   D32       -3.14157  -0.00000  -0.00000  -0.00003  -0.00003   3.14158
         Item               Value     Threshold  Converged?
 Maximum Force            0.000875     0.000450     NO 
 RMS     Force            0.000186     0.000300     YES
 Maximum Displacement     0.038867     0.001800     NO 
 RMS     Displacement     0.008750     0.001200     NO 
 Predicted change in Energy=-2.739088D-05
 GradGradGradGradGradGradGradGradGradGradGradGradGradGradGradGradGradGrad

                          Input orientation:                          
 ---------------------------------------------------------------------
 Center     Atomic      Atomic             Coordinates (Angstroms)
 Number     Number       Type             X           Y           Z
 ---------------------------------------------------------------------
      1          6           0        0.023970   -1.215687    0.006103
      2          6           0        0.705556   -0.000000    0.008547
      3          6           0        0.023970    1.215687    0.006173
      4          6           0       -1.360757    1.215546    0.001915
      5          6           0       -2.074588   -0.000000   -0.000292
      6          6           0       -1.360757   -1.215546    0.001845
      7          7           0       -3.441996   -0.000000   -0.004415
      8          7           0        2.164943   -0.000000    0.013597
      9          8           0        2.734282    1.076121   -0.018820
     10          8           0        2.734283   -1.076118   -0.018896
     11          1           0        0.590650   -2.145005    0.007915
     12          1           0        0.590650    2.145004    0.008039
     13          1           0       -1.906923    2.159794    0.000313
     14          1           0       -1.906923   -2.159795    0.000189
     15          1           0       -3.958860   -0.862715   -0.006001
     16          1           0       -3.958860    0.862716   -0.005949
 ---------------------------------------------------------------------
                    Distance matrix (angstroms):
                    1          2          3          4          5
     1  C    0.000000
     2  C    1.393721   0.000000
     3  C    2.431374   1.393721   0.000000
     4  C    2.797925   2.397342   1.384734   0.000000
     5  C    2.425259   2.780157   2.425259   1.409649   0.000000
     6  C    1.384734   2.397341   2.797925   2.431092   1.409649
     7  N    3.673000   4.147572   3.673001   2.410218   1.367415
     8  N    2.462055   1.459396   2.462054   3.729377   4.239553
     9  O    3.549478   2.296631   2.714017   4.097464   4.927840
    10  O    2.714019   2.296632   3.549478   4.692709   4.927841
    11  H    1.088467   2.148080   3.408134   3.886043   3.421199
    12  H    3.408134   2.148080   1.088467   2.161463   3.421200
    13  H    3.888735   3.389664   2.149354   1.090827   2.166292
    14  H    2.149354   3.389664   3.888735   3.419243   2.166293
    15  H    3.998459   4.743549   4.492532   3.327066   2.072388
    16  H    4.492532   4.743550   3.998459   2.621963   2.072388
                    6          7          8          9         10
     6  C    0.000000
     7  N    2.410217   0.000000
     8  N    3.729377   5.606968   0.000000
     9  O    4.692708   6.269342   1.217881   0.000000
    10  O    4.097466   6.269344   1.217881   2.152239   0.000000
    11  H    2.161462   4.567651   2.660728   3.869305   2.395496
    12  H    3.886043   4.567651   2.660727   2.395493   3.869304
    13  H    3.419243   2.649752   4.609228   4.766078   5.657941
    14  H    1.090827   2.649752   4.609228   5.657940   4.766079
    15  H    2.621963   1.005698   6.184304   6.968313   6.696557
    16  H    3.327067   1.005698   6.184305   6.696556   6.968315
                   11         12         13         14         15
    11  H    0.000000
    12  H    4.290009   0.000000
    13  H    4.976869   2.497629   0.000000
    14  H    2.497628   4.976869   4.319589   0.000000
    15  H    4.726785   5.453863   3.653224   2.427529   0.000000
    16  H    5.453863   4.726786   2.427529   3.653225   1.725431
                   16
    16  H    0.000000
 Stoichiometry    C6H6N2O2
 Framework group  C1[X(C6H6N2O2)]
 Deg. of freedom    42
 Full point group                 C1      NOp   1
 Largest Abelian subgroup         C1      NOp   1
 Largest concise Abelian subgroup C1      NOp   1
                         Standard orientation:                         
 ---------------------------------------------------------------------
 Center     Atomic      Atomic             Coordinates (Angstroms)
 Number     Number       Type             X           Y           Z
 ---------------------------------------------------------------------
      1          6           0       -0.023915    1.215687    0.007384
      2          6           0       -0.705497    0.000000    0.010724
      3          6           0       -0.023916   -1.215687    0.007380
      4          6           0        1.360805   -1.215546    0.001226
      5          6           0        2.074632    0.000000   -0.001922
      6          6           0        1.360805    1.215546    0.001230
      7          7           0        3.442034   -0.000000   -0.007916
      8          7           0       -2.164875    0.000000    0.017772
      9          8           0       -2.734258   -1.076120   -0.013898
     10          8           0       -2.734260    1.076119   -0.013909
     11          1           0       -0.590591    2.145005    0.010000
     12          1           0       -0.590593   -2.145004    0.009994
     13          1           0        1.906968   -2.159794   -0.001152
     14          1           0        1.906968    2.159794   -0.001145
     15          1           0        3.958895    0.862715   -0.010184
     16          1           0        3.958895   -0.862716   -0.010184
 ---------------------------------------------------------------------
 Rotational constants (GHZ):      3.9431171      0.8262951      0.6831675
 Standard basis: Aug-CC-pVDZ (5D, 7F)
 There are   304 symmetry adapted cartesian basis functions of A   symmetry.
 There are   284 symmetry adapted basis functions of A   symmetry.
   284 basis functions,   496 primitive gaussians,   304 cartesian basis functions
    36 alpha electrons       36 beta electrons
       nuclear repulsion energy       496.4572567400 Hartrees.
 NAtoms=   16 NActive=   16 NUniq=   16 SFac= 1.00D+00 NAtFMM=   60 NAOKFM=F Big=F
 Integral buffers will be    131072 words long.
 Raffenetti 2 integral format.
 Two-electron integral symmetry is turned on.
 One-electron integrals computed using PRISM.
 NBasis=   284 RedAO= T EigKep=  1.84D-06  NBF=   284
 NBsUse=   284 1.00D-06 EigRej= -1.00D+00 NBFU=   284
 Initial guess from the checkpoint file:  "pvdzPNA.chk"
 B after Tr=    -0.000000    0.000000   -0.000000
         Rot=    1.000000   -0.000015    0.000057    0.000000 Ang=  -0.01 deg.
 ExpMin= 2.97D-02 ExpMax= 1.17D+04 ExpMxC= 4.01D+02 IAcc=3 IRadAn=         5 AccDes= 0.00D+00
 Harris functional with IExCor= 1009 and IRadAn=       5 diagonalized for initial guess.
 HarFok:  IExCor= 1009 AccDes= 0.00D+00 IRadAn=         5 IDoV= 1 UseB2=F ITyADJ=14
 ICtDFT=  3500011 ScaDFX=  1.000000  1.000000  1.000000  1.000000
 FoFCou: FMM=F IPFlag=           0 FMFlag=      100000 FMFlg1=           0
         NFxFlg=           0 DoJE=T BraDBF=F KetDBF=T FulRan=T
         wScrn=  0.000000 ICntrl=     500 IOpCl=  0 I1Cent=   200000004 NGrid=           0
         NMat0=    1 NMatS0=      1 NMatT0=    0 NMatD0=    1 NMtDS0=    0 NMtDT0=    0
 Petite list used in FoFCou.
 Keep R1 ints in memory in canonical form, NReq=833420375.
 Requested convergence on RMS density matrix=1.00D-08 within 128 cycles.
 Requested convergence on MAX density matrix=1.00D-06.
 Requested convergence on             energy=1.00D-06.
 No special actions if energy rises.
 SCF Done:  E(RM062X) =  -491.998115363     A.U. after   12 cycles
            NFock= 12  Conv=0.59D-08     -V/T= 2.0058
 Calling FoFJK, ICntrl=      2127 FMM=F ISym2X=0 I1Cent= 0 IOpClX= 0 NMat=1 NMatS=1 NMatT=0.
 ***** Axes restored to original set *****
 -------------------------------------------------------------------
 Center     Atomic                   Forces (Hartrees/Bohr)
 Number     Number              X              Y              Z
 -------------------------------------------------------------------
      1        6           0.000321886   -0.000587501    0.000360109
      2        6          -0.000840408    0.000000089    0.002697958
      3        6           0.000321635    0.000587461    0.000360135
      4        6          -0.000064806    0.000532269   -0.000111010
      5        6           0.000009896    0.000000085    0.000046095
      6        6          -0.000065208   -0.000532483   -0.000111203
      7        7          -0.000094488    0.000000645    0.000000511
      8        7          -0.000700034    0.000000332   -0.010860434
      9        8           0.000537666    0.001584241    0.003851990
     10        8           0.000537478   -0.001584462    0.003851936
     11        1          -0.000580014    0.000928484    0.000010171
     12        1          -0.000580137   -0.000928640    0.000010144
     13        1           0.000572132   -0.000969310   -0.000047851
     14        1           0.000572196    0.000969445   -0.000047734
     15        1           0.000025906    0.000158116   -0.000005382
     16        1           0.000026300   -0.000158771   -0.000005434
 -------------------------------------------------------------------
 Cartesian Forces:  Max     0.010860434 RMS     0.001873353

 GradGradGradGradGradGradGradGradGradGradGradGradGradGradGradGradGradGrad
 Berny optimization.
 Using GEDIIS/GDIIS optimizer.
 FormGI is forming the generalized inverse of G from B-inverse, IUseBI=4.
 Internal  Forces:  Max     0.003965110 RMS     0.001014074
 Search for a local minimum.
 Step number   3 out of a maximum of   82
 All quantities printed in internal units (Hartrees-Bohrs-Radians)
 Mixed Optimization -- RFO/linear search
 Update second derivatives using D2CorX and points    1    3    2
 DE=  2.59D-04 DEPred=-2.74D-05 R=-9.44D+00
 Trust test=-9.44D+00 RLast= 7.03D-02 DXMaxT set to 1.50D-01
 ITU= -1  1  0
 Use linear search instead of GDIIS.
 Energy rises -- skip Quadratic/GDIIS search.
 Quartic linear search produced a step of -0.91193.
 Iteration  1 RMS(Cart)=  0.00797708 RMS(Int)=  0.00016816
 Iteration  2 RMS(Cart)=  0.00018322 RMS(Int)=  0.00001259
 Iteration  3 RMS(Cart)=  0.00000005 RMS(Int)=  0.00001259
 Variable       Old X    -DE/DX   Delta X   Delta X   Delta X     New X
                                 (Linear)    (Quad)   (Total)
    R1        2.63375  -0.00047  -0.00031   0.00000  -0.00031   2.63345
    R2        2.61677  -0.00049  -0.00063   0.00000  -0.00063   2.61614
    R3        2.05690  -0.00109  -0.00250   0.00000  -0.00250   2.05440
    R4        2.63375  -0.00047  -0.00031   0.00000  -0.00031   2.63345
    R5        2.75786   0.00036  -0.00147   0.00000  -0.00147   2.75639
    R6        2.61677  -0.00049  -0.00063   0.00000  -0.00063   2.61614
    R7        2.05690  -0.00109  -0.00250   0.00000  -0.00250   2.05440
    R8        2.66385  -0.00031  -0.00023   0.00000  -0.00023   2.66362
    R9        2.06136  -0.00113  -0.00252   0.00000  -0.00252   2.05885
   R10        2.66385  -0.00031  -0.00023   0.00000  -0.00023   2.66362
   R11        2.58404   0.00004  -0.00072   0.00000  -0.00072   2.58332
   R12        2.06137  -0.00113  -0.00252   0.00000  -0.00252   2.05885
   R13        1.90049  -0.00015  -0.00016   0.00000  -0.00016   1.90033
   R14        1.90049  -0.00015  -0.00016   0.00000  -0.00016   1.90033
   R15        2.30146   0.00155   0.00217   0.00000   0.00217   2.30363
   R16        2.30146   0.00155   0.00217   0.00000   0.00217   2.30363
    A1        2.08169  -0.00000   0.00012   0.00000   0.00012   2.08180
    A2        2.08302   0.00001   0.00092   0.00000   0.00092   2.08394
    A3        2.11848  -0.00001  -0.00104   0.00000  -0.00104   2.11745
    A4        2.11961  -0.00001  -0.00056   0.00000  -0.00056   2.11905
    A5        2.08179   0.00000   0.00028   0.00000   0.00028   2.08207
    A6        2.08179   0.00000   0.00028   0.00000   0.00028   2.08207
    A7        2.08169  -0.00000   0.00012   0.00000   0.00012   2.08180
    A8        2.08302   0.00001   0.00092   0.00000   0.00092   2.08394
    A9        2.11848  -0.00001  -0.00104   0.00000  -0.00104   2.11745
   A10        2.10189   0.00012   0.00079   0.00000   0.00079   2.10269
   A11        2.09509  -0.00007  -0.00093   0.00000  -0.00093   2.09417
   A12        2.08620  -0.00005   0.00013   0.00000   0.00013   2.08633
   A13        2.07960  -0.00024  -0.00126   0.00000  -0.00126   2.07834
   A14        2.10179   0.00012   0.00063   0.00000   0.00063   2.10242
   A15        2.10179   0.00012   0.00063   0.00000   0.00063   2.10242
   A16        2.10189   0.00012   0.00079   0.00000   0.00079   2.10269
   A17        2.09509  -0.00007  -0.00093   0.00000  -0.00093   2.09417
   A18        2.08620  -0.00005   0.00013   0.00000   0.00013   2.08633
   A19        2.11057   0.00004   0.00083   0.00000   0.00083   2.11140
   A20        2.11056   0.00004   0.00083   0.00000   0.00083   2.11140
   A21        2.06206  -0.00007  -0.00166   0.00000  -0.00166   2.06039
   A22        2.05713   0.00001   0.00131   0.00000   0.00137   2.05850
   A23        2.05713   0.00001   0.00131   0.00000   0.00137   2.05851
   A24        2.16699   0.00046  -0.00088   0.00000  -0.00081   2.16618
    D1       -0.00053   0.00015   0.00052   0.00000   0.00052  -0.00000
    D2        3.14115   0.00013   0.00044   0.00000   0.00044   3.14159
    D3        3.14142   0.00005   0.00017   0.00000   0.00017   3.14159
    D4       -0.00009   0.00003   0.00009   0.00000   0.00009   0.00000
    D5        0.00024  -0.00007  -0.00024   0.00000  -0.00024   0.00000
    D6       -3.14128  -0.00009  -0.00031   0.00000  -0.00031  -3.14159
    D7        3.14147   0.00004   0.00012   0.00000   0.00012   3.14159
    D8       -0.00005   0.00001   0.00005   0.00000   0.00005  -0.00000
    D9        0.00053  -0.00015  -0.00052   0.00000  -0.00052   0.00000
   D10       -3.14142  -0.00005  -0.00017   0.00000  -0.00017  -3.14159
   D11       -3.14115  -0.00013  -0.00044   0.00000  -0.00044  -3.14159
   D12        0.00009  -0.00003  -0.00009   0.00000  -0.00009  -0.00000
   D13        3.10958   0.00397   0.03189   0.00000   0.03189   3.14146
   D14        0.03194  -0.00394  -0.03181   0.00000  -0.03181   0.00014
   D15       -0.03193   0.00394   0.03180   0.00000   0.03180  -0.00013
   D16       -3.10957  -0.00397  -0.03189   0.00000  -0.03189  -3.14145
   D17       -0.00024   0.00007   0.00024   0.00000   0.00024  -0.00000
   D18        3.14128   0.00009   0.00031   0.00000   0.00031   3.14159
   D19       -3.14147  -0.00004  -0.00012   0.00000  -0.00012  -3.14159
   D20        0.00005  -0.00001  -0.00005   0.00000  -0.00005  -0.00000
   D21       -0.00004   0.00001   0.00004   0.00000   0.00004  -0.00000
   D22        3.14152   0.00002   0.00007   0.00000   0.00007   3.14159
   D23       -3.14156  -0.00001  -0.00003   0.00000  -0.00003  -3.14159
   D24        0.00000  -0.00000  -0.00000   0.00000  -0.00000  -0.00000
   D25        0.00004  -0.00001  -0.00004   0.00000  -0.00004  -0.00000
   D26        3.14156   0.00001   0.00003   0.00000   0.00003   3.14159
   D27       -3.14152  -0.00002  -0.00007   0.00000  -0.00007  -3.14159
   D28       -0.00000   0.00000   0.00000   0.00000   0.00000   0.00000
   D29       -3.14158  -0.00001  -0.00003   0.00000  -0.00003   3.14157
   D30        0.00002   0.00000   0.00000   0.00000   0.00000   0.00002
   D31       -0.00002  -0.00000  -0.00000   0.00000  -0.00000  -0.00002
   D32        3.14158   0.00001   0.00003   0.00000   0.00003  -3.14158
         Item               Value     Threshold  Converged?
 Maximum Force            0.003965     0.000450     NO 
 RMS     Force            0.001014     0.000300     NO 
 Maximum Displacement     0.035444     0.001800     NO 
 RMS     Displacement     0.007980     0.001200     NO 
 Predicted change in Energy=-3.096039D-06
 GradGradGradGradGradGradGradGradGradGradGradGradGradGradGradGradGradGrad

                          Input orientation:                          
 ---------------------------------------------------------------------
 Center     Atomic      Atomic             Coordinates (Angstroms)
 Number     Number       Type             X           Y           Z
 ---------------------------------------------------------------------
      1          6           0        0.023890   -1.215355   -0.000001
      2          6           0        0.705742   -0.000000    0.000037
      3          6           0        0.023890    1.215355    0.000070
      4          6           0       -1.360512    1.214988    0.000069
      5          6           0       -2.075050   -0.000000    0.000034
      6          6           0       -1.360512   -1.214989   -0.000001
      7          7           0       -3.442083   -0.000000    0.000037
      8          7           0        2.164361    0.000000    0.000040
      9          8           0        2.735600    1.076901   -0.000065
     10          8           0        2.735602   -1.076900   -0.000140
     11          1           0        0.588770   -2.144219   -0.000026
     12          1           0        0.588771    2.144218    0.000098
     13          1           0       -1.905293    2.158500    0.000097
     14          1           0       -1.905293   -2.158500   -0.000027
     15          1           0       -3.959621   -0.862212   -0.000005
     16          1           0       -3.959622    0.862212    0.000048
 ---------------------------------------------------------------------
                    Distance matrix (angstroms):
                    1          2          3          4          5
     1  C    0.000000
     2  C    1.393560   0.000000
     3  C    2.430710   1.393560   0.000000
     4  C    2.796987   2.396998   1.384402   0.000000
     5  C    2.425414   2.780791   2.425415   1.409525   0.000000
     6  C    1.384402   2.396998   2.796987   2.429977   1.409525
     7  N    3.672881   4.147824   3.672881   2.410214   1.367033
     8  N    2.461443   1.458619   2.461443   3.728394   4.239411
     9  O    3.550748   2.297834   2.715242   4.098439   4.929713
    10  O    2.715244   2.297835   3.550748   4.693708   4.929714
    11  H    1.087142   2.147407   3.406732   3.883809   3.419592
    12  H    3.406732   2.147407   1.087142   2.159438   3.419592
    13  H    3.886469   3.387717   2.147387   1.089496   2.165165
    14  H    2.147387   3.387717   3.886469   3.417193   2.165165
    15  H    3.999134   4.744367   4.492733   3.327181   2.072443
    16  H    4.492733   4.744368   3.999134   2.622941   2.072443
                    6          7          8          9         10
     6  C    0.000000
     7  N    2.410214   0.000000
     8  N    3.728395   5.606444   0.000000
     9  O    4.693708   6.270844   1.219028   0.000000
    10  O    4.098441   6.270845   1.219028   2.153801   0.000000
    11  H    2.159438   4.565682   2.660857   3.870980   2.397510
    12  H    3.883809   4.565682   2.660856   2.397507   3.870980
    13  H    3.417193   2.649688   4.606648   4.765264   5.657359
    14  H    1.089496   2.649688   4.606648   5.657359   4.765266
    15  H    2.622941   1.005612   6.184381   6.970377   6.698664
    16  H    3.327181   1.005612   6.184381   6.698663   6.970378
                   11         12         13         14         15
    11  H    0.000000
    12  H    4.288437   0.000000
    13  H    4.973303   2.494104   0.000000
    14  H    2.494104   4.973303   4.317000   0.000000
    15  H    4.725612   5.452201   3.653076   2.429121   0.000000
    16  H    5.452201   4.725612   2.429121   3.653077   1.724424
                   16
    16  H    0.000000
 Stoichiometry    C6H6N2O2
 Framework group  C1[X(C6H6N2O2)]
 Deg. of freedom    42
 Full point group                 C1      NOp   1
 Largest Abelian subgroup         C1      NOp   1
 Largest concise Abelian subgroup C1      NOp   1
                         Standard orientation:                         
 ---------------------------------------------------------------------
 Center     Atomic      Atomic             Coordinates (Angstroms)
 Number     Number       Type             X           Y           Z
 ---------------------------------------------------------------------
      1          6           0       -0.023640    1.215355   -0.000005
      2          6           0       -0.705492    0.000000    0.000032
      3          6           0       -0.023641   -1.215355    0.000065
      4          6           0        1.360761   -1.214988    0.000065
      5          6           0        2.075299    0.000000    0.000029
      6          6           0        1.360762    1.214988   -0.000005
      7          7           0        3.442332   -0.000000    0.000032
      8          7           0       -2.164111    0.000000    0.000035
      9          8           0       -2.735351   -1.076901   -0.000070
     10          8           0       -2.735352    1.076900   -0.000144
     11          1           0       -0.588521    2.144219   -0.000030
     12          1           0       -0.588521   -2.144218    0.000093
     13          1           0        1.905542   -2.158500    0.000092
     14          1           0        1.905542    2.158500   -0.000032
     15          1           0        3.959871    0.862212   -0.000009
     16          1           0        3.959871   -0.862212    0.000044
 ---------------------------------------------------------------------
 Rotational constants (GHZ):      3.9441198      0.8260410      0.6829968
 Standard basis: Aug-CC-pVDZ (5D, 7F)
 There are   304 symmetry adapted cartesian basis functions of A   symmetry.
 There are   284 symmetry adapted basis functions of A   symmetry.
   284 basis functions,   496 primitive gaussians,   304 cartesian basis functions
    36 alpha electrons       36 beta electrons
       nuclear repulsion energy       496.4316681862 Hartrees.
 NAtoms=   16 NActive=   16 NUniq=   16 SFac= 1.00D+00 NAtFMM=   60 NAOKFM=F Big=F
 Integral buffers will be    131072 words long.
 Raffenetti 2 integral format.
 Two-electron integral symmetry is turned on.
 One-electron integrals computed using PRISM.
 NBasis=   284 RedAO= T EigKep=  1.84D-06  NBF=   284
 NBsUse=   284 1.00D-06 EigRej= -1.00D+00 NBFU=   284
 Lowest energy guess from the checkpoint file:  "pvdzPNA.chk"
 B after Tr=    -0.000000    0.000000   -0.000000
         Rot=    1.000000    0.000000    0.000065   -0.000000 Ang=   0.01 deg.
 B after Tr=    -0.000000   -0.000000    0.000000
         Rot=    1.000000    0.000015    0.000008   -0.000000 Ang=   0.00 deg.
 Keep R1 ints in memory in canonical form, NReq=833420375.
 Requested convergence on RMS density matrix=1.00D-08 within 128 cycles.
 Requested convergence on MAX density matrix=1.00D-06.
 Requested convergence on             energy=1.00D-06.
 No special actions if energy rises.
 SCF Done:  E(RM062X) =  -491.998376415     A.U. after    7 cycles
            NFock=  7  Conv=0.44D-08     -V/T= 2.0058
 Calling FoFJK, ICntrl=      2127 FMM=F ISym2X=0 I1Cent= 0 IOpClX= 0 NMat=1 NMatS=1 NMatT=0.
 ***** Axes restored to original set *****
 -------------------------------------------------------------------
 Center     Atomic                   Forces (Hartrees/Bohr)
 Number     Number              X              Y              Z
 -------------------------------------------------------------------
      1        6           0.000008818   -0.000008209    0.000001665
      2        6          -0.000605882   -0.000000079    0.000011128
      3        6           0.000008815    0.000008299    0.000001595
      4        6           0.000020333    0.000076844   -0.000000457
      5        6           0.000385027    0.000000060    0.000000034
      6        6           0.000020375   -0.000076900   -0.000000490
      7        7          -0.000402047    0.000000081    0.000000249
[...]
 ! A23   A(2,8,10)             117.8492         -DE/DX =    0.0002              !
 ! A24   A(9,8,10)             124.3015         -DE/DX =   -0.0004              !
 ! D1    D(6,1,2,3)              0.0001         -DE/DX =    0.0                 !
 ! D2    D(6,1,2,8)            180.0001         -DE/DX =    0.0                 !
 ! D3    D(11,1,2,3)           180.0            -DE/DX =    0.0                 !
 ! D4    D(11,1,2,8)             0.0001         -DE/DX =    0.0                 !
 ! D5    D(2,1,6,5)              0.0            -DE/DX =    0.0                 !
 ! D6    D(2,1,6,14)          -180.0            -DE/DX =    0.0                 !
 ! D7    D(11,1,6,5)           180.0            -DE/DX =    0.0                 !
 ! D8    D(11,1,6,14)            0.0            -DE/DX =    0.0                 !
 ! D9    D(1,2,3,4)             -0.0001         -DE/DX =    0.0                 !
 ! D10   D(1,2,3,12)          -180.0            -DE/DX =    0.0                 !
 ! D11   D(8,2,3,4)           -180.0001         -DE/DX =    0.0                 !
 ! D12   D(8,2,3,12)             0.0            -DE/DX =    0.0                 !
 ! D13   D(1,2,8,9)           -179.9957         -DE/DX =    0.0                 !
 ! D14   D(1,2,8,10)            -0.0036         -DE/DX =    0.0                 !
 ! D15   D(3,2,8,9)              0.0043         -DE/DX =    0.0                 !
 ! D16   D(3,2,8,10)          -180.0036         -DE/DX =    0.0                 !
 ! D17   D(2,3,4,5)              0.0            -DE/DX =    0.0                 !
 ! D18   D(2,3,4,13)           180.0            -DE/DX =    0.0                 !
 ! D19   D(12,3,4,5)          -180.0            -DE/DX =    0.0                 !
 ! D20   D(12,3,4,13)            0.0            -DE/DX =    0.0                 !
 ! D21   D(3,4,5,6)              0.0            -DE/DX =    0.0                 !
 ! D22   D(3,4,5,7)            179.9998         -DE/DX =    0.0                 !
 ! D23   D(13,4,5,6)          -180.0            -DE/DX =    0.0                 !
 ! D24   D(13,4,5,7)            -0.0001         -DE/DX =    0.0                 !
 ! D25   D(4,5,6,1)              0.0            -DE/DX =    0.0                 !
 ! D26   D(4,5,6,14)           180.0            -DE/DX =    0.0                 !
 ! D27   D(7,5,6,1)           -179.9999         -DE/DX =    0.0                 !
 ! D28   D(7,5,6,14)             0.0002         -DE/DX =    0.0                 !
 ! D29   D(4,5,7,15)           179.9987         -DE/DX =    0.0                 !
 ! D30   D(4,5,7,16)             0.0012         -DE/DX =    0.0                 !
 ! D31   D(6,5,7,15)            -0.0014         -DE/DX =    0.0                 !
 ! D32   D(6,5,7,16)          -179.999          -DE/DX =    0.0                 !
 --------------------------------------------------------------------------------
 GradGradGradGradGradGradGradGradGradGradGradGradGradGradGradGradGradGrad

 1\1\ WCSS.PL-BEM-JP\Freq\RM062X\Aug-CC-pVDZ\C6H6N2O2\C612\15-Dec-2024\
 0\\#N Geom=AllCheck Guess=TCheck SCRF=Check GenChk RM062X/Aug-CC-pVDZ 
 Freq\\[No Title]\\0,1\C,0.023959199,-1.2152839668,-0.0000382437\C,0.70
 53991218,0.0000002503,-0.0000170751\C,0.0239588551,1.215284369,0.00003
 17415\C,-1.3603028716,1.2149942649,0.0000581413\C,-2.0745805425,-0.000
 0001601,0.0000365773\C,-1.3603024975,-1.2149943181,-0.0000117054\N,-3.
 4418602868,-0.0000003728,0.0000657743\N,2.1644575811,0.0000002243,-0.0
 000473118\O,2.7337945998,1.077597202,0.000053164\O,2.7337941562,-1.077
 5969077,-0.0000221328\H,0.5895368482,-2.1436298092,-0.0000760102\H,0.5
 895362531,2.1436303634,0.0000473288\H,-1.9053476834,2.1582048621,0.000
 096007\H,-1.9053469486,-2.1582051549,-0.0000284351\H,-3.9590277345,-0.
 8623876787,0.0000315633\H,-3.9590280496,0.8623868321,0.0000846167\\Ver
 sion=ES64L-G09RevE.01\State=1-A\HF=-491.9983787\RMSD=8.195e-09\RMSF=8.
 870e-05\ZeroPoint=0.1200573\Thermal=0.127946\Dipole=-2.8840448,-0.0000
 011,-0.0000345\DipoleDeriv=0.5194371,0.110833,-0.0000077,0.2744659,0.0
 698326,0.,0.0000173,-0.000001,-0.0501322,-1.0103883,0.0000001,0.000011
 3,0.,-0.1874816,-0.0000056,0.0000228,-0.0000069,-0.0052624,0.5194369,-
 0.1108334,-0.0000121,-0.2744661,0.0698324,0.0000058,-0.0000008,0.00000
 85,-0.0501324,-0.6554917,-0.0212664,0.0000045,-0.5840745,0.010368,0.00
 00169,-0.0000119,0.0000077,-0.1919382,2.1270014,0.,-0.0000367,0.000000
 3,0.085878,-0.0000014,-0.0000429,-0.0000012,0.1119297,-0.6554921,0.021
 2666,0.0000078,0.5840745,0.0103682,-0.0000056,0.0000251,0.0000054,-0.1
 919382,-1.9080387,-0.0000002,0.0000283,-0.0000003,-0.1535929,0.0000116
 ,0.0000619,0.0000111,-0.5375473,2.4292684,0.0000003,-0.0000276,0.,1.68
 35507,0.00005,0.0000027,0.0000512,0.2483316,-1.0050436,-0.4218266,-0.0
 000021,-0.4239359,-0.9993243,-0.0000063,-0.0000403,-0.0000693,-0.25377
 22,-1.0050434,0.4218263,0.000027,0.4239361,-0.9993242,-0.0000451,-0.00
 00118,0.0000167,-0.2537718,0.1203623,0.0322017,0.0000022,0.0190342,0.0
 694805,-0.0000024,0.000001,-0.000002,0.1377758,0.1203621,-0.0322015,0.
 0000004,-0.0190341,0.0694804,-0.0000005,-0.0000001,-0.0000023,0.137775
 8,-0.0031969,0.0674153,0.0000044,0.0663642,-0.0157686,-0.0000052,0.000
 0023,-0.0000068,0.1436088,-0.0031968,-0.0674152,0.0000002,-0.0663643,-
 0.0157687,-0.000003,-0.0000033,-0.0000024,0.1436088,0.2050116,0.054940
 5,0.0000017,0.1005123,0.1512347,-0.0000081,-0.0000082,-0.0000079,0.305
 732,0.2050117,-0.0549404,-0.0000016,-0.1005122,0.1512347,-0.0000011,-0
 .0000141,-0.0000007,0.305732\Polar=149.7537696,0.0000049,100.8732257,-
 0.0010791,0.001402,54.3386283\PG=C01 [X(C6H6N2O2)]\NImag=1\\0.74039715
 ,-0.03770501,0.74196971,-0.00001347,0.00001561,0.14594190,-0.14974010,
 -0.11853537,-0.00000102,0.59422138,-0.05458442,-0.30979565,-0.00000531
 ,-0.00000006,0.79225926,0.00000136,-0.00000436,-0.06508017,-0.00000448
 ,0.00001811,0.13439508,0.05986562,0.02573160,-0.00000041,-0.14974030,0
 .05458444,0.00000359,0.74039724,-0.02573160,-0.05701660,-0.00000109,0.
 11853537,-0.30979546,-0.00000871,0.03770501,0.74196943,-0.00000183,-0.
 00000264,0.00968893,0.00000522,-0.00000743,-0.06508010,-0.00001030,0.0
 0001489,0.14594176,-0.04811865,-0.03365999,-0.00000005,-0.03861707,0.0
 7760487,0.00000308,-0.38987813,-0.03390573,0.00000543,0.74746773,-0.02
 046288,-0.01809181,0.00000017,0.01860234,0.03252984,-0.00000006,0.0362
 0500,-0.12739550,-0.00000242,-0.04167236,0.70125089,0.00000029,0.00000
 036,-0.00446745,0.00000178,-0.00000091,0.01000682,0.00000728,-0.000000
 97,-0.06286402,-0.00001360,0.00001570,0.12999988,-0.03387358,0.0291325
 6,0.00000133,0.01723816,0.,-0.00000043,-0.03387360,-0.02913262,-0.0000
 0034,-0.15427005,-0.10229733,-0.00000144,0.74414546,0.08222766,0.04557
 204,-0.00000031,0.00000003,-0.08033828,-0.00000212,-0.08222767,0.04557
 200,0.00000278,-0.03503501,-0.28109387,-0.00000502,0.00000003,0.704855
 54,0.00000295,0.00000041,0.00417926,-0.00000064,-0.00000203,-0.0096379
 9,-0.00000170,0.00000188,0.00417923,0.00000087,-0.00000383,-0.07483650
 ,-0.00000991,0.00001417,0.17327401,-0.38987804,0.03390576,0.00000765,-
 0.03861699,-0.07760495,-0.00000152,-0.04811864,0.03365995,0.00000192,0
 .06071294,0.01562288,-0.00000063,-0.15427008,0.03503505,0.00000219,0.7
 4746749,-0.03620514,-0.12739546,-0.00000139,-0.01860236,0.03252989,0.0
 0000141,0.02046294,-0.01809180,-0.00000092,-0.01562284,-0.04063027,-0.
 00000112,0.10229742,-0.28109389,-0.00000697,0.04167237,0.70125089,0.00
 000503,-0.00000276,-0.06286406,0.00000061,0.00000227,0.01000684,0.0000
 0158,-0.00000116,-0.00446744,-0.00000155,-0.00000175,0.00957136,0.0000
 0393,-0.00000540,-0.07483653,-0.00001002,0.00001398,0.12999992,0.01264
 510,0.00220422,0.00000015,-0.01956724,0.,0.00000023,0.01264510,-0.0022
 0420,-0.00000002,-0.04641135,-0.01957645,0.00000058,-0.36206170,-0.000
 00005,0.00000693,-0.04641139,0.01957644,0.00000172,0.78916297,-0.00669
 356,-0.01064311,-0.00000038,0.,0.00795625,0.00000027,0.00669355,-0.010
 64312,-0.00000052,-0.05000713,0.00152906,0.00000085,-0.00000005,-0.128
 87116,-0.00000275,0.05000714,0.00152907,-0.00000137,0.00000011,0.88868
 677,-0.00000054,-0.00000038,0.00446470,0.00000077,0.00000025,-0.000713
 31,-0.00000021,-0.00000048,0.00446470,-0.00000021,0.00000057,0.0091445
 9,0.00000387,-0.00000290,-0.03494923,0.00000268,-0.00000091,0.00914460
 ,-0.00000422,0.00002505,0.00444304,-0.04157837,-0.02089341,-0.00000010
 ,-0.14914764,0.,0.00000494,-0.04157833,0.02089336,0.00000130,0.0147342
 4,0.00987943,-0.00000020,-0.01889258,0.,0.00000056,0.01473427,-0.00987
 943,-0.00000083,0.01800072,0.,-0.00000073,0.71789924,-0.02473390,0.015
 39873,0.00000148,-0.00000003,-0.11602049,-0.00000083,0.02473388,0.0153
 9873,-0.00000031,0.00612393,-0.00713108,-0.00000073,0.,-0.00596899,-0.
 00000014,-0.00612392,-0.00713109,-0.00000014,0.,0.00018048,0.00000002,
 0.,1.05158055,0.00000008,0.00000029,-0.00413218,-0.00000450,-0.0000009
 1,-0.08206103,0.00000136,0.00000088,-0.00413217,0.00000016,-0.00000095
 ,0.00752701,0.00000009,-0.00000015,-0.00097463,-0.00000024,0.00000013,
 0.00752702,-0.00000030,0.00000002,-0.00059900,0.00002853,0.00002685,0.
 25081896,-0.00268707,0.00798216,0.00000002,-0.04132999,-0.05198878,-0.
 00000534,-0.00166012,-0.00300843,-0.00000013,-0.00184580,-0.00241908,-
 0.00000005,0.00492232,-0.00201032,-0.00000024,-0.00484448,0.00014866,0
 .00000031,-0.00509451,0.00028712,0.00000022,-0.25829525,-0.20114980,-0
 .00001996,0.26509597,0.00068233,0.00319247,-0.00000027,-0.03732718,-0.
 01055273,-0.00000363,0.01064020,-0.00892965,-0.00000011,-0.00442910,0.
 00021147,0.00000025,0.00457161,0.00032738,-0.00000014,-0.00225258,0.00
 244426,0.00000030,-0.00382478,0.00054862,0.00000017,-0.20003509,-0.469
 71990,-0.00003005,0.24161341,0.61079223,-0.00000052,0.00000014,0.00381
 934,0.00000014,-0.00000223,0.02096531,0.00000060,-0.00000064,0.0010982
 8,-0.00000040,0.00000011,-0.00050276,0.00000027,0.00000017,0.00023314,
 0.00000003,-0.00000009,-0.00110600,-0.00000018,0.00000001,0.00002870,-
 0.00002448,-0.00003441,-0.08414666,0.00002399,0.00004073,0.03115718,-0
 .00166015,0.00300843,0.00000019,-0.04133007,0.05198881,-0.00000174,-0.
 00268707,-0.00798216,-0.00000041,-0.00484448,-0.00014866,0.00000026,0.
 00492233,0.00201033,-0.00000013,-0.00184580,0.00241909,0.00000009,-0.0
 0509451,-0.00028713,0.00000021,-0.25829509,0.20114981,-0.00000516,0.05
 123316,-0.01127136,0.00000064,0.26509593,-0.01064022,-0.00892967,-0.00
 000051,0.03732725,-0.01055276,0.00000135,-0.00068234,0.00319248,0.0000
 0020,0.00225258,0.00244426,-0.00000004,-0.00457162,0.00032737,0.000000
 14,0.00442909,0.00021147,-0.00000021,0.00382478,0.00054863,-0.00000014
 ,0.20003513,-0.46972014,0.00000396,0.01127127,-0.13272010,-0.00000406,
 -0.24161338,0.61079250,-0.00000008,0.00000009,0.00109828,0.00000275,0.
 00000006,0.02096533,-0.00000045,-0.00000020,0.00381934,0.00000013,0.00
 000030,-0.00110601,0.,-0.00000016,0.00023316,-0.00000010,-0.00000012,-
 0.00050278,0.00000004,0.00000002,0.00002871,-0.00000959,0.00000826,-0.
 08414658,0.00000133,-0.00000729,0.02893784,0.00000614,-0.00000093,0.03
 115707,-0.13173699,0.13133750,0.00000583,0.01244376,-0.01149801,-0.000
 00051,-0.00138322,-0.00380714,0.,-0.00095727,-0.00069786,-0.00000001,-
 0.00485486,-0.00069604,0.00000026,-0.00831728,0.02446281,0.00000102,-0
 .00022012,0.00129290,0.,0.00125482,-0.00113346,-0.00000018,0.00040615,
 0.00151706,0.00000013,-0.00501750,-0.00036884,-0.00000011,0.13718516,0
 .12929509,-0.27453044,-0.00000768,0.01527727,-0.01648035,-0.00000088,-
 0.00362323,-0.00358150,-0.00000010,-0.00088700,0.00033781,0.00000003,-
 0.00158991,0.00140567,-0.00000012,-0.00351786,0.00624162,0.00000010,-0
 .00004199,0.00027945,0.,0.00281570,-0.00379111,0.00000003,-0.00005122,
 0.00129392,0.00000009,0.00080078,0.00327788,-0.00000005,-0.13942585,0.
 28584325,0.00000600,-0.00000708,-0.04068174,0.00000004,-0.00000086,0.0
 0559696,0.,-0.00000012,0.00484028,0.00000004,0.00000008,-0.00110791,0.
 00000025,-0.00000027,0.00820688,-0.00000003,-0.00000049,0.00529182,0.,
 0.,-0.00016047,0.00000028,0.00000004,-0.00413014,-0.00000006,-0.000000
 04,0.00036982,-0.00000004,0.00000014,-0.00016706,-0.00000634,0.0000084
 5,0.02697198,-0.00138321,0.00380714,0.00000023,0.01244376,0.01149805,0
 .00000017,-0.13173683,-0.13133740,-0.00000195,-0.00831733,-0.02446286,
 -0.00000035,-0.00485486,0.00069601,0.00000028,-0.00095726,0.00069785,0
 .00000003,-0.00022012,-0.00129290,-0.00000006,0.00125482,0.00113346,-0
 .00000006,-0.00501748,0.00036883,-0.00000011,0.00040615,-0.00151705,0.
 00000001,0.00070048,0.00081682,0.00000003,0.13718503,0.00362323,-0.003
 58151,-0.00000037,-0.01527727,-0.01648042,-0.00000028,-0.12929499,-0.2
 7453034,-0.00000338,0.00351782,0.00624161,-0.00000005,0.00158991,0.001
 40568,-0.00000024,0.00088699,0.00033781,0.00000003,0.00004199,0.000279
 45,0.00000002,-0.00281569,-0.00379111,-0.00000005,-0.00080079,0.003277
 87,0.00000018,0.00005122,0.00129392,0.,-0.00081682,-0.00083672,-0.0000
 0001,0.13942580,0.28584325,0.00000016,-0.00000035,0.00484029,-0.000000
 83,-0.00000071,0.00559694,-0.00000177,-0.00000372,-0.04068167,0.000000
 27,0.00000060,0.00529179,0.00000032,-0.00000009,0.00820689,0.00000012,
 0.00000002,-0.00110792,0.,0.00000003,-0.00016047,0.00000004,-0.0000000
 3,-0.00413014,-0.00000008,0.00000011,-0.00016706,-0.00000003,0.0000000
 6,0.00036982,-0.00000002,-0.00000005,0.00047706,0.00000191,0.00000397,
 0.02697194,-0.00094084,-0.00068202,-0.00000002,-0.00465594,-0.00181277
 ,0.00000030,-0.01073179,0.02751873,0.00000106,-0.12591362,0.12278730,0
 .00000558,0.00959462,-0.01445334,-0.00000054,-0.00105096,-0.00323389,0
 .00000003,0.00211818,-0.00064219,-0.00000010,0.00043202,0.00185929,0.0
 0000015,-0.00023158,-0.00025581,-0.00000006,-0.00098182,0.00024474,-0.
 00000006,0.00000712,0.00008498,0.,0.00087638,-0.00016337,-0.00000010,0
 .13122186,-0.00144227,-0.00025677,0.00000003,-0.00076163,0.00229455,-0
 .00000011,-0.00272682,0.00429392,0.00000007,0.12246272,-0.27004621,-0.
 00000800,0.01718141,-0.01696718,-0.00000090,-0.00339617,-0.00334077,-0
 .00000013,0.00093253,0.00172416,0.00000011,-0.00038279,0.00033935,0.,0
 .00016193,-0.00002906,-0.00000002,-0.00000979,-0.00001691,0.00000002,0
 .00004131,0.00001601,0.00000002,0.00024422,0.00049945,0.00000014,-0.13
 120177,0.28290412,0.,0.00000008,-0.00073989,0.00000020,-0.00000017,0.0
 0724251,0.00000008,-0.00000054,0.00296071,0.00000568,-0.00000785,-0.03
 424098,0.00000058,-0.00000042,0.00479574,0.,-0.00000016,0.00502012,-0.
 00000011,0.00000011,-0.00262120,-0.00000001,-0.00000001,0.00134967,0.,
 0.,-0.00004753,0.00000005,-0.00000001,-0.00059833,-0.00000001,0.000000
 02,-0.00059695,-0.00000014,0.00000017,-0.00469645,-0.00000623,0.000008
 78,0.02274726,-0.01073180,-0.02751873,-0.00000046,-0.00465594,0.001812
 82,0.00000037,-0.00094084,0.00068202,0.00000003,-0.00105096,0.00323389
 ,0.00000020,0.00959464,0.01445333,0.00000028,-0.12591354,-0.12278727,-
 0.00000196,0.00211818,0.00064219,-0.00000003,0.00043202,-0.00185929,0.
 00000006,-0.00098182,-0.00024474,-0.00000008,-0.00023158,0.00025582,-0
 .00000004,0.00087639,0.00016336,-0.00000015,0.00000712,-0.00008498,-0.
 00000001,0.00057360,0.00072532,0.,0.13122178,0.00272685,0.00429393,-0.
 00000001,0.00076163,0.00229453,-0.00000016,0.00144228,-0.00025677,-0.0
 0000003,0.00339617,-0.00334077,-0.00000028,-0.01718141,-0.01696716,-0.
 00000020,-0.12246269,-0.27004631,-0.00000386,-0.00093253,0.00172416,0.
 00000011,0.00038280,0.00033934,-0.00000007,0.00000979,-0.00001691,0.00
 000002,-0.00016193,-0.00002906,0.00000002,-0.00024421,0.00049944,0.000
 00016,-0.00004131,0.00001601,0.00000001,-0.00072532,-0.00103423,0.,0.1
 3120169,0.28290420,0.00000035,0.00000064,0.00296073,0.00000026,-0.0000
 0011,0.00724250,0.00000008,-0.00000002,-0.00073988,0.00000020,-0.00000
 032,0.00502012,-0.00000060,-0.00000103,0.00479575,-0.00000194,-0.00000
 373,-0.03424101,-0.00000015,0.00000019,-0.00262120,0.00000002,-0.00000
 005,0.00134966,0.00000005,0.00000005,-0.00059834,-0.00000001,0.0000000
 1,-0.00004753,-0.00000009,0.00000013,-0.00469646,-0.00000001,0.0000000
 2,-0.00059695,-0.00000004,-0.00000004,-0.00024611,0.00000184,0.0000042
 9,0.02274728,-0.00065431,-0.00002412,0.00000003,0.00052711,0.00037819,
 0.,0.00007523,-0.00190927,-0.00000001,-0.00480745,0.00333082,0.0000002
 5,-0.01173310,-0.03111814,-0.00000158,0.00211723,-0.00207581,-0.000000
 06,-0.17580462,-0.17689097,-0.00000580,-0.00047744,-0.00001706,-0.0000
 0002,0.00020696,0.00023666,0.00000002,0.00012354,-0.00001055,0.,-0.000
 00449,-0.00000674,0.,-0.00038214,0.00011020,0.,0.00011086,-0.00019603,
 -0.00000003,-0.00042812,0.00163217,0.00000004,0.17696178,-0.00112224,-
 0.00058176,0.00000007,0.00162534,0.00007591,-0.00000002,-0.00076608,0.
 00039592,-0.00000003,0.00272457,0.00188297,-0.00000021,-0.00150096,0.0
 0591742,0.00000046,0.00286349,0.00130160,0.00000004,-0.17501129,-0.377
 41452,-0.00001309,-0.00156241,0.00001837,0.,0.00038442,0.00027979,0.00
 000002,0.00043036,-0.00039967,0.,0.00007698,0.00001249,0.,0.00004032,0
 .00001257,0.00000001,0.00021432,0.00029881,0.00000003,-0.00046112,-0.0
 0067923,-0.00000006,0.18931247,0.38110405,-0.00000002,0.,-0.00098901,-
 0.00000010,0.00000005,0.00027716,0.00000019,-0.00000003,0.00196106,0.0
 0000018,-0.00000027,0.00385911,0.00000107,0.00000143,-0.00643459,-0.00
 000008,0.00000018,-0.00129506,-0.00000733,-0.00001500,0.00505293,0.000
 00009,0.00000001,-0.00005989,-0.00000002,-0.00000002,-0.00001834,-0.00
 000003,0.00000001,-0.00002292,0.,0.,0.00012209,0.,0.,-0.00033616,-0.00
 000001,0.00000003,-0.00081221,-0.00000002,-0.00000003,0.00048365,0.000
 00642,0.00001342,0.00254614,0.00007523,0.00190927,0.00000009,0.0005271
 1,-0.00037819,-0.00000002,-0.00065432,0.00002412,0.00000002,0.00211723
 ,0.00207582,0.00000006,-0.01173312,0.03111814,0.00000040,-0.00480745,-
 0.00333083,0.00000007,-0.17580468,0.17689091,0.00000414,-0.00047745,0.
 00001706,-0.00000001,0.00012354,0.00001055,0.,0.00020696,-0.00023666,0
 .,-0.00038214,-0.00011020,0.,-0.00000449,0.00000674,0.,-0.00042812,-0.
 00163217,-0.00000007,0.00011086,0.00019603,-0.00000001,0.01416899,-0.0
 1724817,-0.00000036,0.17696184,0.00076608,0.00039592,-0.00000005,-0.00
 162533,0.00007591,0.00000001,0.00112224,-0.00058175,-0.00000004,-0.002
 86349,0.00130159,0.00000011,0.00150096,0.00591742,0.00000026,-0.002724
 57,0.00188297,0.00000008,0.17501122,-0.37741422,-0.00000838,0.00156241
 ,0.00001837,0.,-0.00043036,-0.00039966,-0.00000002,-0.00038442,0.00027
 979,0.,-0.00004032,0.00001257,0.,-0.00007698,0.00001249,0.,0.00046112,
 -0.00067923,0.,-0.00021432,0.00029881,0.00000003,0.01724818,-0.0122247
 3,0.00000022,-0.18931241,0.38110375,0.00000023,-0.00000004,0.00196107,
 -0.00000019,-0.00000007,0.00027716,0.00000008,0.00000003,-0.00098901,-
 0.00000024,-0.00000007,-0.00129506,0.00000099,-0.00000067,-0.00643459,
 -0.00000003,0.00000018,0.00385910,0.00000266,-0.00000653,0.00505290,0.
 00000018,0.,-0.00005989,-0.00000005,-0.00000004,-0.00002292,-0.0000000
 4,0.00000004,-0.00001834,0.,0.00000001,-0.00033616,0.,0.,0.00012209,0.
 00000003,0.,0.00048365,-0.00000002,0.00000002,-0.00081221,0.00000071,-
 0.00000064,-0.00433396,-0.00000431,0.00000778,0.00254617\\-0.00003790,
 0.00009298,0.00000079,0.00035746,-0.00000005,0.00000583,-0.00003793,-0
 .00009293,0.00000078,0.00005255,-0.00006540,-0.00000024,-0.00010357,-0
 .00000002,0.00000021,0.00005254,0.00006543,-0.00000025,0.00013974,-0.0
 0000006,-0.00000027,-0.00002277,0.00000003,-0.00002366,-0.00018945,0.0
 0015870,0.00000841,-0.00018955,-0.00015870,0.00000840,0.00006213,-0.00
 011126,0.00000002,0.00006212,0.00011124,0.00000004,-0.00004768,0.00010
 802,-0.00000010,-0.00004768,-0.00010804,-0.00000012,-0.00002499,-0.000
 01222,0.00000008,-0.00002503,0.00001228,0.00000008\\\@


 GOORD'S AXIOM:  A MEETING IS AN EVENT AT WHICH
 THE MINUTES ARE KEPT AND THE HOURS ARE LOST.
 Job cpu time:       0 days  0 hours 33 minutes 10.3 seconds.
 File lengths (MBytes):  RWF=    122 Int=      0 D2E=      0 Chk=      7 Scr=      1
 Normal termination of Gaussian 09 at Sun Dec 15 19:10:32 2024.
