 Entering Gaussian System, Link 0=g09
 Input=APFDAnthranilicyang.gjf
 Output=APFDAnthranilicyang.log
 Initial command:
 /home/phzd/g09E/g09/l1.exe "/home/phzd/g09E/scratch/Gau-126640.inp" -scrdir="/home/phzd/g09E/scratch/"
 Default is to use a total of  18 processors:
                               18 via shared-memory
                                1 via Linda
 Entering Link 1 = /home/phzd/g09E/g09/l1.exe PID=    126642.
  
 Copyright (c) 1988,1990,1992,1993,1995,1998,2003,2009,2015,
            Gaussian, Inc.  All Rights Reserved.
  
 This is part of the Gaussian(R) 09 program.  It is based on
 the Gaussian(R) 03 system (copyright 2003, Gaussian, Inc.),
 the Gaussian(R) 98 system (copyright 1998, Gaussian, Inc.),
 the Gaussian(R) 94 system (copyright 1995, Gaussian, Inc.),
 the Gaussian 92(TM) system (copyright 1992, Gaussian, Inc.),
 the Gaussian 90(TM) system (copyright 1990, Gaussian, Inc.),
 the Gaussian 88(TM) system (copyright 1988, Gaussian, Inc.),
 the Gaussian 86(TM) system (copyright 1986, Carnegie Mellon
 University), and the Gaussian 82(TM) system (copyright 1983,
 Carnegie Mellon University). Gaussian is a federally registered
 trademark of Gaussian, Inc.
  
 This software contains proprietary and confidential information,
 including trade secrets, belonging to Gaussian, Inc.
  
 This software is provided under written license and may be
 used, copied, transmitted, or stored only in accord with that
 written license.
  
 The following legend is applicable only to US Government
 contracts under FAR:
  
                    RESTRICTED RIGHTS LEGEND
  
 Use, reproduction and disclosure by the US Government is
 subject to restrictions as set forth in subparagraphs (a)
 and (c) of the Commercial Computer Software - Restricted
 Rights clause in FAR 52.227-19.
  
 Gaussian, Inc.
 340 Quinnipiac St., Bldg. 40, Wallingford CT 06492
  
  
 ---------------------------------------------------------------
 Warning -- This program may not be used in any manner that
 competes with the business of Gaussian, Inc. or will provide
 assistance to any competitor of Gaussian, Inc.  The licensee
 of this program is prohibited from giving any competitor of
 Gaussian, Inc. access to this program.  By using this program,
 the user acknowledges that Gaussian, Inc. is engaged in the
 business of creating and licensing software in the field of
 computational chemistry and represents and warrants to the
 licensee that it is not a competitor of Gaussian, Inc. and that
 it will not use this program in any manner prohibited above.
 ---------------------------------------------------------------
  

 Cite this work as:
 Gaussian 09, Revision E.01,
 M. J. Frisch, G. W. Trucks, H. B. Schlegel, G. E. Scuseria, 
 M. A. Robb, J. R. Cheeseman, G. Scalmani, V. Barone, B. Mennucci, 
 G. A. Petersson, H. Nakatsuji, M. Caricato, X. Li, H. P. Hratchian, 
 A. F. Izmaylov, J. Bloino, G. Zheng, J. L. Sonnenberg, M. Hada, 
 M. Ehara, K. Toyota, R. Fukuda, J. Hasegawa, M. Ishida, T. Nakajima, 
 Y. Honda, O. Kitao, H. Nakai, T. Vreven, J. A. Montgomery, Jr., 
 J. E. Peralta, F. Ogliaro, M. Bearpark, J. J. Heyd, E. Brothers, 
 K. N. Kudin, V. N. Staroverov, T. Keith, R. Kobayashi, J. Normand, 
 K. Raghavachari, A. Rendell, J. C. Burant, S. S. Iyengar, J. Tomasi, 
 M. Cossi, N. Rega, J. M. Millam, M. Klene, J. E. Knox, J. B. Cross, 
 V. Bakken, C. Adamo, J. Jaramillo, R. Gomperts, R. E. Stratmann, 
 O. Yazyev, A. J. Austin, R. Cammi, C. Pomelli, J. W. Ochterski, 
 R. L. Martin, K. Morokuma, V. G. Zakrzewski, G. A. Voth, 
 P. Salvador, J. J. Dannenberg, S. Dapprich, A. D. Daniels, 
 O. Farkas, J. B. Foresman, J. V. Ortiz, J. Cioslowski, 
 and D. J. Fox, Gaussian, Inc., Wallingford CT, 2013.
 
 ******************************************
 Gaussian 09:  ES64L-G09RevE.01 30-Nov-2015
                22-Jun-2024 
 ******************************************
 %chk=APFDAnthranilicyang.chk
 ---------------------------
 # opt freq apfd/6-31+g(d,p)
 ---------------------------
 1/14=-1,18=20,19=15,26=3,38=1/1,3;
 2/9=110,12=2,17=6,18=5,40=1/2;
 3/5=1,6=6,7=111,11=2,16=1,25=1,30=1,71=1,74=-44/1,2,3;
 4//1;
 5/5=2,38=5/2;
 6/7=2,8=2,9=2,10=2,28=1/1;
 7//1,2,3,16;
 1/14=-1,18=20,19=15,26=3/3(2);
 2/9=110/2;
 99//99;
 2/9=110/2;
 3/5=1,6=6,7=111,11=2,16=1,25=1,30=1,71=1,74=-44/1,2,3;
 4/5=5,16=3,69=1/1;
 5/5=2,38=5/2;
 7//1,2,3,16;
 1/14=-1,18=20,19=15,26=3/3(-5);
 2/9=110/2;
 6/7=2,8=2,9=2,10=2,19=2,28=1/1;
 99/9=1/99;
 ----------
 [No Title]
 ----------
 Symbolic Z-matrix:
 Charge =  1 Multiplicity = 1
 C                    -1.93939  -1.47584  -0.0003 
 C                    -2.62312  -0.25842   0.00012 
 C                    -1.91407   0.94845   0.00037 
 C                    -0.5284    0.91123   0.00015 
 C                     0.18707  -0.3019   -0.00007 
 C                    -0.54476  -1.49913  -0.0003 
 C                     1.67336  -0.3022   0. 
 O                     2.22273  -1.5063    0.00051 
 N                     0.23835   2.18198  -0.00008 
 O                     2.34896   0.73349  -0.00035 
 H                    -2.4921   -2.40916  -0.00063 
 H                    -3.70788  -0.2395    0.00021 
 H                    -2.44514   1.8964    0.00077 
 H                    -0.01099  -2.44225  -0.00035 
 H                     3.19406  -1.4217    0.00047 
 H                     0.04136   2.75161   0.82897 
 H                     1.2724    1.88936   0.00009 
 H                     0.04211   2.75063  -0.83 
 

 GradGradGradGradGradGradGradGradGradGradGradGradGradGradGradGradGradGrad
 Berny optimization.
 Initialization pass.
                           ----------------------------
                           !    Initial Parameters    !
                           ! (Angstroms and Degrees)  !
 --------------------------                            --------------------------
 ! Name  Definition              Value          Derivative Info.                !
 --------------------------------------------------------------------------------
 ! R1    R(1,2)                  1.3963         estimate D2E/DX2                !
 ! R2    R(1,6)                  1.3948         estimate D2E/DX2                !
 ! R3    R(1,11)                 1.0847         estimate D2E/DX2                !
 ! R4    R(2,3)                  1.3997         estimate D2E/DX2                !
 ! R5    R(2,12)                 1.0849         estimate D2E/DX2                !
 ! R6    R(3,4)                  1.3862         estimate D2E/DX2                !
 ! R7    R(3,13)                 1.0866         estimate D2E/DX2                !
 ! R8    R(4,5)                  1.4084         estimate D2E/DX2                !
 ! R9    R(4,9)                  1.4842         estimate D2E/DX2                !
 ! R10   R(5,6)                  1.4032         estimate D2E/DX2                !
 ! R11   R(5,7)                  1.4863         estimate D2E/DX2                !
 ! R12   R(6,14)                 1.0837         estimate D2E/DX2                !
 ! R13   R(7,8)                  1.3235         estimate D2E/DX2                !
 ! R14   R(7,10)                 1.2366         estimate D2E/DX2                !
 ! R15   R(8,15)                 0.975          estimate D2E/DX2                !
 ! R16   R(9,16)                 1.025          estimate D2E/DX2                !
 ! R17   R(9,17)                 1.0747         estimate D2E/DX2                !
 ! R18   R(9,18)                 1.025          estimate D2E/DX2                !
 ! A1    A(2,1,6)              120.2761         estimate D2E/DX2                !
 ! A2    A(2,1,11)             120.0466         estimate D2E/DX2                !
 ! A3    A(6,1,11)             119.6774         estimate D2E/DX2                !
 ! A4    A(1,2,3)              120.2459         estimate D2E/DX2                !
 ! A5    A(1,2,12)             120.3186         estimate D2E/DX2                !
 ! A6    A(3,2,12)             119.4355         estimate D2E/DX2                !
 ! A7    A(2,3,4)              118.896          estimate D2E/DX2                !
 ! A8    A(2,3,13)             120.306          estimate D2E/DX2                !
 ! A9    A(4,3,13)             120.798          estimate D2E/DX2                !
 ! A10   A(3,4,5)              122.0696         estimate D2E/DX2                !
 ! A11   A(3,4,9)              119.5674         estimate D2E/DX2                !
 ! A12   A(5,4,9)              118.363          estimate D2E/DX2                !
 ! A13   A(4,5,6)              118.033          estimate D2E/DX2                !
 ! A14   A(4,5,7)              120.5423         estimate D2E/DX2                !
 ! A15   A(6,5,7)              121.4247         estimate D2E/DX2                !
 ! A16   A(1,6,5)              120.4795         estimate D2E/DX2                !
 ! A17   A(1,6,14)             120.4648         estimate D2E/DX2                !
 ! A18   A(5,6,14)             119.0557         estimate D2E/DX2                !
 ! A19   A(5,7,8)              114.5363         estimate D2E/DX2                !
 ! A20   A(5,7,10)             123.1059         estimate D2E/DX2                !
 ! A21   A(8,7,10)             122.3579         estimate D2E/DX2                !
 ! A22   A(7,8,15)             109.547          estimate D2E/DX2                !
 ! A23   A(4,9,16)             112.1121         estimate D2E/DX2                !
 ! A24   A(4,9,17)             105.3054         estimate D2E/DX2                !
 ! A25   A(4,9,18)             112.0996         estimate D2E/DX2                !
 ! A26   A(16,9,17)            109.6413         estimate D2E/DX2                !
 ! A27   A(16,9,18)            108.0461         estimate D2E/DX2                !
 ! A28   A(17,9,18)            109.5972         estimate D2E/DX2                !
 ! D1    D(6,1,2,3)              0.0083         estimate D2E/DX2                !
 ! D2    D(6,1,2,12)          -179.9943         estimate D2E/DX2                !
 ! D3    D(11,1,2,3)          -179.9921         estimate D2E/DX2                !
 ! D4    D(11,1,2,12)            0.0052         estimate D2E/DX2                !
 ! D5    D(2,1,6,5)             -0.0092         estimate D2E/DX2                !
 ! D6    D(2,1,6,14)           179.9827         estimate D2E/DX2                !
 ! D7    D(11,1,6,5)           179.9912         estimate D2E/DX2                !
 ! D8    D(11,1,6,14)           -0.0169         estimate D2E/DX2                !
 ! D9    D(1,2,3,4)              0.0022         estimate D2E/DX2                !
 ! D10   D(1,2,3,13)          -179.9955         estimate D2E/DX2                !
 ! D11   D(12,2,3,4)          -179.9951         estimate D2E/DX2                !
 ! D12   D(12,2,3,13)            0.0072         estimate D2E/DX2                !
 ! D13   D(2,3,4,5)             -0.0122         estimate D2E/DX2                !
 ! D14   D(2,3,4,9)            179.9784         estimate D2E/DX2                !
 ! D15   D(13,3,4,5)           179.9855         estimate D2E/DX2                !
 ! D16   D(13,3,4,9)            -0.0239         estimate D2E/DX2                !
 ! D17   D(3,4,5,6)              0.0112         estimate D2E/DX2                !
 ! D18   D(3,4,5,7)           -179.9863         estimate D2E/DX2                !
 ! D19   D(9,4,5,6)           -179.9795         estimate D2E/DX2                !
 ! D20   D(9,4,5,7)              0.023          estimate D2E/DX2                !
 ! D21   D(3,4,9,16)            60.8162         estimate D2E/DX2                !
 ! D22   D(3,4,9,17)           179.9828         estimate D2E/DX2                !
 ! D23   D(3,4,9,18)           -60.9105         estimate D2E/DX2                !
 ! D24   D(5,4,9,16)          -119.1928         estimate D2E/DX2                !
 ! D25   D(5,4,9,17)            -0.0262         estimate D2E/DX2                !
 ! D26   D(5,4,9,18)           119.0804         estimate D2E/DX2                !
 ! D27   D(4,5,6,1)             -0.0004         estimate D2E/DX2                !
 ! D28   D(4,5,6,14)          -179.9924         estimate D2E/DX2                !
 ! D29   D(7,5,6,1)            179.9971         estimate D2E/DX2                !
 ! D30   D(7,5,6,14)             0.0051         estimate D2E/DX2                !
 ! D31   D(4,5,7,8)            179.9649         estimate D2E/DX2                !
 ! D32   D(4,5,7,10)            -0.033          estimate D2E/DX2                !
 ! D33   D(6,5,7,8)             -0.0325         estimate D2E/DX2                !
 ! D34   D(6,5,7,10)           179.9696         estimate D2E/DX2                !
 ! D35   D(5,7,8,15)           179.9967         estimate D2E/DX2                !
 ! D36   D(10,7,8,15)           -0.0054         estimate D2E/DX2                !
 --------------------------------------------------------------------------------
 Trust Radius=3.00D-01 FncErr=1.00D-07 GrdErr=1.00D-06
 Number of steps in this run=     92 maximum allowed number of steps=    108.
 GradGradGradGradGradGradGradGradGradGradGradGradGradGradGradGradGradGrad

                          Input orientation:                          
 ---------------------------------------------------------------------
 Center     Atomic      Atomic             Coordinates (Angstroms)
 Number     Number       Type             X           Y           Z
 ---------------------------------------------------------------------
      1          6           0       -1.939390   -1.475838   -0.000302
      2          6           0       -2.623116   -0.258417    0.000119
      3          6           0       -1.914065    0.948453    0.000370
      4          6           0       -0.528397    0.911229    0.000146
      5          6           0        0.187071   -0.301902   -0.000072
      6          6           0       -0.544756   -1.499127   -0.000301
      7          6           0        1.673355   -0.302199   -0.000002
      8          8           0        2.222725   -1.506299    0.000512
      9          7           0        0.238354    2.181978   -0.000079
     10          8           0        2.348961    0.733494   -0.000352
     11          1           0       -2.492101   -2.409155   -0.000625
     12          1           0       -3.707882   -0.239496    0.000211
     13          1           0       -2.445144    1.896404    0.000772
     14          1           0       -0.010986   -2.442250   -0.000345
     15          1           0        3.194062   -1.421697    0.000471
     16          1           0        0.041360    2.751607    0.828966
     17          1           0        1.272402    1.889357    0.000085
     18          1           0        0.042110    2.750631   -0.830004
 ---------------------------------------------------------------------
                    Distance matrix (angstroms):
                    1          2          3          4          5
     1  C    0.000000
     2  C    1.396279   0.000000
     3  C    2.424423   1.399746   0.000000
     4  C    2.772903   2.399150   1.386168   0.000000
     5  C    2.428984   2.810523   2.445028   1.408397   0.000000
     6  C    1.394828   2.420525   2.804578   2.410412   1.403182
     7  C    3.798599   4.296694   3.799173   2.513985   1.486284
     8  O    4.162227   5.003937   4.810285   3.662392   2.365261
     9  N    4.257016   3.760790   2.480825   1.484153   2.484409
    10  O    4.824013   5.070053   4.268442   2.882842   2.397043
    11  H    1.084698   2.154725   3.407001   3.857601   3.408589
    12  H    2.157801   1.084931   2.151512   3.381315   3.895453
    13  H    3.409957   2.162158   1.086580   2.155108   3.429447
    14  H    2.157010   3.404754   3.888261   3.393160   2.149492
    15  H    5.133738   5.932350   5.631214   4.393091   3.208728
    16  H    4.741555   4.104469   2.785969   2.097274   3.167405
    17  H    4.651897   4.448370   3.322480   2.049295   2.445314
    18  H    4.741075   4.104498   2.786393   2.097147   3.166664
                    6          7          8          9         10
     6  C    0.000000
     7  C    2.520447   0.000000
     8  O    2.767490   1.323505   0.000000
     9  N    3.763482   2.868861   4.188212   0.000000
    10  O    3.654886   1.236569   2.243348   2.559837   0.000000
    11  H    2.149489   4.668007   4.800493   5.341712   5.771666
    12  H    3.404708   5.381602   6.064395   4.629937   6.134497
    13  H    3.891157   4.668607   5.776451   2.698651   4.933133
    14  H    1.083693   2.723384   2.421873   4.630945   3.956602
    15  H    3.739620   1.888339   0.975014   4.660760   2.314961
    16  H    4.370350   3.560383   4.855353   1.024988   3.175779
    17  H    3.844982   2.227932   3.526130   1.074655   1.579557
    18  H    4.369584   3.559443   4.854513   1.025014   3.174701
                   11         12         13         14         15
    11  H    0.000000
    12  H    2.487075   0.000000
    13  H    4.305815   2.481245   0.000000
    14  H    2.481336   4.303390   4.974841   0.000000
    15  H    5.771267   7.002459   6.542969   3.363608   0.000000
    16  H    5.808624   4.867273   2.756806   5.259909   5.295508
    17  H    5.713903   5.416202   3.717553   4.517732   3.828297
    18  H    5.808054   4.867500   2.757957   5.259008   5.294602
                   16         17         18
    16  H    0.000000
    17  H    1.716387   0.000000
    18  H    1.658970   1.715943   0.000000
 Stoichiometry    C7H8NO2(1+)
 Framework group  C1[X(C7H8NO2)]
 Deg. of freedom    48
 Full point group                 C1      NOp   1
 Largest Abelian subgroup         C1      NOp   1
 Largest concise Abelian subgroup C1      NOp   1
                         Standard orientation:                         
 ---------------------------------------------------------------------
 Center     Atomic      Atomic             Coordinates (Angstroms)
 Number     Number       Type             X           Y           Z
 ---------------------------------------------------------------------
      1          6           0        1.939390   -1.475838    0.000302
      2          6           0        2.623116   -0.258417   -0.000119
      3          6           0        1.914065    0.948453   -0.000370
      4          6           0        0.528397    0.911229   -0.000146
      5          6           0       -0.187071   -0.301902    0.000072
      6          6           0        0.544756   -1.499127    0.000301
      7          6           0       -1.673355   -0.302199    0.000002
      8          8           0       -2.222725   -1.506299   -0.000512
      9          7           0       -0.238354    2.181978    0.000079
     10          8           0       -2.348961    0.733494    0.000352
     11          1           0        2.492101   -2.409155    0.000625
     12          1           0        3.707882   -0.239497   -0.000211
     13          1           0        2.445144    1.896404   -0.000772
     14          1           0        0.010986   -2.442250    0.000345
     15          1           0       -3.194062   -1.421697   -0.000471
     16          1           0       -0.041360    2.751607   -0.828966
     17          1           0       -1.272402    1.889357   -0.000085
     18          1           0       -0.042110    2.750631    0.830004
 ---------------------------------------------------------------------
 Rotational constants (GHZ):      2.2343428      1.2032867      0.7854672
 Standard basis: 6-31+G(d,p) (6D, 7F)
 There are   230 symmetry adapted cartesian basis functions of A   symmetry.
 There are   230 symmetry adapted basis functions of A   symmetry.
   230 basis functions,   376 primitive gaussians,   230 cartesian basis functions
    36 alpha electrons       36 beta electrons
       nuclear repulsion energy       514.1645139868 Hartrees.
 NAtoms=   18 NActive=   18 NUniq=   18 SFac= 1.00D+00 NAtFMM=   60 NAOKFM=F Big=F
 Integral buffers will be    131072 words long.
 Raffenetti 2 integral format.
 Two-electron integral symmetry is turned on.
 R6APFD:  NTU= -4 IXU= 1 FactS= 1.050
 Nuclear repulsion after empirical dispersion term =      514.1535200858 Hartrees.
 One-electron integrals computed using PRISM.
 NBasis=   230 RedAO= T EigKep=  2.28D-06  NBF=   230
 NBsUse=   230 1.00D-06 EigRej= -1.00D+00 NBFU=   230
 ExpMin= 4.38D-02 ExpMax= 5.48D+03 ExpMxC= 8.25D+02 IAcc=2 IRadAn=         4 AccDes= 0.00D+00
 Harris functional with IExCor= 3731 and IRadAn=       4 diagonalized for initial guess.
 HarFok:  IExCor= 3731 AccDes= 0.00D+00 IRadAn=         4 IDoV= 1 UseB2=F ITyADJ=14
 ICtDFT=  3500011 ScaDFX=  1.000000  1.000000  1.000000  1.000000
 FoFCou: FMM=F IPFlag=           0 FMFlag=      100000 FMFlg1=           0
         NFxFlg=           0 DoJE=T BraDBF=F KetDBF=T FulRan=T
         wScrn=  0.000000 ICntrl=     500 IOpCl=  0 I1Cent=   200000004 NGrid=           0
         NMat0=    1 NMatS0=      1 NMatT0=    0 NMatD0=    1 NMtDS0=    0 NMtDT0=    0
 Petite list used in FoFCou.
 Keep R1 ints in memory in canonical form, NReq=359209085.
 Requested convergence on RMS density matrix=1.00D-08 within 128 cycles.
 Requested convergence on MAX density matrix=1.00D-06.
 Requested convergence on             energy=1.00D-06.
 No special actions if energy rises.
 SCF Done:  E(RAPFD) =  -476.196445536     A.U. after   15 cycles
            NFock= 15  Conv=0.56D-08     -V/T= 2.0092

 **********************************************************************

            Population analysis using the SCF density.

 **********************************************************************

 Orbital symmetries:
       Occupied  (A) (A) (A) (A) (A) (A) (A) (A) (A) (A) (A) (A)
                 (A) (A) (A) (A) (A) (A) (A) (A) (A) (A) (A) (A)
                 (A) (A) (A) (A) (A) (A) (A) (A) (A) (A) (A) (A)
       Virtual   (A) (A) (A) (A) (A) (A) (A) (A) (A) (A) (A) (A)
                 (A) (A) (A) (A) (A) (A) (A) (A) (A) (A) (A) (A)
                 (A) (A) (A) (A) (A) (A) (A) (A) (A) (A) (A) (A)
                 (A) (A) (A) (A) (A) (A) (A) (A) (A) (A) (A) (A)
                 (A) (A) (A) (A) (A) (A) (A) (A) (A) (A) (A) (A)
                 (A) (A) (A) (A) (A) (A) (A) (A) (A) (A) (A) (A)
                 (A) (A) (A) (A) (A) (A) (A) (A) (A) (A) (A) (A)
                 (A) (A) (A) (A) (A) (A) (A) (A) (A) (A) (A) (A)
                 (A) (A) (A) (A) (A) (A) (A) (A) (A) (A) (A) (A)
                 (A) (A) (A) (A) (A) (A) (A) (A) (A) (A) (A) (A)
                 (A) (A) (A) (A) (A) (A) (A) (A) (A) (A) (A) (A)
                 (A) (A) (A) (A) (A) (A) (A) (A) (A) (A) (A) (A)
                 (A) (A) (A) (A) (A) (A) (A) (A) (A) (A) (A) (A)
                 (A) (A) (A) (A) (A) (A) (A) (A) (A) (A) (A) (A)
                 (A) (A) (A) (A) (A) (A) (A) (A) (A) (A) (A) (A)
                 (A) (A) (A) (A) (A) (A) (A) (A) (A) (A) (A) (A)
                 (A) (A)
 The electronic state is 1-A.
 Alpha  occ. eigenvalues --  -19.41561 -19.37145 -14.66182 -10.53335 -10.45972
 Alpha  occ. eigenvalues --  -10.41881 -10.40271 -10.39592 -10.39464 -10.38588
 Alpha  occ. eigenvalues --   -1.30999  -1.22351  -1.19101  -1.05434  -0.96409
 Alpha  occ. eigenvalues --   -0.94076  -0.85392  -0.82103  -0.79144  -0.76599
 Alpha  occ. eigenvalues --   -0.74936  -0.72233  -0.69431  -0.67787  -0.63980
 Alpha  occ. eigenvalues --   -0.63713  -0.62434  -0.61685  -0.57777  -0.55403
 Alpha  occ. eigenvalues --   -0.54771  -0.53397  -0.50775  -0.47622  -0.44295
 Alpha  occ. eigenvalues --   -0.44124
 Alpha virt. eigenvalues --   -0.22739  -0.18803  -0.15786  -0.12062  -0.11114
 Alpha virt. eigenvalues --   -0.10359  -0.08982  -0.08340  -0.07196  -0.06321
 Alpha virt. eigenvalues --   -0.05299  -0.05087  -0.04246  -0.03137  -0.03045
 Alpha virt. eigenvalues --   -0.01841  -0.00550  -0.00270   0.00218   0.00545
 Alpha virt. eigenvalues --    0.01654   0.01741   0.02061   0.03210   0.04676
 Alpha virt. eigenvalues --    0.04953   0.05446   0.05684   0.06507   0.06814
 Alpha virt. eigenvalues --    0.06986   0.07546   0.08328   0.09168   0.09599
 Alpha virt. eigenvalues --    0.09754   0.10411   0.11213   0.11604   0.12892
 Alpha virt. eigenvalues --    0.13878   0.14110   0.14431   0.15213   0.16160
 Alpha virt. eigenvalues --    0.16816   0.17342   0.17524   0.18442   0.19655
 Alpha virt. eigenvalues --    0.20852   0.21497   0.22655   0.23847   0.25316
 Alpha virt. eigenvalues --    0.27647   0.28832   0.31907   0.34717   0.35041
 Alpha virt. eigenvalues --    0.43062   0.46396   0.49495   0.51241   0.52888
 Alpha virt. eigenvalues --    0.54751   0.57343   0.57558   0.58771   0.59115
 Alpha virt. eigenvalues --    0.59739   0.62295   0.62835   0.66309   0.66394
 Alpha virt. eigenvalues --    0.67171   0.69566   0.71457   0.72973   0.76606
 Alpha virt. eigenvalues --    0.79033   0.79509   0.80533   0.81236   0.84455
 Alpha virt. eigenvalues --    0.86757   0.89719   0.89997   0.94484   0.96024
 Alpha virt. eigenvalues --    0.96874   0.98777   1.00681   1.00944   1.03056
 Alpha virt. eigenvalues --    1.03959   1.05555   1.06623   1.09277   1.11200
 Alpha virt. eigenvalues --    1.12185   1.15120   1.15812   1.17996   1.18234
 Alpha virt. eigenvalues --    1.21189   1.22117   1.22637   1.23848   1.24829
 Alpha virt. eigenvalues --    1.25857   1.28903   1.34462   1.42177   1.42359
 Alpha virt. eigenvalues --    1.50985   1.51944   1.54917   1.55762   1.60181
 Alpha virt. eigenvalues --    1.62835   1.64412   1.66928   1.67820   1.70534
 Alpha virt. eigenvalues --    1.73681   1.76476   1.79143   1.81525   1.81724
 Alpha virt. eigenvalues --    1.84023   1.85190   1.85939   1.86090   1.90062
 Alpha virt. eigenvalues --    1.93230   1.94022   2.02539   2.02726   2.09869
 Alpha virt. eigenvalues --    2.12625   2.12936   2.17392   2.19758   2.21910
 Alpha virt. eigenvalues --    2.22129   2.24457   2.25897   2.26391   2.27497
 Alpha virt. eigenvalues --    2.33841   2.35340   2.35929   2.38053   2.41288
 Alpha virt. eigenvalues --    2.42624   2.44963   2.46582   2.47195   2.50609
 Alpha virt. eigenvalues --    2.52879   2.55370   2.57838   2.60248   2.63775
 Alpha virt. eigenvalues --    2.66206   2.71117   2.71395   2.76045   2.81508
 Alpha virt. eigenvalues --    2.89734   2.93789   3.00199   3.02647   3.09030
 Alpha virt. eigenvalues --    3.13234   3.14430   3.18684   3.18709   3.22657
 Alpha virt. eigenvalues --    3.33980   3.35120   3.41441   3.70850   4.06870
 Alpha virt. eigenvalues --    4.12475   4.15507   4.17105   4.22007   4.32751
 Alpha virt. eigenvalues --    4.34412   4.41309   4.66514   4.70642
          Condensed to atoms (all electrons):
               1          2          3          4          5          6
     1  C    7.799520  -0.214534   1.294663  -1.251077   0.563070  -2.493858
     2  C   -0.214534   6.413567  -1.462280   1.769349  -1.680377   1.532022
     3  C    1.294663  -1.462280  15.311984  -5.112010  -0.966616  -4.333758
     4  C   -1.251077   1.769349  -5.112010  18.983292  -5.224467  -1.015117
     5  C    0.563070  -1.680377  -0.966616  -5.224467  13.469171  -1.713941
     6  C   -2.493858   1.532022  -4.333758  -1.015117  -1.713941  15.575062
     7  C   -0.171498  -0.198341   0.658682  -0.722848   0.008675  -0.754084
     8  O    0.109857  -0.005687   0.032989   0.064107  -0.022001  -0.189733
     9  N   -0.038029  -0.004082  -0.694523   0.140791   0.331323   0.182779
    10  O    0.048306  -0.010245   0.079917  -0.236672  -0.011329  -0.026461
    11  H    0.201537   0.056679  -0.004937  -0.001357   0.007569   0.066207
    12  H    0.082714   0.200237   0.084968  -0.058700   0.035897  -0.018139
    13  H   -0.000453   0.106576   0.250397   0.025084  -0.046482  -0.013531
    14  H    0.095417  -0.027938   0.038402   0.016256   0.120068   0.066912
    15  H   -0.008350  -0.000239   0.003078  -0.010065   0.015285   0.004401
    16  H    0.000688  -0.005916  -0.018616  -0.041770   0.044514   0.002228
    17  H    0.003296  -0.003289   0.212840   0.122447  -0.276574  -0.082690
    18  H    0.000667  -0.005903  -0.018755  -0.041668   0.044421   0.002314
               7          8          9         10         11         12
     1  C   -0.171498   0.109857  -0.038029   0.048306   0.201537   0.082714
     2  C   -0.198341  -0.005687  -0.004082  -0.010245   0.056679   0.200237
     3  C    0.658682   0.032989  -0.694523   0.079917  -0.004937   0.084968
     4  C   -0.722848   0.064107   0.140791  -0.236672  -0.001357  -0.058700
     5  C    0.008675  -0.022001   0.331323  -0.011329   0.007569   0.035897
     6  C   -0.754084  -0.189733   0.182779  -0.026461   0.066207  -0.018139
     7  C    5.981222   0.131981  -0.105048   0.370390   0.004170   0.002472
     8  O    0.131981   8.228298  -0.011697  -0.131952   0.000059   0.000006
     9  N   -0.105048  -0.011697   7.068326  -0.035765   0.000170  -0.000356
    10  O    0.370390  -0.131952  -0.035765   8.322825   0.000024  -0.000001
    11  H    0.004170   0.000059   0.000170   0.000024   0.468488  -0.003799
    12  H    0.002472   0.000006  -0.000356  -0.000001  -0.003799   0.468812
    13  H    0.004655   0.000016  -0.001971   0.000098  -0.000119  -0.003937
    14  H    0.010455   0.003360  -0.001138   0.000094  -0.003742  -0.000118
    15  H    0.026764   0.207994   0.000556   0.001221  -0.000000   0.000000
    16  H    0.003751   0.000158   0.307267   0.001094  -0.000000  -0.000002
    17  H    0.031419   0.003053   0.181695   0.094916  -0.000000   0.000001
    18  H    0.003757   0.000158   0.307284   0.001080  -0.000000  -0.000002
              13         14         15         16         17         18
     1  C   -0.000453   0.095417  -0.008350   0.000688   0.003296   0.000667
     2  C    0.106576  -0.027938  -0.000239  -0.005916  -0.003289  -0.005903
     3  C    0.250397   0.038402   0.003078  -0.018616   0.212840  -0.018755
     4  C    0.025084   0.016256  -0.010065  -0.041770   0.122447  -0.041668
     5  C   -0.046482   0.120068   0.015285   0.044514  -0.276574   0.044421
     6  C   -0.013531   0.066912   0.004401   0.002228  -0.082690   0.002314
     7  C    0.004655   0.010455   0.026764   0.003751   0.031419   0.003757
     8  O    0.000016   0.003360   0.207994   0.000158   0.003053   0.000158
     9  N   -0.001971  -0.001138   0.000556   0.307267   0.181695   0.307284
    10  O    0.000098   0.000094   0.001221   0.001094   0.094916   0.001080
    11  H   -0.000119  -0.003742  -0.000000  -0.000000  -0.000000  -0.000000
    12  H   -0.003937  -0.000118   0.000000  -0.000002   0.000001  -0.000002
    13  H    0.483558   0.000010  -0.000000   0.000555   0.000065   0.000552
    14  H    0.000010   0.460599  -0.000004   0.000002   0.000007   0.000002
    15  H   -0.000000  -0.000004   0.337551  -0.000001  -0.000027  -0.000001
    16  H    0.000555   0.000002  -0.000001   0.323559  -0.009033  -0.022998
    17  H    0.000065   0.000007  -0.000027  -0.009033   0.282142  -0.009053
    18  H    0.000552   0.000002  -0.000001  -0.022998  -0.009053   0.323552
 Mulliken charges:
               1
     1  C   -0.021935
     2  C   -0.459600
     3  C    0.643574
     4  C   -1.405575
     5  C    1.301794
     6  C   -0.790613
     7  C    0.713424
     8  O   -0.420965
     9  N   -0.627581
    10  O   -0.467540
    11  H    0.209051
    12  H    0.209946
    13  H    0.194926
    14  H    0.221356
    15  H    0.421837
    16  H    0.414520
    17  H    0.448786
    18  H    0.414593
 Sum of Mulliken charges =   1.00000
 Mulliken charges with hydrogens summed into heavy atoms:
               1
     1  C    0.187117
     2  C   -0.249653
     3  C    0.838500
     4  C   -1.405575
     5  C    1.301794
     6  C   -0.569257
     7  C    0.713424
     8  O    0.000873
     9  N    0.650318
    10  O   -0.467540
 Electronic spatial extent (au):  <R**2>=           1374.4833
 Charge=              1.0000 electrons
 Dipole moment (field-independent basis, Debye):
    X=              1.1694    Y=              4.2482    Z=              0.0005  Tot=              4.4062
 Quadrupole moment (field-independent basis, Debye-Ang):
   XX=            -35.6080   YY=            -28.1554   ZZ=            -56.4712
   XY=              3.6199   XZ=              0.0007   YZ=             -0.0012
 Traceless Quadrupole moment (field-independent basis, Debye-Ang):
   XX=              4.4702   YY=             11.9228   ZZ=            -16.3930
   XY=              3.6199   XZ=              0.0007   YZ=             -0.0012
 Octapole moment (field-independent basis, Debye-Ang**2):
  XXX=            -10.6253  YYY=             50.5236  ZZZ=              0.0043  XYY=             -0.3458
  XXY=            -26.1022  XXZ=             -0.0125  XZZ=            -11.2426  YZZ=              9.7665
  YYZ=              0.0047  XYZ=             -0.0082
 Hexadecapole moment (field-independent basis, Debye-Ang**3):
 XXXX=           -784.2576 YYYY=           -399.5824 ZZZZ=            -60.4311 XXXY=             84.8814
 XXXZ=              0.0238 YYYX=             -7.7816 YYYZ=             -0.0149 ZZZX=              0.0014
 ZZZY=              0.0176 XXYY=           -223.5080 XXZZ=           -198.0995 YYZZ=            -97.1714
 XXYZ=             -0.0097 YYXZ=             -0.0043 ZZXY=              3.2530
 N-N= 5.141535200858D+02 E-N=-2.125151106408D+03  KE= 4.718785577113D+02
 R6APFD:  NTU= -4 IXU= 1 FactS= 1.050
 Calling FoFJK, ICntrl=      2127 FMM=F ISym2X=0 I1Cent= 0 IOpClX= 0 NMat=1 NMatS=1 NMatT=0.
 ***** Axes restored to original set *****
 -------------------------------------------------------------------
 Center     Atomic                   Forces (Hartrees/Bohr)
 Number     Number              X              Y              Z
 -------------------------------------------------------------------
      1        6           0.001605021    0.002599424   -0.000002326
      2        6           0.003392134    0.000069913   -0.000001912
      3        6           0.001938664   -0.001937458    0.000001318
      4        6           0.002301908    0.001163993   -0.000003554
      5        6          -0.001260666    0.000121954   -0.000001735
      6        6          -0.000638245    0.003398331    0.000015930
      7        6           0.004341925   -0.000512368   -0.000000893
      8        8          -0.001706496    0.004167338   -0.000007903
      9        7          -0.002811609   -0.003258068   -0.000044261
     10        8          -0.004048898   -0.002170809    0.000006843
     11        1          -0.000317477   -0.000537384    0.000004730
     12        1          -0.000626211    0.000032274    0.000001497
     13        1          -0.000177696    0.000573202   -0.000007391
     14        1           0.000666877   -0.000671616   -0.000007625
     15        1          -0.002995362    0.000387928    0.000000707
     16        1           0.000204829   -0.001248614   -0.001002552
     17        1          -0.000048387   -0.000935248    0.000023520
     18        1           0.000179690   -0.001242794    0.001025605
 -------------------------------------------------------------------
 Cartesian Forces:  Max     0.004341925 RMS     0.001637899

 GradGradGradGradGradGradGradGradGradGradGradGradGradGradGradGradGradGrad
 Berny optimization.
 FormGI is forming the generalized inverse of G from B-inverse, IUseBI=4.
 Internal  Forces:  Max     0.007002758 RMS     0.001839152
 Search for a local minimum.
 Step number   1 out of a maximum of   92
 All quantities printed in internal units (Hartrees-Bohrs-Radians)
 Mixed Optimization -- RFO/linear search
 Second derivative matrix not updated -- first step.
 ITU=  0
     Eigenvalues ---    0.00579   0.00947   0.01524   0.01526   0.01687
     Eigenvalues ---    0.02028   0.02099   0.02114   0.02128   0.02148
     Eigenvalues ---    0.02162   0.02199   0.02704   0.06966   0.07701
     Eigenvalues ---    0.16000   0.16000   0.16000   0.16000   0.16000
     Eigenvalues ---    0.16000   0.16000   0.16000   0.22000   0.22493
     Eigenvalues ---    0.24483   0.25000   0.25000   0.25000   0.25000
     Eigenvalues ---    0.33860   0.34098   0.35211   0.35405   0.35433
     Eigenvalues ---    0.35552   0.36648   0.41342   0.42050   0.43548
     Eigenvalues ---    0.43552   0.45139   0.45398   0.46203   0.47508
     Eigenvalues ---    0.52365   0.61066   0.88403
 RFO step:  Lambda=-7.38713199D-04 EMin= 5.78597264D-03
 Linear search not attempted -- first point.
 Iteration  1 RMS(Cart)=  0.02134368 RMS(Int)=  0.00009029
 Iteration  2 RMS(Cart)=  0.00013377 RMS(Int)=  0.00000372
 Iteration  3 RMS(Cart)=  0.00000001 RMS(Int)=  0.00000372
 Variable       Old X    -DE/DX   Delta X   Delta X   Delta X     New X
                                 (Linear)    (Quad)   (Total)
    R1        2.63859  -0.00177   0.00000  -0.00346  -0.00347   2.63512
    R2        2.63584  -0.00224   0.00000  -0.00465  -0.00465   2.63119
    R3        2.04978   0.00062   0.00000   0.00176   0.00176   2.05154
    R4        2.64514  -0.00228   0.00000  -0.00480  -0.00480   2.64034
    R5        2.05022   0.00063   0.00000   0.00177   0.00177   2.05199
    R6        2.61948  -0.00355   0.00000  -0.00756  -0.00756   2.61192
    R7        2.05334   0.00059   0.00000   0.00166   0.00166   2.05500
    R8        2.66148  -0.00629   0.00000  -0.01454  -0.01454   2.64694
    R9        2.80464  -0.00700   0.00000  -0.02049  -0.02049   2.78415
   R10        2.65163  -0.00401   0.00000  -0.00906  -0.00906   2.64257
   R11        2.80867  -0.00441   0.00000  -0.01299  -0.01299   2.79568
   R12        2.04788   0.00091   0.00000   0.00256   0.00256   2.05045
   R13        2.50106  -0.00610   0.00000  -0.00997  -0.00997   2.49109
   R14        2.33678  -0.00403   0.00000  -0.00455  -0.00455   2.33222
   R15        1.84251  -0.00295   0.00000  -0.00563  -0.00563   1.83688
   R16        1.93695  -0.00154   0.00000  -0.00354  -0.00354   1.93341
   R17        2.03080   0.00021   0.00000   0.00057   0.00057   2.03137
   R18        1.93700  -0.00155   0.00000  -0.00356  -0.00356   1.93343
    A1        2.09921  -0.00019   0.00000   0.00041   0.00041   2.09962
    A2        2.09521   0.00010   0.00000  -0.00020  -0.00020   2.09501
    A3        2.08876   0.00010   0.00000  -0.00021  -0.00021   2.08855
    A4        2.09869   0.00003   0.00000   0.00142   0.00141   2.10010
    A5        2.09996   0.00001   0.00000  -0.00058  -0.00057   2.09938
    A6        2.08454  -0.00003   0.00000  -0.00084  -0.00084   2.08370
    A7        2.07513  -0.00120   0.00000  -0.00522  -0.00522   2.06990
    A8        2.09974   0.00073   0.00000   0.00341   0.00341   2.10315
    A9        2.10832   0.00047   0.00000   0.00182   0.00182   2.11014
   A10        2.13052   0.00113   0.00000   0.00371   0.00372   2.13424
   A11        2.08684   0.00197   0.00000   0.00827   0.00827   2.09511
   A12        2.06582  -0.00310   0.00000  -0.01199  -0.01199   2.05384
   A13        2.06006   0.00134   0.00000   0.00451   0.00452   2.06459
   A14        2.10386  -0.00349   0.00000  -0.01350  -0.01350   2.09036
   A15        2.11926   0.00215   0.00000   0.00898   0.00898   2.12824
   A16        2.10276  -0.00111   0.00000  -0.00483  -0.00483   2.09793
   A17        2.10251   0.00081   0.00000   0.00401   0.00401   2.10652
   A18        2.07791   0.00030   0.00000   0.00083   0.00083   2.07874
   A19        1.99903  -0.00147   0.00000  -0.00585  -0.00585   1.99319
   A20        2.14860  -0.00184   0.00000  -0.00735  -0.00735   2.14125
   A21        2.13555   0.00331   0.00000   0.01320   0.01320   2.14875
   A22        1.91196  -0.00119   0.00000  -0.00741  -0.00741   1.90454
   A23        1.95672  -0.00023   0.00000  -0.00087  -0.00087   1.95585
   A24        1.83793  -0.00126   0.00000  -0.00897  -0.00899   1.82894
   A25        1.95651  -0.00022   0.00000  -0.00077  -0.00078   1.95573
   A26        1.91360   0.00056   0.00000   0.00233   0.00231   1.91592
   A27        1.88576   0.00057   0.00000   0.00547   0.00547   1.89123
   A28        1.91283   0.00059   0.00000   0.00268   0.00266   1.91550
    D1        0.00015  -0.00000   0.00000  -0.00006  -0.00006   0.00008
    D2       -3.14149  -0.00000   0.00000  -0.00003  -0.00003  -3.14152
    D3       -3.14145  -0.00000   0.00000  -0.00007  -0.00007  -3.14152
    D4        0.00009  -0.00000   0.00000  -0.00004  -0.00004   0.00005
    D5       -0.00016   0.00000   0.00000   0.00008   0.00008  -0.00008
    D6        3.14129   0.00000   0.00000   0.00019   0.00019   3.14148
    D7        3.14144   0.00000   0.00000   0.00009   0.00009   3.14153
    D8       -0.00029   0.00000   0.00000   0.00019   0.00019  -0.00010
    D9        0.00004  -0.00000   0.00000  -0.00005  -0.00005  -0.00001
   D10       -3.14151  -0.00000   0.00000  -0.00008  -0.00008  -3.14159
   D11       -3.14151  -0.00000   0.00000  -0.00008  -0.00008  -3.14159
   D12        0.00013  -0.00000   0.00000  -0.00011  -0.00011   0.00002
   D13       -0.00021   0.00000   0.00000   0.00014   0.00014  -0.00007
   D14        3.14122   0.00000   0.00000   0.00020   0.00020   3.14142
   D15        3.14134   0.00000   0.00000   0.00017   0.00017   3.14151
   D16       -0.00042   0.00000   0.00000   0.00023   0.00023  -0.00019
   D17        0.00020  -0.00000   0.00000  -0.00012  -0.00012   0.00008
   D18       -3.14135  -0.00000   0.00000  -0.00008  -0.00008  -3.14143
   D19       -3.14123  -0.00000   0.00000  -0.00018  -0.00018  -3.14141
   D20        0.00040  -0.00000   0.00000  -0.00014  -0.00014   0.00026
   D21        1.06144   0.00022   0.00000   0.00325   0.00325   1.06469
   D22        3.14129  -0.00001   0.00000   0.00005   0.00005   3.14134
   D23       -1.06309  -0.00020   0.00000  -0.00267  -0.00267  -1.06576
   D24       -2.08031   0.00022   0.00000   0.00331   0.00331  -2.07700
   D25       -0.00046  -0.00001   0.00000   0.00011   0.00011  -0.00035
   D26        2.07835  -0.00020   0.00000  -0.00262  -0.00261   2.07574
   D27       -0.00001   0.00000   0.00000   0.00001   0.00001  -0.00000
   D28       -3.14146  -0.00000   0.00000  -0.00010  -0.00010  -3.14156
   D29        3.14154  -0.00000   0.00000  -0.00004  -0.00004   3.14151
   D30        0.00009  -0.00000   0.00000  -0.00014  -0.00014  -0.00005
   D31        3.14098   0.00001   0.00000   0.00055   0.00055   3.14153
   D32       -0.00058   0.00001   0.00000   0.00059   0.00059   0.00001
   D33       -0.00057   0.00001   0.00000   0.00059   0.00059   0.00003
   D34        3.14106   0.00001   0.00000   0.00063   0.00063  -3.14149
   D35        3.14154   0.00000   0.00000   0.00005   0.00005   3.14158
   D36       -0.00009   0.00000   0.00000   0.00001   0.00001  -0.00009
         Item               Value     Threshold  Converged?
 Maximum Force            0.007003     0.000450     NO 
 RMS     Force            0.001839     0.000300     NO 
 Maximum Displacement     0.092321     0.001800     NO 
 RMS     Displacement     0.021325     0.001200     NO 
 Predicted change in Energy=-3.701963D-04
 GradGradGradGradGradGradGradGradGradGradGradGradGradGradGradGradGradGrad

                          Input orientation:                          
 ---------------------------------------------------------------------
 Center     Atomic      Atomic             Coordinates (Angstroms)
 Number     Number       Type             X           Y           Z
 ---------------------------------------------------------------------
      1          6           0       -1.937283   -1.471915   -0.000144
      2          6           0       -2.618428   -0.255151    0.000053
      3          6           0       -1.910697    0.949548    0.000146
      4          6           0       -0.529239    0.905251    0.000051
      5          6           0        0.180538   -0.302303   -0.000051
      6          6           0       -0.545153   -1.497654   -0.000149
      7          6           0        1.659844   -0.284808    0.000057
      8          8           0        2.214422   -1.480704    0.000021
      9          7           0        0.248826    2.156352   -0.000080
     10          8           0        2.313976    0.761738    0.000250
     11          1           0       -2.491942   -2.405158   -0.000281
     12          1           0       -3.704113   -0.235333    0.000121
     13          1           0       -2.438994    1.900059    0.000302
     14          1           0       -0.008621   -2.440768   -0.000194
     15          1           0        3.181557   -1.383206    0.000088
     16          1           0        0.061495    2.725485    0.829232
     17          1           0        1.276330    1.840503    0.000125
     18          1           0        0.062044    2.724838   -0.829977
 ---------------------------------------------------------------------
                    Distance matrix (angstroms):
                    1          2          3          4          5
     1  C    0.000000
     2  C    1.394444   0.000000
     3  C    2.421609   1.397205   0.000000
     4  C    2.762879   2.389821   1.382168   0.000000
     5  C    2.419330   2.799364   2.437292   1.400703   0.000000
     6  C    1.392367   2.417081   2.802410   2.402957   1.398389
     7  C    3.787947   4.278375   3.777882   2.491651   1.479409
     8  O    4.151714   4.985822   4.787769   3.635995   2.350599
     9  N    4.235964   3.746530   2.473846   1.473309   2.459603
    10  O    4.802334   5.036137   4.228846   2.846835   2.384060
    11  H    1.085629   2.153724   3.404687   3.848507   3.400610
    12  H    2.156577   1.085866   2.149485   3.373537   3.885228
    13  H    3.409094   2.162666   1.087460   2.153325   3.422331
    14  H    2.158336   3.404118   3.887433   3.386279   2.146816
    15  H    5.119609   5.908667   5.601142   4.359707   3.189744
    16  H    4.722408   4.093131   2.780445   2.085608   3.141557
    17  H    4.615129   4.422771   3.309220   2.033415   2.406735
    18  H    4.722146   4.093191   2.780731   2.085536   3.141082
                    6          7          8          9         10
     6  C    0.000000
     7  C    2.516546   0.000000
     8  O    2.759628   1.318228   0.000000
     9  N    3.739273   2.819616   4.134217   0.000000
    10  O    3.644101   1.234159   2.244651   2.491947   0.000000
    11  H    2.147918   4.661889   4.796298   5.321576   5.755526
    12  H    3.401835   5.364185   6.048141   4.620160   6.100127
    13  H    3.889869   4.644795   5.751856   2.700011   4.887382
    14  H    1.085050   2.726158   2.421496   4.604324   3.956072
    15  H    3.728468   1.876724   0.972037   4.596672   2.313759
    16  H    4.346354   3.507722   4.797365   1.023115   3.101159
    17  H    3.802774   2.159637   3.451150   1.074954   1.496811
    18  H    4.345887   3.507120   4.796688   1.023128   3.100684
                   11         12         13         14         15
    11  H    0.000000
    12  H    2.485457   0.000000
    13  H    4.305542   2.482020   0.000000
    14  H    2.483577   4.303557   4.974887   0.000000
    15  H    5.764805   6.980693   6.509257   3.360904   0.000000
    16  H    5.790650   4.861448   2.760598   5.232880   5.225286
    17  H    5.676751   5.395730   3.715802   4.469942   3.744622
    18  H    5.790345   4.861647   2.761307   5.232306   5.224596
                   16         17         18
    16  H    0.000000
    17  H    1.716518   0.000000
    18  H    1.659209   1.716277   0.000000
 Stoichiometry    C7H8NO2(1+)
 Framework group  C1[X(C7H8NO2)]
 Deg. of freedom    48
 Full point group                 C1      NOp   1
 Largest Abelian subgroup         C1      NOp   1
 Largest concise Abelian subgroup C1      NOp   1
                         Standard orientation:                         
 ---------------------------------------------------------------------
 Center     Atomic      Atomic             Coordinates (Angstroms)
 Number     Number       Type             X           Y           Z
 ---------------------------------------------------------------------
      1          6           0        1.952111   -1.451338    0.000155
      2          6           0        2.617507   -0.225891   -0.000042
      3          6           0        1.894298    0.969580   -0.000135
      4          6           0        0.513526    0.907470   -0.000040
      5          6           0       -0.180618   -0.309137    0.000062
      6          6           0        0.560429   -1.495029    0.000160
      7          6           0       -1.660026   -0.310722   -0.000046
      8          8           0       -2.199135   -1.513671   -0.000010
      9          7           0       -0.280609    2.148433    0.000091
     10          8           0       -2.327602    0.727301   -0.000239
     11          1           0        2.518760   -2.377350    0.000292
     12          1           0        3.702846   -0.192073   -0.000110
     13          1           0        2.410293    1.926825   -0.000291
     14          1           0        0.036104   -2.444985    0.000205
     15          1           0       -3.167448   -1.428654   -0.000077
     16          1           0       -0.100634    2.719934   -0.829221
     17          1           0       -1.303954    1.819358   -0.000114
     18          1           0       -0.101174    2.719280    0.829988
 ---------------------------------------------------------------------
 Rotational constants (GHZ):      2.2657067      1.2157260      0.7946427
 Standard basis: 6-31+G(d,p) (6D, 7F)
 There are   230 symmetry adapted cartesian basis functions of A   symmetry.
 There are   230 symmetry adapted basis functions of A   symmetry.
   230 basis functions,   376 primitive gaussians,   230 cartesian basis functions
    36 alpha electrons       36 beta electrons
       nuclear repulsion energy       516.8142080049 Hartrees.
 NAtoms=   18 NActive=   18 NUniq=   18 SFac= 1.00D+00 NAtFMM=   60 NAOKFM=F Big=F
 Integral buffers will be    131072 words long.
 Raffenetti 2 integral format.
 Two-electron integral symmetry is turned on.
 R6APFD:  NTU= -4 IXU= 1 FactS= 1.050
 Nuclear repulsion after empirical dispersion term =      516.8032724921 Hartrees.
 One-electron integrals computed using PRISM.
 NBasis=   230 RedAO= T EigKep=  2.24D-06  NBF=   230
 NBsUse=   230 1.00D-06 EigRej= -1.00D+00 NBFU=   230
 Initial guess from the checkpoint file:  "APFDAnthranilicyang.chk"
 B after Tr=    -0.000000    0.000000   -0.000000
         Rot=    0.999986    0.000017    0.000009   -0.005294 Ang=   0.61 deg.
 ExpMin= 4.38D-02 ExpMax= 5.48D+03 ExpMxC= 8.25D+02 IAcc=2 IRadAn=         4 AccDes= 0.00D+00
 Harris functional with IExCor= 3731 and IRadAn=       4 diagonalized for initial guess.
 HarFok:  IExCor= 3731 AccDes= 0.00D+00 IRadAn=         4 IDoV= 1 UseB2=F ITyADJ=14
 ICtDFT=  3500011 ScaDFX=  1.000000  1.000000  1.000000  1.000000
 FoFCou: FMM=F IPFlag=           0 FMFlag=      100000 FMFlg1=           0
         NFxFlg=           0 DoJE=T BraDBF=F KetDBF=T FulRan=T
         wScrn=  0.000000 ICntrl=     500 IOpCl=  0 I1Cent=   200000004 NGrid=           0
         NMat0=    1 NMatS0=      1 NMatT0=    0 NMatD0=    1 NMtDS0=    0 NMtDT0=    0
 Petite list used in FoFCou.
 Keep R1 ints in memory in canonical form, NReq=359209085.
 Requested convergence on RMS density matrix=1.00D-08 within 128 cycles.
 Requested convergence on MAX density matrix=1.00D-06.
 Requested convergence on             energy=1.00D-06.
 No special actions if energy rises.
 SCF Done:  E(RAPFD) =  -476.196378160     A.U. after   13 cycles
            NFock= 13  Conv=0.23D-08     -V/T= 2.0088
 R6APFD:  NTU= -4 IXU= 1 FactS= 1.050
 Calling FoFJK, ICntrl=      2127 FMM=F ISym2X=0 I1Cent= 0 IOpClX= 0 NMat=1 NMatS=1 NMatT=0.
 ***** Axes restored to original set *****
 -------------------------------------------------------------------
 Center     Atomic                   Forces (Hartrees/Bohr)
 Number     Number              X              Y              Z
 -------------------------------------------------------------------
      1        6           0.000067248   -0.000447967    0.000000292
      2        6          -0.000069719    0.000158296   -0.000000410
      3        6          -0.000810512   -0.000315585    0.000000888
      4        6           0.000878827    0.003738001   -0.000001636
      5        6           0.000497500   -0.000347722   -0.000000324
      6        6          -0.000025074   -0.000863387    0.000002024
      7        6          -0.002057669   -0.004753152    0.000006634
      8        8           0.000710928    0.003215803   -0.000003460
      9        7          -0.009305990    0.003531889   -0.000029015
     10        8           0.005677560   -0.002711472   -0.000006308
     11        1          -0.000063589    0.000038995    0.000002167
     12        1          -0.000047705   -0.000144699   -0.000000402
     13        1           0.000079579   -0.000063848   -0.000002548
     14        1          -0.000194323   -0.000063327   -0.000002021
     15        1           0.000585712   -0.000870236    0.000001442
     16        1          -0.000293645    0.000177204   -0.000432906
     17        1           0.004679188   -0.000460572    0.000021325
     18        1          -0.000308317    0.000181779    0.000444258
 -------------------------------------------------------------------
 Cartesian Forces:  Max     0.009305990 RMS     0.002005118

 GradGradGradGradGradGradGradGradGradGradGradGradGradGradGradGradGradGrad
 Berny optimization.
 Using GEDIIS/GDIIS optimizer.
 FormGI is forming the generalized inverse of G from B-inverse, IUseBI=4.
 Internal  Forces:  Max     0.014102566 RMS     0.003197679
 Search for a local minimum.
 Step number   2 out of a maximum of   92
 All quantities printed in internal units (Hartrees-Bohrs-Radians)
 Mixed Optimization -- RFO/linear search
 Update second derivatives using D2CorX and points    2    1
 DE=  6.74D-05 DEPred=-3.70D-04 R=-1.82D-01
 Trust test=-1.82D-01 RLast= 4.76D-02 DXMaxT set to 1.50D-01
 ITU= -1  0
 Use linear search instead of GDIIS.
 Energy rises -- skip Quadratic/GDIIS search.
 Quartic linear search produced a step of -0.53069.
 Iteration  1 RMS(Cart)=  0.01127820 RMS(Int)=  0.00002427
 Iteration  2 RMS(Cart)=  0.00005040 RMS(Int)=  0.00000093
 Iteration  3 RMS(Cart)=  0.00000000 RMS(Int)=  0.00000093
 Variable       Old X    -DE/DX   Delta X   Delta X   Delta X     New X
                                 (Linear)    (Quad)   (Total)
    R1        2.63512  -0.00137   0.00184   0.00000   0.00184   2.63696
    R2        2.63119  -0.00077   0.00247   0.00000   0.00247   2.63366
    R3        2.05154  -0.00000  -0.00093   0.00000  -0.00093   2.05061
    R4        2.64034  -0.00058   0.00255   0.00000   0.00255   2.64288
    R5        2.05199   0.00005  -0.00094   0.00000  -0.00094   2.05105
    R6        2.61192   0.00161   0.00401   0.00000   0.00401   2.61593
    R7        2.05500  -0.00009  -0.00088   0.00000  -0.00088   2.05412
    R8        2.64694   0.00987   0.00772   0.00000   0.00771   2.65466
    R9        2.78415   0.00015   0.01088   0.00000   0.01088   2.79503
   R10        2.64257   0.00186   0.00481   0.00000   0.00481   2.64738
   R11        2.79568   0.00486   0.00689   0.00000   0.00689   2.80257
   R12        2.05045  -0.00004  -0.00136   0.00000  -0.00136   2.04909
   R13        2.49109  -0.00158   0.00529   0.00000   0.00529   2.49638
   R14        2.33222   0.00071   0.00242   0.00000   0.00242   2.33464
   R15        1.83688   0.00050   0.00299   0.00000   0.00299   1.83987
   R16        1.93341  -0.00020   0.00188   0.00000   0.00188   1.93528
   R17        2.03137   0.00461  -0.00030   0.00000  -0.00030   2.03107
   R18        1.93343  -0.00020   0.00189   0.00000   0.00189   1.93532
    A1        2.09962   0.00016  -0.00022   0.00000  -0.00021   2.09941
    A2        2.09501  -0.00016   0.00010   0.00000   0.00010   2.09512
    A3        2.08855  -0.00000   0.00011   0.00000   0.00011   2.08866
    A4        2.10010   0.00025  -0.00075   0.00000  -0.00075   2.09935
    A5        2.09938  -0.00027   0.00030   0.00000   0.00030   2.09969
    A6        2.08370   0.00003   0.00044   0.00000   0.00044   2.08415
    A7        2.06990   0.00252   0.00277   0.00000   0.00277   2.07267
    A8        2.10315  -0.00122  -0.00181   0.00000  -0.00181   2.10134
    A9        2.11014  -0.00130  -0.00096   0.00000  -0.00096   2.10918
   A10        2.13424  -0.00278  -0.00197   0.00000  -0.00198   2.13226
   A11        2.09511  -0.00852  -0.00439   0.00000  -0.00439   2.09072
   A12        2.05384   0.01130   0.00636   0.00000   0.00636   2.06020
   A13        2.06459  -0.00284  -0.00240   0.00000  -0.00240   2.06218
   A14        2.09036   0.01410   0.00717   0.00000   0.00717   2.09752
   A15        2.12824  -0.01126  -0.00477   0.00000  -0.00477   2.12348
   A16        2.09793   0.00269   0.00257   0.00000   0.00257   2.10049
   A17        2.10652  -0.00155  -0.00213   0.00000  -0.00213   2.10439
   A18        2.07874  -0.00114  -0.00044   0.00000  -0.00044   2.07830
   A19        1.99319  -0.00240   0.00310   0.00000   0.00310   1.99629
   A20        2.14125   0.00849   0.00390   0.00000   0.00390   2.14515
   A21        2.14875  -0.00609  -0.00701   0.00000  -0.00701   2.14174
   A22        1.90454   0.00170   0.00393   0.00000   0.00393   1.90848
   A23        1.95585  -0.00024   0.00046   0.00000   0.00047   1.95632
   A24        1.82894   0.00157   0.00477   0.00000   0.00477   1.83371
   A25        1.95573  -0.00023   0.00041   0.00000   0.00042   1.95614
   A26        1.91592  -0.00034  -0.00123   0.00000  -0.00122   1.91469
   A27        1.89123  -0.00042  -0.00290   0.00000  -0.00290   1.88833
   A28        1.91550  -0.00031  -0.00141   0.00000  -0.00141   1.91409
    D1        0.00008  -0.00000   0.00003   0.00000   0.00003   0.00012
    D2       -3.14152  -0.00000   0.00002   0.00000   0.00002  -3.14151
    D3       -3.14152  -0.00000   0.00004   0.00000   0.00004  -3.14149
    D4        0.00005  -0.00000   0.00002   0.00000   0.00002   0.00007
    D5       -0.00008   0.00000  -0.00004   0.00000  -0.00004  -0.00012
    D6        3.14148   0.00000  -0.00010   0.00000  -0.00010   3.14138
    D7        3.14153   0.00000  -0.00005   0.00000  -0.00005   3.14148
    D8       -0.00010   0.00000  -0.00010   0.00000  -0.00010  -0.00020
    D9       -0.00001  -0.00000   0.00003   0.00000   0.00003   0.00002
   D10       -3.14159   0.00000   0.00004   0.00000   0.00004  -3.14155
   D11       -3.14159  -0.00000   0.00004   0.00000   0.00004  -3.14155
   D12        0.00002   0.00000   0.00006   0.00000   0.00006   0.00007
   D13       -0.00007   0.00000  -0.00007   0.00000  -0.00007  -0.00015
   D14        3.14142   0.00000  -0.00011   0.00000  -0.00011   3.14131
   D15        3.14151   0.00000  -0.00009   0.00000  -0.00009   3.14142
   D16       -0.00019   0.00000  -0.00012   0.00000  -0.00012  -0.00031
   D17        0.00008  -0.00000   0.00006   0.00000   0.00006   0.00014
   D18       -3.14143  -0.00000   0.00004   0.00000   0.00004  -3.14139
   D19       -3.14141  -0.00000   0.00009   0.00000   0.00009  -3.14132
   D20        0.00026  -0.00000   0.00007   0.00000   0.00007   0.00034
   D21        1.06469  -0.00044  -0.00172   0.00000  -0.00172   1.06297
   D22        3.14134  -0.00001  -0.00003   0.00000  -0.00003   3.14132
   D23       -1.06576   0.00044   0.00142   0.00000   0.00141  -1.06434
   D24       -2.07700  -0.00044  -0.00175   0.00000  -0.00175  -2.07875
   D25       -0.00035  -0.00001  -0.00006   0.00000  -0.00006  -0.00041
   D26        2.07574   0.00045   0.00139   0.00000   0.00138   2.07712
   D27       -0.00000   0.00000  -0.00000   0.00000  -0.00000  -0.00000
   D28       -3.14156  -0.00000   0.00005   0.00000   0.00005  -3.14151
   D29        3.14151   0.00000   0.00002   0.00000   0.00002   3.14152
   D30       -0.00005   0.00000   0.00007   0.00000   0.00007   0.00002
   D31        3.14153   0.00000  -0.00029   0.00000  -0.00029   3.14124
   D32        0.00001  -0.00000  -0.00031   0.00000  -0.00031  -0.00030
   D33        0.00003   0.00000  -0.00031   0.00000  -0.00031  -0.00029
   D34       -3.14149  -0.00000  -0.00034   0.00000  -0.00034   3.14136
   D35        3.14158  -0.00000  -0.00002   0.00000  -0.00002   3.14156
   D36       -0.00009   0.00000  -0.00000   0.00000  -0.00000  -0.00009
         Item               Value     Threshold  Converged?
 Maximum Force            0.014103     0.000450     NO 
 RMS     Force            0.003198     0.000300     NO 
 Maximum Displacement     0.048971     0.001800     NO 
 RMS     Displacement     0.011312     0.001200     NO 
 Predicted change in Energy=-1.943330D-04
 GradGradGradGradGradGradGradGradGradGradGradGradGradGradGradGradGradGrad

                          Input orientation:                          
 ---------------------------------------------------------------------
 Center     Atomic      Atomic             Coordinates (Angstroms)
 Number     Number       Type             X           Y           Z
 ---------------------------------------------------------------------
      1          6           0       -1.938424   -1.474009   -0.000228
      2          6           0       -2.620940   -0.256896    0.000088
      3          6           0       -1.912512    0.948957    0.000265
      4          6           0       -0.528815    0.908412    0.000101
      5          6           0        0.183981   -0.302102   -0.000062
      6          6           0       -0.544965   -1.498450   -0.000230
      7          6           0        1.667017   -0.294028    0.000026
      8          8           0        2.218841   -1.494280    0.000282
      9          7           0        0.243292    2.169951   -0.000080
     10          8           0        2.332566    0.746813   -0.000069
     11          1           0       -2.492049   -2.407292   -0.000464
     12          1           0       -3.706137   -0.237556    0.000169
     13          1           0       -2.442289    1.898109    0.000552
     14          1           0       -0.009899   -2.441570   -0.000275
     15          1           0        3.188228   -1.403614    0.000291
     16          1           0        0.050840    2.739367    0.829092
     17          1           0        1.274335    1.866417    0.000104
     18          1           0        0.051494    2.738544   -0.829993
 ---------------------------------------------------------------------
                    Distance matrix (angstroms):
                    1          2          3          4          5
     1  C    0.000000
     2  C    1.395418   0.000000
     3  C    2.423105   1.398554   0.000000
     4  C    2.768199   2.394771   1.384290   0.000000
     5  C    2.424453   2.805285   2.441399   1.404785   0.000000
     6  C    1.393674   2.418911   2.803567   2.406916   1.400932
     7  C    3.793621   4.288117   3.789200   2.503505   1.483057
     8  O    4.157315   4.995458   4.799738   3.650006   2.358378
     9  N    4.247155   3.754119   2.477562   1.479064   2.472764
    10  O    4.813877   5.054172   4.249888   2.865941   2.390950
    11  H    1.085135   2.154255   3.405917   3.853334   3.404844
    12  H    2.157226   1.085370   2.150560   3.377665   3.890654
    13  H    3.409554   2.162398   1.086993   2.154271   3.426109
    14  H    2.157634   3.404458   3.887880   3.389934   2.148235
    15  H    5.127135   5.921266   5.617128   4.377427   3.199817
    16  H    4.732598   4.099177   2.783392   2.091799   3.155274
    17  H    4.634681   4.436398   3.316282   2.041844   2.427210
    18  H    4.732218   4.099220   2.783751   2.091698   3.154658
                    6          7          8          9         10
     6  C    0.000000
     7  C    2.518629   0.000000
     8  O    2.763809   1.321028   0.000000
     9  N    3.752135   2.845731   4.162858   0.000000
    10  O    3.649848   1.235438   2.243977   2.527922   0.000000
    11  H    2.148751   4.665159   4.798550   5.332283   5.764139
    12  H    3.403361   5.373451   6.056792   4.625374   6.118409
    13  H    3.890559   4.657452   5.764932   2.699304   4.911692
    14  H    1.084330   2.724699   2.421703   4.618467   3.956379
    15  H    3.734397   1.882887   0.973617   4.630660   2.314410
    16  H    4.359111   3.535656   4.828139   1.024109   3.140709
    17  H    3.825204   2.195842   3.490899   1.074795   1.540573
    18  H    4.358485   3.534875   4.827375   1.024129   3.139913
                   11         12         13         14         15
    11  H    0.000000
    12  H    2.486315   0.000000
    13  H    4.305689   2.481608   0.000000
    14  H    2.482387   4.303470   4.974871   0.000000
    15  H    5.768268   6.992279   6.527181   3.362346   0.000000
    16  H    5.800220   4.864573   2.758602   5.247252   5.262547
    17  H    5.696511   5.406645   3.716760   4.495333   3.788942
    18  H    5.799773   4.864786   2.759545   5.246503   5.261743
                   16         17         18
    16  H    0.000000
    17  H    1.716451   0.000000
    18  H    1.659086   1.716102   0.000000
 Stoichiometry    C7H8NO2(1+)
 Framework group  C1[X(C7H8NO2)]
 Deg. of freedom    48
 Full point group                 C1      NOp   1
 Largest Abelian subgroup         C1      NOp   1
 Largest concise Abelian subgroup C1      NOp   1
                         Standard orientation:                         
 ---------------------------------------------------------------------
 Center     Atomic      Atomic             Coordinates (Angstroms)
 Number     Number       Type             X           Y           Z
 ---------------------------------------------------------------------
      1          6           0        1.945493   -1.464265    0.000233
      2          6           0        2.620567   -0.243008   -0.000083
      3          6           0        1.904790    0.958498   -0.000260
      4          6           0        0.521367    0.909507   -0.000096
      5          6           0       -0.184026   -0.305335    0.000067
      6          6           0        0.552209   -1.497211    0.000235
      7          6           0       -1.667084   -0.306315   -0.000021
      8          8           0       -2.211571   -1.509914   -0.000277
      9          7           0       -0.258427    2.166309    0.000085
     10          8           0       -2.338975    0.730444    0.000074
     11          1           0        2.504805   -2.394150    0.000469
     12          1           0        3.705626   -0.217044   -0.000164
     13          1           0        2.428763    1.910867   -0.000546
     14          1           0        0.022911   -2.443581    0.000280
     15          1           0       -3.181493   -1.425166   -0.000286
     16          1           0       -0.069455    2.736889   -0.829087
     17          1           0       -1.287598    1.856487   -0.000098
     18          1           0       -0.070104    2.736063    0.829998
 ---------------------------------------------------------------------
 Rotational constants (GHZ):      2.2489609      1.2091057      0.7897533
 Standard basis: 6-31+G(d,p) (6D, 7F)
 There are   230 symmetry adapted cartesian basis functions of A   symmetry.
 There are   230 symmetry adapted basis functions of A   symmetry.
   230 basis functions,   376 primitive gaussians,   230 cartesian basis functions
    36 alpha electrons       36 beta electrons
       nuclear repulsion energy       515.3992517164 Hartrees.
 NAtoms=   18 NActive=   18 NUniq=   18 SFac= 1.00D+00 NAtFMM=   60 NAOKFM=F Big=F
 Integral buffers will be    131072 words long.
 Raffenetti 2 integral format.
 Two-electron integral symmetry is turned on.
 R6APFD:  NTU= -4 IXU= 1 FactS= 1.050
 Nuclear repulsion after empirical dispersion term =      515.3882804281 Hartrees.
 One-electron integrals computed using PRISM.
 NBasis=   230 RedAO= T EigKep=  2.26D-06  NBF=   230
 NBsUse=   230 1.00D-06 EigRej= -1.00D+00 NBFU=   230
 Lowest energy guess from the checkpoint file:  "APFDAnthranilicyang.chk"
 B after Tr=    -0.000000    0.000000    0.000000
         Rot=    0.999997    0.000008    0.000004   -0.002511 Ang=   0.29 deg.
 B after Tr=    -0.000000    0.000000    0.000000
         Rot=    0.999996   -0.000009   -0.000005    0.002784 Ang=  -0.32 deg.
 Keep R1 ints in memory in canonical form, NReq=359209085.
 Requested convergence on RMS density matrix=1.00D-08 within 128 cycles.
 Requested convergence on MAX density matrix=1.00D-06.
 Requested convergence on             energy=1.00D-06.
 No special actions if energy rises.
 SCF Done:  E(RAPFD) =  -476.196621929     A.U. after    9 cycles
            NFock=  9  Conv=0.36D-08     -V/T= 2.0090
 R6APFD:  NTU= -4 IXU= 1 FactS= 1.050
 Calling FoFJK, ICntrl=      2127 FMM=F ISym2X=0 I1Cent= 0 IOpClX= 0 NMat=1 NMatS=1 NMatT=0.
 ***** Axes restored to original set *****
 -------------------------------------------------------------------
 Center     Atomic                   Forces (Hartrees/Bohr)
 Number     Number              X              Y              Z
 -------------------------------------------------------------------
      1        6           0.000885325    0.001180676   -0.000001225
      2        6           0.001770953    0.000108503   -0.000001157
      3        6           0.000661910   -0.001178201    0.000001316
      4        6           0.001670411    0.002344946   -0.000002577
      5        6          -0.000404786   -0.000065266   -0.000001182
      6        6          -0.000346741    0.001418425    0.000009387
      7        6           0.001332467   -0.002436367    0.000002893
      8        8          -0.000587890    0.003735739   -0.000005785
      9        7          -0.005648296   -0.000238535   -0.000036149
     10        8           0.000270265   -0.002297299    0.000000185
     11        1          -0.000198696   -0.000266112    0.000003553
     12        1          -0.000353631   -0.000050099    0.000000587
     13        1          -0.000057727    0.000274066   -0.000005148
     14        1           0.000262794   -0.000383708   -0.000005020
     15        1          -0.001329930   -0.000208979    0.000001149
     16        1          -0.000026842   -0.000583020   -0.000732137
     17        1           0.002146997   -0.000776925    0.000021811
     18        1          -0.000046585   -0.000577847    0.000749499
 -------------------------------------------------------------------
 Cartesian Forces:  Max     0.005648296 RMS     0.001264908

 GradGradGradGradGradGradGradGradGradGradGradGradGradGradGradGradGradGrad
 Berny optimization.
 Using GEDIIS/GDIIS optimizer.
 FormGI is forming the generalized inverse of G from B-inverse, IUseBI=4.
 Internal  Forces:  Max     0.004040247 RMS     0.001155274
 Search for a local minimum.
 Step number   3 out of a maximum of   92
 All quantities printed in internal units (Hartrees-Bohrs-Radians)
 Mixed Optimization -- RFO/linear search
 Update second derivatives using D2CorX and points    2    1    3
 ITU=  0 -1  0
 Use linear search instead of GDIIS.
     Eigenvalues ---    0.00579   0.00947   0.01526   0.01531   0.01687
     Eigenvalues ---    0.02028   0.02099   0.02114   0.02128   0.02148
     Eigenvalues ---    0.02162   0.02199   0.02704   0.06991   0.07732
     Eigenvalues ---    0.15569   0.16000   0.16000   0.16000   0.16000
     Eigenvalues ---    0.16000   0.16000   0.16027   0.21313   0.22037
     Eigenvalues ---    0.22970   0.24487   0.25000   0.25000   0.27238
     Eigenvalues ---    0.33515   0.35204   0.35392   0.35426   0.35535
     Eigenvalues ---    0.35943   0.38440   0.41924   0.42577   0.43550
     Eigenvalues ---    0.43934   0.45086   0.46200   0.47032   0.51949
     Eigenvalues ---    0.58731   0.86086   1.00322
 RFO step:  Lambda=-3.42700577D-04 EMin= 5.78597000D-03
 Quartic linear search produced a step of -0.00052.
 Iteration  1 RMS(Cart)=  0.01365918 RMS(Int)=  0.00005920
 Iteration  2 RMS(Cart)=  0.00010435 RMS(Int)=  0.00000116
 Iteration  3 RMS(Cart)=  0.00000000 RMS(Int)=  0.00000116
 Variable       Old X    -DE/DX   Delta X   Delta X   Delta X     New X
                                 (Linear)    (Quad)   (Total)
    R1        2.63696  -0.00150   0.00000  -0.00501  -0.00501   2.63194
    R2        2.63366  -0.00152   0.00000  -0.00551  -0.00551   2.62816
    R3        2.05061   0.00033  -0.00000   0.00175   0.00175   2.05235
    R4        2.64288  -0.00144   0.00000  -0.00545  -0.00544   2.63744
    R5        2.05105   0.00035  -0.00000   0.00181   0.00181   2.05287
    R6        2.61593  -0.00118   0.00000  -0.00589  -0.00589   2.61004
    R7        2.05412   0.00027  -0.00000   0.00153   0.00153   2.05565
    R8        2.65466   0.00086   0.00000  -0.00464  -0.00464   2.65002
    R9        2.79503  -0.00372   0.00001  -0.02042  -0.02041   2.77462
   R10        2.64738  -0.00133   0.00000  -0.00708  -0.00708   2.64030
   R11        2.80257  -0.00032   0.00000  -0.00698  -0.00698   2.79559
   R12        2.04909   0.00046  -0.00000   0.00249   0.00249   2.05158
   R13        2.49638  -0.00401   0.00000  -0.01118  -0.01118   2.48520
   R14        2.33464  -0.00179   0.00000  -0.00414  -0.00414   2.33050
   R15        1.83987  -0.00134   0.00000  -0.00518  -0.00517   1.83470
   R16        1.93528  -0.00091   0.00000  -0.00373  -0.00373   1.93155
   R17        2.03107   0.00228  -0.00000   0.00647   0.00647   2.03754
   R18        1.93532  -0.00092   0.00000  -0.00376  -0.00376   1.93156
    A1        2.09941  -0.00003  -0.00000  -0.00057  -0.00057   2.09884
    A2        2.09512  -0.00002   0.00000   0.00006   0.00006   2.09518
    A3        2.08866   0.00005   0.00000   0.00050   0.00050   2.08917
    A4        2.09935   0.00013  -0.00000   0.00068   0.00068   2.10003
    A5        2.09969  -0.00012   0.00000  -0.00064  -0.00064   2.09905
    A6        2.08415  -0.00001   0.00000  -0.00004  -0.00004   2.08411
    A7        2.07267   0.00042   0.00000  -0.00054  -0.00054   2.07213
    A8        2.10134  -0.00013  -0.00000   0.00117   0.00117   2.10251
    A9        2.10918  -0.00030  -0.00000  -0.00063  -0.00063   2.10854
   A10        2.13226  -0.00059  -0.00000  -0.00024  -0.00025   2.13202
   A11        2.09072  -0.00249  -0.00000  -0.00629  -0.00629   2.08444
   A12        2.06020   0.00308   0.00000   0.00653   0.00653   2.06673
   A13        2.06218  -0.00046  -0.00000   0.00062   0.00062   2.06280
   A14        2.09752   0.00404   0.00000   0.00968   0.00968   2.10721
   A15        2.12348  -0.00358  -0.00000  -0.01030  -0.01030   2.11318
   A16        2.10049   0.00053   0.00000   0.00005   0.00005   2.10055
   A17        2.10439  -0.00023  -0.00000   0.00097   0.00096   2.10535
   A18        2.07830  -0.00031  -0.00000  -0.00102  -0.00102   2.07729
   A19        1.99629  -0.00169   0.00000  -0.00946  -0.00946   1.98683
   A20        2.14515   0.00256   0.00000   0.00678   0.00679   2.15194
   A21        2.14174  -0.00087  -0.00000   0.00268   0.00267   2.14442
   A22        1.90848   0.00015   0.00000  -0.00248  -0.00248   1.90600
   A23        1.95632  -0.00021   0.00000  -0.00193  -0.00194   1.95438
   A24        1.83371  -0.00008   0.00000  -0.00430  -0.00430   1.82941
   A25        1.95614  -0.00020   0.00000  -0.00180  -0.00180   1.95434
   A26        1.91469   0.00018  -0.00000   0.00252   0.00251   1.91720
   A27        1.88833   0.00012  -0.00000   0.00258   0.00258   1.89090
   A28        1.91409   0.00021  -0.00000   0.00299   0.00298   1.91707
    D1        0.00012  -0.00000   0.00000  -0.00010  -0.00009   0.00002
    D2       -3.14151  -0.00000   0.00000  -0.00005  -0.00005  -3.14156
    D3       -3.14149  -0.00000   0.00000  -0.00009  -0.00009  -3.14158
    D4        0.00007  -0.00000   0.00000  -0.00005  -0.00005   0.00003
    D5       -0.00012   0.00000  -0.00000   0.00011   0.00011  -0.00002
    D6        3.14138   0.00000  -0.00000   0.00023   0.00023  -3.14158
    D7        3.14148   0.00000  -0.00000   0.00010   0.00010   3.14159
    D8       -0.00020   0.00000  -0.00000   0.00023   0.00023   0.00003
    D9        0.00002  -0.00000   0.00000  -0.00004  -0.00004  -0.00003
   D10       -3.14155  -0.00000   0.00000  -0.00006  -0.00006   3.14157
   D11       -3.14155  -0.00000   0.00000  -0.00009  -0.00009   3.14155
   D12        0.00007  -0.00000   0.00000  -0.00011  -0.00011  -0.00003
   D13       -0.00015   0.00000  -0.00000   0.00018   0.00018   0.00003
   D14        3.14131   0.00000  -0.00000   0.00029   0.00029  -3.14159
   D15        3.14142   0.00000  -0.00000   0.00019   0.00019  -3.14157
   D16       -0.00031   0.00000  -0.00000   0.00031   0.00031  -0.00000
   D17        0.00014  -0.00000   0.00000  -0.00016  -0.00016  -0.00002
   D18       -3.14139  -0.00000   0.00000  -0.00014  -0.00014  -3.14152
   D19       -3.14132  -0.00000   0.00000  -0.00028  -0.00028   3.14159
   D20        0.00034  -0.00000   0.00000  -0.00025  -0.00025   0.00009
   D21        1.06297  -0.00007  -0.00000   0.00053   0.00053   1.06350
   D22        3.14132  -0.00001  -0.00000  -0.00011  -0.00011   3.14121
   D23       -1.06434   0.00008   0.00000  -0.00011  -0.00011  -1.06445
   D24       -2.07875  -0.00007  -0.00000   0.00064   0.00064  -2.07812
   D25       -0.00041  -0.00001  -0.00000   0.00000   0.00000  -0.00041
   D26        2.07712   0.00008   0.00000   0.00000   0.00000   2.07712
   D27       -0.00000   0.00000  -0.00000   0.00002   0.00002   0.00002
   D28       -3.14151  -0.00000   0.00000  -0.00010  -0.00010   3.14158
   D29        3.14152   0.00000   0.00000  -0.00001  -0.00001   3.14152
   D30        0.00002  -0.00000   0.00000  -0.00013  -0.00013  -0.00011
   D31        3.14124   0.00000  -0.00000   0.00054   0.00054  -3.14140
   D32       -0.00030   0.00000  -0.00000   0.00040   0.00040   0.00010
   D33       -0.00029   0.00000  -0.00000   0.00057   0.00057   0.00028
   D34        3.14136   0.00000  -0.00000   0.00043   0.00043  -3.14139
   D35        3.14156  -0.00000  -0.00000  -0.00002  -0.00002   3.14154
   D36       -0.00009   0.00000  -0.00000   0.00012   0.00012   0.00003
         Item               Value     Threshold  Converged?
 Maximum Force            0.004040     0.000450     NO 
 RMS     Force            0.001155     0.000300     NO 
 Maximum Displacement     0.045051     0.001800     NO 
 RMS     Displacement     0.013631     0.001200     NO 
 Predicted change in Energy=-1.715839D-04
 GradGradGradGradGradGradGradGradGradGradGradGradGradGradGradGradGradGrad

                          Input orientation:                          
 ---------------------------------------------------------------------
 Center     Atomic      Atomic             Coordinates (Angstroms)
 Number     Number       Type             X           Y           Z
 ---------------------------------------------------------------------
      1          6           0       -1.926125   -1.468299   -0.000027
      2          6           0       -2.609828   -0.254897   -0.000013
      3          6           0       -1.906144    0.950396   -0.000027
      4          6           0       -0.525477    0.912964   -0.000019
      5          6           0        0.188419   -0.294049   -0.000035
      6          6           0       -0.535519   -1.489056   -0.000028
      7          6           0        1.667780   -0.297444    0.000060
      8          8           0        2.196501   -1.501592   -0.000195
      9          7           0        0.230350    2.171742   -0.000024
     10          8           0        2.347172    0.731792    0.000265
     11          1           0       -2.478249   -2.403544   -0.000028
     12          1           0       -3.696033   -0.238459    0.000022
     13          1           0       -2.437795    1.899428   -0.000035
     14          1           0        0.003571   -2.431401   -0.000054
     15          1           0        3.164388   -1.425423   -0.000166
     16          1           0        0.032478    2.736746    0.828453
     17          1           0        1.265940    1.871562    0.000384
     18          1           0        0.033136    2.736305   -0.828964
 ---------------------------------------------------------------------
                    Distance matrix (angstroms):
[...]
 0.0747832,0.1730349,-0.002192,0.0000038,0.0735953,0.0322891,0.0000027,
 0.0000006,0.0000003,-0.0622411,-0.2922177,-0.132374,-0.0000029,-0.1903
 371,-0.0227112,-0.0000026,-0.000001,-0.0000087,-0.0930582,0.4545537,0.
 1962732,0.,-0.0069415,0.4142867,-0.0000212,-0.0000479,-0.0000159,-0.05
 42381,-0.7968486,-0.0245791,-0.0000177,0.0584356,-0.0997373,0.000003,-
 0.0000229,0.0000003,0.0235134,0.115743,-0.1296429,0.0000005,0.0746638,
 0.0229771,0.0000019,0.0000031,0.0000029,-0.0617947,2.103236,-0.0246204
 ,0.0000485,-0.217558,1.7686201,0.000148,0.0000104,0.0001686,0.3558469,
 -0.8911675,0.5076652,0.0000426,0.5776443,-1.0310892,-0.0000522,0.00009
 1,-0.0001077,-0.3239142,-0.5083432,0.1862664,-0.0000086,-0.0276283,-0.
 544273,0.0000176,0.0000368,-0.0000018,-0.0625879,-1.119222,-0.1868076,
 -0.0000737,-0.1085911,-1.2196112,-0.0000574,-0.0000744,0.0000063,-0.33
 82203,0.0729781,-0.0208429,-0.0000019,-0.0267074,0.0479974,-0.0000011,
 0.000001,-0.000001,0.1474421,0.0422175,0.0025656,-0.0000011,0.0058644,
 0.0905395,0.0000005,-0.0000048,-0.0000012,0.1438519,0.0989183,0.009968
 8,-0.0000005,0.0204695,-0.0020156,0.0000018,0.0000036,0.0000098,0.1533
 894,0.0975991,0.0191942,-0.0000018,0.0157826,0.0896933,0.0000011,-0.00
 0011,-0.0000003,0.1416607,0.4489849,-0.1273488,-0.0000128,-0.1309406,0
 .3231078,-0.0000111,-0.0000221,-0.0000051,0.3686483,0.2043535,-0.00875
 99,0.0135068,-0.015164,0.2523699,0.0495895,0.0198145,0.082904,0.268440
 2,0.6851809,-0.4434708,0.0000346,-0.2523732,0.5632476,-0.0000426,0.000
 039,-0.0000609,0.1996113,0.2043496,-0.0087512,-0.0135167,-0.0151604,0.
 2523614,-0.0495819,-0.0198222,-0.0828937,0.2684336\Polar=115.9432737,0
 .5928837,100.756605,0.0016213,0.0006626,47.7989368\PG=C01 [X(C7H8N1O2)
 ]\NImag=0\\0.70832901,0.03797112,0.74876495,0.00001018,0.00000354,0.13
 858828,-0.18472406,0.12610757,-0.00000103,0.75942233,0.06206755,-0.301
 57022,-0.00000122,-0.00423895,0.68115883,-0.00000106,0.00000014,-0.064
 49248,0.00001019,0.00000230,0.14230520,0.06566246,-0.02221995,0.000001
 48,-0.18472353,-0.06138512,-0.00000317,0.71411405,0.01659931,-0.052419
 57,0.00000015,-0.12832622,-0.29052700,-0.00000254,-0.03386248,0.742157
 68,0.00000143,-0.00000054,0.00658496,-0.00000211,-0.00000002,-0.063082
 65,0.00000917,-0.00000527,0.13120830,-0.05474386,0.02657522,-0.0000010
 2,-0.02684525,-0.08419637,0.00000002,-0.35989343,0.06451197,-0.0000038
 5,0.72938486,0.02750021,-0.02324427,0.00000085,-0.02796671,0.03282392,
 -0.00000079,-0.01656134,-0.12220052,0.00000019,-0.04453952,0.63169257,
 -0.00000076,0.00000040,-0.00497440,-0.00000041,-0.00000126,0.00325781,
 -0.00000436,0.00000114,-0.06213000,0.00001055,-0.00000933,0.16149815,-
 0.02747023,-0.02645647,-0.00000118,0.00026016,0.00688105,0.00000018,-0
 .03414693,0.01880102,-0.00000094,-0.17083923,0.12061745,-0.00000597,0.
 63562673,-0.06822553,0.03332912,-0.00000270,-0.00225544,-0.06174265,0.
 00000006,0.07008513,0.02647352,0.00000110,0.05866611,-0.26074004,0.000
 00421,-0.00475467,0.71198020,-0.00000118,-0.00000094,0.00693723,0.0000
 0036,-0.00000046,-0.00551619,0.,0.00000162,0.00959309,-0.00000727,0.00
 000378,-0.05674916,0.00001934,0.00000344,0.13327320,-0.35604779,-0.030
 05673,-0.00000543,-0.02307059,0.07257760,-0.00000061,-0.04875876,-0.02
 044926,-0.00000089,0.06126205,-0.02886116,0.00000085,-0.17165724,-0.06
 025307,-0.00000399,0.71393339,0.03418299,-0.13106865,0.00000173,0.0334
 1010,0.03306047,0.00000046,-0.02994501,-0.01324531,-0.00000070,0.02119
 313,-0.05572830,0.00000019,-0.11555730,-0.28556942,-0.00000467,-0.0403
 2202,0.73131055,-0.00000650,-0.00000030,-0.06538522,-0.00000066,0.0000
 0173,0.00646122,-0.00000107,-0.00000062,-0.00495743,0.00000135,-0.0000
 0052,0.00357785,-0.00000326,-0.00000316,-0.06109459,0.00001598,-0.0000
 0058,0.14229757,0.00357662,-0.00299381,-0.00000016,0.00006171,-0.00506
 429,-0.00000004,0.01165140,0.00530003,-0.00000035,-0.02371593,0.029542
 66,-0.00000015,-0.20631845,0.00232069,-0.00001050,-0.02187999,-0.01754
 329,-0.00000172,0.72883918,-0.00459440,-0.00636262,-0.00000017,-0.0004
 4049,-0.00370213,-0.00000008,0.00483765,-0.00691398,0.00000008,0.03339
 982,0.01471999,0.00000170,0.01099334,-0.10258558,0.00000187,-0.0274753
 4,0.01081746,-0.00000167,0.09358627,0.90322374,0.00000020,-0.00000007,
 0.00874485,0.00000026,0.00000012,-0.00142833,0.00000024,-0.00000022,0.
 00630855,0.00000041,0.00000116,-0.00178447,-0.00000738,0.00000173,-0.0
 7636984,-0.00000012,-0.00000020,-0.00101804,0.00001175,0.00005731,0.21
 029231,0.00111456,0.00063782,-0.00000013,-0.00012655,0.00228860,0.0000
 0005,-0.00335378,0.00118124,-0.00000030,-0.00476990,-0.00889971,-0.000
 00033,-0.03272410,0.04520277,0.00000441,-0.00516393,0.00268078,0.00000
 030,-0.18561087,0.12129364,0.00001500,0.68677592,0.00054274,0.00048706
 ,0.00000016,-0.00019441,-0.00119687,-0.00000001,0.00203651,0.00208111,
 0.00000005,-0.00416936,0.00111880,0.00000011,0.01942957,-0.00511469,-0
 .00000237,-0.00249603,-0.00450953,-0.00000006,0.08171153,-0.31395984,-
 0.00003035,-0.07159660,0.47286052,-0.00000006,-0.00000001,-0.00065083,
 0.,-0.00000021,-0.00005523,0.00000019,0.00000039,-0.00066625,-0.000000
 55,0.00000007,0.00206638,0.00000050,-0.00000066,0.00962564,-0.00000038
 ,-0.00000041,0.00046094,0.00001060,-0.00003325,-0.06589193,-0.00000438
 ,0.00005307,0.04263428,0.00109939,-0.00058229,-0.00000003,-0.00744634,
 0.00568578,-0.00000035,-0.02009914,-0.04781046,0.00000039,-0.12742777,
 -0.03336934,0.00000071,0.01445331,0.00671652,0.00000080,-0.00063175,0.
 00090121,-0.00000005,-0.02490506,-0.01707441,-0.00000385,0.00286146,0.
 00959293,0.00000246,0.54136482,0.00210080,-0.00148470,0.,0.00069343,0.
 00594471,0.00000041,-0.00906119,-0.00857999,0.00000024,-0.04596727,-0.
 17452541,0.00000189,-0.02279593,-0.03090008,0.00000025,0.00518625,-0.0
 0383580,0.00000061,0.00266646,0.00663000,0.00000103,-0.00010277,-0.003
 90507,-0.00000121,-0.08094746,0.61781238,-0.00000051,0.00000013,-0.001
 37392,-0.00000030,-0.00000059,0.00735163,0.00000068,0.00000034,0.00204
 702,0.00000005,0.00000335,-0.07406215,0.00000217,-0.00000054,-0.000959
 41,-0.00000026,0.00000068,0.00785702,-0.00000037,-0.00000019,-0.002798
 43,0.00000057,0.00000019,-0.00135067,0.00000736,0.00000597,0.71883652,
 -0.00216702,-0.00169297,0.00000012,0.00024426,0.00009814,-0.00000004,-
 0.00187421,-0.00165004,-0.00000016,0.00542962,-0.00358836,-0.00000014,
 -0.00593163,-0.03075998,-0.00000169,-0.00489386,0.00752185,-0.00000048
 ,-0.29123374,-0.24625207,-0.00002164,0.03712177,0.00746497,0.00000172,
 -0.02277431,0.02583721,-0.00000594,0.30798013,-0.00177108,0.00175400,0
 .00000014,0.00045178,0.00079427,0.00000010,-0.00266038,0.00181997,0.00
 000038,-0.00172233,-0.01990525,-0.00000010,-0.01830732,0.00056356,-0.0
 0000201,0.00142852,0.00497204,0.00000026,-0.22900822,-0.46451653,-0.00
 002740,-0.01711621,-0.11121451,-0.00001495,0.05258970,-0.02005510,0.00
 000360,0.25609078,0.57802263,0.00000005,-0.00000028,-0.00192913,-0.000
 00004,0.00000007,0.00035148,-0.00000024,-0.00000057,-0.00052526,0.0000
 0063,0.00000147,-0.00025027,-0.00000169,-0.00000226,0.01942027,-0.0000
 0039,0.00000029,0.00339750,-0.00002218,-0.00002959,-0.07570878,-0.0000
 0070,-0.00001238,0.02734543,-0.00000920,0.00000549,0.01087551,0.000026
 81,0.00004445,0.03851847,-0.13536206,-0.12860231,-0.00000187,0.0122510
 5,0.01559468,0.00000025,-0.00096694,0.00357495,-0.00000008,-0.00108226
 ,0.00109207,0.00000002,-0.00506182,0.00109115,-0.00000039,-0.01143100,
 -0.02744506,-0.00000029,0.00051149,-0.00157348,0.00000007,-0.00013266,
 0.00020371,0.,0.00031486,-0.00011719,0.,-0.00079671,-0.00030355,-0.000
 00003,0.14018178,-0.12869742,-0.27639478,-0.00000283,-0.01492425,-0.01
 733681,-0.00000034,0.00315191,-0.00298134,0.00000002,0.00121303,0.0001
 1888,0.,0.00124399,0.00132015,0.00000006,0.00314101,0.00579135,0.00000
 004,0.00014583,0.00032000,-0.00000001,-0.00001840,-0.00000226,0.,-0.00
 026881,0.00006696,0.00000003,0.00013232,0.00005896,0.,0.13548696,0.288
 57542,-0.00000180,-0.00000259,-0.04075721,0.00000003,-0.00000009,0.004
 35015,0.00000008,0.00000005,0.00729644,-0.00000003,0.00000006,-0.00008
 562,-0.00000030,0.00000010,0.00725077,-0.00000045,-0.00000050,0.004109
 15,-0.00000003,0.00000005,0.00033154,0.00000003,-0.00000002,0.00001621
 ,0.00000003,-0.00000005,-0.00111764,0.00000005,-0.00000003,-0.00027906
 ,0.00000221,0.00000301,0.02713362,-0.00865838,-0.00217149,-0.00000028,
 -0.35213744,0.00461136,-0.00000568,-0.00955554,0.00221364,-0.00000024,
 0.00090155,-0.00206937,-0.00000008,0.00096710,0.00018121,0.00000003,0.
 00019890,0.00238482,-0.00000014,-0.00040219,0.00003009,0.,0.00002951,-
 0.00005540,0.,-0.00065842,0.00014025,0.,0.00005023,0.00015705,-0.00000
 003,0.00063506,0.00004607,0.00000009,0.36828451,0.02805435,0.00481632,
 0.00000043,0.00510504,-0.05960342,-0.00000006,-0.02835630,0.00371822,-
 0.00000048,-0.00167668,-0.00391215,-0.00000002,-0.00004075,-0.00129216
 ,-0.00000002,0.00280679,-0.00487999,-0.00000003,-0.00019030,-0.0003620
 4,-0.00000002,0.00007153,0.00016036,0.00000002,-0.00230059,-0.00022370
 ,0.,0.00002395,0.00042039,-0.00000004,-0.00009667,0.00064806,0.0000000
 3,-0.00495520,0.05991994,0.00000015,-0.00000012,0.00574611,-0.00000587
 ,-0.00000004,-0.04176823,-0.00000010,0.00000029,0.00466395,-0.00000031
 ,0.00000002,0.00715577,-0.00000008,0.00000012,-0.00088700,-0.00000024,
 -0.00000028,0.00737623,0.00000014,0.00000004,-0.00118004,0.,0.,0.00021
 055,0.00000001,0.,0.00010658,0.,-0.00000012,0.00013978,0.00000005,0.00
 000002,-0.00395283,0.00000622,0.00000010,0.02686195,-0.00158785,-0.003
 46858,-0.00000017,0.01295117,-0.01554844,0.00000037,-0.12895931,0.1228
 6487,-0.00000259,-0.01090953,0.02852701,-0.00000056,-0.00491530,-0.002
 16172,-0.00000042,-0.00052526,-0.00073090,0.00000002,0.00074378,0.0018
 1233,0.00000010,-0.00074863,-0.00008488,-0.00000005,0.00317034,0.00006
 821,-0.00000006,0.00014484,-0.00095009,0.00000014,0.00052152,-0.000770
 97,-0.00000002,0.00063228,0.00003746,0.00000006,0.13233323,-0.00379370
 ,-0.00288684,-0.00000003,0.01502931,-0.01784462,0.00000049,0.12286069,
 -0.27555718,0.00000482,-0.00339785,0.00268555,-0.00000006,-0.00067378,
 0.00140403,0.00000004,-0.00101705,-0.00000383,-0.00000002,-0.00058895,
 -0.00003239,-0.00000007,-0.00001518,0.00005261,0.,-0.00002161,0.001378
 47,-0.00000006,0.00007680,0.00028016,0.00000002,0.00084286,-0.00080734
 ,-0.00000002,-0.00001593,0.00078694,-0.00000005,-0.13006730,0.28999395
 ,-0.00000040,0.00000001,0.00678537,-0.00000009,-0.00000072,0.00412928,
 -0.00000233,0.00000526,-0.03646205,-0.00000043,0.00000070,0.00369260,-
 0.00000009,0.00000007,0.00607841,0.00000016,0.00000012,-0.00111886,-0.
 00000001,-0.00000005,0.00140750,-0.00000003,0.,-0.00024363,0.00000015,
 -0.00000031,-0.00375129,0.00000003,-0.00000006,-0.00013781,0.,-0.00000
 001,-0.00012582,0.00000008,0.,-0.00388871,0.00000312,-0.00000506,0.024
 94586,-0.00907164,0.02707884,-0.00000053,-0.00565262,-0.00055221,-0.00
 000030,-0.00087558,-0.00096691,-0.00000002,-0.00161510,-0.00227000,-0.
 00000026,0.01162734,-0.01581116,0.00000039,-0.12939700,0.12730522,-0.0
 0000334,0.00184896,-0.00199001,-0.00000021,-0.00398737,-0.00034884,0.0
 0000025,-0.00012679,-0.00154653,0.00000011,-0.00001839,0.00143331,0.00
 000003,0.00069485,-0.00006753,0.00000013,-0.00040426,0.00128968,0.0000
 0006,0.00006596,0.00008676,0.00000003,0.13622125,-0.00260619,0.0060451
 0,-0.00000009,-0.00117014,0.00098736,0.,-0.00029490,0.00031227,0.,-0.0
 0367489,-0.00117468,-0.00000011,0.01294976,-0.01850039,0.00000038,0.12
 560386,-0.28320681,0.00000413,0.00146914,-0.00237907,-0.00000019,0.000
 37915,0.00102421,0.00000012,0.00019657,-0.00098574,0.00000007,0.000008
 41,0.00114525,0.,0.00004163,0.00064750,0.,-0.00025250,0.00021994,0.,0.
 00008233,0.00000731,0.,-0.13315721,0.29585510,0.00000027,0.00000058,0.
 00588942,-0.00000026,0.00000031,0.00723021,-0.00000032,-0.00000003,-0.
 00107250,-0.00000020,-0.00000028,0.00582224,0.00000016,0.00000039,0.00
 359850,-0.00000384,0.00000378,-0.04058931,0.00000032,0.,-0.00426070,0.
 00000022,0.,0.00041500,0.00000014,-0.00000013,0.00102183,-0.00000009,-
 0.00000023,0.00060410,0.00000011,0.,-0.00408759,0.,0.00000005,-0.00056
 426,0.00000002,0.,-0.00069631,0.00000361,-0.00000437,0.02679199,-0.000
 07276,-0.00015646,0.00000002,0.00006635,-0.00034862,-0.00000001,0.0005
 7660,0.00056408,0.,-0.00121721,-0.00014684,0.00000013,0.00227370,0.002
 07416,0.00000052,0.00065578,-0.00009878,-0.00000006,-0.02685691,0.0090
 8655,-0.00000012,-0.48847087,-0.02693992,-0.00000620,0.00145794,-0.000
 58518,-0.00000006,0.00166678,-0.00986707,-0.00000026,0.00001616,-0.000
 00029,0.,-0.00000458,-0.00001440,0.,-0.00003832,-0.00000799,-0.0000000
 2,-0.00007810,-0.00012617,-0.00000003,0.51195306,-0.00007658,0.0003339
 9,0.,-0.00017173,-0.00000693,0.,-0.00000550,-0.00056331,0.00000005,0.0
 0164502,0.00090495,0.00000002,0.00097767,-0.00607119,-0.00000139,-0.00
 089201,-0.00036644,0.00000012,0.05623289,0.00222187,0.00000016,-0.0763
 2629,-0.05007096,-0.00000622,-0.00167480,0.00079595,-0.00000018,-0.007
 06854,0.00229895,0.00000062,-0.00002093,0.00001032,0.,-0.00001276,0.00
 002681,0.,0.00013263,0.00000835,0.00000002,0.00029542,0.00066385,-0.00
 000005,0.02489454,0.05168289,0.00000011,0.,0.00008699,-0.00000005,0.00
 000013,0.00007387,-0.00000015,-0.00000023,-0.00030933,0.00000050,0.000
 00020,0.00074744,-0.00000062,-0.00000136,0.00552757,-0.00000021,-0.000
 00006,-0.00044632,0.00000903,-0.00000056,0.00321429,-0.00001395,-0.000
 00508,-0.01695742,-0.00000042,0.00000021,0.00024209,-0.00000100,0.0000
 0069,-0.00583080,0.,0.,0.00002739,0.,0.,-0.00002340,0.00000003,0.,-0.0
 0015142,-0.00000003,0.00000003,-0.00013680,0.00000634,0.00000635,0.014
 02470,0.00058174,-0.00049565,-0.00019636,-0.00005221,0.00061784,0.0007
 1392,0.00054859,-0.00171374,0.00036019,0.00470614,-0.01145345,-0.01678
 385,-0.00131818,-0.00012386,-0.00109792,-0.00075857,-0.00058658,0.0008
 2502,-0.00073010,-0.00076101,-0.00051069,0.00004398,0.00032876,0.00060
 998,-0.06758225,0.04137998,0.06164473,-0.00306710,0.00273632,-0.002547
 17,-0.00002804,0.00007095,-0.00008844,-0.00001747,-0.00000028,-0.00001
 341,-0.00094858,0.00032085,-0.00051444,-0.00006771,-0.00007584,0.00016
 989,0.00004012,-0.00004136,-0.00000661,0.06332614,-0.00029781,0.000370
 80,-0.00023867,0.00014151,-0.00119462,0.00117982,0.00165803,0.00237307
 ,0.00036101,0.00491290,-0.02027375,-0.01962276,-0.00285447,-0.00134784
 ,-0.00107570,0.00066753,-0.00062229,0.00113877,-0.00044521,-0.00103998
 ,-0.00058078,-0.00014763,0.00055945,-0.00010117,0.04023610,-0.16189945
 ,-0.16281945,0.00033745,0.00097389,0.00057337,-0.00002249,0.00002329,-
 0.00019458,0.00002107,0.00009071,-0.00001361,-0.00036953,0.00026992,-0
 .00080154,-0.00018548,-0.00017261,0.00020594,0.00012290,-0.00007066,-0
 .00000068,-0.03901275,0.17157935,-0.00032135,0.00044652,0.00001334,0.0
 0002276,-0.00054392,0.00028126,0.00083254,0.00121837,0.00040879,-0.003
 83829,-0.00052675,0.00668324,0.00035140,0.00148846,-0.00035197,0.00019
 035,0.00049083,-0.00021833,0.00052176,-0.00090649,0.00039514,-0.000362
 57,0.00067694,-0.00002028,0.05650814,-0.15379629,-0.29767360,-0.001590
 30,0.00169317,-0.00065504,-0.00001152,0.00001856,-0.00005512,0.0000490
 0,0.00008286,0.00002237,-0.00037766,-0.00017251,-0.00012805,0.00005813
 ,0.00010220,0.00001674,0.00011883,-0.00007039,0.00006392,-0.06355856,0
 .16829011,0.31059182,-0.00104010,0.00102193,0.,-0.00042642,0.00029339,
 0.00000008,0.00010548,0.00088173,0.00000034,-0.02333311,-0.01609975,0.
 00000038,-0.00350714,-0.00186833,-0.00000032,-0.00107572,0.00323563,-0
 .00000006,0.03515158,0.02588376,0.00000560,-0.00290274,-0.01575464,-0.
 00000449,-0.22548167,0.04166279,0.00001131,-0.01681141,-0.03592009,0.0
 0000882,-0.00023725,0.00004464,0.,0.00015659,0.00024263,-0.00000007,-0
 .00098171,0.00006116,-0.00000005,0.00090392,0.00070284,-0.00000003,-0.
 00200790,0.00215379,0.00000045,0.00384940,0.00058210,0.00287591,0.2337
 9209,0.00134143,-0.00084049,0.00000004,-0.00139206,0.00115027,-0.00000
 018,-0.00193573,-0.00832109,0.00000016,-0.02768853,0.01791439,0.000001
 15,0.00240226,0.00014086,0.00000027,-0.00025664,-0.00229306,-0.0000000
 6,-0.01669683,-0.03503975,-0.00000250,0.00063494,0.01107035,0.00000311
 ,0.02788533,-0.06434005,-0.00000443,-0.00691783,0.02161424,-0.00000757
 ,0.00027615,-0.00008165,0.00000002,-0.00027399,-0.00062497,0.,0.000997
 20,-0.00000506,0.00000006,-0.00040783,-0.00031597,0.00000002,0.0014265
 9,-0.00172782,-0.00000034,0.01415604,-0.00443326,0.00034005,-0.0077068
 5,0.07056640,-0.00000015,0.00000007,0.00017331,0.,-0.00000008,0.000269
 69,-0.00000009,0.00000042,0.00068545,0.00000054,-0.00000143,-0.0011468
 2,-0.00000069,-0.00000075,0.00097530,-0.00000020,0.00000018,-0.0004911
 3,0.00000349,0.00000418,-0.00064888,-0.00000072,-0.00000332,0.00308241
 ,0.00001754,-0.00000728,-0.06758109,0.00000203,-0.00000439,-0.01468242
 ,-0.00000004,0.,0.00000075,0.00000001,0.00000004,-0.00004119,-0.000000
 08,-0.00000001,-0.00020703,0.00000007,0.00000005,0.00000073,-0.0000002
 5,0.00000052,-0.00021675,0.02952712,-0.00513165,0.00274109,-0.00002155
 ,0.00001030,0.07434431,0.00058196,-0.00049578,0.00019640,-0.00005205,0
 .00061802,-0.00071380,0.00054858,-0.00171374,-0.00035998,0.00470836,-0
 .01145386,0.01678422,-0.00131808,-0.00012397,0.00109783,-0.00075868,-0
 .00058678,-0.00082502,-0.00073149,-0.00076223,0.00051037,0.00004421,0.
 00032936,-0.00060959,-0.06758863,0.04138815,-0.06165948,-0.00306926,0.
 00273888,0.00254544,-0.00002804,0.00007095,0.00008844,-0.00001746,-0.0
 0000026,0.00001339,-0.00094864,0.00032092,0.00051434,-0.00006772,-0.00
 007585,-0.00016997,0.00004012,-0.00004147,0.00000657,0.00147410,-0.005
 34422,0.00853142,0.00384609,0.01415636,-0.02952704,0.06333662,-0.00029
 776,0.00037081,0.00023867,0.00014164,-0.00119456,-0.00117976,0.0016579
 9,0.00237347,-0.00036111,0.00491559,-0.02027469,0.01962284,-0.00285540
 ,-0.00134740,0.00107587,0.00066776,-0.00062245,-0.00113864,-0.00044458
 ,-0.00103914,0.00058032,-0.00014770,0.00055924,0.00010129,0.04024563,-
 0.16189339,0.16281108,0.00033791,0.00097307,-0.00057311,-0.00002250,0.
 00002329,0.00019457,0.00002108,0.00009073,0.00001363,-0.00036964,0.000
 26997,0.00080152,-0.00018552,-0.00017262,-0.00020597,0.00012290,-0.000
 07061,0.00000068,-0.00534621,0.01481398,-0.01883170,0.00058330,-0.0044
 3333,0.00513316,-0.03902447,0.17157364,0.00032138,-0.00044654,0.000013
 35,-0.00002277,0.00054397,0.00028132,-0.00083256,-0.00121855,0.0004089
 1,0.00383789,0.00052728,0.00668141,-0.00035155,-0.00148824,-0.00035184
 ,-0.00019032,-0.00049084,-0.00021824,-0.00052159,0.00090681,0.00039526
 ,0.00036253,-0.00067695,-0.00002060,-0.05652383,0.15378917,-0.29766999
 ,0.00159072,-0.00169351,-0.00065397,0.00001152,-0.00001856,-0.00005512
 ,-0.00004900,-0.00008287,0.00002236,0.00037776,0.00017251,-0.00012805,
 -0.00005813,-0.00010220,0.00001672,-0.00011881,0.00007039,0.00006396,-
 0.00853338,0.01883156,-0.02211532,-0.00287631,-0.00034010,0.00274227,0
 .06357647,-0.16828333,0.31058759\\0.00000440,-0.00001884,0.00000015,-0
 .00001485,0.00002654,-0.00000004,-0.00002418,-0.00002451,0.00000220,0.
 00003185,0.00002572,-0.00000076,-0.00003259,-0.00001097,-0.00000682,0.
 00000304,-0.00000112,-0.00000122,0.00003389,-0.00002737,0.00002273,-0.
 00001330,0.00002096,-0.00000798,-0.00000570,-0.00003439,0.00000872,0.0
 0000470,0.00001318,-0.00000278,0.00000253,0.00000329,0.00000031,0.0000
 0496,0.00000030,-0.00000036,0.00000228,-0.00000015,0.00000002,-0.00000
 029,0.00000413,-0.00000008,0.00000740,-0.00000417,-0.00000042,0.000001
 46,0.00001228,0.00000837,-0.00001340,0.00000354,-0.00001231,0.00000778
 ,0.00001158,-0.00000973\\\@


 SLITHERY-DITHERY
 FRIEDRICH A. KEKULE
 DREAMT ON A BUS OF THINGS
 FREUD WOULD THINK KEEN.
 MOST OF THE TIME THEY WERE
 HERPETOLOGICAL
 BITING THEIR TAILS IN THE
 SHAPE OF BENZENE.
 Job cpu time:       0 days  0 hours 20 minutes 51.3 seconds.
 File lengths (MBytes):  RWF=    100 Int=      0 D2E=      0 Chk=      5 Scr=      1
 Normal termination of Gaussian 09 at Sat Jun 22 16:59:57 2024.
