 Entering Gaussian System, Link 0=g09
 Input=APFDAnthranilic.gjf
 Output=APFDAnthranilic.log
 Initial command:
 /home/phzd/g09E/g09/l1.exe "/home/phzd/g09E/scratch/Gau-160292.inp" -scrdir="/home/phzd/g09E/scratch/"
 Default is to use a total of  18 processors:
                               18 via shared-memory
                                1 via Linda
 Entering Link 1 = /home/phzd/g09E/g09/l1.exe PID=    160294.
  
 Copyright (c) 1988,1990,1992,1993,1995,1998,2003,2009,2015,
            Gaussian, Inc.  All Rights Reserved.
  
 This is part of the Gaussian(R) 09 program.  It is based on
 the Gaussian(R) 03 system (copyright 2003, Gaussian, Inc.),
 the Gaussian(R) 98 system (copyright 1998, Gaussian, Inc.),
 the Gaussian(R) 94 system (copyright 1995, Gaussian, Inc.),
 the Gaussian 92(TM) system (copyright 1992, Gaussian, Inc.),
 the Gaussian 90(TM) system (copyright 1990, Gaussian, Inc.),
 the Gaussian 88(TM) system (copyright 1988, Gaussian, Inc.),
 the Gaussian 86(TM) system (copyright 1986, Carnegie Mellon
 University), and the Gaussian 82(TM) system (copyright 1983,
 Carnegie Mellon University). Gaussian is a federally registered
 trademark of Gaussian, Inc.
  
 This software contains proprietary and confidential information,
 including trade secrets, belonging to Gaussian, Inc.
  
 This software is provided under written license and may be
 used, copied, transmitted, or stored only in accord with that
 written license.
  
 The following legend is applicable only to US Government
 contracts under FAR:
  
                    RESTRICTED RIGHTS LEGEND
  
 Use, reproduction and disclosure by the US Government is
 subject to restrictions as set forth in subparagraphs (a)
 and (c) of the Commercial Computer Software - Restricted
 Rights clause in FAR 52.227-19.
  
 Gaussian, Inc.
 340 Quinnipiac St., Bldg. 40, Wallingford CT 06492
  
  
 ---------------------------------------------------------------
 Warning -- This program may not be used in any manner that
 competes with the business of Gaussian, Inc. or will provide
 assistance to any competitor of Gaussian, Inc.  The licensee
 of this program is prohibited from giving any competitor of
 Gaussian, Inc. access to this program.  By using this program,
 the user acknowledges that Gaussian, Inc. is engaged in the
 business of creating and licensing software in the field of
 computational chemistry and represents and warrants to the
 licensee that it is not a competitor of Gaussian, Inc. and that
 it will not use this program in any manner prohibited above.
 ---------------------------------------------------------------
  

 Cite this work as:
 Gaussian 09, Revision E.01,
 M. J. Frisch, G. W. Trucks, H. B. Schlegel, G. E. Scuseria, 
 M. A. Robb, J. R. Cheeseman, G. Scalmani, V. Barone, B. Mennucci, 
 G. A. Petersson, H. Nakatsuji, M. Caricato, X. Li, H. P. Hratchian, 
 A. F. Izmaylov, J. Bloino, G. Zheng, J. L. Sonnenberg, M. Hada, 
 M. Ehara, K. Toyota, R. Fukuda, J. Hasegawa, M. Ishida, T. Nakajima, 
 Y. Honda, O. Kitao, H. Nakai, T. Vreven, J. A. Montgomery, Jr., 
 J. E. Peralta, F. Ogliaro, M. Bearpark, J. J. Heyd, E. Brothers, 
 K. N. Kudin, V. N. Staroverov, T. Keith, R. Kobayashi, J. Normand, 
 K. Raghavachari, A. Rendell, J. C. Burant, S. S. Iyengar, J. Tomasi, 
 M. Cossi, N. Rega, J. M. Millam, M. Klene, J. E. Knox, J. B. Cross, 
 V. Bakken, C. Adamo, J. Jaramillo, R. Gomperts, R. E. Stratmann, 
 O. Yazyev, A. J. Austin, R. Cammi, C. Pomelli, J. W. Ochterski, 
 R. L. Martin, K. Morokuma, V. G. Zakrzewski, G. A. Voth, 
 P. Salvador, J. J. Dannenberg, S. Dapprich, A. D. Daniels, 
 O. Farkas, J. B. Foresman, J. V. Ortiz, J. Cioslowski, 
 and D. J. Fox, Gaussian, Inc., Wallingford CT, 2013.
 
 ******************************************
 Gaussian 09:  ES64L-G09RevE.01 30-Nov-2015
                22-Jun-2024 
 ******************************************
 %chk=APFDAnthranilic.chk
 ---------------------------
 # opt freq apfd/6-31+g(d,p)
 ---------------------------
 1/14=-1,18=20,19=15,26=3,38=1/1,3;
 2/9=110,12=2,17=6,18=5,40=1/2;
 3/5=1,6=6,7=111,11=2,16=1,25=1,30=1,71=1,74=-44/1,2,3;
 4//1;
 5/5=2,38=5/2;
 6/7=2,8=2,9=2,10=2,28=1/1;
 7//1,2,3,16;
 1/14=-1,18=20,19=15,26=3/3(2);
 2/9=110/2;
 99//99;
 2/9=110/2;
 3/5=1,6=6,7=111,11=2,16=1,25=1,30=1,71=1,74=-44/1,2,3;
 4/5=5,16=3,69=1/1;
 5/5=2,38=5/2;
 7//1,2,3,16;
 1/14=-1,18=20,19=15,26=3/3(-5);
 2/9=110/2;
 6/7=2,8=2,9=2,10=2,19=2,28=1/1;
 99/9=1/99;
 ----------
 [No Title]
 ----------
 Symbolic Z-matrix:
 Charge =  0 Multiplicity = 1
 C                    -1.85922  -1.52339  -0.00002 
 C                    -2.58942  -0.32163   0.00022 
 C                    -1.94402   0.90306   0.0002 
 C                    -0.52993   0.98772  -0.00006 
 C                     0.2135   -0.23165  -0.00031 
 C                    -0.47524  -1.46411  -0.00026 
 C                     1.67932  -0.20226  -0.00059 
 O                     2.26063  -1.43192   0.00033 
 N                     0.07582   2.20817  -0.00011 
 O                     2.38053   0.80802   0.00027 
 H                    -2.36991  -2.48036  -0.00001 
 H                    -3.67574  -0.34762   0.00042 
 H                    -2.52086   1.82439   0.00038 
 H                     0.10944  -2.37662  -0.00044 
 H                     3.21937  -1.27704   0.00085 
 H                     1.08639   2.25698  -0.0004 
 H                    -0.47851   3.04778   0.00005 
 

 GradGradGradGradGradGradGradGradGradGradGradGradGradGradGradGradGradGrad
 Berny optimization.
 Initialization pass.
                           ----------------------------
                           !    Initial Parameters    !
                           ! (Angstroms and Degrees)  !
 --------------------------                            --------------------------
 ! Name  Definition              Value          Derivative Info.                !
 --------------------------------------------------------------------------------
 ! R1    R(1,2)                  1.4062         estimate D2E/DX2                !
 ! R2    R(1,6)                  1.3852         estimate D2E/DX2                !
 ! R3    R(1,11)                 1.0847         estimate D2E/DX2                !
 ! R4    R(2,3)                  1.3843         estimate D2E/DX2                !
 ! R5    R(2,12)                 1.0866         estimate D2E/DX2                !
 ! R6    R(3,4)                  1.4166         estimate D2E/DX2                !
 ! R7    R(3,13)                 1.087          estimate D2E/DX2                !
 ! R8    R(4,5)                  1.4281         estimate D2E/DX2                !
 ! R9    R(4,9)                  1.3625         estimate D2E/DX2                !
 ! R10   R(5,6)                  1.4119         estimate D2E/DX2                !
 ! R11   R(5,7)                  1.4661         estimate D2E/DX2                !
 ! R12   R(6,14)                 1.0838         estimate D2E/DX2                !
 ! R13   R(7,8)                  1.3601         estimate D2E/DX2                !
 ! R14   R(7,10)                 1.2298         estimate D2E/DX2                !
 ! R15   R(8,15)                 0.9712         estimate D2E/DX2                !
 ! R16   R(9,16)                 1.0118         estimate D2E/DX2                !
 ! R17   R(9,17)                 1.0061         estimate D2E/DX2                !
 ! A1    A(2,1,6)              118.8307         estimate D2E/DX2                !
 ! A2    A(2,1,11)             120.6302         estimate D2E/DX2                !
 ! A3    A(6,1,11)             120.5391         estimate D2E/DX2                !
 ! A4    A(1,2,3)              120.9276         estimate D2E/DX2                !
 ! A5    A(1,2,12)             119.9125         estimate D2E/DX2                !
 ! A6    A(3,2,12)             119.1599         estimate D2E/DX2                !
 ! A7    A(2,3,4)              121.2151         estimate D2E/DX2                !
 ! A8    A(2,3,13)             120.1599         estimate D2E/DX2                !
 ! A9    A(4,3,13)             118.625          estimate D2E/DX2                !
 ! A10   A(3,4,5)              117.9442         estimate D2E/DX2                !
 ! A11   A(3,4,9)              119.8226         estimate D2E/DX2                !
 ! A12   A(5,4,9)              122.2332         estimate D2E/DX2                !
 ! A13   A(4,5,6)              119.4319         estimate D2E/DX2                !
 ! A14   A(4,5,7)              120.2215         estimate D2E/DX2                !
 ! A15   A(6,5,7)              120.3466         estimate D2E/DX2                !
 ! A16   A(1,6,5)              121.6505         estimate D2E/DX2                !
 ! A17   A(1,6,14)             120.1971         estimate D2E/DX2                !
 ! A18   A(5,6,14)             118.1524         estimate D2E/DX2                !
 ! A19   A(5,7,8)              114.1529         estimate D2E/DX2                !
 ! A20   A(5,7,10)             125.9119         estimate D2E/DX2                !
 ! A21   A(8,7,10)             119.9351         estimate D2E/DX2                !
 ! A22   A(7,8,15)             106.1252         estimate D2E/DX2                !
 ! A23   A(4,9,16)             119.1615         estimate D2E/DX2                !
 ! A24   A(4,9,17)             120.1696         estimate D2E/DX2                !
 ! A25   A(16,9,17)            120.6689         estimate D2E/DX2                !
 ! D1    D(6,1,2,3)              0.0008         estimate D2E/DX2                !
 ! D2    D(6,1,2,12)          -179.9993         estimate D2E/DX2                !
 ! D3    D(11,1,2,3)          -179.9997         estimate D2E/DX2                !
 ! D4    D(11,1,2,12)            0.0002         estimate D2E/DX2                !
 ! D5    D(2,1,6,5)             -0.0023         estimate D2E/DX2                !
 ! D6    D(2,1,6,14)           179.9993         estimate D2E/DX2                !
 ! D7    D(11,1,6,5)           179.9983         estimate D2E/DX2                !
 ! D8    D(11,1,6,14)           -0.0002         estimate D2E/DX2                !
 ! D9    D(1,2,3,4)              0.0001         estimate D2E/DX2                !
 ! D10   D(1,2,3,13)           179.9994         estimate D2E/DX2                !
 ! D11   D(12,2,3,4)          -179.9998         estimate D2E/DX2                !
 ! D12   D(12,2,3,13)           -0.0005         estimate D2E/DX2                !
 ! D13   D(2,3,4,5)              0.0003         estimate D2E/DX2                !
 ! D14   D(2,3,4,9)            179.9982         estimate D2E/DX2                !
 ! D15   D(13,3,4,5)          -179.999          estimate D2E/DX2                !
 ! D16   D(13,3,4,9)            -0.0011         estimate D2E/DX2                !
 ! D17   D(3,4,5,6)             -0.0016         estimate D2E/DX2                !
 ! D18   D(3,4,5,7)            179.9999         estimate D2E/DX2                !
 ! D19   D(9,4,5,6)           -179.9995         estimate D2E/DX2                !
 ! D20   D(9,4,5,7)              0.002          estimate D2E/DX2                !
 ! D21   D(3,4,9,16)          -179.9928         estimate D2E/DX2                !
 ! D22   D(3,4,9,17)             0.0001         estimate D2E/DX2                !
 ! D23   D(5,4,9,16)             0.005          estimate D2E/DX2                !
 ! D24   D(5,4,9,17)           179.9978         estimate D2E/DX2                !
 ! D25   D(4,5,6,1)              0.0027         estimate D2E/DX2                !
 ! D26   D(4,5,6,14)          -179.9988         estimate D2E/DX2                !
 ! D27   D(7,5,6,1)           -179.9988         estimate D2E/DX2                !
 ! D28   D(7,5,6,14)            -0.0003         estimate D2E/DX2                !
 ! D29   D(4,5,7,8)            179.947          estimate D2E/DX2                !
 ! D30   D(4,5,7,10)             0.0521         estimate D2E/DX2                !
 ! D31   D(6,5,7,8)             -0.0515         estimate D2E/DX2                !
 ! D32   D(6,5,7,10)          -179.9464         estimate D2E/DX2                !
 ! D33   D(5,7,8,15)          -179.9503         estimate D2E/DX2                !
 ! D34   D(10,7,8,15)           -0.0485         estimate D2E/DX2                !
 --------------------------------------------------------------------------------
 Trust Radius=3.00D-01 FncErr=1.00D-07 GrdErr=1.00D-06
 Number of steps in this run=     86 maximum allowed number of steps=    102.
 GradGradGradGradGradGradGradGradGradGradGradGradGradGradGradGradGradGrad

                          Input orientation:                          
 ---------------------------------------------------------------------
 Center     Atomic      Atomic             Coordinates (Angstroms)
 Number     Number       Type             X           Y           Z
 ---------------------------------------------------------------------
      1          6           0       -1.859221   -1.523389   -0.000022
      2          6           0       -2.589424   -0.321626    0.000218
      3          6           0       -1.944016    0.903063    0.000202
      4          6           0       -0.529934    0.987718   -0.000059
      5          6           0        0.213499   -0.231649   -0.000312
      6          6           0       -0.475244   -1.464112   -0.000259
      7          6           0        1.679323   -0.202258   -0.000591
      8          8           0        2.260625   -1.431921    0.000334
      9          7           0        0.075816    2.208172   -0.000106
     10          8           0        2.380526    0.808024    0.000272
     11          1           0       -2.369909   -2.480363   -0.000013
     12          1           0       -3.675740   -0.347621    0.000418
     13          1           0       -2.520863    1.824385    0.000379
     14          1           0        0.109444   -2.376621   -0.000435
     15          1           0        3.219372   -1.277043    0.000848
     16          1           0        1.086391    2.256975   -0.000404
     17          1           0       -0.478512    3.047779    0.000045
 ---------------------------------------------------------------------
                    Distance matrix (angstroms):
                    1          2          3          4          5
     1  C    0.000000
     2  C    1.406212   0.000000
     3  C    2.427933   1.384346   0.000000
     4  C    2.841243   2.440467   1.416614   0.000000
     5  C    2.442286   2.804367   2.437713   1.428128   0.000000
     6  C    1.385246   2.403130   2.785823   2.452440   1.411854
     7  C    3.777126   4.270416   3.788182   2.509354   1.466119
     8  O    4.120861   4.975513   4.809486   3.693491   2.373052
     9  N    4.203441   3.674695   2.404793   1.362513   2.443703
    10  O    4.838485   5.096716   4.325586   2.916002   2.403524
    11  H    1.084713   2.169869   3.410126   3.925951   3.425013
    12  H    2.163833   1.086627   2.136136   3.417488   3.890968
    13  H    3.412530   2.147106   1.087008   2.159586   3.421113
    14  H    2.145611   3.392181   3.869499   3.424556   2.147494
    15  H    5.084564   5.886844   5.604769   4.380233   3.182471
    16  H    4.792471   4.490078   3.319103   2.055120   2.637269
    17  H    4.775137   3.976033   2.597597   2.060703   3.351645
                    6          7          8          9         10
     6  C    0.000000
     7  C    2.496885   0.000000
     8  O    2.736058   1.360141   0.000000
     9  N    3.713400   2.895066   4.245429   0.000000
    10  O    3.649387   1.229779   2.243152   2.696684   0.000000
    11  H    2.150005   4.646078   4.747744   5.288093   5.777553
    12  H    3.389650   5.357036   6.034578   4.539411   6.165539
    13  H    3.872825   4.663566   5.784994   2.624888   5.005657
    14  H    1.083759   2.681860   2.349476   4.584916   3.911493
    15  H    3.699349   1.878008   0.971176   4.693471   2.247480
    16  H    4.035492   2.529703   3.871276   1.011753   1.942742
    17  H    4.511892   3.901153   5.250770   1.006091   3.631887
                   11         12         13         14         15
    11  H    0.000000
    12  H    2.500757   0.000000
    13  H    4.307394   2.459949   0.000000
    14  H    2.481522   4.294701   4.956508   0.000000
    15  H    5.717346   6.957470   6.524504   3.298594   0.000000
    16  H    5.864161   5.427874   3.633100   4.735466   4.127819
    17  H    5.842751   4.663798   2.380733   5.456172   5.690205
                   16         17
    16  H    0.000000
    17  H    1.753366   0.000000
 Stoichiometry    C7H7NO2
 Framework group  C1[X(C7H7NO2)]
 Deg. of freedom    45
 Full point group                 C1      NOp   1
 Largest Abelian subgroup         C1      NOp   1
 Largest concise Abelian subgroup C1      NOp   1
                         Standard orientation:                         
 ---------------------------------------------------------------------
 Center     Atomic      Atomic             Coordinates (Angstroms)
 Number     Number       Type             X           Y           Z
 ---------------------------------------------------------------------
      1          6           0       -1.859221   -1.523389   -0.000022
      2          6           0       -2.589424   -0.321626    0.000218
      3          6           0       -1.944016    0.903063    0.000202
      4          6           0       -0.529934    0.987718   -0.000059
      5          6           0        0.213499   -0.231649   -0.000312
      6          6           0       -0.475244   -1.464112   -0.000259
      7          6           0        1.679323   -0.202258   -0.000591
      8          8           0        2.260625   -1.431921    0.000334
      9          7           0        0.075816    2.208172   -0.000106
     10          8           0        2.380526    0.808024    0.000272
     11          1           0       -2.369909   -2.480363   -0.000013
     12          1           0       -3.675740   -0.347621    0.000418
     13          1           0       -2.520863    1.824385    0.000379
     14          1           0        0.109444   -2.376621   -0.000435
     15          1           0        3.219372   -1.277043    0.000848
     16          1           0        1.086391    2.256975   -0.000404
     17          1           0       -0.478512    3.047779    0.000045
 ---------------------------------------------------------------------
 Rotational constants (GHZ):      2.2923684      1.2100986      0.7920109
 Standard basis: 6-31+G(d,p) (6D, 7F)
 There are   225 symmetry adapted cartesian basis functions of A   symmetry.
 There are   225 symmetry adapted basis functions of A   symmetry.
   225 basis functions,   369 primitive gaussians,   225 cartesian basis functions
    36 alpha electrons       36 beta electrons
       nuclear repulsion energy       500.0782038866 Hartrees.
 NAtoms=   17 NActive=   17 NUniq=   17 SFac= 1.00D+00 NAtFMM=   60 NAOKFM=F Big=F
 Integral buffers will be    131072 words long.
 Raffenetti 2 integral format.
 Two-electron integral symmetry is turned on.
 R6APFD:  NTU= -4 IXU= 1 FactS= 1.050
 Nuclear repulsion after empirical dispersion term =      500.0680207194 Hartrees.
 One-electron integrals computed using PRISM.
 NBasis=   225 RedAO= T EigKep=  2.75D-06  NBF=   225
 NBsUse=   225 1.00D-06 EigRej= -1.00D+00 NBFU=   225
 ExpMin= 4.38D-02 ExpMax= 5.48D+03 ExpMxC= 8.25D+02 IAcc=2 IRadAn=         4 AccDes= 0.00D+00
 Harris functional with IExCor= 3731 and IRadAn=       4 diagonalized for initial guess.
 HarFok:  IExCor= 3731 AccDes= 0.00D+00 IRadAn=         4 IDoV= 1 UseB2=F ITyADJ=14
 ICtDFT=  3500011 ScaDFX=  1.000000  1.000000  1.000000  1.000000
 FoFCou: FMM=F IPFlag=           0 FMFlag=      100000 FMFlg1=           0
         NFxFlg=           0 DoJE=T BraDBF=F KetDBF=T FulRan=T
         wScrn=  0.000000 ICntrl=     500 IOpCl=  0 I1Cent=   200000004 NGrid=           0
         NMat0=    1 NMatS0=      1 NMatT0=    0 NMatD0=    1 NMtDS0=    0 NMtDT0=    0
 Petite list used in FoFCou.
 Keep R1 ints in memory in canonical form, NReq=329175655.
 Requested convergence on RMS density matrix=1.00D-08 within 128 cycles.
 Requested convergence on MAX density matrix=1.00D-06.
 Requested convergence on             energy=1.00D-06.
 No special actions if energy rises.
 SCF Done:  E(RAPFD) =  -475.841561191     A.U. after   15 cycles
            NFock= 15  Conv=0.44D-08     -V/T= 2.0092

 **********************************************************************

            Population analysis using the SCF density.

 **********************************************************************

 Orbital symmetries:
       Occupied  (A) (A) (A) (A) (A) (A) (A) (A) (A) (A) (A) (A)
                 (A) (A) (A) (A) (A) (A) (A) (A) (A) (A) (A) (A)
                 (A) (A) (A) (A) (A) (A) (A) (A) (A) (A) (A) (A)
       Virtual   (A) (A) (A) (A) (A) (A) (A) (A) (A) (A) (A) (A)
                 (A) (A) (A) (A) (A) (A) (A) (A) (A) (A) (A) (A)
                 (A) (A) (A) (A) (A) (A) (A) (A) (A) (A) (A) (A)
                 (A) (A) (A) (A) (A) (A) (A) (A) (A) (A) (A) (A)
                 (A) (A) (A) (A) (A) (A) (A) (A) (A) (A) (A) (A)
                 (A) (A) (A) (A) (A) (A) (A) (A) (A) (A) (A) (A)
                 (A) (A) (A) (A) (A) (A) (A) (A) (A) (A) (A) (A)
                 (A) (A) (A) (A) (A) (A) (A) (A) (A) (A) (A) (A)
                 (A) (A) (A) (A) (A) (A) (A) (A) (A) (A) (A) (A)
                 (A) (A) (A) (A) (A) (A) (A) (A) (A) (A) (A) (A)
                 (A) (A) (A) (A) (A) (A) (A) (A) (A) (A) (A) (A)
                 (A) (A) (A) (A) (A) (A) (A) (A) (A) (A) (A) (A)
                 (A) (A) (A) (A) (A) (A) (A) (A) (A) (A) (A) (A)
                 (A) (A) (A) (A) (A) (A) (A) (A) (A) (A) (A) (A)
                 (A) (A) (A) (A) (A) (A) (A) (A) (A) (A) (A) (A)
                 (A) (A) (A) (A) (A) (A) (A) (A) (A)
 The electronic state is 1-A.
 Alpha  occ. eigenvalues --  -19.24681 -19.19219 -14.38988 -10.35327 -10.28119
 Alpha  occ. eigenvalues --  -10.23345 -10.23236 -10.22941 -10.22285 -10.21533
 Alpha  occ. eigenvalues --   -1.13254  -1.03864  -0.95404  -0.86775  -0.79116
 Alpha  occ. eigenvalues --   -0.75522  -0.67934  -0.63908  -0.60993  -0.55098
 Alpha  occ. eigenvalues --   -0.53798  -0.52274  -0.50430  -0.46977  -0.46681
 Alpha  occ. eigenvalues --   -0.45132  -0.44207  -0.41550  -0.40275  -0.38387
 Alpha  occ. eigenvalues --   -0.36527  -0.33961  -0.33024  -0.29618  -0.27420
 Alpha  occ. eigenvalues --   -0.22170
 Alpha virt. eigenvalues --   -0.05224  -0.00141   0.00822   0.01812   0.02622
 Alpha virt. eigenvalues --    0.04136   0.04679   0.05439   0.06227   0.06376
 Alpha virt. eigenvalues --    0.07827   0.08247   0.09090   0.10299   0.10926
 Alpha virt. eigenvalues --    0.12631   0.13510   0.14089   0.14441   0.14545
 Alpha virt. eigenvalues --    0.15343   0.16869   0.17595   0.18007   0.18072
 Alpha virt. eigenvalues --    0.19036   0.19277   0.19943   0.20404   0.20987
 Alpha virt. eigenvalues --    0.21414   0.22409   0.22756   0.23616   0.23642
 Alpha virt. eigenvalues --    0.24481   0.25555   0.25754   0.25858   0.26845
 Alpha virt. eigenvalues --    0.27847   0.28324   0.29053   0.29414   0.30170
 Alpha virt. eigenvalues --    0.31064   0.31748   0.32887   0.33607   0.34457
 Alpha virt. eigenvalues --    0.35669   0.38506   0.40407   0.41345   0.41948
 Alpha virt. eigenvalues --    0.44667   0.48077   0.49341   0.51316   0.60559
 Alpha virt. eigenvalues --    0.62353   0.66939   0.67517   0.68936   0.72659
 Alpha virt. eigenvalues --    0.73698   0.73856   0.74917   0.75594   0.75769
 Alpha virt. eigenvalues --    0.78099   0.78940   0.82168   0.84991   0.85613
 Alpha virt. eigenvalues --    0.89544   0.91743   0.94653   0.95064   0.96362
 Alpha virt. eigenvalues --    0.97222   1.00203   1.03855   1.04728   1.05698
 Alpha virt. eigenvalues --    1.07584   1.10685   1.12413   1.13971   1.14508
 Alpha virt. eigenvalues --    1.16037   1.16474   1.21572   1.22800   1.23309
 Alpha virt. eigenvalues --    1.25781   1.27968   1.28215   1.30659   1.33489
 Alpha virt. eigenvalues --    1.34840   1.35365   1.37087   1.38150   1.38374
 Alpha virt. eigenvalues --    1.39780   1.40286   1.41289   1.41787   1.45834
 Alpha virt. eigenvalues --    1.48902   1.56844   1.57674   1.63491   1.67609
 Alpha virt. eigenvalues --    1.74038   1.74170   1.78888   1.80042   1.81505
 Alpha virt. eigenvalues --    1.83433   1.86510   1.91134   1.92220   1.93149
 Alpha virt. eigenvalues --    1.96359   1.97205   2.00226   2.00597   2.03048
 Alpha virt. eigenvalues --    2.05742   2.06705   2.08683   2.12037   2.17079
 Alpha virt. eigenvalues --    2.20227   2.21787   2.26136   2.29906   2.33488
 Alpha virt. eigenvalues --    2.38128   2.38775   2.40195   2.40468   2.43549
 Alpha virt. eigenvalues --    2.45355   2.46112   2.51017   2.52736   2.54208
 Alpha virt. eigenvalues --    2.55229   2.57923   2.58810   2.60547   2.62899
 Alpha virt. eigenvalues --    2.63924   2.68368   2.68654   2.73372   2.74638
 Alpha virt. eigenvalues --    2.76481   2.77163   2.82491   2.88290   2.96450
 Alpha virt. eigenvalues --    3.01464   3.06174   3.10130   3.13147   3.21366
 Alpha virt. eigenvalues --    3.25202   3.28530   3.33207   3.37168   3.48545
 Alpha virt. eigenvalues --    3.51955   3.54143   3.68602   3.87840   4.21069
 Alpha virt. eigenvalues --    4.28978   4.31489   4.33315   4.34062   4.47760
 Alpha virt. eigenvalues --    4.51881   4.57180   4.79702   4.89585
          Condensed to atoms (all electrons):
               1          2          3          4          5          6
     1  C    8.286251  -0.056508   0.692296  -0.779824   0.150163  -2.576866
     2  C   -0.056508   6.408544  -1.040284   1.716220  -1.676279   1.002996
     3  C    0.692296  -1.040284  10.741213  -1.725358  -0.476067  -2.866851
     4  C   -0.779824   1.716220  -1.725358  17.161886  -6.001487  -1.892808
     5  C    0.150163  -1.676279  -0.476067  -6.001487  13.388279  -0.999670
     6  C   -2.576866   1.002996  -2.866851  -1.892808  -0.999670  14.186006
     7  C   -0.159059  -0.179768   0.044748  -1.183854   0.483900  -0.347492
     8  O    0.132068   0.001373  -0.024170  -0.103628  -0.089602  -0.055263
     9  N   -0.014206   0.045281  -0.150799   0.203897  -0.136006   0.155037
    10  O    0.048344  -0.005562   0.027220  -0.233553  -0.022613   0.009400
    11  H    0.191690   0.045666  -0.000791  -0.000092  -0.000106   0.082807
    12  H    0.083195   0.183724   0.103288  -0.062691   0.023845  -0.013785
    13  H   -0.010864   0.100018   0.072677   0.121934   0.046681  -0.010205
    14  H    0.087508  -0.008913   0.012511   0.003769   0.111483   0.095662
    15  H   -0.011591  -0.000908   0.007507   0.009548   0.054530  -0.021160
    16  H    0.003868   0.000416   0.109677   0.140337  -0.205084  -0.051393
    17  H   -0.001940   0.001585  -0.097666  -0.086956   0.151501   0.023446
               7          8          9         10         11         12
     1  C   -0.159059   0.132068  -0.014206   0.048344   0.191690   0.083195
     2  C   -0.179768   0.001373   0.045281  -0.005562   0.045666   0.183724
     3  C    0.044748  -0.024170  -0.150799   0.027220  -0.000791   0.103288
     4  C   -1.183854  -0.103628   0.203897  -0.233553  -0.000092  -0.062691
     5  C    0.483900  -0.089602  -0.136006  -0.022613  -0.000106   0.023845
     6  C   -0.347492  -0.055263   0.155037   0.009400   0.082807  -0.013785
     7  C    6.090159   0.175854  -0.120487   0.425066   0.003665   0.001704
     8  O    0.175854   8.390253   0.001327  -0.146642   0.000081   0.000008
     9  N   -0.120487   0.001327   7.037464  -0.007513   0.000250  -0.000410
    10  O    0.425066  -0.146642  -0.007513   8.390328   0.000024  -0.000001
    11  H    0.003665   0.000081   0.000250   0.000024   0.528298  -0.004230
    12  H    0.001704   0.000008  -0.000410  -0.000001  -0.004230   0.531806
    13  H    0.010726   0.000023  -0.021860  -0.000021  -0.000147  -0.005161
    14  H    0.012316   0.000335  -0.000737   0.000001  -0.004382  -0.000155
    15  H   -0.000466   0.191452  -0.000262   0.006355  -0.000000   0.000000
    16  H    0.001344   0.000571   0.307260   0.027152  -0.000000   0.000002
    17  H    0.000477   0.000183   0.316467   0.002198  -0.000000  -0.000012
              13         14         15         16         17
     1  C   -0.010864   0.087508  -0.011591   0.003868  -0.001940
     2  C    0.100018  -0.008913  -0.000908   0.000416   0.001585
     3  C    0.072677   0.012511   0.007507   0.109677  -0.097666
     4  C    0.121934   0.003769   0.009548   0.140337  -0.086956
     5  C    0.046681   0.111483   0.054530  -0.205084   0.151501
     6  C   -0.010205   0.095662  -0.021160  -0.051393   0.023446
     7  C    0.010726   0.012316  -0.000466   0.001344   0.000477
     8  O    0.000023   0.000335   0.191452   0.000571   0.000183
     9  N   -0.021860  -0.000737  -0.000262   0.307260   0.316467
    10  O   -0.000021   0.000001   0.006355   0.027152   0.002198
    11  H   -0.000147  -0.004382  -0.000000  -0.000000  -0.000000
    12  H   -0.005161  -0.000155   0.000000   0.000002  -0.000012
    13  H    0.550162   0.000012  -0.000000   0.000033   0.005466
    14  H    0.000012   0.509182   0.000097  -0.000000   0.000002
    15  H   -0.000000   0.000097   0.375950   0.000014  -0.000001
    16  H    0.000033  -0.000000   0.000014   0.322907  -0.020724
    17  H    0.005466   0.000002  -0.000001  -0.020724   0.386621
 Mulliken charges:
               1
     1  C   -0.064524
     2  C   -0.537600
     3  C    0.570851
     4  C   -1.287342
     5  C    1.196532
     6  C   -0.719862
     7  C    0.741167
     8  O   -0.474221
     9  N   -0.614700
    10  O   -0.520183
    11  H    0.157266
    12  H    0.158871
    13  H    0.140527
    14  H    0.181309
    15  H    0.388935
    16  H    0.363618
    17  H    0.319355
 Sum of Mulliken charges =  -0.00000
 Mulliken charges with hydrogens summed into heavy atoms:
               1
     1  C    0.092743
     2  C   -0.378729
     3  C    0.711378
     4  C   -1.287342
     5  C    1.196532
     6  C   -0.538553
     7  C    0.741167
     8  O   -0.085285
     9  N    0.068272
    10  O   -0.520183
 Electronic spatial extent (au):  <R**2>=           1382.8846
 Charge=             -0.0000 electrons
 Dipole moment (field-independent basis, Debye):
    X=             -1.1902    Y=              0.5606    Z=             -0.0006  Tot=              1.3156
 Quadrupole moment (field-independent basis, Debye-Ang):
   XX=            -51.6206   YY=            -49.8330   ZZ=            -62.3218
   XY=             -5.2884   XZ=             -0.0015   YZ=             -0.0011
 Traceless Quadrupole moment (field-independent basis, Debye-Ang):
   XX=              2.9712   YY=              4.7588   ZZ=             -7.7300
   XY=             -5.2884   XZ=             -0.0015   YZ=             -0.0011
 Octapole moment (field-independent basis, Debye-Ang**2):
  XXX=             19.3380  YYY=             25.7681  ZZZ=              0.0033  XYY=             -3.3705
  XXY=            -16.7524  XXZ=              0.0133  XZZ=             12.2278  YZZ=              0.3477
  YYZ=              0.0017  XYZ=             -0.0082
 Hexadecapole moment (field-independent basis, Debye-Ang**3):
 XXXX=           -950.0576 YYYY=           -521.2143 ZZZZ=            -68.9320 XXXY=            -77.5726
 XXXZ=              0.0317 YYYX=            -10.5896 YYYZ=             -0.0009 ZZZX=              0.0080
 ZZZY=             -0.0029 XXYY=           -265.4693 XXZZ=           -209.9646 YYZZ=           -130.9523
 XXYZ=             -0.0238 YYXZ=              0.0035 ZZXY=             -4.9409
 N-N= 5.000680207194D+02 E-N=-2.109473720874D+03  KE= 4.715086892415D+02
 R6APFD:  NTU= -4 IXU= 1 FactS= 1.050
 Calling FoFJK, ICntrl=      2127 FMM=F ISym2X=0 I1Cent= 0 IOpClX= 0 NMat=1 NMatS=1 NMatT=0.
 ***** Axes restored to original set *****
 -------------------------------------------------------------------
 Center     Atomic                   Forces (Hartrees/Bohr)
 Number     Number              X              Y              Z
 -------------------------------------------------------------------
      1        6           0.001329234    0.002455203    0.000005605
      2        6           0.003230467    0.000075327   -0.000001256
      3        6           0.001996308   -0.001901890    0.000004583
      4        6           0.002320529    0.001761423   -0.000013502
      5        6          -0.001953788   -0.000280241   -0.000066391
      6        6          -0.000761045    0.003420312   -0.000010920
      7        6           0.004689354   -0.000634893    0.000264583
      8        8          -0.001551539    0.004164267   -0.000078754
      9        7          -0.002449913   -0.004359086   -0.000002813
     10        8          -0.003694485   -0.002216300   -0.000105049
     11        1          -0.000221885   -0.000466509    0.000001632
     12        1          -0.000522611    0.000008778   -0.000000825
     13        1          -0.000360849    0.000388317    0.000000595
     14        1           0.000666007   -0.000660296   -0.000001273
     15        1          -0.003100571    0.000184647   -0.000003140
     16        1          -0.000323156   -0.000759620    0.000007874
     17        1           0.000707942   -0.001179439   -0.000000950
 -------------------------------------------------------------------
 Cartesian Forces:  Max     0.004689354 RMS     0.001716245

 GradGradGradGradGradGradGradGradGradGradGradGradGradGradGradGradGradGrad
 Berny optimization.
 FormGI is forming the generalized inverse of G from B-inverse, IUseBI=4.
 Internal  Forces:  Max     0.006558573 RMS     0.001715361
 Search for a local minimum.
 Step number   1 out of a maximum of   86
 All quantities printed in internal units (Hartrees-Bohrs-Radians)
 Mixed Optimization -- RFO/linear search
 Second derivative matrix not updated -- first step.
 ITU=  0
     Eigenvalues ---    0.01214   0.01520   0.01648   0.01802   0.01930
     Eigenvalues ---    0.02040   0.02056   0.02100   0.02139   0.02161
     Eigenvalues ---    0.02188   0.02188   0.02209   0.02219   0.16000
     Eigenvalues ---    0.16000   0.16000   0.16000   0.16000   0.16000
     Eigenvalues ---    0.16000   0.22000   0.22477   0.24467   0.25000
     Eigenvalues ---    0.25000   0.25000   0.25000   0.35161   0.35205
     Eigenvalues ---    0.35431   0.35544   0.36209   0.39381   0.40635
     Eigenvalues ---    0.42777   0.44008   0.45680   0.46633   0.46772
     Eigenvalues ---    0.47813   0.52443   0.52919   0.53137   0.91179
 RFO step:  Lambda=-5.35890196D-04 EMin= 1.21413269D-02
 Linear search not attempted -- first point.
 Iteration  1 RMS(Cart)=  0.01511461 RMS(Int)=  0.00004589
 Iteration  2 RMS(Cart)=  0.00006301 RMS(Int)=  0.00000588
 Iteration  3 RMS(Cart)=  0.00000000 RMS(Int)=  0.00000588
 Variable       Old X    -DE/DX   Delta X   Delta X   Delta X     New X
                                 (Linear)    (Quad)   (Total)
    R1        2.65735  -0.00201   0.00000  -0.00427  -0.00427   2.65308
    R2        2.61774  -0.00239   0.00000  -0.00489  -0.00489   2.61284
    R3        2.04981   0.00052   0.00000   0.00145   0.00145   2.05126
    R4        2.61604  -0.00214   0.00000  -0.00429  -0.00429   2.61174
    R5        2.05343   0.00052   0.00000   0.00148   0.00148   2.05491
    R6        2.67701  -0.00308   0.00000  -0.00722  -0.00722   2.66979
    R7        2.05415   0.00052   0.00000   0.00148   0.00148   2.05563
    R8        2.69877  -0.00548   0.00000  -0.01351  -0.01350   2.68527
    R9        2.57478  -0.00656   0.00000  -0.01249  -0.01249   2.56228
   R10        2.66802  -0.00388   0.00000  -0.00902  -0.00902   2.65900
   R11        2.77056  -0.00363   0.00000  -0.01000  -0.01000   2.76056
   R12        2.04801   0.00091   0.00000   0.00257   0.00257   2.05058
   R13        2.57029  -0.00592   0.00000  -0.01117  -0.01117   2.55912
   R14        2.32395  -0.00393   0.00000  -0.00431  -0.00431   2.31964
   R15        1.83526  -0.00303   0.00000  -0.00570  -0.00570   1.82956
   R16        1.91194  -0.00036   0.00000  -0.00078  -0.00078   1.91115
   R17        1.90124  -0.00138   0.00000  -0.00295  -0.00295   1.89829
    A1        2.07399  -0.00034   0.00000  -0.00082  -0.00082   2.07316
    A2        2.10539   0.00019   0.00000   0.00055   0.00055   2.10595
    A3        2.10380   0.00015   0.00000   0.00027   0.00027   2.10407
    A4        2.11058   0.00013   0.00000   0.00148   0.00148   2.11206
    A5        2.09287  -0.00004   0.00000  -0.00059  -0.00059   2.09228
    A6        2.07973  -0.00009   0.00000  -0.00089  -0.00089   2.07885
    A7        2.11560  -0.00079   0.00000  -0.00327  -0.00328   2.11233
    A8        2.09719   0.00030   0.00000   0.00101   0.00101   2.09819
    A9        2.07040   0.00050   0.00000   0.00227   0.00227   2.07266
   A10        2.05851   0.00034   0.00000   0.00095   0.00095   2.05946
   A11        2.09130   0.00171   0.00000   0.00705   0.00705   2.09835
   A12        2.13337  -0.00206   0.00000  -0.00800  -0.00800   2.12537
   A13        2.08448   0.00140   0.00000   0.00502   0.00503   2.08951
   A14        2.09826  -0.00252   0.00000  -0.00979  -0.00979   2.08847
   A15        2.10045   0.00112   0.00000   0.00477   0.00476   2.10521
   A16        2.12320  -0.00073   0.00000  -0.00336  -0.00336   2.11984
   A17        2.09784   0.00057   0.00000   0.00298   0.00298   2.10081
   A18        2.06215   0.00016   0.00000   0.00038   0.00038   2.06253
   A19        1.99234  -0.00183   0.00000  -0.00730  -0.00731   1.98504
   A20        2.19758  -0.00114   0.00000  -0.00455  -0.00456   2.19301
   A21        2.09326   0.00297   0.00000   0.01187   0.01186   2.10512
   A22        1.85223  -0.00124   0.00000  -0.00772  -0.00772   1.84452
   A23        2.07976  -0.00091   0.00000  -0.00568  -0.00568   2.07408
   A24        2.09736   0.00040   0.00000   0.00250   0.00250   2.09985
   A25        2.10607   0.00051   0.00000   0.00318   0.00318   2.10925
    D1        0.00001  -0.00000   0.00000  -0.00005  -0.00005  -0.00004
    D2       -3.14158  -0.00000   0.00000  -0.00005  -0.00005   3.14156
    D3       -3.14159  -0.00000   0.00000  -0.00001  -0.00001   3.14159
    D4        0.00000  -0.00000   0.00000  -0.00001  -0.00001  -0.00000
    D5       -0.00004   0.00000   0.00000   0.00015   0.00015   0.00011
    D6        3.14158   0.00000   0.00000   0.00004   0.00004  -3.14156
    D7        3.14156   0.00000   0.00000   0.00011   0.00011  -3.14152
    D8       -0.00000   0.00000   0.00000   0.00000   0.00000  -0.00000
    D9        0.00000  -0.00000   0.00000  -0.00001  -0.00001  -0.00001
   D10        3.14158   0.00000   0.00000   0.00004   0.00004  -3.14156
   D11       -3.14159  -0.00000   0.00000  -0.00001  -0.00001   3.14158
   D12       -0.00001   0.00000   0.00000   0.00004   0.00004   0.00003
   D13        0.00000  -0.00000   0.00000  -0.00002  -0.00002  -0.00002
   D14        3.14156   0.00000   0.00000   0.00017   0.00017  -3.14146
   D15       -3.14157  -0.00000   0.00000  -0.00007  -0.00007   3.14154
   D16       -0.00002   0.00000   0.00000   0.00012   0.00012   0.00010
   D17       -0.00003   0.00000   0.00000   0.00011   0.00011   0.00008
   D18        3.14159   0.00000   0.00000  -0.00000  -0.00000   3.14159
   D19       -3.14158  -0.00000   0.00000  -0.00008  -0.00008   3.14152
   D20        0.00004  -0.00000   0.00000  -0.00019  -0.00019  -0.00016
   D21       -3.14147  -0.00001   0.00000  -0.00039  -0.00039   3.14133
   D22        0.00000  -0.00000   0.00000  -0.00013  -0.00013  -0.00013
   D23        0.00009  -0.00000   0.00000  -0.00019  -0.00019  -0.00011
   D24        3.14156   0.00000   0.00000   0.00007   0.00007  -3.14156
   D25        0.00005  -0.00000   0.00000  -0.00018  -0.00018  -0.00013
   D26       -3.14157  -0.00000   0.00000  -0.00008  -0.00008   3.14154
   D27       -3.14157  -0.00000   0.00000  -0.00007  -0.00007   3.14155
   D28       -0.00001   0.00000   0.00000   0.00003   0.00004   0.00003
   D29        3.14067   0.00006   0.00000   0.00396   0.00394  -3.13857
   D30        0.00091  -0.00007   0.00000  -0.00427  -0.00426  -0.00335
   D31       -0.00090   0.00006   0.00000   0.00384   0.00383   0.00293
   D32       -3.14066  -0.00007   0.00000  -0.00439  -0.00437   3.13816
   D33       -3.14072  -0.00006   0.00000  -0.00388  -0.00391   3.13855
   D34       -0.00085   0.00006   0.00000   0.00379   0.00382   0.00297
         Item               Value     Threshold  Converged?
 Maximum Force            0.006559     0.000450     NO 
 RMS     Force            0.001715     0.000300     NO 
 Maximum Displacement     0.063777     0.001800     NO 
 RMS     Displacement     0.015111     0.001200     NO 
 Predicted change in Energy=-2.683651D-04
 GradGradGradGradGradGradGradGradGradGradGradGradGradGradGradGradGradGrad

                          Input orientation:                          
 ---------------------------------------------------------------------
 Center     Atomic      Atomic             Coordinates (Angstroms)
 Number     Number       Type             X           Y           Z
 ---------------------------------------------------------------------
      1          6           0       -1.856148   -1.521755    0.000251
      2          6           0       -2.583702   -0.321029   -0.000535
      3          6           0       -1.939656    0.901811   -0.000485
      4          6           0       -0.529140    0.981968    0.000365
      5          6           0        0.208052   -0.232831    0.001189
      6          6           0       -0.474735   -1.463149    0.001035
      7          6           0        1.668313   -0.192278    0.002078
      8          8           0        2.247588   -1.416357   -0.000936
      9          7           0        0.085879    2.190365    0.000558
     10          8           0        2.355784    0.824644   -0.001148
     11          1           0       -2.367845   -2.479061    0.000213
     12          1           0       -3.670818   -0.346349   -0.001192
     13          1           0       -2.516217    1.824236   -0.001072
     14          1           0        0.113032   -2.375295    0.001623
     15          1           0        3.202069   -1.254197   -0.002822
     16          1           0        1.096682    2.223226    0.001405
     17          1           0       -0.457005    3.035564   -0.000011
 ---------------------------------------------------------------------
                    Distance matrix (angstroms):
                    1          2          3          4          5
     1  C    0.000000
     2  C    1.403951   0.000000
     3  C    2.425004   1.382076   0.000000
     4  C    2.833651   2.432905   1.412792   0.000000
     5  C    2.433566   2.793147   2.429005   1.420982   0.000000
     6  C    1.382656   2.398371   2.781911   2.445722   1.407082
     7  C    3.766873   4.253964   3.770209   2.491517   1.460825
     8  O    4.105089   4.953898   4.786117   3.669085   2.358060
     9  N    4.189427   3.665209   2.400658   1.355902   2.426274
    10  O    4.821406   5.070610   4.296133   2.889210   2.393953
    11  H    1.085482   2.168801   3.407880   3.919128   3.417718
    12  H    2.162084   1.087411   2.134204   3.410949   3.880531
    13  H    3.410476   2.146326   1.087791   2.158215   3.413673
    14  H    2.146207   3.390043   3.866906   3.418129   2.144570
    15  H    5.065289   5.860542   5.575456   4.349984   3.163438
    16  H    4.769076   4.474200   3.311418   2.045487   2.611873
    17  H    4.767259   3.973608   2.598299   2.054863   3.335373
                    6          7          8          9         10
     6  C    0.000000
     7  C    2.491539   0.000000
     8  O    2.722726   1.354230   0.000000
     9  N    3.696275   2.860260   4.204929   0.000000
    10  O    3.639483   1.227500   2.243611   2.649087   0.000000
    11  H    2.148475   4.638960   4.736198   5.274874   5.764299
    12  H    3.385586   5.341354   6.014353   4.532956   6.139312
    13  H    3.869696   4.645064   5.761534   2.627727   4.973487
    14  H    1.085118   2.680385   2.340064   4.565741   3.907628
    15  H    3.682738   1.865503   0.968159   4.644960   2.244500
    16  H    4.007332   2.482220   3.817217   1.011338   1.881853
    17  H    4.498748   3.864705   5.209071   1.004532   3.577702
                   11         12         13         14         15
    11  H    0.000000
    12  H    2.499240   0.000000
    13  H    4.305854   2.458565   0.000000
    14  H    2.483047   4.293501   4.954697   0.000000
    15  H    5.703003   6.932587   6.494270   3.286187   0.000000
    16  H    5.840758   5.415882   3.634864   4.702549   4.065112
    17  H    5.836301   4.665398   2.389073   5.440804   5.638340
                   16         17
    16  H    0.000000
    17  H    1.753237   0.000000
 Stoichiometry    C7H7NO2
 Framework group  C1[X(C7H7NO2)]
 Deg. of freedom    45
 Full point group                 C1      NOp   1
 Largest Abelian subgroup         C1      NOp   1
 Largest concise Abelian subgroup C1      NOp   1
                         Standard orientation:                         
 ---------------------------------------------------------------------
 Center     Atomic      Atomic             Coordinates (Angstroms)
 Number     Number       Type             X           Y           Z
 ---------------------------------------------------------------------
      1          6           0       -1.867818   -1.505761    0.000129
      2          6           0       -2.583731   -0.298058   -0.000657
      3          6           0       -1.927894    0.918499   -0.000607
      4          6           0       -0.516669    0.985017    0.000243
      5          6           0        0.208745   -0.236852    0.001067
      6          6           0       -0.485903   -1.460512    0.000914
      7          6           0        1.669330   -0.210417    0.001956
      8          8           0        2.236745   -1.440038   -0.001058
      9          7           0        0.110002    2.187412    0.000437
     10          8           0        2.366599    0.799812   -0.001270
     11          1           0       -2.388746   -2.458076    0.000092
     12          1           0       -3.671041   -0.312868   -0.001314
     13          1           0       -2.495510    1.846454   -0.001194
     14          1           0        0.093019   -2.378297    0.001501
     15          1           0        3.192749   -1.287113   -0.002944
     16          1           0        1.121077    2.210500    0.001283
     17          1           0       -0.424685    3.037820   -0.000132
 ---------------------------------------------------------------------
 Rotational constants (GHZ):      2.3133906      1.2220677      0.7996477
 Standard basis: 6-31+G(d,p) (6D, 7F)
 There are   225 symmetry adapted cartesian basis functions of A   symmetry.
 There are   225 symmetry adapted basis functions of A   symmetry.
   225 basis functions,   369 primitive gaussians,   225 cartesian basis functions
    36 alpha electrons       36 beta electrons
       nuclear repulsion energy       502.1133038063 Hartrees.
 NAtoms=   17 NActive=   17 NUniq=   17 SFac= 1.00D+00 NAtFMM=   60 NAOKFM=F Big=F
 Integral buffers will be    131072 words long.
 Raffenetti 2 integral format.
 Two-electron integral symmetry is turned on.
 R6APFD:  NTU= -4 IXU= 1 FactS= 1.050
 Nuclear repulsion after empirical dispersion term =      502.1031150469 Hartrees.
 One-electron integrals computed using PRISM.
 NBasis=   225 RedAO= T EigKep=  2.69D-06  NBF=   225
 NBsUse=   225 1.00D-06 EigRej= -1.00D+00 NBFU=   225
 Initial guess from the checkpoint file:  "APFDAnthranilic.chk"
 B after Tr=     0.000000   -0.000000   -0.000000
         Rot=    0.999991    0.000009   -0.000022    0.004163 Ang=   0.48 deg.
 ExpMin= 4.38D-02 ExpMax= 5.48D+03 ExpMxC= 8.25D+02 IAcc=2 IRadAn=         4 AccDes= 0.00D+00
 Harris functional with IExCor= 3731 and IRadAn=       4 diagonalized for initial guess.
 HarFok:  IExCor= 3731 AccDes= 0.00D+00 IRadAn=         4 IDoV= 1 UseB2=F ITyADJ=14
 ICtDFT=  3500011 ScaDFX=  1.000000  1.000000  1.000000  1.000000
 FoFCou: FMM=F IPFlag=           0 FMFlag=      100000 FMFlg1=           0
         NFxFlg=           0 DoJE=T BraDBF=F KetDBF=T FulRan=T
         wScrn=  0.000000 ICntrl=     500 IOpCl=  0 I1Cent=   200000004 NGrid=           0
         NMat0=    1 NMatS0=      1 NMatT0=    0 NMatD0=    1 NMtDS0=    0 NMtDT0=    0
 Petite list used in FoFCou.
 Keep R1 ints in memory in canonical form, NReq=329175655.
 Requested convergence on RMS density matrix=1.00D-08 within 128 cycles.
 Requested convergence on MAX density matrix=1.00D-06.
 Requested convergence on             energy=1.00D-06.
 No special actions if energy rises.
 SCF Done:  E(RAPFD) =  -475.841696811     A.U. after   12 cycles
            NFock= 12  Conv=0.62D-08     -V/T= 2.0089
 R6APFD:  NTU= -4 IXU= 1 FactS= 1.050
 Calling FoFJK, ICntrl=      2127 FMM=F ISym2X=0 I1Cent= 0 IOpClX= 0 NMat=1 NMatS=1 NMatT=0.
 ***** Axes restored to original set *****
 -------------------------------------------------------------------
 Center     Atomic                   Forces (Hartrees/Bohr)
 Number     Number              X              Y              Z
 -------------------------------------------------------------------
      1        6          -0.000181822   -0.000341688   -0.000019109
      2        6          -0.000025876    0.000152893    0.000002053
      3        6          -0.000724485    0.000058281   -0.000018628
      4        6           0.000301083    0.002018919    0.000043938
      5        6           0.000456318   -0.000551979    0.000242431
      6        6           0.000089841   -0.000335538    0.000038835
      7        6          -0.000585797   -0.002317315   -0.000903557
      8        8           0.000638868    0.002306620    0.000269453
      9        7          -0.002069249    0.001014637    0.000011437
     10        8           0.001843433   -0.001251703    0.000357992
     11        1          -0.000069032    0.000019040   -0.000005282
     12        1          -0.000061182   -0.000040540    0.000002914
     13        1          -0.000099533   -0.000053329   -0.000001209
     14        1          -0.000131864   -0.000001286    0.000003798
     15        1           0.000549958   -0.000718954    0.000001422
     16        1           0.000335095    0.000011610   -0.000028681
     17        1          -0.000265755    0.000030334    0.000002192
 -------------------------------------------------------------------
 Cartesian Forces:  Max     0.002317315 RMS     0.000758553

 GradGradGradGradGradGradGradGradGradGradGradGradGradGradGradGradGradGrad
 Berny optimization.
 Using GEDIIS/GDIIS optimizer.
 FormGI is forming the generalized inverse of G from B-inverse, IUseBI=4.
 Internal  Forces:  Max     0.004535985 RMS     0.001139200
 Search for a local minimum.
 Step number   2 out of a maximum of   86
 All quantities printed in internal units (Hartrees-Bohrs-Radians)
 Mixed Optimization -- RFO/linear search
 Update second derivatives using D2CorX and points    1    2
 DE= -1.36D-04 DEPred=-2.68D-04 R= 5.05D-01
 TightC=F SS=  1.41D+00  RLast= 3.94D-02 DXNew= 5.0454D-01 1.1817D-01
 Trust test= 5.05D-01 RLast= 3.94D-02 DXMaxT set to 3.00D-01
 ITU=  1  0
 Use linear search instead of GDIIS.
     Eigenvalues ---    0.01214   0.01542   0.01650   0.01802   0.01930
     Eigenvalues ---    0.02040   0.02056   0.02100   0.02139   0.02161
     Eigenvalues ---    0.02188   0.02188   0.02209   0.02219   0.15843
     Eigenvalues ---    0.16000   0.16000   0.16000   0.16000   0.16000
     Eigenvalues ---    0.16196   0.21946   0.22551   0.23929   0.24530
     Eigenvalues ---    0.25000   0.25000   0.29538   0.35127   0.35188
     Eigenvalues ---    0.35409   0.35515   0.36981   0.40351   0.40743
     Eigenvalues ---    0.42722   0.45658   0.46085   0.46750   0.46858
     Eigenvalues ---    0.49074   0.52410   0.52948   0.62475   0.90540
 RFO step:  Lambda=-1.02124724D-04 EMin= 1.21415267D-02
 Quartic linear search produced a step of -0.33064.
 Iteration  1 RMS(Cart)=  0.01171740 RMS(Int)=  0.00004731
 Iteration  2 RMS(Cart)=  0.00006530 RMS(Int)=  0.00000854
 Iteration  3 RMS(Cart)=  0.00000000 RMS(Int)=  0.00000854
 Variable       Old X    -DE/DX   Delta X   Delta X   Delta X     New X
                                 (Linear)    (Quad)   (Total)
    R1        2.65308  -0.00024   0.00141  -0.00284  -0.00143   2.65165
    R2        2.61284   0.00013   0.00162  -0.00250  -0.00089   2.61196
    R3        2.05126   0.00002  -0.00048   0.00081   0.00033   2.05159
    R4        2.61174  -0.00017   0.00142  -0.00261  -0.00120   2.61055
    R5        2.05491   0.00006  -0.00049   0.00091   0.00042   2.05533
    R6        2.66979   0.00103   0.00239  -0.00214   0.00025   2.67004
    R7        2.05563   0.00001  -0.00049   0.00081   0.00032   2.05594
    R8        2.68527   0.00433   0.00446   0.00005   0.00451   2.68978
    R9        2.56228   0.00004   0.00413  -0.00658  -0.00245   2.55983
   R10        2.65900   0.00083   0.00298  -0.00343  -0.00045   2.65855
   R11        2.76056   0.00239   0.00331  -0.00093   0.00238   2.76294
   R12        2.05058  -0.00007  -0.00085   0.00124   0.00039   2.05097
   R13        2.55912  -0.00093   0.00369  -0.00709  -0.00340   2.55572
   R14        2.31964  -0.00001   0.00142  -0.00227  -0.00085   2.31879
   R15        1.82956   0.00042   0.00189  -0.00249  -0.00061   1.82895
   R16        1.91115   0.00034   0.00026   0.00008   0.00033   1.91149
   R17        1.89829   0.00017   0.00097  -0.00132  -0.00035   1.89794
    A1        2.07316   0.00016   0.00027  -0.00070  -0.00043   2.07274
    A2        2.10595  -0.00015  -0.00018   0.00012  -0.00006   2.10589
    A3        2.10407  -0.00001  -0.00009   0.00058   0.00049   2.10456
    A4        2.11206   0.00021  -0.00049   0.00070   0.00021   2.11227
    A5        2.09228  -0.00014   0.00020  -0.00043  -0.00024   2.09204
    A6        2.07885  -0.00006   0.00029  -0.00027   0.00003   2.07887
    A7        2.11233   0.00071   0.00108   0.00027   0.00135   2.11368
    A8        2.09819  -0.00047  -0.00033  -0.00096  -0.00129   2.09690
    A9        2.07266  -0.00024  -0.00075   0.00069  -0.00006   2.07261
   A10        2.05946  -0.00075  -0.00031  -0.00102  -0.00134   2.05813
   A11        2.09835  -0.00272  -0.00233  -0.00370  -0.00603   2.09232
   A12        2.12537   0.00347   0.00264   0.00472   0.00737   2.13274
   A13        2.08951  -0.00125  -0.00166  -0.00016  -0.00183   2.08768
   A14        2.08847   0.00454   0.00324   0.00662   0.00985   2.09832
   A15        2.10521  -0.00328  -0.00158  -0.00645  -0.00803   2.09718
   A16        2.11984   0.00093   0.00111   0.00092   0.00203   2.12187
   A17        2.10081  -0.00058  -0.00098  -0.00023  -0.00121   2.09960
   A18        2.06253  -0.00035  -0.00013  -0.00069  -0.00082   2.06171
   A19        1.98504   0.00029   0.00242  -0.00315  -0.00077   1.98427
   A20        2.19301   0.00244   0.00151   0.00410   0.00557   2.19859
   A21        2.10512  -0.00273  -0.00392  -0.00088  -0.00483   2.10029
   A22        1.84452   0.00147   0.00255   0.00189   0.00444   1.84896
   A23        2.07408   0.00013   0.00188  -0.00258  -0.00070   2.07338
   A24        2.09985  -0.00026  -0.00083   0.00028  -0.00054   2.09931
   A25        2.10925   0.00013  -0.00105   0.00229   0.00124   2.11049
    D1       -0.00004   0.00000   0.00002   0.00008   0.00010   0.00006
    D2        3.14156   0.00000   0.00002   0.00008   0.00009  -3.14153
    D3        3.14159   0.00000   0.00000   0.00001   0.00001  -3.14159
    D4       -0.00000   0.00000   0.00000   0.00001   0.00001   0.00000
    D5        0.00011  -0.00001  -0.00005  -0.00024  -0.00028  -0.00018
    D6       -3.14156  -0.00000  -0.00001  -0.00008  -0.00009   3.14153
    D7       -3.14152  -0.00001  -0.00003  -0.00016  -0.00020   3.14147
    D8       -0.00000  -0.00000  -0.00000  -0.00001  -0.00001  -0.00001
    D9       -0.00001   0.00000   0.00000   0.00002   0.00002   0.00002
   D10       -3.14156  -0.00000  -0.00001  -0.00005  -0.00007   3.14156
   D11        3.14158   0.00000   0.00000   0.00002   0.00003  -3.14158
   D12        0.00003  -0.00000  -0.00001  -0.00005  -0.00006  -0.00004
   D13       -0.00002   0.00000   0.00001   0.00003   0.00004   0.00002
   D14       -3.14146  -0.00001  -0.00005  -0.00026  -0.00032   3.14141
   D15        3.14154   0.00000   0.00002   0.00010   0.00013  -3.14152
   D16        0.00010  -0.00001  -0.00004  -0.00019  -0.00023  -0.00013
   D17        0.00008  -0.00001  -0.00004  -0.00018  -0.00022  -0.00013
   D18        3.14159  -0.00000   0.00000   0.00002   0.00003  -3.14157
   D19        3.14152   0.00001   0.00003   0.00012   0.00015  -3.14152
   D20       -0.00016   0.00001   0.00006   0.00032   0.00039   0.00023
   D21        3.14133   0.00003   0.00013   0.00068   0.00081  -3.14105
   D22       -0.00013   0.00001   0.00004   0.00019   0.00024   0.00011
   D23       -0.00011   0.00002   0.00006   0.00037   0.00044   0.00033
   D24       -3.14156  -0.00000  -0.00002  -0.00011  -0.00014   3.14149
   D25       -0.00013   0.00001   0.00006   0.00029   0.00035   0.00022
   D26        3.14154   0.00001   0.00003   0.00013   0.00016  -3.14149
   D27        3.14155   0.00000   0.00002   0.00008   0.00010  -3.14153
   D28        0.00003  -0.00000  -0.00001  -0.00007  -0.00008  -0.00005
   D29       -3.13857  -0.00022  -0.00130  -0.00644  -0.00776   3.13685
   D30       -0.00335   0.00023   0.00141   0.00688   0.00831   0.00495
   D31        0.00293  -0.00021  -0.00127  -0.00623  -0.00751  -0.00458
   D32        3.13816   0.00024   0.00145   0.00709   0.00855  -3.13648
   D33        3.13855   0.00023   0.00129   0.00636   0.00763  -3.13700
   D34        0.00297  -0.00022  -0.00126  -0.00624  -0.00747  -0.00450
         Item               Value     Threshold  Converged?
 Maximum Force            0.004536     0.000450     NO 
 RMS     Force            0.001139     0.000300     NO 
 Maximum Displacement     0.042795     0.001800     NO 
 RMS     Displacement     0.011706     0.001200     NO 
 Predicted change in Energy=-9.779666D-05
 GradGradGradGradGradGradGradGradGradGradGradGradGradGradGradGradGradGrad

                          Input orientation:                          
 ---------------------------------------------------------------------
 Center     Atomic      Atomic             Coordinates (Angstroms)
 Number     Number       Type             X           Y           Z
 ---------------------------------------------------------------------
      1          6           0       -1.851400   -1.519622   -0.000290
      2          6           0       -2.580586   -0.320772    0.000934
      3          6           0       -1.939156    0.902728    0.000857
      4          6           0       -0.528777    0.987478   -0.000474
      5          6           0        0.211981   -0.227946   -0.001762
      6          6           0       -0.470582   -1.458116   -0.001511
      7          6           0        1.673777   -0.198963   -0.003141
      8          8           0        2.241622   -1.426398    0.001598
      9          7           0        0.074423    2.200369   -0.000734
     10          8           0        2.374672    0.808201    0.001595
     11          1           0       -2.361620   -2.477912   -0.000228
     12          1           0       -3.667873   -0.348188    0.001960
     13          1           0       -2.518747    1.823449    0.001780
     14          1           0        0.118121   -2.369904   -0.002415
     15          1           0        3.197831   -1.276843    0.004411
     16          1           0        1.085084    2.241911   -0.002175
     17          1           0       -0.476636    3.040040    0.000111
 ---------------------------------------------------------------------
                    Distance matrix (angstroms):
                    1          2          3          4          5
     1  C    0.000000
     2  C    1.403194   0.000000
     3  C    2.423939   1.381443   0.000000
     4  C    2.834586   2.433400   1.412923   0.000000
     5  C    2.434331   2.794110   2.430189   1.423369   0.000000
     6  C    1.382187   2.397013   2.780341   2.446286   1.406844
     7  C    3.764442   4.256108   3.777171   2.501778   1.462084
     8  O    4.094084   4.947332   4.785784   3.674495   2.357062
     9  N    4.188929   3.661314   2.395490   1.354605   2.432208
    10  O    4.824774   5.082240   4.314863   2.908980   2.398092
    11  H    1.085654   2.168225   3.406935   3.920235   3.418446
    12  H    2.161443   1.087633   2.133836   3.411441   3.881719
    13  H    3.409029   2.145113   1.087959   2.158433   3.415423
    14  H    2.145227   3.388506   3.865556   3.419137   2.144014
    15  H    5.055066   5.856977   5.580249   4.360594   3.164731
    16  H    4.772009   4.472638   3.307483   2.044053   2.619638
    17  H    4.762403   3.965054   2.589800   2.053224   3.339749
                    6          7          8          9         10
     6  C    0.000000
     7  C    2.486714   0.000000
     8  O    2.712392   1.352430   0.000000
     9  N    3.698857   2.883527   4.224949   0.000000
    10  O    3.637537   1.227051   2.238556   2.688733   0.000000
    11  H    2.148490   4.634441   4.721813   5.274525   5.764634
    12  H    3.384467   5.343736   6.007051   4.527685   6.152202
    13  H    3.868289   4.654829   5.763907   2.620421   4.997628
    14  H    1.085325   2.670778   2.323678   4.570482   3.897742
    15  H    3.672894   1.866715   0.967838   4.674046   2.241652
    16  H    4.013763   2.510861   3.846308   1.011515   1.928361
    17  H    4.498160   3.887856   5.228574   1.004348   3.620921
                   11         12         13         14         15
    11  H    0.000000
    12  H    2.498405   0.000000
    13  H    4.304231   2.456929   0.000000
    14  H    2.482093   4.291982   4.953515   0.000000
    15  H    5.687713   6.928225   6.503160   3.267942   0.000000
    16  H    5.844356   5.412877   3.628047   4.712097   4.104312
    17  H    5.831033   4.654469   2.377038   5.442539   5.668968
                   16         17
    16  H    0.000000
    17  H    1.753848   0.000000
 Stoichiometry    C7H7NO2
 Framework group  C1[X(C7H7NO2)]
 Deg. of freedom    45
 Full point group                 C1      NOp   1
 Largest Abelian subgroup         C1      NOp   1
 Largest concise Abelian subgroup C1      NOp   1
                         Standard orientation:                         
 ---------------------------------------------------------------------
 Center     Atomic      Atomic             Coordinates (Angstroms)
 Number     Number       Type             X           Y           Z
 ---------------------------------------------------------------------
      1          6           0       -1.852050   -1.518547   -0.000172
      2          6           0       -2.579835   -0.318847    0.001051
      3          6           0       -1.936977    0.903904    0.000975
      4          6           0       -0.526500    0.987006   -0.000356
      5          6           0        0.212838   -0.229282   -0.001645
      6          6           0       -0.471161   -1.458654   -0.001393
      7          6           0        1.674667   -0.202006   -0.003023
      8          8           0        2.241078   -1.430103    0.001716
      9          7           0        0.078116    2.199192   -0.000616
     10          8           0        2.376738    0.804338    0.001712
     11          1           0       -2.363388   -2.476241   -0.000111
     12          1           0       -3.667154   -0.344993    0.002078
     13          1           0       -2.515493    1.825301    0.001898
     14          1           0        0.116477   -2.371129   -0.002298
     15          1           0        3.197461   -1.281665    0.004528
     16          1           0        1.088825    2.239554   -0.002057
     17          1           0       -0.471962    3.039505    0.000228
 ---------------------------------------------------------------------
 Rotational constants (GHZ):      2.3059438      1.2202515      0.7979803
 Standard basis: 6-31+G(d,p) (6D, 7F)
 There are   225 symmetry adapted cartesian basis functions of A   symmetry.
 There are   225 symmetry adapted basis functions of A   symmetry.
   225 basis functions,   369 primitive gaussians,   225 cartesian basis functions
    36 alpha electrons       36 beta electrons
       nuclear repulsion energy       501.7582813566 Hartrees.
 NAtoms=   17 NActive=   17 NUniq=   17 SFac= 1.00D+00 NAtFMM=   60 NAOKFM=F Big=F
 Integral buffers will be    131072 words long.
 Raffenetti 2 integral format.
 Two-electron integral symmetry is turned on.
 R6APFD:  NTU= -4 IXU= 1 FactS= 1.050
 Nuclear repulsion after empirical dispersion term =      501.7481299672 Hartrees.
 One-electron integrals computed using PRISM.
 NBasis=   225 RedAO= T EigKep=  2.70D-06  NBF=   225
 NBsUse=   225 1.00D-06 EigRej= -1.00D+00 NBFU=   225
 Initial guess from the checkpoint file:  "APFDAnthranilic.chk"
 B after Tr=     0.000000    0.000000    0.000000
         Rot=    0.999994   -0.000017    0.000043   -0.003574 Ang=  -0.41 deg.
 ExpMin= 4.38D-02 ExpMax= 5.48D+03 ExpMxC= 8.25D+02 IAcc=2 IRadAn=         4 AccDes= 0.00D+00
 Harris functional with IExCor= 3731 and IRadAn=       4 diagonalized for initial guess.
 HarFok:  IExCor= 3731 AccDes= 0.00D+00 IRadAn=         4 IDoV= 1 UseB2=F ITyADJ=14
 ICtDFT=  3500011 ScaDFX=  1.000000  1.000000  1.000000  1.000000
 FoFCou: FMM=F IPFlag=           0 FMFlag=      100000 FMFlg1=           0
         NFxFlg=           0 DoJE=T BraDBF=F KetDBF=T FulRan=T
         wScrn=  0.000000 ICntrl=     500 IOpCl=  0 I1Cent=   200000004 NGrid=           0
         NMat0=    1 NMatS0=      1 NMatT0=    0 NMatD0=    1 NMtDS0=    0 NMtDT0=    0
 Petite list used in FoFCou.
 Keep R1 ints in memory in canonical form, NReq=329175655.
 Requested convergence on RMS density matrix=1.00D-08 within 128 cycles.
 Requested convergence on MAX density matrix=1.00D-06.
 Requested convergence on             energy=1.00D-06.
 No special actions if energy rises.
 SCF Done:  E(RAPFD) =  -475.841741925     A.U. after   12 cycles
            NFock= 12  Conv=0.45D-08     -V/T= 2.0089
 R6APFD:  NTU= -4 IXU= 1 FactS= 1.050
 Calling FoFJK, ICntrl=      2127 FMM=F ISym2X=0 I1Cent= 0 IOpClX= 0 NMat=1 NMatS=1 NMatT=0.
 ***** Axes restored to original set *****
 -------------------------------------------------------------------
 Center     Atomic                   Forces (Hartrees/Bohr)
 Number     Number              X              Y              Z
 -------------------------------------------------------------------
      1        6          -0.000543710   -0.000689309    0.000028975
      2        6          -0.000812960   -0.000111858   -0.000002058
      3        6          -0.000492389    0.000208248    0.000028378
      4        6          -0.000253723   -0.000498035   -0.000067253
      5        6          -0.000258400    0.000434039   -0.000363588
      6        6           0.000140520   -0.000771276   -0.000059219
      7        6          -0.000093778   -0.000610263    0.001370189
      8        8           0.000414098   -0.000168077   -0.000408421
      9        7           0.001442282    0.000291099   -0.000019097
     10        8          -0.000227064    0.001343094   -0.000542604
     11        1           0.000028148    0.000102429    0.000007820
     12        1           0.000064316   -0.000007397   -0.000004617
     13        1           0.000041646   -0.000065492    0.000001698
     14        1          -0.000265912    0.000180914   -0.000005994
     15        1           0.000589200   -0.000199727   -0.000003585
     16        1           0.000140386    0.000269669    0.000043218
     17        1           0.000087344    0.000291942   -0.000003841
 -------------------------------------------------------------------
 Cartesian Forces:  Max     0.001442282 RMS     0.000457908

 GradGradGradGradGradGradGradGradGradGradGradGradGradGradGradGradGradGrad
 Berny optimization.
 Using GEDIIS/GDIIS optimizer.
 FormGI is forming the generalized inverse of G from B-inverse, IUseBI=4.
 Internal  Forces:  Max     0.002391445 RMS     0.000636396
 Search for a local minimum.
 Step number   3 out of a maximum of   86
 All quantities printed in internal units (Hartrees-Bohrs-Radians)
 Mixed Optimization -- En-DIIS/RFO-DIIS
 Update second derivatives using D2CorX and points    1    2    3
 DE= -4.51D-05 DEPred=-9.78D-05 R= 4.61D-01
 Trust test= 4.61D-01 RLast= 2.77D-02 DXMaxT set to 3.00D-01
 ITU=  0  1  0
 Use linear search instead of GDIIS.
     Eigenvalues ---    0.01214   0.01648   0.01722   0.01802   0.01930
     Eigenvalues ---    0.02040   0.02056   0.02100   0.02139   0.02161
     Eigenvalues ---    0.02188   0.02189   0.02209   0.02219   0.15572
     Eigenvalues ---    0.16000   0.16000   0.16000   0.16000   0.16020
     Eigenvalues ---    0.16261   0.21950   0.22576   0.24371   0.24903
     Eigenvalues ---    0.25000   0.25958   0.34935   0.35180   0.35368
     Eigenvalues ---    0.35489   0.36545   0.37120   0.40580   0.42539
     Eigenvalues ---    0.45345   0.45463   0.46481   0.46729   0.47889
     Eigenvalues ---    0.49586   0.52936   0.54887   0.69435   0.91224
 RFO step:  Lambda=-3.01112655D-05 EMin= 1.21429301D-02
 Quartic linear search produced a step of -0.34792.
 Iteration  1 RMS(Cart)=  0.00549231 RMS(Int)=  0.00002522
 Iteration  2 RMS(Cart)=  0.00003366 RMS(Int)=  0.00001066
 Iteration  3 RMS(Cart)=  0.00000000 RMS(Int)=  0.00001066
 Variable       Old X    -DE/DX   Delta X   Delta X   Delta X     New X
                                 (Linear)    (Quad)   (Total)
    R1        2.65165   0.00066   0.00050   0.00033   0.00083   2.65248
    R2        2.61196   0.00088   0.00031   0.00077   0.00107   2.61303
    R3        2.05159  -0.00010  -0.00011  -0.00008  -0.00019   2.05140
    R4        2.61055   0.00078   0.00042   0.00047   0.00089   2.61144
    R5        2.05533  -0.00006  -0.00015   0.00002  -0.00013   2.05520
    R6        2.67004   0.00087  -0.00009   0.00147   0.00138   2.67142
    R7        2.05594  -0.00008  -0.00011  -0.00005  -0.00016   2.05579
    R8        2.68978  -0.00045  -0.00157   0.00226   0.00069   2.69046
    R9        2.55983   0.00151   0.00085   0.00095   0.00181   2.56164
   R10        2.65855   0.00103   0.00016   0.00142   0.00158   2.66013
   R11        2.76294   0.00069  -0.00083   0.00256   0.00174   2.76467
   R12        2.05097  -0.00030  -0.00014  -0.00037  -0.00051   2.05046
   R13        2.55572   0.00076   0.00118  -0.00025   0.00093   2.55666
   R14        2.31879   0.00097   0.00030   0.00035   0.00065   2.31944
   R15        1.82895   0.00055   0.00021   0.00053   0.00075   1.82969
   R16        1.91149   0.00015  -0.00012   0.00036   0.00024   1.91173
   R17        1.89794   0.00020   0.00012   0.00021   0.00033   1.89827
    A1        2.07274  -0.00005   0.00015  -0.00013   0.00002   2.07275
    A2        2.10589   0.00000   0.00002  -0.00014  -0.00012   2.10576
    A3        2.10456   0.00005  -0.00017   0.00027   0.00011   2.10467
    A4        2.11227  -0.00007  -0.00007  -0.00006  -0.00013   2.11214
    A5        2.09204   0.00003   0.00008  -0.00006   0.00002   2.09206
    A6        2.07887   0.00004  -0.00001   0.00012   0.00011   2.07898
    A7        2.11368  -0.00001  -0.00047   0.00076   0.00029   2.11396
    A8        2.09690   0.00001   0.00045  -0.00060  -0.00015   2.09675
    A9        2.07261   0.00000   0.00002  -0.00015  -0.00013   2.07248
   A10        2.05813   0.00008   0.00046  -0.00060  -0.00013   2.05800
   A11        2.09232   0.00136   0.00210  -0.00046   0.00163   2.09395
   A12        2.13274  -0.00145  -0.00256   0.00106  -0.00150   2.13124
   A13        2.08768   0.00023   0.00064  -0.00074  -0.00011   2.08757
   A14        2.09832  -0.00239  -0.00343   0.00046  -0.00297   2.09535
   A15        2.09718   0.00216   0.00279   0.00028   0.00308   2.10026
   A16        2.12187  -0.00018  -0.00071   0.00078   0.00007   2.12194
   A17        2.09960  -0.00004   0.00042  -0.00095  -0.00053   2.09907
   A18        2.06171   0.00022   0.00028   0.00017   0.00046   2.06217
   A19        1.98427   0.00167   0.00027   0.00334   0.00355   1.98782
   A20        2.19859  -0.00193  -0.00194  -0.00089  -0.00288   2.19570
   A21        2.10029   0.00027   0.00168  -0.00232  -0.00069   2.09960
   A22        1.84896   0.00053  -0.00155   0.00407   0.00252   1.85149
   A23        2.07338   0.00019   0.00024   0.00062   0.00086   2.07424
   A24        2.09931   0.00013   0.00019  -0.00001   0.00018   2.09949
   A25        2.11049  -0.00032  -0.00043  -0.00060  -0.00104   2.10946
    D1        0.00006  -0.00001  -0.00003  -0.00009  -0.00012  -0.00006
    D2       -3.14153  -0.00001  -0.00003  -0.00008  -0.00012   3.14153
    D3       -3.14159  -0.00000  -0.00000  -0.00001  -0.00001   3.14159
    D4        0.00000  -0.00000  -0.00000  -0.00001  -0.00001  -0.00000
    D5       -0.00018   0.00002   0.00010   0.00026   0.00036   0.00018
    D6        3.14153   0.00001   0.00003   0.00009   0.00012  -3.14153
    D7        3.14147   0.00001   0.00007   0.00018   0.00025  -3.14147
    D8       -0.00001   0.00000   0.00000   0.00001   0.00001   0.00000
    D9        0.00002  -0.00000  -0.00001  -0.00002  -0.00003  -0.00001
   D10        3.14156   0.00000   0.00002   0.00006   0.00009  -3.14154
   D11       -3.14158  -0.00000  -0.00001  -0.00002  -0.00003   3.14158
   D12       -0.00004   0.00000   0.00002   0.00006   0.00008   0.00005
   D13        0.00002  -0.00000  -0.00001  -0.00004  -0.00005  -0.00003
   D14        3.14141   0.00002   0.00011   0.00031   0.00042  -3.14136
   D15       -3.14152  -0.00001  -0.00004  -0.00012  -0.00017   3.14150
   D16       -0.00013   0.00001   0.00008   0.00023   0.00031   0.00018
   D17       -0.00013   0.00001   0.00008   0.00020   0.00028   0.00014
   D18       -3.14157  -0.00000  -0.00001  -0.00002  -0.00003   3.14159
   D19       -3.14152  -0.00001  -0.00005  -0.00016  -0.00021   3.14146
   D20        0.00023  -0.00002  -0.00014  -0.00038  -0.00051  -0.00028
   D21       -3.14105  -0.00005  -0.00028  -0.00073  -0.00101   3.14113
   D22        0.00011  -0.00001  -0.00008  -0.00023  -0.00031  -0.00020
   D23        0.00033  -0.00003  -0.00015  -0.00036  -0.00052  -0.00019
   D24        3.14149   0.00001   0.00005   0.00013   0.00018  -3.14152
   D25        0.00022  -0.00002  -0.00012  -0.00032  -0.00044  -0.00022
   D26       -3.14149  -0.00001  -0.00006  -0.00015  -0.00021   3.14149
   D27       -3.14153  -0.00001  -0.00004  -0.00009  -0.00013   3.14152
   D28       -0.00005   0.00000   0.00003   0.00007   0.00010   0.00004
   D29        3.13685   0.00034   0.00270   0.00758   0.01028  -3.13605
   D30        0.00495  -0.00036  -0.00289  -0.00838  -0.01127  -0.00632
   D31       -0.00458   0.00033   0.00261   0.00736   0.00997   0.00539
   D32       -3.13648  -0.00037  -0.00297  -0.00861  -0.01158   3.13512
   D33       -3.13700  -0.00033  -0.00265  -0.00757  -0.01022   3.13596
   D34       -0.00450   0.00032   0.00260   0.00741   0.01001   0.00551
         Item               Value     Threshold  Converged?
 Maximum Force            0.002391     0.000450     NO 
 RMS     Force            0.000636     0.000300     NO 
 Maximum Displacement     0.018134     0.001800     NO 
 RMS     Displacement     0.005486     0.001200     NO 
 Predicted change in Energy=-3.104532D-05
 GradGradGradGradGradGradGradGradGradGradGradGradGradGradGradGradGradGrad

                          Input orientation:                          
 ---------------------------------------------------------------------
 Center     Atomic      Atomic             Coordinates (Angstroms)
 Number     Number       Type             X           Y           Z
 ---------------------------------------------------------------------
      1          6           0       -1.854642   -1.520700    0.000420
      2          6           0       -2.582960   -0.320810   -0.001027
      3          6           0       -1.940034    0.902436   -0.000922
      4          6           0       -0.528862    0.986158    0.000657
      5          6           0        0.210999   -0.230237    0.002177
      6          6           0       -0.473201   -1.460454    0.001890
      7          6           0        1.673650   -0.198198    0.003835
      8          8           0        2.248607   -1.422860   -0.001684
      9          7           0        0.077665    2.198457    0.001005
     10          8           0        2.369738    0.812702   -0.002217
     11          1           0       -2.365807   -2.478373    0.000335
     12          1           0       -3.670205   -0.347207   -0.002251
     13          1           0       -2.518761    1.823602   -0.002008
     14          1           0        0.114026   -2.372875    0.002970
     15          1           0        3.204734   -1.270269   -0.005186
     16          1           0        1.088516    2.238456    0.002555
     17          1           0       -0.471330    3.039685   -0.000032
 ---------------------------------------------------------------------
                    Distance matrix (angstroms):
                    1          2          3          4          5
     1  C    0.000000
     2  C    1.403633   0.000000
     3  C    2.424640   1.381913   0.000000
     4  C    2.835848   2.434643   1.413654   0.000000
     5  C    2.435606   2.795429   2.431028   1.423732   0.000000
     6  C    1.382755   2.397891   2.781161   2.447246   1.407681
     7  C    3.768006   4.258379   3.777582   2.500754   1.463003
     8  O    4.104417   4.955659   4.790795   3.676644   2.360977
     9  N    4.191174   3.664101   2.398079   1.355560   2.432351
    10  O    4.825988   5.080755   4.310706   2.903787   2.397477
    11  H    1.085554   2.168464   3.407514   3.921395   3.419656
    12  H    2.161796   1.087566   2.134269   3.412610   3.882969
    13  H    3.409607   2.145373   1.087876   2.158939   3.416118
    14  H    2.145196   3.388912   3.866114   3.420002   2.144832
    15  H    5.065574   5.865057   5.584738   4.362480   3.169254
    16  H    4.774247   4.475443   3.310147   2.045523   2.620015
    17  H    4.765571   3.968867   2.593246   2.054333   3.340354
                    6          7          8          9         10
     6  C    0.000000
     7  C    2.490434   0.000000
     8  O    2.722070   1.352924   0.000000
     9  N    3.700146   2.879432   4.222195   0.000000
    10  O    3.639994   1.227393   2.238842   2.678418   0.000000
    11  H    2.148981   4.638580   4.733596   5.276674   5.766851
    12  H    3.385287   5.345936   6.015760   4.530667   6.150309
    13  H    3.869025   4.654463   5.767783   2.623348   4.991928
    14  H    1.085057   2.676125   2.336447   4.571477   3.903353
    15  H    3.682856   1.869127   0.968232   4.670188   2.244102
    16  H    4.015083   2.505926   3.840711   1.011643   1.916853
    17  H    4.500140   3.883921   5.226124   1.004521   3.609865
                   11         12         13         14         15
    11  H    0.000000
    12  H    2.498666   0.000000
    13  H    4.304694   2.457282   0.000000
    14  H    2.482077   4.292291   4.953990   0.000000
    15  H    5.700041   6.936630   6.506185   3.281506   0.000000
    16  H    5.846437   5.415819   3.631057   4.713173   4.097510
    17  H    5.834210   4.658739   2.381352   5.444121   5.664731
                   16         17
    16  H    0.000000
    17  H    1.753595   0.000000
 Stoichiometry    C7H7NO2
 Framework group  C1[X(C7H7NO2)]
 Deg. of freedom    45
 Full point group                 C1      NOp   1
 Largest Abelian subgroup         C1      NOp   1
 Largest concise Abelian subgroup C1      NOp   1
[...]
 ! D27   D(7,5,6,1)           -179.9998         -DE/DX =    0.0                 !
 ! D28   D(7,5,6,14)             0.0003         -DE/DX =    0.0                 !
 ! D29   D(4,5,7,8)            179.9997         -DE/DX =    0.0                 !
 ! D30   D(4,5,7,10)            -0.0057         -DE/DX =    0.0                 !
 ! D31   D(6,5,7,8)             -0.0008         -DE/DX =    0.0                 !
 ! D32   D(6,5,7,10)           179.9938         -DE/DX =    0.0                 !
 ! D33   D(5,7,8,15)           179.9965         -DE/DX =    0.0                 !
 ! D34   D(10,7,8,15)            0.0016         -DE/DX =    0.0                 !
 --------------------------------------------------------------------------------
 GradGradGradGradGradGradGradGradGradGradGradGradGradGradGradGradGradGrad

 1\1\ WCSS.PL-BEM-QINLAB\Freq\RAPFD\6-31+G(d,p)\C7H7N1O2\PHZD\22-Jun-20
 24\0\\#N Geom=AllCheck Guess=TCheck SCRF=Check GenChk RAPFD/6-31+G(d,p
 ) Freq\\[No Title]\\0,1\C,-1.8550792675,-1.5212310735,0.0000454409\C,-
 2.5833687489,-0.3210467577,0.0000442296\C,-1.9401862889,0.9022963049,0
 .000041626\C,-0.5287482576,0.9861382901,0.0000402839\C,0.2108182233,-0
 .230587914,0.000047535\C,-0.4734095679,-1.4609323569,0.0000470567\C,1.
 6735381169,-0.1979649784,0.0000440824\O,2.2487518198,-1.4222702989,0.0
 00057471\N,0.0786579697,2.1983499958,0.000048456\O,2.3681648629,0.8143
 65511,-0.0000643626\H,-2.3662380326,-2.4788284487,0.0000435192\H,-3.67
 05686408,-0.3472343208,0.0000429198\H,-2.5188211195,1.8234705467,0.000
 0403566\H,0.1138232633,-2.373303603,0.0000489557\H,3.2049635456,-1.269
 6362638,-0.00000332\H,1.0895908541,2.2378358629,-0.0000145976\H,-0.469
 7557318,3.0400925043,0.0000053471\\Version=ES64L-G09RevE.01\State=1-A\
 HF=-475.8417721\RMSD=5.330e-09\RMSF=2.256e-05\ZeroPoint=0.1327452\Ther
 mal=0.1405918\Dipole=-0.4357936,0.2093271,-0.0000264\DipoleDeriv=-0.56
 97711,0.2690886,-0.0000169,0.196923,-0.1848535,0.0000057,-0.0001033,-0
 .0000633,-0.2009873,0.1677754,0.007058,-0.0000101,-0.2761135,0.4992687
 ,-0.0000289,0.000064,0.0000375,-0.0991701,-0.133382,-0.6462065,-0.0000
 084,-0.0277868,-0.2338627,-0.0000072,-0.0001346,-0.0000852,-0.2042988,
 0.3690084,0.798454,0.000006,0.2995703,1.2936945,-0.0000093,-0.0000263,
 0.0000216,0.1111936,-1.0061819,0.3000039,-0.0000047,-0.3294469,-0.3690
 939,-0.000001,0.0000827,0.000034,-0.0573876,0.5460194,-0.1083425,-0.00
 00112,0.4368086,0.0274739,0.0000235,0.0001144,0.0000911,-0.0946398,2.3
 438553,-0.2929507,-0.0000185,-0.1099762,1.5581261,-0.0000556,-0.000031
 5,-0.0000423,0.3005302,-0.8781623,0.5415666,-0.0000198,0.6365619,-1.07
 47143,0.0000262,-0.0000677,-0.0000382,-0.3721215,-0.4429879,-0.5411957
 ,0.0000048,-0.3231286,-1.2989854,-0.0000187,0.0000367,-0.0000816,-0.55
 33121,-1.2244873,-0.272886,0.0000205,-0.3962822,-0.9183703,0.0000173,0
 .0000821,0.0000724,-0.3768129,0.0219999,-0.060071,0.000019,-0.0705886,
 -0.0595857,0.0000372,-0.0000019,-0.0000054,0.1594513,-0.1008913,-0.004
 4139,0.0000285,-0.0029869,0.0856074,-0.0000018,0.0000021,0.000003,0.13
 41422,0.0260377,0.0460261,-0.000005,0.0801423,-0.0866972,-0.0000003,-0
 .0000091,-0.000002,0.1496404,0.0839515,0.0531858,0.0000057,0.044959,0.
 0116136,-0.0000058,0.0000017,-0.0000008,0.1330367,0.3223765,-0.0817356
 ,0.0000095,-0.1327874,0.2833471,0.0000024,0.0000326,0.0000126,0.342356
 3,0.3501195,-0.0313061,0.000008,-0.0276093,0.2306656,0.0000069,-0.0000
 465,0.0000067,0.3006615,0.1247202,0.0237249,-0.0000072,0.0017411,0.236
 366,0.0000095,0.0000046,0.0000399,0.3277178\Polar=126.5609356,4.192788
 5,114.0207701,0.0001731,-0.0004402,52.7784547\PG=C01 [X(C7H7N1O2)]\NIm
 ag=1\\0.71050688,0.04387039,0.72612753,0.00000042,0.00000075,0.1210238
 8,-0.17867460,0.12198961,0.00000023,0.74395042,0.05777441,-0.27591430,
 -0.00000183,0.01930583,0.69598411,0.00000028,-0.00000011,-0.06197991,0
 .00000025,0.00000057,0.13964307,0.05933991,-0.01731601,-0.00000042,-0.
 18384126,-0.07681238,0.00000042,0.67175698,0.02456478,-0.05572758,0.00
 000102,-0.13726862,-0.33042908,0.00000006,0.00417662,0.77063875,-0.000
 00073,0.00000060,0.00891953,0.00000065,-0.00000191,-0.05620825,-0.0000
 0096,0.00000003,0.11961654,-0.05479766,0.03038057,0.00000025,-0.017876
 50,-0.07953215,0.00000001,-0.29796711,0.03708313,0.00000106,0.69716941
 ,0.02348005,-0.00426636,0.00000082,-0.03720853,0.02104381,-0.00000013,
 -0.01832304,-0.12245714,0.00000103,0.03749699,0.74422803,-0.00000045,0
 .00000021,-0.00489607,-0.00000007,-0.00000067,0.00080591,0.00000054,0.
 00000007,-0.06959400,-0.00000064,-0.00000230,0.16781702,-0.03796063,-0
 .02226777,-0.00000102,-0.00161246,-0.01353479,0.00000067,-0.01306044,0
 .02493022,-0.00000168,-0.18367975,0.08096068,-0.00000098,0.61758350,-0
 .06420215,0.02039389,-0.00000053,0.00597369,-0.05092178,0.00000039,0.0
 4824732,0.02936733,-0.00000043,0.04973769,-0.23413201,0.00000099,0.001
 47126,0.69627321,0.00000078,-0.00000064,0.00898233,-0.00000014,0.00000
 151,-0.00524441,0.00000037,-0.00000040,0.00742586,-0.00000102,0.000000
 98,-0.06621380,0.00000036,-0.00000271,0.12922471,-0.37480375,-0.043239
 85,-0.00000198,-0.03267100,0.07446232,0.00000091,-0.04479994,-0.027409
 08,-0.00000211,0.06828927,-0.00896400,0.00000025,-0.15185238,-0.059604
 37,-0.00000030,0.74300034,0.01914459,-0.12571366,-0.00000041,0.0274420
 7,0.03294097,0.00000008,-0.02203499,-0.01828505,-0.00000056,0.02422659
 ,-0.05077868,0.00000039,-0.09909299,-0.28129317,0.00000028,-0.04048141
 ,0.70422404,-0.00000045,-0.00000018,-0.06266190,-0.00000065,0.00000194
 ,0.00703811,0.00000099,-0.00000120,-0.00363601,-0.00000066,-0.00000121
 ,0.00076162,-0.00000026,0.00000060,-0.05658811,0.00000385,0.00000027,0
 .14133896,0.02051716,-0.00812329,0.00000110,0.00115769,0.01454698,-0.0
 0000060,-0.00906234,-0.00114312,0.00000173,-0.00859860,0.04128890,-0.0
 0000031,-0.21445186,0.00396229,-0.00000177,-0.03585022,-0.02791554,-0.
 00000030,0.74885273,-0.00193950,-0.00852080,-0.00000116,0.00031963,-0.
 00023951,0.00000055,0.00083535,-0.00670073,-0.00000138,0.03417460,0.02
 146400,0.00000012,0.01657434,-0.10430124,0.00000007,-0.03197877,0.0076
 5896,0.00000150,0.15276208,0.81464309,-0.00000034,0.00000011,0.0077452
 8,0.00000016,-0.00000011,-0.00100368,0.00000037,0.00000011,0.00615605,
 -0.00000030,-0.00000193,-0.00083552,0.00000117,-0.00000032,-0.07662630
 ,0.00000072,0.00000078,-0.00410463,-0.00003242,-0.00004056,0.21233434,
 -0.00210269,0.00177500,0.00000016,-0.00066600,-0.00103302,-0.00000002,
 0.00002796,0.00204316,0.,-0.00651299,-0.01024552,0.00000009,-0.0336431
 4,0.04251088,-0.00000031,-0.00397793,0.00366594,-0.00000030,-0.1621440
 9,0.08434456,0.00000133,0.66755381,0.00368808,0.00030622,0.00000086,-0
 .00003887,0.00156428,-0.00000051,-0.00037170,0.00094999,0.00000117,-0.
 00234554,0.00175721,0.00000007,0.02064638,-0.00308883,-0.00000089,-0.0
 0477715,-0.00665635,-0.00000073,0.04366096,-0.23589724,0.00000499,-0.0
 0255577,0.40723930,-0.00000018,0.00000012,-0.00062294,0.00000009,-0.00
 000089,-0.00009446,-0.00000051,0.00000026,-0.00078624,0.00000056,0.000
 00039,0.00247190,-0.00000074,-0.00000072,0.01129408,-0.00000083,-0.000
 00014,0.00074145,0.00000320,0.00000066,-0.06411603,-0.00003273,-0.0000
 1611,0.03597542,0.00949299,-0.00870253,0.00000083,-0.00439826,0.016968
 92,-0.00000076,-0.04003278,-0.05776692,0.00000057,-0.18380641,-0.09567
 500,-0.00000009,0.03124976,0.01703283,-0.00000047,-0.01439490,-0.00184
 972,-0.00000076,-0.02107230,-0.01003968,0.00000114,0.00230172,0.003570
 43,0.00000023,0.87019169,0.00101595,-0.00816799,0.00000004,0.00595882,
 0.00850720,0.00000011,-0.02802479,-0.00995296,-0.00000001,-0.10202471,
 -0.33398628,-0.00000215,0.00382923,-0.05034595,-0.00000041,0.00052657,
 0.00060940,0.00000020,-0.02162311,-0.00625133,0.00000053,0.00353266,-0
 .00272924,0.00000003,-0.05152493,0.82196382,0.00000070,-0.00000077,-0.
 00102754,0.00000038,0.00000170,0.00443358,-0.00000103,-0.00000016,0.01
 064323,0.00000348,0.00000471,-0.03897927,0.00000219,-0.00000033,0.0065
 6604,-0.00000012,-0.00000005,0.00416134,-0.00000145,-0.00000013,-0.001
 15453,0.00000024,-0.00000079,-0.00009272,-0.00002231,-0.00002411,0.014
 59144,-0.00610900,-0.00010869,-0.00000038,-0.00000899,-0.00459935,0.00
 000017,0.00299319,0.00059717,-0.00000023,-0.00000504,-0.01083514,-0.00
 000003,-0.00984359,-0.03213409,0.00000344,-0.00199173,0.00986906,0.000
 00027,-0.30338232,-0.25867899,0.00002828,0.03683929,0.00207863,-0.0000
 0017,-0.00101379,0.01660822,0.00000035,0.29590141,-0.00778959,0.004390
 80,-0.00000005,0.00016473,-0.00763625,0.00000010,0.00653839,0.00366673
 ,-0.00000006,-0.00718430,-0.02394904,-0.00000039,-0.02847391,0.0018891
 3,0.00000228,0.00687397,0.00718743,-0.00000038,-0.24641980,-0.46994286
 ,0.00003876,-0.01712274,-0.10982299,0.00000866,0.02314132,0.00379835,0
 .00000068,0.28398883,0.57860349,0.00000052,-0.00000006,-0.00175923,-0.
 00000015,0.00000081,0.00037609,0.00000007,-0.00000026,-0.00069936,-0.0
 0000017,0.00000129,-0.00077365,0.00000114,0.00000251,0.01992856,0.0000
 0075,-0.00000076,0.00465400,0.00003018,0.00004047,-0.07809035,0.000000
 04,0.00000675,0.02747075,-0.00000096,-0.00000109,0.00257403,-0.0000319
 6,-0.00004902,0.03623646,-0.12156821,-0.11970408,0.00000077,0.01154502
 ,0.01662174,-0.00000071,-0.00145796,0.00301058,0.00000133,-0.00103396,
 0.00081298,0.00000014,-0.00504551,0.00181436,-0.00000079,-0.01045654,-
 0.02959309,-0.00000128,0.00083338,-0.00169133,-0.00000022,-0.00023018,
 0.00030060,0.00000063,0.00040455,-0.00011921,-0.00000046,-0.00102779,-
 0.00026187,-0.00000022,0.12633128,-0.11991335,-0.28298246,0.00000143,-
 0.01507975,-0.01830347,-0.00000154,0.00417634,-0.00231027,0.00000267,0
 .00088093,0.00004788,0.00000031,0.00046831,0.00167362,-0.00000139,0.00
 210825,0.00298472,-0.00000243,0.00045840,0.00000297,-0.00000038,-0.000
 18105,0.00011959,0.00000124,-0.00022800,0.00015383,-0.00000090,-0.0001
 5915,0.00000181,-0.00000061,0.12802824,0.29820854,-0.00000024,-0.00000
 054,-0.03117980,0.,0.00000001,0.00097888,-0.00000010,0.00000004,0.0055
 4277,0.00000008,0.00000007,-0.00043714,0.,-0.00000007,0.00705688,-0.00
 000008,-0.00000005,0.00148776,-0.00000001,-0.00000004,0.00139289,0.,0.
 ,-0.00002659,0.,-0.00000007,-0.00055382,-0.00000004,0.00000002,-0.0005
 9950,0.00000033,0.00000064,0.02374215,-0.01153398,-0.00369875,0.000000
 60,-0.34191086,-0.00700970,-0.00000097,-0.01051422,0.00246397,0.000000
 83,0.00129041,-0.00220590,0.00000023,0.00072147,-0.00002247,-0.0000005
 9,0.00011862,0.00359530,-0.00000070,0.00020879,0.00005565,-0.00000017,
 -0.00019101,0.00006134,0.00000050,-0.00097226,-0.00001792,-0.00000043,
 -0.00017568,-0.00006636,-0.00000023,0.00070479,0.00030739,0.00000006,0
 .36196872,0.02692476,0.00645238,0.,-0.00616245,-0.05979760,0.00000004,
 -0.02837577,0.00349931,-0.00000003,-0.00214469,-0.00506658,-0.00000005
 ,-0.00052765,-0.00108888,0.00000004,0.00308728,-0.00478626,0.,0.000391
 40,-0.00021701,0.,-0.00001387,0.00022883,-0.00000001,-0.00140695,0.000
 67104,0.00000012,-0.00006157,0.00004227,0.,-0.00039093,0.00067835,0.,0
 .00734356,0.05889419,0.,-0.00000006,0.00451289,-0.00000044,-0.00000003
 ,-0.03991695,0.00000015,0.00000002,0.00443516,-0.00000010,-0.00000006,
 0.00857907,0.00000003,-0.00000003,-0.00070278,-0.00000003,0.00000008,0
 .00625030,-0.00000009,0.00000009,-0.00114067,-0.00000001,-0.00000004,0
 .00019903,0.00000004,-0.00000001,-0.00017809,-0.00000001,-0.00000003,0
 .00013415,0.00000001,0.00000004,-0.00330573,0.00000043,-0.00000004,0.0
 2621582,-0.00044477,-0.00316607,0.00000057,0.01160470,-0.01407858,-0.0
 0000022,-0.13969992,0.12731452,0.00000061,-0.01226257,0.02867666,0.,-0
 .00487832,-0.00216000,-0.00000032,-0.00113399,-0.00117907,-0.00000078,
 0.00040041,0.00170672,-0.00000012,-0.00084225,0.00004783,0.00000028,0.
 00190989,0.00097991,-0.00000029,-0.00009471,-0.00038107,-0.00000010,0.
 00042962,-0.00074263,0.00000002,0.00082681,0.00008798,-0.00000006,0.14
 550310,-0.00437927,-0.00269329,-0.00000090,0.01750530,-0.01950383,0.00
 000054,0.12758441,-0.25732731,-0.00000085,-0.00393123,0.00159462,0.000
 00003,-0.00023437,0.00131832,0.00000048,-0.00079926,0.00012707,0.00000
 124,-0.00102587,-0.00017914,0.00000018,0.00017388,-0.00004757,-0.00000
 047,-0.00096951,0.00229841,0.00000021,0.00032064,0.00039837,0.00000019
 ,0.00088647,-0.00103378,-0.00000003,-0.00033829,0.00064524,0.00000004,
 -0.13564812,0.27425116,-0.00000012,0.00000007,0.00728794,-0.00000009,-
 0.00000019,0.00224990,-0.00000012,0.00000037,-0.03211581,-0.00000009,-
 0.00000015,0.00388871,-0.00000009,-0.00000004,0.00475557,-0.00000013,0
 .00000011,-0.00069399,0.00000005,-0.00000002,0.00006813,0.00000001,0.0
 0000006,-0.00005240,0.00000025,-0.00000005,-0.00276455,-0.00000003,-0.
 00000007,0.00000151,0.00000013,0.00000029,0.00061756,0.00000018,-0.000
 00002,-0.00461278,0.00000013,-0.00000047,0.02227189,-0.01035201,0.0268
 8282,-0.00000022,-0.00576116,-0.00118579,-0.00000005,-0.00044378,-0.00
 099232,-0.00000013,-0.00149410,-0.00316794,0.00000005,0.01101749,-0.01
 295595,0.00000009,-0.14142941,0.13317052,-0.00000011,0.00159652,-0.001
 73545,0.00000003,-0.00503290,-0.00086270,-0.00000006,0.00052643,-0.000
 72719,0.,0.00019055,0.00104446,-0.00000008,0.00071269,-0.00026775,0.00
 000003,-0.00064477,0.00133455,0.00000004,0.00005978,0.00009143,0.00000
 003,0.15097678,-0.00334252,0.00608438,0.00000009,-0.00104770,0.0011348
 7,0.00000001,-0.00044050,0.00021132,0.00000015,-0.00422542,-0.00237109
 ,-0.00000014,0.01511166,-0.01861958,0.00000011,0.13064329,-0.26566904,
 0.00000029,0.00265529,-0.00293954,-0.00000002,0.00011315,0.00162406,0.
 ,0.00114930,-0.00087099,0.00000010,-0.00028394,0.00094938,-0.00000005,
 0.00024204,0.00074273,0.,-0.00027073,0.00019041,-0.00000003,0.00010043
 ,-0.00000382,-0.00000002,-0.14039742,0.27918732,0.00000015,0.00000005,
 0.00548349,-0.00000003,0.00000009,0.00769072,-0.00000009,-0.00000002,-
 0.00089043,0.00000005,0.00000007,0.00566739,0.00000041,0.00000016,0.00
 330295,-0.00000059,0.00000014,-0.03924205,-0.00000026,-0.00000005,-0.0
 0366600,-0.00000009,-0.00000007,0.00050401,-0.00000003,-0.00000004,0.0
 0032813,0.00000014,0.00000018,0.00052865,0.00000001,-0.00000001,-0.004
 59875,-0.00000003,0.,-0.00021960,0.00000002,-0.00000002,-0.00079891,0.
 00000035,-0.00000049,0.02619700,0.00052621,-0.00027480,-0.00000024,0.0
 0008650,0.00032665,0.00000010,-0.00016169,0.00036260,-0.00000031,-0.00
 088004,-0.00009916,0.00000002,0.00252428,0.00307434,0.00000046,0.00034
 624,-0.00023985,0.00000036,-0.03317147,0.00595902,0.00000121,-0.490119
 27,-0.05872384,0.00002968,0.00048906,-0.00060922,-0.00000005,0.0025356
 2,-0.00857152,0.00000021,0.00001655,0.00002178,-0.00000001,0.00003242,
 0.00000150,0.00000002,-0.00006124,-0.00003153,0.,-0.00010483,-0.000028
 98,0.,0.51848331,-0.00026816,0.00042082,-0.00000019,-0.00017043,-0.000
 16594,0.00000017,0.00011137,-0.00047697,-0.00000025,0.00159653,0.00089
 177,0.00000004,0.00111908,-0.00681619,0.00000049,-0.00089700,-0.000608
 46,0.00000015,0.05545325,0.00743885,-0.00000324,-0.10743561,-0.0606000
 7,0.00000722,-0.00058676,0.00026145,0.00000012,-0.00794557,0.00105723,
 0.00000035,-0.00003435,-0.00002089,0.,-0.00004221,0.00003509,-0.000000
 01,0.00013872,0.00001606,-0.00000004,0.00016585,0.00070654,0.00000003,
 0.05819913,0.05858129,0.00000009,-0.00000002,0.00019122,-0.00000003,0.
 00000031,0.00005403,0.00000011,-0.00000008,-0.00032722,-0.00000016,0.0
 0000009,0.00099532,-0.00000002,0.00000041,0.00401176,0.00000018,-0.000
 00009,-0.00044949,0.00000030,-0.00000027,0.00349683,0.00003160,0.00000
 455,-0.01361941,-0.00000019,-0.00000008,-0.00005027,-0.00000016,0.0000
 0008,-0.00574322,-0.00000019,-0.00000039,-0.00000907,-0.00000017,0.000
 00001,-0.00002775,-0.00000007,0.00000013,-0.00001727,0.00000004,0.0000
 0006,-0.00029364,-0.00003145,-0.00000468,0.01171867,-0.00238080,0.0022
 9520,-0.00000075,-0.00067233,-0.00343181,0.00000042,0.00613695,0.00154
 024,-0.00000078,-0.01293046,-0.01241181,0.00000056,-0.00670557,0.00150
 107,0.00000016,0.00132084,0.00167030,0.00000089,0.01763342,0.01221690,
 -0.00000112,-0.00167249,-0.00528655,0.00000018,-0.44832188,-0.01726070
 ,0.00002652,-0.01286200,-0.01022698,0.00000087,-0.00010115,0.00003095,
 0.,0.00008462,-0.00009279,0.00000004,-0.00014715,0.00008478,-0.0000000
 3,0.00028241,0.00025958,-0.00000002,-0.00062146,0.00077050,0.00000011,
 0.46090211,0.00211272,-0.00121634,0.00000013,-0.00153668,0.00305868,-0
 .00000020,-0.00297502,-0.00746493,0.00000017,-0.03266163,0.00984569,0.
 00000212,0.00463458,0.00053896,-0.00000004,-0.00165032,-0.00144659,-0.
 00000014,-0.00934623,-0.01549810,0.00000107,0.00058834,0.00441690,-0.0
 0000017,-0.01986431,-0.07488178,0.00000296,0.00210539,0.00847690,-0.00
 000060,0.00013676,-0.00002294,0.,-0.00022116,-0.00043090,0.00000003,-0
 .00009003,0.00015807,0.00000003,-0.00010074,-0.00004990,0.,0.00052022,
 -0.00064480,-0.00000004,0.03257432,0.06824981,-0.00000040,0.00000033,0
 .00012405,-0.00000007,-0.00000120,0.00201336,-0.00000011,0.00000014,0.
 00394130,-0.00000209,-0.00000113,-0.00420972,-0.00000058,-0.00000006,-
 0.00111021,-0.00000064,-0.00000006,-0.00066538,0.00000013,-0.00000029,
 -0.00032381,0.00000015,0.00000070,0.00134239,0.00003270,0.00000491,-0.
 00206742,0.00000010,-0.00000021,-0.00501091,0.00000053,0.00000105,-0.0
 0014823,0.00000041,-0.00000005,-0.00040011,0.00000029,-0.00000042,-0.0
 0076955,-0.00000002,0.,-0.00002859,-0.00000005,-0.00000014,0.00008994,
 -0.00002741,-0.00000298,0.01274201,0.00034494,-0.00059175,0.00000008,-
 0.00025092,0.00121070,0.00000009,0.00078645,-0.00350693,0.00000015,0.0
 1509611,-0.01358021,0.00000069,-0.00036284,-0.00424670,0.00000004,0.00
 028651,-0.00039769,-0.00000013,-0.00346689,-0.00288513,0.00000029,0.00
 041217,0.00090787,-0.00000013,-0.20255353,0.18948043,-0.00000771,-0.00
 194543,0.00474643,0.00000011,-0.00005656,0.00009108,-0.00000003,-0.000
 01385,0.00000564,-0.00000002,-0.00116939,0.00071054,-0.00000008,-0.000
 09968,-0.00023753,0.,0.00007980,-0.00017434,0.00000001,0.00005494,0.02
 577378,-0.00000296,0.19285818,-0.00074120,0.00102677,-0.00000009,-0.00
 014667,-0.00132217,-0.00000011,0.00300441,0.00279858,-0.00000033,0.018
 47264,-0.02386584,0.00000136,-0.00561426,-0.00084683,0.00000024,0.0020
 9953,-0.00049533,0.00000009,0.00041742,-0.00052036,0.00000004,-0.00015
 999,0.00063591,-0.00000006,0.18675151,-0.35107698,0.00001666,-0.000761
 45,0.00088925,0.00000007,-0.00005891,0.00005977,0.00000002,0.00006628,
 0.00005010,0.00000003,-0.00160719,-0.00001856,0.00000013,-0.00029639,-
 0.00030707,-0.00000001,0.00011366,-0.00007580,0.00000001,-0.00423321,0
 .00691128,-0.00000060,-0.19730619,0.36615726,-0.00000003,0.00000013,-0
 .00014324,-0.00000010,-0.00000012,-0.00083599,0.00000033,0.00000001,-0
 .00242312,-0.00000028,-0.00000254,-0.00504775,-0.00000061,0.00000018,0
 .00393688,0.00000016,0.,0.00160802,0.00000050,0.00000044,-0.00013199,-
 0.00000016,-0.00000002,-0.00058823,-0.00001022,0.00002221,0.00357044,0
 .00000028,-0.00000055,0.00077202,0.,-0.00000002,0.00003975,0.00000006,
 -0.00000002,0.00017805,0.00000004,0.00000010,0.00068406,0.00000001,-0.
 00000005,0.00003564,0.00000005,0.,-0.00002042,0.00000037,-0.00000233,-
 0.00551911,0.00000959,-0.00001744,0.00388499\\-0.00001245,-0.00002663,
 0.00000033,-0.00002978,0.00000372,0.00000007,-0.00004658,0.00001018,0.
 00000016,0.00001740,0.00004049,-0.00000067,0.00003715,-0.00002798,-0.0
 0000329,0.00001306,-0.00003931,-0.00000100,0.00002434,0.00006070,0.000
 01354,0.00000934,-0.00009205,-0.00000354,0.00000670,0.00002603,-0.0000
 0012,-0.00002480,0.00002302,-0.00000553,-0.00000404,0.00000109,0.00000
 002,-0.00000432,-0.00000496,-0.00000006,0.00000016,-0.00000231,0.00000
 003,-0.00000345,-0.00000044,-0.00000003,-0.00000888,-0.00000358,-0.000
 00021,0.00001984,0.00002095,0.00000003,0.00000631,0.00001109,0.0000002
 6\\\@


 AN AIRPLANE IS A COLLECTION OF SPARE PARTS
 FLYING IN CLOSE FORMATION.
 Job cpu time:       0 days  0 hours 22 minutes  2.9 seconds.
 File lengths (MBytes):  RWF=     93 Int=      0 D2E=      0 Chk=      5 Scr=      1
 Normal termination of Gaussian 09 at Sat Jun 22 16:59:58 2024.
