 Entering Gaussian System, Link 0=g09
 Input=B2PLYPAnthranilicyang.gjf
 Output=B2PLYPAnthranilicyang.log
 Initial command:
 /home/c612/g09E/g09/l1.exe "/mnt/ja_sm883/scratch/Gau-844225.inp" -scrdir="/mnt/ja_sm883/scratch/"
 Default is to use a total of  18 processors:
                               18 via shared-memory
                                1 via Linda
 Entering Link 1 = /home/c612/g09E/g09/l1.exe PID=    844227.
  
 Copyright (c) 1988,1990,1992,1993,1995,1998,2003,2009,2015,
            Gaussian, Inc.  All Rights Reserved.
  
 This is part of the Gaussian(R) 09 program.  It is based on
 the Gaussian(R) 03 system (copyright 2003, Gaussian, Inc.),
 the Gaussian(R) 98 system (copyright 1998, Gaussian, Inc.),
 the Gaussian(R) 94 system (copyright 1995, Gaussian, Inc.),
 the Gaussian 92(TM) system (copyright 1992, Gaussian, Inc.),
 the Gaussian 90(TM) system (copyright 1990, Gaussian, Inc.),
 the Gaussian 88(TM) system (copyright 1988, Gaussian, Inc.),
 the Gaussian 86(TM) system (copyright 1986, Carnegie Mellon
 University), and the Gaussian 82(TM) system (copyright 1983,
 Carnegie Mellon University). Gaussian is a federally registered
 trademark of Gaussian, Inc.
  
 This software contains proprietary and confidential information,
 including trade secrets, belonging to Gaussian, Inc.
  
 This software is provided under written license and may be
 used, copied, transmitted, or stored only in accord with that
 written license.
  
 The following legend is applicable only to US Government
 contracts under FAR:
  
                    RESTRICTED RIGHTS LEGEND
  
 Use, reproduction and disclosure by the US Government is
 subject to restrictions as set forth in subparagraphs (a)
 and (c) of the Commercial Computer Software - Restricted
 Rights clause in FAR 52.227-19.
  
 Gaussian, Inc.
 340 Quinnipiac St., Bldg. 40, Wallingford CT 06492
  
  
 ---------------------------------------------------------------
 Warning -- This program may not be used in any manner that
 competes with the business of Gaussian, Inc. or will provide
 assistance to any competitor of Gaussian, Inc.  The licensee
 of this program is prohibited from giving any competitor of
 Gaussian, Inc. access to this program.  By using this program,
 the user acknowledges that Gaussian, Inc. is engaged in the
 business of creating and licensing software in the field of
 computational chemistry and represents and warrants to the
 licensee that it is not a competitor of Gaussian, Inc. and that
 it will not use this program in any manner prohibited above.
 ---------------------------------------------------------------
  

 Cite this work as:
 Gaussian 09, Revision E.01,
 M. J. Frisch, G. W. Trucks, H. B. Schlegel, G. E. Scuseria, 
 M. A. Robb, J. R. Cheeseman, G. Scalmani, V. Barone, B. Mennucci, 
 G. A. Petersson, H. Nakatsuji, M. Caricato, X. Li, H. P. Hratchian, 
 A. F. Izmaylov, J. Bloino, G. Zheng, J. L. Sonnenberg, M. Hada, 
 M. Ehara, K. Toyota, R. Fukuda, J. Hasegawa, M. Ishida, T. Nakajima, 
 Y. Honda, O. Kitao, H. Nakai, T. Vreven, J. A. Montgomery, Jr., 
 J. E. Peralta, F. Ogliaro, M. Bearpark, J. J. Heyd, E. Brothers, 
 K. N. Kudin, V. N. Staroverov, T. Keith, R. Kobayashi, J. Normand, 
 K. Raghavachari, A. Rendell, J. C. Burant, S. S. Iyengar, J. Tomasi, 
 M. Cossi, N. Rega, J. M. Millam, M. Klene, J. E. Knox, J. B. Cross, 
 V. Bakken, C. Adamo, J. Jaramillo, R. Gomperts, R. E. Stratmann, 
 O. Yazyev, A. J. Austin, R. Cammi, C. Pomelli, J. W. Ochterski, 
 R. L. Martin, K. Morokuma, V. G. Zakrzewski, G. A. Voth, 
 P. Salvador, J. J. Dannenberg, S. Dapprich, A. D. Daniels, 
 O. Farkas, J. B. Foresman, J. V. Ortiz, J. Cioslowski, 
 and D. J. Fox, Gaussian, Inc., Wallingford CT, 2013.
 
 ******************************************
 Gaussian 09:  ES64L-G09RevE.01 30-Nov-2015
                15-Dec-2024 
 ******************************************
 %chk=B2PLYPAnthranilicyang.chk
 -----------------------------
 # opt freq B2PLYP/6-31+g(d,p)
 -----------------------------
 1/18=20,19=15,38=1/1,3;
 2/9=110,12=2,17=6,18=5,40=1/2;
 3/5=1,6=6,7=111,11=9,16=1,25=1,30=1,71=1,74=-47/1,2,3;
 4//1;
 5/5=2,38=5/2;
 8/6=4,10=2/1;
 9/15=2,16=-3/6;
 10/5=1/2;
 6/7=2,8=2,9=2,10=2/1;
 7/12=2/1,2,3,16;
 1/18=20,19=15/3(2);
 2/9=110/2;
 99//99;
 2/9=110/2;
 3/5=1,6=6,7=111,11=9,16=1,25=1,30=1,71=1,74=-47/1,2,3;
 4/5=5,16=3,69=1/1;
 5/5=2,38=5/2;
 8/6=4,10=2/1;
 9/15=2,16=-3/6;
 10/5=1/2;
 7/12=2/1,2,3,16;
 1/18=20,19=15/3(-8);
 2/9=110/2;
 6/7=2,8=2,9=2,10=2/1;
 99//99;
 ----------
 [No Title]
 ----------
 Symbolic Z-matrix:
 Charge =  1 Multiplicity = 1
 C                     1.93276  -1.47123   0.00002 
 C                     2.61353  -0.25624  0. 
 C                     1.90767   0.94823  -0.00001 
 C                     0.52532   0.90876   0.00001 
 C                    -0.18261  -0.30052   0.00004 
 C                     0.54078  -1.49551   0.00004 
 C                    -1.67045  -0.30089   0.00006 
 O                    -2.21126  -1.49852  -0.00008 
 N                    -0.24055   2.17222   0.00001 
 O                    -2.33903   0.72943  -0.00004 
 H                     2.48678  -2.40327   0.00002 
 H                     3.69798  -0.23777  -0.00002 
 H                     2.43642   1.89748  -0.00002 
 H                     0.00226  -2.43677   0.00006 
 H                    -3.18137  -1.42286  -0.00018 
 H                    -0.04096   2.73807  -0.83031 
 H                    -1.27588   1.87871  -0.00006 
 H                    -0.04107   2.73802   0.83039 
 

 GradGradGradGradGradGradGradGradGradGradGradGradGradGradGradGradGradGrad
 Berny optimization.
 Initialization pass.
                           ----------------------------
                           !    Initial Parameters    !
                           ! (Angstroms and Degrees)  !
 --------------------------                            --------------------------
 ! Name  Definition              Value          Derivative Info.                !
 --------------------------------------------------------------------------------
 ! R1    R(1,2)                  1.3927         estimate D2E/DX2                !
 ! R2    R(1,6)                  1.3922         estimate D2E/DX2                !
 ! R3    R(1,11)                 1.0843         estimate D2E/DX2                !
 ! R4    R(2,3)                  1.3961         estimate D2E/DX2                !
 ! R5    R(2,12)                 1.0846         estimate D2E/DX2                !
 ! R6    R(3,4)                  1.3829         estimate D2E/DX2                !
 ! R7    R(3,13)                 1.0866         estimate D2E/DX2                !
 ! R8    R(4,5)                  1.4013         estimate D2E/DX2                !
 ! R9    R(4,9)                  1.4775         estimate D2E/DX2                !
 ! R10   R(5,6)                  1.3969         estimate D2E/DX2                !
 ! R11   R(5,7)                  1.4878         estimate D2E/DX2                !
 ! R12   R(6,14)                 1.0844         estimate D2E/DX2                !
 ! R13   R(7,8)                  1.3141         estimate D2E/DX2                !
 ! R14   R(7,10)                 1.2282         estimate D2E/DX2                !
 ! R15   R(8,15)                 0.9731         estimate D2E/DX2                !
 ! R16   R(9,16)                 1.0244         estimate D2E/DX2                !
 ! R17   R(9,17)                 1.0761         estimate D2E/DX2                !
 ! R18   R(9,18)                 1.0244         estimate D2E/DX2                !
 ! A1    A(2,1,6)              120.2616         estimate D2E/DX2                !
 ! A2    A(2,1,11)             120.0102         estimate D2E/DX2                !
 ! A3    A(6,1,11)             119.7282         estimate D2E/DX2                !
 ! A4    A(1,2,3)              120.3663         estimate D2E/DX2                !
 ! A5    A(1,2,12)             120.238          estimate D2E/DX2                !
 ! A6    A(3,2,12)             119.3957         estimate D2E/DX2                !
 ! A7    A(2,3,4)              118.7359         estimate D2E/DX2                !
 ! A8    A(2,3,13)             120.5099         estimate D2E/DX2                !
 ! A9    A(4,3,13)             120.7542         estimate D2E/DX2                !
 ! A10   A(3,4,5)              121.981          estimate D2E/DX2                !
 ! A11   A(3,4,9)              119.5873         estimate D2E/DX2                !
 ! A12   A(5,4,9)              118.4317         estimate D2E/DX2                !
 ! A13   A(4,5,6)              118.4657         estimate D2E/DX2                !
 ! A14   A(4,5,7)              120.3595         estimate D2E/DX2                !
 ! A15   A(6,5,7)              121.1748         estimate D2E/DX2                !
 ! A16   A(1,6,5)              120.1895         estimate D2E/DX2                !
 ! A17   A(1,6,14)             120.7746         estimate D2E/DX2                !
 ! A18   A(5,6,14)             119.0359         estimate D2E/DX2                !
 ! A19   A(5,7,8)              114.3165         estimate D2E/DX2                !
 ! A20   A(5,7,10)             122.9659         estimate D2E/DX2                !
 ! A21   A(8,7,10)             122.7175         estimate D2E/DX2                !
 ! A22   A(7,8,15)             109.8433         estimate D2E/DX2                !
 ! A23   A(4,9,16)             111.7998         estimate D2E/DX2                !
 ! A24   A(4,9,17)             105.3954         estimate D2E/DX2                !
 ! A25   A(4,9,18)             111.8            estimate D2E/DX2                !
 ! A26   A(16,9,17)            109.7579         estimate D2E/DX2                !
 ! A27   A(16,9,18)            108.299          estimate D2E/DX2                !
 ! A28   A(17,9,18)            109.7569         estimate D2E/DX2                !
 ! D1    D(6,1,2,3)              0.0            estimate D2E/DX2                !
 ! D2    D(6,1,2,12)          -179.9999         estimate D2E/DX2                !
 ! D3    D(11,1,2,3)           179.9999         estimate D2E/DX2                !
 ! D4    D(11,1,2,12)            0.0            estimate D2E/DX2                !
 ! D5    D(2,1,6,5)             -0.0002         estimate D2E/DX2                !
 ! D6    D(2,1,6,14)          -179.9999         estimate D2E/DX2                !
 ! D7    D(11,1,6,5)           179.9999         estimate D2E/DX2                !
 ! D8    D(11,1,6,14)            0.0001         estimate D2E/DX2                !
 ! D9    D(1,2,3,4)             -0.0001         estimate D2E/DX2                !
 ! D10   D(1,2,3,13)           179.9999         estimate D2E/DX2                !
 ! D11   D(12,2,3,4)           179.9999         estimate D2E/DX2                !
 ! D12   D(12,2,3,13)           -0.0002         estimate D2E/DX2                !
 ! D13   D(2,3,4,5)              0.0003         estimate D2E/DX2                !
 ! D14   D(2,3,4,9)           -179.9998         estimate D2E/DX2                !
 ! D15   D(13,3,4,5)          -179.9997         estimate D2E/DX2                !
 ! D16   D(13,3,4,9)             0.0003         estimate D2E/DX2                !
 ! D17   D(3,4,5,6)             -0.0005         estimate D2E/DX2                !
 ! D18   D(3,4,5,7)           -180.0            estimate D2E/DX2                !
 ! D19   D(9,4,5,6)            179.9996         estimate D2E/DX2                !
 ! D20   D(9,4,5,7)              0.0001         estimate D2E/DX2                !
 ! D21   D(3,4,9,16)            60.8012         estimate D2E/DX2                !
 ! D22   D(3,4,9,17)           179.9952         estimate D2E/DX2                !
 ! D23   D(3,4,9,18)           -60.8118         estimate D2E/DX2                !
 ! D24   D(5,4,9,16)          -119.1988         estimate D2E/DX2                !
 ! D25   D(5,4,9,17)            -0.0048         estimate D2E/DX2                !
 ! D26   D(5,4,9,18)           119.1882         estimate D2E/DX2                !
 ! D27   D(4,5,6,1)              0.0004         estimate D2E/DX2                !
 ! D28   D(4,5,6,14)          -179.9998         estimate D2E/DX2                !
 ! D29   D(7,5,6,1)            179.9999         estimate D2E/DX2                !
 ! D30   D(7,5,6,14)            -0.0003         estimate D2E/DX2                !
 ! D31   D(4,5,7,8)            179.992          estimate D2E/DX2                !
 ! D32   D(4,5,7,10)             0.0051         estimate D2E/DX2                !
 ! D33   D(6,5,7,8)             -0.0075         estimate D2E/DX2                !
 ! D34   D(6,5,7,10)          -179.9944         estimate D2E/DX2                !
 ! D35   D(5,7,8,15)          -179.9925         estimate D2E/DX2                !
 ! D36   D(10,7,8,15)           -0.0055         estimate D2E/DX2                !
 --------------------------------------------------------------------------------
 Trust Radius=3.00D-01 FncErr=1.00D-07 GrdErr=1.00D-07
 Number of steps in this run=     92 maximum allowed number of steps=    108.
 GradGradGradGradGradGradGradGradGradGradGradGradGradGradGradGradGradGrad

                          Input orientation:                          
 ---------------------------------------------------------------------
 Center     Atomic      Atomic             Coordinates (Angstroms)
 Number     Number       Type             X           Y           Z
 ---------------------------------------------------------------------
      1          6           0        1.932763   -1.471226    0.000021
      2          6           0        2.613527   -0.256240   -0.000002
      3          6           0        1.907673    0.948231   -0.000005
      4          6           0        0.525320    0.908758    0.000014
      5          6           0       -0.182612   -0.300522    0.000042
      6          6           0        0.540781   -1.495509    0.000041
      7          6           0       -1.670450   -0.300889    0.000061
      8          8           0       -2.211260   -1.498517   -0.000080
      9          7           0       -0.240547    2.172215    0.000006
     10          8           0       -2.339035    0.729426   -0.000038
     11          1           0        2.486781   -2.403274    0.000022
     12          1           0        3.697984   -0.237768   -0.000019
     13          1           0        2.436421    1.897478   -0.000021
     14          1           0        0.002258   -2.436767    0.000060
     15          1           0       -3.181374   -1.422864   -0.000178
     16          1           0       -0.040956    2.738069   -0.830310
     17          1           0       -1.275878    1.878709   -0.000062
     18          1           0       -0.041066    2.738016    0.830386
 ---------------------------------------------------------------------
                    Distance matrix (angstroms):
                    1          2          3          4          5
     1  C    0.000000
     2  C    1.392706   0.000000
     3  C    2.419587   1.396059   0.000000
     4  C    2.764999   2.391198   1.382916   0.000000
     5  C    2.417718   2.796490   2.434887   1.401259   0.000000
     6  C    1.392194   2.414967   2.800046   2.404317   1.396886
     7  C    3.788513   4.284210   3.789890   2.506921   1.487838
     8  O    4.144113   4.982150   4.790844   3.644701   2.355972
     9  N    4.242398   3.747417   2.472445   1.477456   2.473416
    10  O    4.805323   5.049694   4.252341   2.869963   2.389760
    11  H    1.084274   2.150772   3.401169   3.849271   3.398121
    12  H    2.153468   1.084614   2.147512   3.373473   3.881103
    13  H    3.406147   2.160988   1.086575   2.151714   3.419143
    14  H    2.158499   3.401974   3.884433   3.386168   2.144229
    15  H    5.114366   5.911166   5.614311   4.379046   3.201910
    16  H    4.722624   4.086756   2.773100   2.087219   3.153187
    17  H    4.638690   4.436832   3.316743   2.045756   2.438089
    18  H    4.722629   4.086805   2.773168   2.087222   3.153129
                    6          7          8          9         10
     6  C    0.000000
     7  C    2.513297   0.000000
     8  O    2.752043   1.314073   0.000000
     9  N    3.750023   2.856723   4.166291   0.000000
    10  O    3.639186   1.228232   2.231604   2.546624   0.000000
    11  H    2.147313   4.658604   4.784368   5.326670   5.753461
    12  H    3.398506   5.368805   6.042239   4.617363   6.114005
    13  H    3.886620   4.658241   5.756190   2.691029   4.916231
    14  H    1.084423   2.712919   2.404158   4.615373   3.937821
    15  H    3.722864   1.881946   0.973059   4.644680   2.311252
    16  H    4.353284   3.546834   4.831994   1.024428   3.163094
    17  H    3.832179   2.215025   3.504368   1.076130   1.565616
    18  H    4.353246   3.546727   4.831938   1.024429   3.163021
                   11         12         13         14         15
    11  H    0.000000
    12  H    2.481215   0.000000
    13  H    4.301047   2.480084   0.000000
    14  H    2.484749   4.300464   4.970999   0.000000
    15  H    5.752320   6.980689   6.525664   3.341184   0.000000
    16  H    5.788982   4.850223   2.744698   5.241213   5.278703
    17  H    5.700262   5.405440   3.712346   4.500774   3.811994
    18  H    5.788988   4.850295   2.744817   5.241154   5.278664
                   16         17         18
    16  H    0.000000
    17  H    1.718384   0.000000
    18  H    1.660696   1.718375   0.000000
 Stoichiometry    C7H8NO2(1+)
 Framework group  C1[X(C7H8NO2)]
 Deg. of freedom    48
 Full point group                 C1      NOp   1
 Largest Abelian subgroup         C1      NOp   1
 Largest concise Abelian subgroup C1      NOp   1
                         Standard orientation:                         
 ---------------------------------------------------------------------
 Center     Atomic      Atomic             Coordinates (Angstroms)
 Number     Number       Type             X           Y           Z
 ---------------------------------------------------------------------
      1          6           0        1.932763   -1.471226    0.000021
      2          6           0        2.613527   -0.256240   -0.000002
      3          6           0        1.907673    0.948231   -0.000005
      4          6           0        0.525320    0.908758    0.000014
      5          6           0       -0.182612   -0.300522    0.000042
      6          6           0        0.540781   -1.495509    0.000041
      7          6           0       -1.670450   -0.300889    0.000061
      8          8           0       -2.211260   -1.498517   -0.000080
      9          7           0       -0.240547    2.172215    0.000006
     10          8           0       -2.339035    0.729426   -0.000038
     11          1           0        2.486781   -2.403274    0.000022
     12          1           0        3.697984   -0.237768   -0.000019
     13          1           0        2.436421    1.897478   -0.000021
     14          1           0        0.002258   -2.436767    0.000060
     15          1           0       -3.181374   -1.422864   -0.000178
     16          1           0       -0.040956    2.738069   -0.830310
     17          1           0       -1.275878    1.878709   -0.000062
     18          1           0       -0.041066    2.738016    0.830386
 ---------------------------------------------------------------------
 Rotational constants (GHZ):      2.2510583      1.2124832      0.7914590
 Standard basis: 6-31+G(d,p) (6D, 7F)
 There are   230 symmetry adapted cartesian basis functions of A   symmetry.
 There are   230 symmetry adapted basis functions of A   symmetry.
   230 basis functions,   376 primitive gaussians,   230 cartesian basis functions
    36 alpha electrons       36 beta electrons
       nuclear repulsion energy       516.0160865369 Hartrees.
 NAtoms=   18 NActive=   18 NUniq=   18 SFac= 1.00D+00 NAtFMM=   60 NAOKFM=F Big=F
 Integral buffers will be    131072 words long.
 Regular integral format.
 Two-electron integral symmetry is turned on.
 One-electron integrals computed using PRISM.
 NBasis=   230 RedAO= T EigKep=  2.22D-06  NBF=   230
 NBsUse=   230 1.00D-06 EigRej= -1.00D+00 NBFU=   230
 ExpMin= 4.38D-02 ExpMax= 5.48D+03 ExpMxC= 8.25D+02 IAcc=2 IRadAn=         4 AccDes= 0.00D+00
 Harris functional with IExCor=  419 and IRadAn=       4 diagonalized for initial guess.
 HarFok:  IExCor=  419 AccDes= 0.00D+00 IRadAn=         4 IDoV= 1 UseB2=F ITyADJ=14
 ICtDFT=  3500011 ScaDFX=  1.000000  1.000000  1.000000  1.000000
 FoFCou: FMM=F IPFlag=           0 FMFlag=      100000 FMFlg1=           0
         NFxFlg=           0 DoJE=T BraDBF=F KetDBF=T FulRan=T
         wScrn=  0.000000 ICntrl=     500 IOpCl=  0 I1Cent=   200000004 NGrid=           0
         NMat0=    1 NMatS0=      1 NMatT0=    0 NMatD0=    1 NMtDS0=    0 NMtDT0=    0
 Petite list used in FoFCou.
 Keep R1 ints in memory in canonical form, NReq=359209085.
 Requested convergence on RMS density matrix=1.00D-08 within 128 cycles.
 Requested convergence on MAX density matrix=1.00D-06.
 Requested convergence on             energy=1.00D-06.
 No special actions if energy rises.
 SCF Done:  E(RB2PLYP) =  -475.625670540     A.U. after   16 cycles
            NFock= 16  Conv=0.20D-08     -V/T= 2.0067
 DoSCS=T DFT=T ScalE2(SS,OS)=  0.270000  0.270000
 ExpMin= 4.38D-02 ExpMax= 5.48D+03 ExpMxC= 8.25D+02 IAcc=3 IRadAn=         5 AccDes= 0.00D+00
 HarFok:  IExCor=  205 AccDes= 0.00D+00 IRadAn=         5 IDoV=-2 UseB2=F ITyADJ=14
 ICtDFT= 12500011 ScaDFX=  1.000000  1.000000  1.000000  1.000000
 Range of M.O.s used for correlation:    11   230
 NBasis=   230 NAE=    36 NBE=    36 NFC=    10 NFV=     0
 NROrb=    220 NOA=    26 NOB=    26 NVA=   194 NVB=   194

 **** Warning!!: The largest alpha MO coefficient is  0.16451575D+03

 DoSCS=T DFT=T ScalE2(SS,OS)=  0.270000  0.270000
 Fully direct method using O(ONN) memory.
 JobTyp=1 Pass  1:  I=  11 to  17 NPSUse= 18 ParTrn=T ParDer=T DoDerP=T.
 JobTyp=1 Pass  2:  I=  18 to  24 NPSUse= 18 ParTrn=T ParDer=T DoDerP=T.
 JobTyp=1 Pass  3:  I=  25 to  31 NPSUse= 18 ParTrn=T ParDer=T DoDerP=T.
 JobTyp=1 Pass  4:  I=  32 to  36 NPSUse= 18 ParTrn=T ParDer=T DoDerP=T.
 Spin components of T(2) and E(2):
     alpha-alpha T2 =       0.1063101288D+00 E2=     -0.6530481083D-01
     alpha-beta  T2 =       0.5474911467D+00 E2=     -0.3526890833D+00
     beta-beta   T2 =       0.1063101288D+00 E2=     -0.6530481083D-01
 E2(B2PLYP) =    -0.4832987050D+00 E(B2PLYP) =    -0.47610896924452D+03
          IDoAtm=111111111111111111
          Differentiating once with respect to electric field.
                with respect to dipole field.
          Differentiating once with respect to nuclear coordinates.
 Keep R1 ints in memory in canonical form, NReq=359028194.
          There are     1 degrees of freedom in the 1st order CPHF.  IDoFFX=0 NUNeed=     1.
 LinEq1:  Iter=  0 NonCon=     1 RMS=1.76D-03 Max=6.39D-02 NDo=     1
 AX will form     1 AO Fock derivatives at one time.
 LinEq1:  Iter=  1 NonCon=     1 RMS=7.31D-04 Max=1.46D-02 NDo=     1
 LinEq1:  Iter=  2 NonCon=     1 RMS=2.75D-04 Max=6.82D-03 NDo=     1
 LinEq1:  Iter=  3 NonCon=     1 RMS=2.06D-04 Max=5.87D-03 NDo=     1
 LinEq1:  Iter=  4 NonCon=     1 RMS=8.22D-05 Max=2.18D-03 NDo=     1
 LinEq1:  Iter=  5 NonCon=     1 RMS=3.87D-05 Max=1.24D-03 NDo=     1
 LinEq1:  Iter=  6 NonCon=     1 RMS=1.80D-05 Max=7.51D-04 NDo=     1
 LinEq1:  Iter=  7 NonCon=     1 RMS=9.64D-06 Max=3.81D-04 NDo=     1
 LinEq1:  Iter=  8 NonCon=     1 RMS=3.34D-06 Max=8.65D-05 NDo=     1
 LinEq1:  Iter=  9 NonCon=     1 RMS=1.69D-06 Max=3.42D-05 NDo=     1
 LinEq1:  Iter= 10 NonCon=     1 RMS=4.91D-07 Max=9.85D-06 NDo=     1
 LinEq1:  Iter= 11 NonCon=     1 RMS=2.47D-07 Max=1.11D-05 NDo=     1
 LinEq1:  Iter= 12 NonCon=     1 RMS=1.16D-07 Max=3.20D-06 NDo=     1
 LinEq1:  Iter= 13 NonCon=     1 RMS=3.51D-08 Max=6.71D-07 NDo=     1
 LinEq1:  Iter= 14 NonCon=     1 RMS=2.00D-08 Max=5.83D-07 NDo=     1
 LinEq1:  Iter= 15 NonCon=     1 RMS=5.19D-09 Max=1.02D-07 NDo=     1
 LinEq1:  Iter= 16 NonCon=     1 RMS=1.30D-09 Max=1.92D-08 NDo=     1
 LinEq1:  Iter= 17 NonCon=     1 RMS=5.89D-10 Max=7.91D-09 NDo=     1
 LinEq1:  Iter= 18 NonCon=     1 RMS=1.85D-10 Max=3.55D-09 NDo=     1
 LinEq1:  Iter= 19 NonCon=     0 RMS=5.19D-11 Max=8.97D-10 NDo=     1
 Linear equations converged to 1.000D-10 1.000D-09 after    19 iterations.
 End of Minotr F.D. properties file   721 does not exist.
 End of Minotr F.D. properties file   722 does not exist.
 End of Minotr F.D. properties file   788 does not exist.

 **********************************************************************

            Population analysis using the SCF density.

 **********************************************************************

 Orbital symmetries:
       Occupied  (A) (A) (A) (A) (A) (A) (A) (A) (A) (A) (A) (A)
                 (A) (A) (A) (A) (A) (A) (A) (A) (A) (A) (A) (A)
                 (A) (A) (A) (A) (A) (A) (A) (A) (A) (A) (A) (A)
       Virtual   (A) (A) (A) (A) (A) (A) (A) (A) (A) (A) (A) (A)
                 (A) (A) (A) (A) (A) (A) (A) (A) (A) (A) (A) (A)
                 (A) (A) (A) (A) (A) (A) (A) (A) (A) (A) (A) (A)
                 (A) (A) (A) (A) (A) (A) (A) (A) (A) (A) (A) (A)
                 (A) (A) (A) (A) (A) (A) (A) (A) (A) (A) (A) (A)
                 (A) (A) (A) (A) (A) (A) (A) (A) (A) (A) (A) (A)
                 (A) (A) (A) (A) (A) (A) (A) (A) (A) (A) (A) (A)
                 (A) (A) (A) (A) (A) (A) (A) (A) (A) (A) (A) (A)
                 (A) (A) (A) (A) (A) (A) (A) (A) (A) (A) (A) (A)
                 (A) (A) (A) (A) (A) (A) (A) (A) (A) (A) (A) (A)
                 (A) (A) (A) (A) (A) (A) (A) (A) (A) (A) (A) (A)
                 (A) (A) (A) (A) (A) (A) (A) (A) (A) (A) (A) (A)
                 (A) (A) (A) (A) (A) (A) (A) (A) (A) (A) (A) (A)
                 (A) (A) (A) (A) (A) (A) (A) (A) (A) (A) (A) (A)
                 (A) (A) (A) (A) (A) (A) (A) (A) (A) (A) (A) (A)
                 (A) (A) (A) (A) (A) (A) (A) (A) (A) (A) (A) (A)
                 (A) (A)
 The electronic state is 1-A.
 Alpha  occ. eigenvalues --  -19.96806 -19.92167 -15.14588 -10.95903 -10.87264
 Alpha  occ. eigenvalues --  -10.82915 -10.81474 -10.80892 -10.80739 -10.79761
 Alpha  occ. eigenvalues --   -1.44329  -1.34992  -1.30562  -1.16158  -1.06301
 Alpha  occ. eigenvalues --   -1.03713  -0.93802  -0.90152  -0.86902  -0.83338
 Alpha  occ. eigenvalues --   -0.82138  -0.79144  -0.76383  -0.75292  -0.70659
 Alpha  occ. eigenvalues --   -0.70324  -0.68941  -0.68048  -0.64395  -0.60767
 Alpha  occ. eigenvalues --   -0.60346  -0.59169  -0.56650  -0.53716  -0.47141
 Alpha  occ. eigenvalues --   -0.46921
 Alpha virt. eigenvalues --   -0.17156  -0.13407  -0.13155  -0.08473  -0.07966
 Alpha virt. eigenvalues --   -0.06630  -0.06153  -0.05270  -0.05207  -0.04463
 Alpha virt. eigenvalues --   -0.02870  -0.02770  -0.01752  -0.01321  -0.00163
 Alpha virt. eigenvalues --    0.00176   0.01976   0.02203   0.03240   0.04079
 Alpha virt. eigenvalues --    0.04263   0.05123   0.06036   0.06741   0.07294
 Alpha virt. eigenvalues --    0.08146   0.08244   0.08922   0.09578   0.09653
 Alpha virt. eigenvalues --    0.10341   0.10776   0.11637   0.12655   0.12765
 Alpha virt. eigenvalues --    0.13121   0.14134   0.15130   0.15301   0.16472
 Alpha virt. eigenvalues --    0.16671   0.16987   0.17684   0.18829   0.19230
 Alpha virt. eigenvalues --    0.20245   0.20952   0.22129   0.23116   0.24167
 Alpha virt. eigenvalues --    0.25811   0.26543   0.27318   0.29011   0.30191
 Alpha virt. eigenvalues --    0.32355   0.36200   0.36958   0.39586   0.42783
 Alpha virt. eigenvalues --    0.51160   0.55381   0.58895   0.59228   0.60637
 Alpha virt. eigenvalues --    0.62437   0.64690   0.65722   0.66960   0.67217
 Alpha virt. eigenvalues --    0.67808   0.70723   0.70881   0.74588   0.74839
 Alpha virt. eigenvalues --    0.75615   0.77397   0.79628   0.81418   0.84655
 Alpha virt. eigenvalues --    0.87068   0.87148   0.88361   0.89288   0.92260
 Alpha virt. eigenvalues --    0.94934   0.97368   0.98769   1.02872   1.04793
 Alpha virt. eigenvalues --    1.05301   1.06904   1.09136   1.11268   1.11553
 Alpha virt. eigenvalues --    1.13936   1.14394   1.17097   1.18050   1.21110
 Alpha virt. eigenvalues --    1.21918   1.24124   1.26009   1.26540   1.29103
 Alpha virt. eigenvalues --    1.31551   1.32019   1.32368   1.35030   1.35970
 Alpha virt. eigenvalues --    1.36604   1.38565   1.44477   1.52343   1.53475
 Alpha virt. eigenvalues --    1.62101   1.63689   1.66339   1.67205   1.71618
 Alpha virt. eigenvalues --    1.74658   1.76324   1.78464   1.79917   1.82782
 Alpha virt. eigenvalues --    1.85454   1.88505   1.90678   1.93779   1.93802
 Alpha virt. eigenvalues --    1.96055   1.97631   1.98219   1.98339   2.02121
 Alpha virt. eigenvalues --    2.06154   2.06991   2.15043   2.15234   2.23434
 Alpha virt. eigenvalues --    2.25106   2.25825   2.30608   2.33033   2.34481
 Alpha virt. eigenvalues --    2.34836   2.37476   2.38448   2.39087   2.39969
 Alpha virt. eigenvalues --    2.46737   2.47927   2.49170   2.51748   2.54138
 Alpha virt. eigenvalues --    2.55827   2.57588   2.59542   2.61312   2.63614
 Alpha virt. eigenvalues --    2.66287   2.69612   2.71529   2.73391   2.76778
 Alpha virt. eigenvalues --    2.79590   2.84735   2.85141   2.90484   2.95357
 Alpha virt. eigenvalues --    3.04073   3.08609   3.14594   3.16946   3.23229
 Alpha virt. eigenvalues --    3.26549   3.28390   3.32305   3.33301   3.36891
 Alpha virt. eigenvalues --    3.47996   3.49403   3.56472   3.86454   4.22392
 Alpha virt. eigenvalues --    4.27988   4.30256   4.31994   4.37612   4.48006
 Alpha virt. eigenvalues --    4.49834   4.56456   4.83642   4.86717
          Condensed to atoms (all electrons):
               1          2          3          4          5          6
     1  C    7.372786  -0.061032   1.033564  -0.997112   0.450810  -2.055152
     2  C   -0.061032   6.147020  -1.159997   1.535280  -1.468849   1.257406
     3  C    1.033564  -1.159997  13.526343  -4.315997  -0.534552  -3.669545
     4  C   -0.997112   1.535280  -4.315997  16.945498  -4.304090  -1.033478
     5  C    0.450810  -1.468849  -0.534552  -4.304090  11.931695  -1.509081
     6  C   -2.055152   1.257406  -3.669545  -1.033478  -1.509081  14.217494
     7  C   -0.175664  -0.162109   0.498218  -0.643664   0.194698  -0.582899
     8  O    0.101637  -0.004379   0.021126   0.030563   0.014045  -0.159816
     9  N   -0.032175  -0.000597  -0.586980   0.214117   0.196969   0.157565
    10  O    0.043841  -0.009613   0.078878  -0.249072   0.014737  -0.028002
    11  H    0.217906   0.048039  -0.002832  -0.000938   0.010727   0.061125
    12  H    0.072321   0.214520   0.078230  -0.052274   0.036899  -0.015368
    13  H    0.000069   0.093464   0.260427   0.027892  -0.040324  -0.013831
    14  H    0.087054  -0.025134   0.034572   0.018430   0.112743   0.092584
    15  H   -0.007145  -0.000265   0.003344  -0.006467   0.005301   0.003715
    16  H    0.000397  -0.006374  -0.021041  -0.044396   0.047712   0.001417
    17  H    0.002118  -0.002588   0.165862   0.090413  -0.211160  -0.065747
    18  H    0.000400  -0.006363  -0.020955  -0.044288   0.047548   0.001377
               7          8          9         10         11         12
     1  C   -0.175664   0.101637  -0.032175   0.043841   0.217906   0.072321
     2  C   -0.162109  -0.004379  -0.000597  -0.009613   0.048039   0.214520
     3  C    0.498218   0.021126  -0.586980   0.078878  -0.002832   0.078230
     4  C   -0.643664   0.030563   0.214117  -0.249072  -0.000938  -0.052274
     5  C    0.194698   0.014045   0.196969   0.014737   0.010727   0.036899
     6  C   -0.582899  -0.159816   0.157565  -0.028002   0.061125  -0.015368
     7  C    5.528358   0.138274  -0.080902   0.389704   0.003393   0.002485
     8  O    0.138274   8.250349  -0.008536  -0.130154   0.000063   0.000007
     9  N   -0.080902  -0.008536   6.979543  -0.032020   0.000135  -0.000274
    10  O    0.389704  -0.130154  -0.032020   8.375678   0.000024  -0.000001
    11  H    0.003393   0.000063   0.000135   0.000024   0.471804  -0.003122
    12  H    0.002485   0.000007  -0.000274  -0.000001  -0.003122   0.472213
    13  H    0.004240   0.000012   0.000830   0.000096  -0.000113  -0.003142
    14  H    0.010422   0.000247  -0.000977   0.000080  -0.002955  -0.000110
    15  H    0.024746   0.223268   0.000413   0.000763  -0.000000   0.000000
    16  H    0.004610   0.000130   0.316506   0.001056   0.000000  -0.000002
    17  H    0.019014   0.002216   0.212681   0.080378  -0.000000   0.000001
    18  H    0.004608   0.000130   0.316499   0.001058   0.000000  -0.000002
              13         14         15         16         17         18
     1  C    0.000069   0.087054  -0.007145   0.000397   0.002118   0.000400
     2  C    0.093464  -0.025134  -0.000265  -0.006374  -0.002588  -0.006363
     3  C    0.260427   0.034572   0.003344  -0.021041   0.165862  -0.020955
     4  C    0.027892   0.018430  -0.006467  -0.044396   0.090413  -0.044288
     5  C   -0.040324   0.112743   0.005301   0.047712  -0.211160   0.047548
     6  C   -0.013831   0.092584   0.003715   0.001417  -0.065747   0.001377
     7  C    0.004240   0.010422   0.024746   0.004610   0.019014   0.004608
     8  O    0.000012   0.000247   0.223268   0.000130   0.002216   0.000130
     9  N    0.000830  -0.000977   0.000413   0.316506   0.212681   0.316499
    10  O    0.000096   0.000080   0.000763   0.001056   0.080378   0.001058
    11  H   -0.000113  -0.002955  -0.000000   0.000000  -0.000000   0.000000
    12  H   -0.003142  -0.000110   0.000000  -0.000002   0.000001  -0.000002
    13  H    0.485609   0.000009  -0.000000   0.000405   0.000043   0.000404
    14  H    0.000009   0.459915   0.000047   0.000002   0.000006   0.000002
    15  H   -0.000000   0.000047   0.324684  -0.000001  -0.000004  -0.000001
    16  H    0.000405   0.000002  -0.000001   0.325143  -0.009448  -0.023349
    17  H    0.000043   0.000006  -0.000004  -0.009448   0.254406  -0.009448
    18  H    0.000404   0.000002  -0.000001  -0.023349  -0.009448   0.325142
 Mulliken charges:
               1
     1  C   -0.054622
     2  C   -0.388429
     3  C    0.611334
     4  C   -1.170416
     5  C    1.004172
     6  C   -0.659762
     7  C    0.822469
     8  O   -0.479182
     9  N   -0.652797
    10  O   -0.537431
    11  H    0.196746
    12  H    0.197618
    13  H    0.183910
    14  H    0.213061
    15  H    0.427601
    16  H    0.407232
    17  H    0.471256
    18  H    0.407238
 Sum of Mulliken charges =   1.00000
 Mulliken charges with hydrogens summed into heavy atoms:
               1
     1  C    0.142124
     2  C   -0.190811
     3  C    0.795244
     4  C   -1.170416
     5  C    1.004172
     6  C   -0.446701
     7  C    0.822469
     8  O   -0.051581
     9  N    0.632930
    10  O   -0.537431
 Electronic spatial extent (au):  <R**2>=           1366.8266
 Charge=              1.0000 electrons
 Dipole moment (field-independent basis, Debye):
    X=              1.1955    Y=              4.2640    Z=              0.0000  Tot=              4.4284
 Quadrupole moment (field-independent basis, Debye-Ang):
   XX=            -36.7567   YY=            -29.0576   ZZ=            -56.8774
   XY=              3.7219   XZ=              0.0003   YZ=              0.0002
 Traceless Quadrupole moment (field-independent basis, Debye-Ang):
   XX=              4.1406   YY=             11.8396   ZZ=            -15.9801
   XY=              3.7219   XZ=              0.0003   YZ=              0.0002
 Octapole moment (field-independent basis, Debye-Ang**2):
  XXX=            -11.1020  YYY=             50.4621  ZZZ=             -0.0004  XYY=             -0.6077
  XXY=            -26.0291  XXZ=             -0.0030  XZZ=            -11.7524  YZZ=              9.8672
  YYZ=             -0.0003  XYZ=             -0.0016
 Hexadecapole moment (field-independent basis, Debye-Ang**3):
 XXXX=           -793.2938 YYYY=           -404.4452 ZZZZ=            -62.2439 XXXY=             86.0037
 XXXZ=              0.0048 YYYX=             -7.2484 YYYZ=             -0.0000 ZZZX=             -0.0046
 ZZZY=              0.0011 XXYY=           -225.5173 XXZZ=           -198.7776 YYZZ=            -97.7749
 XXYZ=              0.0044 YYXZ=             -0.0001 ZZXY=              3.4821
 N-N= 5.160160865369D+02 E-N=-2.128979929165D+03  KE= 4.724680706606D+02
 Calling FoFJK, ICntrl=  10002127 FMM=F ISym2X=0 I1Cent= 0 IOpClX= 0 NMat=1 NMatS=1 NMatT=0.
 ***** Axes restored to original set *****
 -------------------------------------------------------------------
 Center     Atomic                   Forces (Hartrees/Bohr)
 Number     Number              X              Y              Z
 -------------------------------------------------------------------
      1        6           0.001622097   -0.004471135   -0.000000613
      2        6           0.005268072    0.000832984   -0.000000017
      3        6           0.002839559    0.003591904   -0.000000468
      4        6          -0.000155350    0.001799266    0.000001182
      5        6          -0.006337654   -0.000480781    0.000008401
      6        6          -0.000749640   -0.005009991    0.000001203
      7        6           0.012204984   -0.004231208   -0.000029088
      8        8          -0.002639893   -0.010111563    0.000008400
      9        7          -0.002118642    0.001984042   -0.000000342
     10        8          -0.010405232    0.013041751    0.000009264
     11        1          -0.000618469    0.001049827   -0.000000052
     12        1          -0.001263629   -0.000029813    0.000000181
     13        1          -0.000464618   -0.001288151   -0.000000351
     14        1           0.001317416    0.001462545    0.000000081
     15        1          -0.000981481    0.000523901    0.000000854
     16        1          -0.000517453   -0.000164377    0.001242328
     17        1           0.003517695    0.001665306    0.000001873
     18        1          -0.000517763   -0.000164509   -0.001242836
 -------------------------------------------------------------------
 Cartesian Forces:  Max     0.013041751 RMS     0.003684575

 GradGradGradGradGradGradGradGradGradGradGradGradGradGradGradGradGradGrad
 Berny optimization.
 FormGI is forming the generalized inverse of G from B-inverse, IUseBI=4.
 Internal  Forces:  Max     0.016603368 RMS     0.002740934
 Search for a local minimum.
 Step number   1 out of a maximum of   92
 All quantities printed in internal units (Hartrees-Bohrs-Radians)
 Mixed Optimization -- RFO/linear search
 Second derivative matrix not updated -- first step.
 ITU=  0
     Eigenvalues ---    0.00667   0.00927   0.01558   0.01599   0.01741
     Eigenvalues ---    0.02110   0.02158   0.02163   0.02175   0.02189
     Eigenvalues ---    0.02212   0.02245   0.02828   0.07077   0.07764
     Eigenvalues ---    0.16000   0.16000   0.16000   0.16000   0.16000
     Eigenvalues ---    0.16000   0.16000   0.16000   0.22000   0.22494
     Eigenvalues ---    0.24486   0.25000   0.25000   0.25000   0.25000
     Eigenvalues ---    0.33688   0.34862   0.35212   0.35443   0.35465
     Eigenvalues ---    0.35483   0.36466   0.42077   0.42653   0.43639
     Eigenvalues ---    0.43639   0.46000   0.46211   0.46772   0.48074
     Eigenvalues ---    0.52757   0.63432   0.91827
 RFO step:  Lambda=-1.13126220D-03 EMin= 6.67187613D-03
 Linear search not attempted -- first point.
 Iteration  1 RMS(Cart)=  0.02345945 RMS(Int)=  0.00012017
 Iteration  2 RMS(Cart)=  0.00023132 RMS(Int)=  0.00000396
 Iteration  3 RMS(Cart)=  0.00000004 RMS(Int)=  0.00000396
 Variable       Old X    -DE/DX   Delta X   Delta X   Delta X     New X
                                 (Linear)    (Quad)   (Total)
    R1        2.63183   0.00322   0.00000   0.00649   0.00648   2.63832
    R2        2.63086   0.00287   0.00000   0.00592   0.00592   2.63678
    R3        2.04898  -0.00122   0.00000  -0.00342  -0.00342   2.04556
    R4        2.63817   0.00266   0.00000   0.00553   0.00553   2.64370
    R5        2.04962  -0.00126   0.00000  -0.00355  -0.00355   2.04607
    R6        2.61333   0.00452   0.00000   0.00944   0.00945   2.62278
    R7        2.05333  -0.00135   0.00000  -0.00382  -0.00382   2.04950
    R8        2.64800   0.00720   0.00000   0.01620   0.01620   2.66420
    R9        2.79199   0.00265   0.00000   0.00758   0.00758   2.79957
   R10        2.63973   0.00549   0.00000   0.01206   0.01207   2.65180
   R11        2.81161   0.00182   0.00000   0.00539   0.00539   2.81699
   R12        2.04926  -0.00192   0.00000  -0.00541  -0.00541   2.04385
   R13        2.48324   0.01023   0.00000   0.01610   0.01610   2.49934
   R14        2.32102   0.01660   0.00000   0.01806   0.01806   2.33908
   R15        1.83882   0.00102   0.00000   0.00193   0.00193   1.84074
   R16        1.93589  -0.00120   0.00000  -0.00274  -0.00274   1.93315
   R17        2.03359  -0.00384   0.00000  -0.01049  -0.01049   2.02310
   R18        1.93589  -0.00120   0.00000  -0.00274  -0.00274   1.93315
    A1        2.09896   0.00032   0.00000   0.00010   0.00009   2.09905
    A2        2.09457  -0.00017   0.00000  -0.00009  -0.00009   2.09449
    A3        2.08965  -0.00015   0.00000  -0.00001  -0.00001   2.08965
    A4        2.10079  -0.00029   0.00000  -0.00269  -0.00270   2.09809
    A5        2.09855   0.00014   0.00000   0.00130   0.00131   2.09986
    A6        2.08385   0.00015   0.00000   0.00139   0.00139   2.08524
    A7        2.07233   0.00116   0.00000   0.00501   0.00500   2.07734
    A8        2.10329  -0.00081   0.00000  -0.00390  -0.00390   2.09939
    A9        2.10756  -0.00036   0.00000  -0.00110  -0.00110   2.10646
   A10        2.12897  -0.00038   0.00000  -0.00070  -0.00070   2.12827
   A11        2.08719  -0.00280   0.00000  -0.01156  -0.01156   2.07563
   A12        2.06702   0.00318   0.00000   0.01226   0.01226   2.07928
   A13        2.06762  -0.00230   0.00000  -0.00829  -0.00828   2.05934
   A14        2.10067   0.00454   0.00000   0.01763   0.01763   2.11830
   A15        2.11490  -0.00223   0.00000  -0.00934  -0.00935   2.10555
   A16        2.09770   0.00149   0.00000   0.00657   0.00658   2.10428
   A17        2.10792  -0.00117   0.00000  -0.00595  -0.00595   2.10197
   A18        2.07757  -0.00032   0.00000  -0.00063  -0.00063   2.07694
   A19        1.99520  -0.00179   0.00000  -0.00712  -0.00712   1.98808
   A20        2.14616   0.00279   0.00000   0.01110   0.01110   2.15726
   A21        2.14183  -0.00100   0.00000  -0.00397  -0.00397   2.13785
   A22        1.91713  -0.00082   0.00000  -0.00507  -0.00507   1.91206
   A23        1.95128   0.00055   0.00000   0.00317   0.00317   1.95444
   A24        1.83950   0.00074   0.00000   0.00501   0.00500   1.84449
   A25        1.95128   0.00055   0.00000   0.00317   0.00316   1.95444
   A26        1.91564  -0.00055   0.00000  -0.00304  -0.00305   1.91259
   A27        1.89017  -0.00073   0.00000  -0.00522  -0.00522   1.88496
   A28        1.91562  -0.00056   0.00000  -0.00306  -0.00307   1.91255
    D1        0.00000   0.00000   0.00000   0.00001   0.00001   0.00001
    D2       -3.14159  -0.00000   0.00000  -0.00000  -0.00000  -3.14159
    D3        3.14159   0.00000   0.00000   0.00000   0.00000  -3.14159
    D4        0.00000  -0.00000   0.00000  -0.00000  -0.00000  -0.00000
    D5       -0.00000   0.00000   0.00000   0.00001   0.00001   0.00001
    D6       -3.14159  -0.00000   0.00000  -0.00001  -0.00001   3.14158
    D7        3.14159   0.00000   0.00000   0.00001   0.00001  -3.14158
    D8        0.00000  -0.00000   0.00000  -0.00001  -0.00001  -0.00001
    D9       -0.00000   0.00000   0.00000   0.00000   0.00000  -0.00000
   D10        3.14159  -0.00000   0.00000  -0.00001  -0.00001   3.14158
   D11        3.14159   0.00000   0.00000   0.00001   0.00001  -3.14159
   D12       -0.00000   0.00000   0.00000   0.00000   0.00000  -0.00000
   D13        0.00000  -0.00000   0.00000  -0.00002  -0.00002  -0.00002
   D14       -3.14159  -0.00000   0.00000  -0.00002  -0.00003   3.14157
   D15       -3.14159  -0.00000   0.00000  -0.00002  -0.00002   3.14158
   D16        0.00001  -0.00000   0.00000  -0.00002  -0.00002  -0.00001
   D17       -0.00001   0.00000   0.00000   0.00004   0.00004   0.00003
   D18       -3.14159   0.00000   0.00000   0.00005   0.00005  -3.14155
   D19        3.14159   0.00000   0.00000   0.00004   0.00004  -3.14156
   D20        0.00000   0.00000   0.00000   0.00005   0.00005   0.00005
   D21        1.06118  -0.00008   0.00000  -0.00105  -0.00105   1.06013
   D22        3.14151   0.00000   0.00000   0.00007   0.00007   3.14158
   D23       -1.06137   0.00008   0.00000   0.00116   0.00116  -1.06020
   D24       -2.08041  -0.00008   0.00000  -0.00105  -0.00105  -2.08146
   D25       -0.00008   0.00000   0.00000   0.00006   0.00006  -0.00002
   D26        2.08023   0.00008   0.00000   0.00116   0.00116   2.08139
   D27        0.00001  -0.00000   0.00000  -0.00003  -0.00003  -0.00002
   D28       -3.14159  -0.00000   0.00000  -0.00001  -0.00001   3.14158
   D29        3.14159  -0.00000   0.00000  -0.00004  -0.00004   3.14155
   D30       -0.00001  -0.00000   0.00000  -0.00002  -0.00002  -0.00002
   D31        3.14145   0.00001   0.00000   0.00052   0.00052  -3.14121
   D32        0.00009  -0.00001   0.00000  -0.00039  -0.00039  -0.00030
   D33       -0.00013   0.00001   0.00000   0.00053   0.00053   0.00040
   D34       -3.14150  -0.00001   0.00000  -0.00038  -0.00038   3.14131
   D35       -3.14146  -0.00001   0.00000  -0.00048  -0.00048   3.14124
   D36       -0.00010   0.00001   0.00000   0.00043   0.00043   0.00033
         Item               Value     Threshold  Converged?
 Maximum Force            0.016603     0.000450     NO 
 RMS     Force            0.002741     0.000300     NO 
 Maximum Displacement     0.091986     0.001800     NO 
 RMS     Displacement     0.023591     0.001200     NO 
 Predicted change in Energy=-5.671283D-04
 GradGradGradGradGradGradGradGradGradGradGradGradGradGradGradGradGradGrad

                          Input orientation:                          
 ---------------------------------------------------------------------
 Center     Atomic      Atomic             Coordinates (Angstroms)
 Number     Number       Type             X           Y           Z
 ---------------------------------------------------------------------
      1          6           0        1.929974   -1.474145    0.000001
      2          6           0        2.616217   -0.258305    0.000073
      3          6           0        1.909397    0.948990    0.000054
      4          6           0        0.521853    0.916906   -0.000037
      5          6           0       -0.196161   -0.296390   -0.000134
      6          6           0        0.534793   -1.494254   -0.000097
      7          6           0       -1.686720   -0.315977   -0.000291
      8          8           0       -2.206800   -1.532023    0.000096
      9          7           0       -0.224457    2.196660   -0.000030
     10          8           0       -2.385219    0.705894   -0.000034
     11          1           0        2.480237   -2.406312    0.000019
     12          1           0        3.698825   -0.241833    0.000149
     13          1           0        2.441255    1.894176    0.000119
     14          1           0        0.000433   -2.434591   -0.000162
     15          1           0       -3.178954   -1.470813    0.000287
     16          1           0       -0.016783    2.761030   -0.827581
     17          1           0       -1.260618    1.927386   -0.000126
     18          1           0       -0.016941    2.760927    0.827632
 ---------------------------------------------------------------------
                    Distance matrix (angstroms):
                    1          2          3          4          5
     1  C    0.000000
     2  C    1.396136   0.000000
     3  C    2.423222   1.398984   0.000000
     4  C    2.774875   2.401558   1.387915   0.000000
     5  C    2.430546   2.812636   2.446292   1.409834   0.000000
     6  C    1.395325   2.420722   2.803386   2.411195   1.403272
     7  C    3.797608   4.303324   3.812113   2.529387   1.490688
     8  O    4.137178   4.988372   4.806091   3.666443   2.359970
     9  N    4.256334   3.754502   2.471844   1.481468   2.493211
    10  O    4.834611   5.093530   4.301491   2.914721   2.407602
    11  H    1.082462   2.152306   3.403513   3.857336   3.408060
    12  H    2.155790   1.082733   2.149444   3.381690   3.895368
    13  H    3.406905   2.159581   1.084551   2.153871   3.428490
    14  H    2.155361   3.402726   3.884940   3.391816   2.147220
    15  H    5.108928   5.920657   5.634426   4.404222   3.205670
    16  H    4.734075   4.090732   2.771036   2.091830   3.172486
    17  H    4.663720   4.450516   3.317568   2.048969   2.465410
    18  H    4.734056   4.090739   2.771062   2.091829   3.172460
                    6          7          8          9         10
     6  C    0.000000
     7  C    2.514648   0.000000
     8  O    2.741853   1.322593   0.000000
     9  N    3.768197   2.907157   4.222886   0.000000
    10  O    3.656107   1.237789   2.245018   2.625124   0.000000
    11  H    2.148628   4.661870   4.767881   5.338793   5.775680
    12  H    3.402890   5.386056   6.044915   4.619350   6.157417
    13  H    3.887937   4.682409   5.774362   2.682819   4.970600
    14  H    1.081561   2.708323   2.384640   4.636708   3.943854
    15  H    3.713821   1.886904   0.974079   4.709502   2.316909
    16  H    4.369944   3.597370   4.889942   1.022978   3.243133
    17  H    3.864080   2.283471   3.586471   1.070579   1.660353
    18  H    4.369910   3.597355   4.889757   1.022978   3.242982
                   11         12         13         14         15
    11  H    0.000000
    12  H    2.483934   0.000000
    13  H    4.300665   2.478713   0.000000
    14  H    2.479965   4.299569   4.969491   0.000000
    15  H    5.735991   6.986719   6.550565   3.322253   0.000000
    16  H    5.798401   4.848512   2.734680   5.261122   5.347260
    17  H    5.724939   5.413094   3.702022   4.540605   3.902277
    18  H    5.798379   4.848527   2.734733   5.261079   5.347004
                   16         17         18
    16  H    0.000000
    17  H    1.710781   0.000000
    18  H    1.655213   1.710762   0.000000
 Stoichiometry    C7H8NO2(1+)
 Framework group  C1[X(C7H8NO2)]
 Deg. of freedom    48
 Full point group                 C1      NOp   1
 Largest Abelian subgroup         C1      NOp   1
 Largest concise Abelian subgroup C1      NOp   1
                         Standard orientation:                         
 ---------------------------------------------------------------------
 Center     Atomic      Atomic             Coordinates (Angstroms)
 Number     Number       Type             X           Y           Z
 ---------------------------------------------------------------------
      1          6           0        1.913660   -1.498257    0.000028
      2          6           0        2.617500   -0.292518    0.000100
      3          6           0        1.928299    0.924921    0.000081
      4          6           0        0.540435    0.913005   -0.000011
      5          6           0       -0.195135   -0.289729   -0.000107
      6          6           0        0.518334   -1.498088   -0.000070
      7          6           0       -1.685821   -0.287653   -0.000265
      8          8           0       -2.223518   -1.496012    0.000123
      9          7           0       -0.187198    2.203469   -0.000003
     10          8           0       -2.369396    0.744261   -0.000008
     11          1           0        2.450318   -2.438322    0.000045
     12          1           0        3.700233   -0.291780    0.000176
     13          1           0        2.473837    1.862279    0.000145
     14          1           0       -0.029634   -2.430561   -0.000135
     15          1           0       -3.194679   -1.420681    0.000313
     16          1           0        0.028655    2.764762   -0.827554
     17          1           0       -1.227163    1.949281   -0.000099
     18          1           0        0.028496    2.764661    0.827659
 ---------------------------------------------------------------------
 Rotational constants (GHZ):      2.2172121      1.2018100      0.7826983
 Standard basis: 6-31+G(d,p) (6D, 7F)
 There are   230 symmetry adapted cartesian basis functions of A   symmetry.
 There are   230 symmetry adapted basis functions of A   symmetry.
   230 basis functions,   376 primitive gaussians,   230 cartesian basis functions
    36 alpha electrons       36 beta electrons
       nuclear repulsion energy       513.3802929388 Hartrees.
 NAtoms=   18 NActive=   18 NUniq=   18 SFac= 1.00D+00 NAtFMM=   60 NAOKFM=F Big=F
 Integral buffers will be    131072 words long.
 Regular integral format.
 Two-electron integral symmetry is turned on.
 One-electron integrals computed using PRISM.
 NBasis=   230 RedAO= T EigKep=  2.29D-06  NBF=   230
 NBsUse=   230 1.00D-06 EigRej= -1.00D+00 NBFU=   230
 Initial guess from the checkpoint file:  "B2PLYPAnthranilicyang.chk"
 B after Tr=    -0.000000    0.000000   -0.000000
         Rot=    0.999982    0.000002    0.000003    0.005950 Ang=   0.68 deg.
 ExpMin= 4.38D-02 ExpMax= 5.48D+03 ExpMxC= 8.25D+02 IAcc=2 IRadAn=         4 AccDes= 0.00D+00
 Harris functional with IExCor=  419 and IRadAn=       4 diagonalized for initial guess.
 HarFok:  IExCor=  419 AccDes= 0.00D+00 IRadAn=         4 IDoV= 1 UseB2=F ITyADJ=14
 ICtDFT=  3500011 ScaDFX=  1.000000  1.000000  1.000000  1.000000
 FoFCou: FMM=F IPFlag=           0 FMFlag=      100000 FMFlg1=           0
         NFxFlg=           0 DoJE=T BraDBF=F KetDBF=T FulRan=T
         wScrn=  0.000000 ICntrl=     500 IOpCl=  0 I1Cent=   200000004 NGrid=           0
         NMat0=    1 NMatS0=      1 NMatT0=    0 NMatD0=    1 NMtDS0=    0 NMtDT0=    0
 Petite list used in FoFCou.
 Keep R1 ints in memory in canonical form, NReq=359209085.
 Requested convergence on RMS density matrix=1.00D-08 within 128 cycles.
 Requested convergence on MAX density matrix=1.00D-06.
 Requested convergence on             energy=1.00D-06.
 No special actions if energy rises.
 SCF Done:  E(RB2PLYP) =  -475.624799854     A.U. after   13 cycles
            NFock= 13  Conv=0.81D-08     -V/T= 2.0070
 DoSCS=T DFT=T ScalE2(SS,OS)=  0.270000  0.270000
 ExpMin= 4.38D-02 ExpMax= 5.48D+03 ExpMxC= 8.25D+02 IAcc=3 IRadAn=         5 AccDes= 0.00D+00
 HarFok:  IExCor=  205 AccDes= 0.00D+00 IRadAn=         5 IDoV=-2 UseB2=F ITyADJ=14
 ICtDFT= 12500011 ScaDFX=  1.000000  1.000000  1.000000  1.000000
 Range of M.O.s used for correlation:    11   230
 NBasis=   230 NAE=    36 NBE=    36 NFC=    10 NFV=     0
 NROrb=    220 NOA=    26 NOB=    26 NVA=   194 NVB=   194

 **** Warning!!: The largest alpha MO coefficient is  0.16792504D+03

 DoSCS=T DFT=T ScalE2(SS,OS)=  0.270000  0.270000
 Fully direct method using O(ONN) memory.
 JobTyp=1 Pass  1:  I=  11 to  17 NPSUse= 18 ParTrn=T ParDer=T DoDerP=T.
 JobTyp=1 Pass  2:  I=  18 to  24 NPSUse= 18 ParTrn=T ParDer=T DoDerP=T.
 JobTyp=1 Pass  3:  I=  25 to  31 NPSUse= 18 ParTrn=T ParDer=T DoDerP=T.
 JobTyp=1 Pass  4:  I=  32 to  36 NPSUse= 18 ParTrn=T ParDer=T DoDerP=T.
 Spin components of T(2) and E(2):
     alpha-alpha T2 =       0.1070772339D+00 E2=     -0.6537767698D-01
     alpha-beta  T2 =       0.5523609333D+00 E2=     -0.3536031978D+00
     beta-beta   T2 =       0.1070772339D+00 E2=     -0.6537767698D-01
 E2(B2PLYP) =    -0.4843585517D+00 E(B2PLYP) =    -0.47610915840617D+03
          IDoAtm=111111111111111111
          Differentiating once with respect to electric field.
                with respect to dipole field.
          Differentiating once with respect to nuclear coordinates.
 Keep R1 ints in memory in canonical form, NReq=359028194.
          There are     1 degrees of freedom in the 1st order CPHF.  IDoFFX=0 NUNeed=     1.
 LinEq1:  Iter=  0 NonCon=     1 RMS=1.80D-03 Max=6.46D-02 NDo=     1
 AX will form     1 AO Fock derivatives at one time.
 LinEq1:  Iter=  1 NonCon=     1 RMS=7.58D-04 Max=1.60D-02 NDo=     1
 LinEq1:  Iter=  2 NonCon=     1 RMS=2.94D-04 Max=6.53D-03 NDo=     1
 LinEq1:  Iter=  3 NonCon=     1 RMS=2.20D-04 Max=6.30D-03 NDo=     1
 LinEq1:  Iter=  4 NonCon=     1 RMS=8.89D-05 Max=2.17D-03 NDo=     1
 LinEq1:  Iter=  5 NonCon=     1 RMS=4.13D-05 Max=1.31D-03 NDo=     1
 LinEq1:  Iter=  6 NonCon=     1 RMS=1.98D-05 Max=9.02D-04 NDo=     1
 LinEq1:  Iter=  7 NonCon=     1 RMS=1.06D-05 Max=4.55D-04 NDo=     1
 LinEq1:  Iter=  8 NonCon=     1 RMS=3.68D-06 Max=9.65D-05 NDo=     1
 LinEq1:  Iter=  9 NonCon=     1 RMS=1.88D-06 Max=4.13D-05 NDo=     1
 LinEq1:  Iter= 10 NonCon=     1 RMS=5.42D-07 Max=1.21D-05 NDo=     1
 LinEq1:  Iter= 11 NonCon=     1 RMS=2.82D-07 Max=1.35D-05 NDo=     1
 LinEq1:  Iter= 12 NonCon=     1 RMS=1.27D-07 Max=3.84D-06 NDo=     1
 LinEq1:  Iter= 13 NonCon=     1 RMS=4.07D-08 Max=8.92D-07 NDo=     1
 LinEq1:  Iter= 14 NonCon=     1 RMS=2.32D-08 Max=7.30D-07 NDo=     1
 LinEq1:  Iter= 15 NonCon=     1 RMS=5.77D-09 Max=1.11D-07 NDo=     1
 LinEq1:  Iter= 16 NonCon=     1 RMS=1.76D-09 Max=3.20D-08 NDo=     1
 LinEq1:  Iter= 17 NonCon=     1 RMS=8.01D-10 Max=1.21D-08 NDo=     1
 LinEq1:  Iter= 18 NonCon=     1 RMS=2.20D-10 Max=3.95D-09 NDo=     1
 LinEq1:  Iter= 19 NonCon=     1 RMS=9.20D-11 Max=2.03D-09 NDo=     1
 LinEq1:  Iter= 20 NonCon=     0 RMS=3.66D-11 Max=6.13D-10 NDo=     1
 Linear equations converged to 1.000D-10 1.000D-09 after    20 iterations.
 End of Minotr F.D. properties file   721 does not exist.
 End of Minotr F.D. properties file   722 does not exist.
 End of Minotr F.D. properties file   788 does not exist.
 Calling FoFJK, ICntrl=  10002127 FMM=F ISym2X=0 I1Cent= 0 IOpClX= 0 NMat=1 NMatS=1 NMatT=0.
 ***** Axes restored to original set *****
 -------------------------------------------------------------------
 Center     Atomic                   Forces (Hartrees/Bohr)
 Number     Number              X              Y              Z
 -------------------------------------------------------------------
      1        6          -0.000334365    0.000221157    0.000001876
      2        6           0.000073147    0.000146625   -0.000000141
      3        6          -0.000552882   -0.000012993    0.000002208
      4        6           0.000919385   -0.003014810   -0.000003688
      5        6          -0.001244698    0.000895868   -0.000024380
      6        6           0.000785677    0.000493511   -0.000003854
      7        6           0.001109331    0.004149423    0.000093296
      8        8          -0.000569497   -0.003595867   -0.000026960
      9        7          -0.008243862   -0.003916183   -0.000002734
     10        8           0.004441272    0.002159675   -0.000035211
     11        1          -0.000085580   -0.000067539    0.000000370
     12        1          -0.000029844    0.000090439   -0.000000501
     13        1           0.000047346    0.000107220    0.000000678
     14        1          -0.000034286    0.000048370   -0.000000611
     15        1           0.000076278    0.000693790   -0.000002027
     16        1          -0.000494180   -0.000072071   -0.000472927
     17        1           0.004630029    0.001745868    0.000001703
     18        1          -0.000493271   -0.000072482    0.000472905
 -------------------------------------------------------------------
 Cartesian Forces:  Max     0.008243862 RMS     0.001820650

 GradGradGradGradGradGradGradGradGradGradGradGradGradGradGradGradGradGrad
 Berny optimization.
 Using GEDIIS/GDIIS optimizer.
 FormGI is forming the generalized inverse of G from B-inverse, IUseBI=4.
 Internal  Forces:  Max     0.011174675 RMS     0.002563729
 Search for a local minimum.
 Step number   2 out of a maximum of   92
 All quantities printed in internal units (Hartrees-Bohrs-Radians)
 Mixed Optimization -- RFO/linear search
 Update second derivatives using D2CorX and points    1    2
 DE= -1.89D-04 DEPred=-5.67D-04 R= 3.34D-01
 Trust test= 3.34D-01 RLast= 5.17D-02 DXMaxT set to 3.00D-01
 ITU=  0  0
 Use linear search instead of GDIIS.
     Eigenvalues ---    0.00667   0.00927   0.01550   0.01598   0.01737
     Eigenvalues ---    0.02111   0.02158   0.02163   0.02175   0.02189
     Eigenvalues ---    0.02212   0.02245   0.02828   0.07052   0.07715
     Eigenvalues ---    0.15258   0.16000   0.16000   0.16000   0.16000
     Eigenvalues ---    0.16000   0.16000   0.16013   0.21917   0.22269
     Eigenvalues ---    0.23858   0.24910   0.25000   0.25000   0.28612
     Eigenvalues ---    0.32866   0.35030   0.35250   0.35448   0.35478
     Eigenvalues ---    0.35585   0.37263   0.42410   0.42730   0.43639
     Eigenvalues ---    0.43788   0.45879   0.46744   0.47547   0.52702
     Eigenvalues ---    0.57642   0.72551   0.98986
 RFO step:  Lambda=-5.71363847D-04 EMin= 6.67187406D-03
 Quartic linear search produced a step of -0.40362.
 Iteration  1 RMS(Cart)=  0.02235858 RMS(Int)=  0.00015947
 Iteration  2 RMS(Cart)=  0.00027269 RMS(Int)=  0.00000237
 Iteration  3 RMS(Cart)=  0.00000004 RMS(Int)=  0.00000237
 Variable       Old X    -DE/DX   Delta X   Delta X   Delta X     New X
                                 (Linear)    (Quad)   (Total)
    R1        2.63832   0.00113  -0.00262   0.00754   0.00493   2.64324
    R2        2.63678   0.00023  -0.00239   0.00573   0.00334   2.64012
    R3        2.04556   0.00001   0.00138  -0.00297  -0.00158   2.04397
    R4        2.64370   0.00031  -0.00223   0.00546   0.00323   2.64692
    R5        2.04607  -0.00003   0.00143  -0.00315  -0.00172   2.04435
    R6        2.62278  -0.00111  -0.00381   0.00681   0.00300   2.62578
    R7        2.04950   0.00012   0.00154  -0.00314  -0.00160   2.04791
    R8        2.66420  -0.00755  -0.00654   0.00405  -0.00249   2.66171
    R9        2.79957   0.00032  -0.00306   0.00716   0.00410   2.80367
   R10        2.65180  -0.00089  -0.00487   0.00935   0.00448   2.65628
   R11        2.81699  -0.00510  -0.00217  -0.00432  -0.00650   2.81050
   R12        2.04385  -0.00003   0.00218  -0.00477  -0.00258   2.04127
   R13        2.49934   0.00286  -0.00650   0.01708   0.01059   2.50992
   R14        2.33908  -0.00072  -0.00729   0.01582   0.00853   2.34762
   R15        1.84074  -0.00003  -0.00078   0.00168   0.00090   1.84164
   R16        1.93315   0.00024   0.00111  -0.00209  -0.00098   1.93217
   R17        2.02310  -0.00492   0.00423  -0.01721  -0.01297   2.01013
   R18        1.93315   0.00024   0.00111  -0.00209  -0.00098   1.93217
    A1        2.09905  -0.00010  -0.00004   0.00122   0.00118   2.10024
    A2        2.09449   0.00016   0.00004  -0.00023  -0.00020   2.09429
    A3        2.08965  -0.00006   0.00000  -0.00098  -0.00098   2.08866
    A4        2.09809  -0.00027   0.00109  -0.00167  -0.00057   2.09751
    A5        2.09986   0.00023  -0.00053   0.00115   0.00062   2.10047
    A6        2.08524   0.00004  -0.00056   0.00052  -0.00004   2.08520
    A7        2.07734  -0.00173  -0.00202  -0.00031  -0.00233   2.07501
    A8        2.09939   0.00087   0.00157  -0.00094   0.00063   2.10002
    A9        2.10646   0.00085   0.00044   0.00125   0.00170   2.10815
   A10        2.12827   0.00204   0.00028   0.00337   0.00365   2.13193
   A11        2.07563   0.00615   0.00467   0.00519   0.00986   2.08549
   A12        2.07928  -0.00819  -0.00495  -0.00856  -0.01351   2.06577
   A13        2.05934   0.00196   0.00334  -0.00327   0.00007   2.05940
   A14        2.11830  -0.01117  -0.00711  -0.01111  -0.01822   2.10008
   A15        2.10555   0.00922   0.00377   0.01438   0.01815   2.12370
   A16        2.10428  -0.00191  -0.00266   0.00066  -0.00200   2.10228
   A17        2.10197   0.00101   0.00240  -0.00230   0.00010   2.10207
   A18        2.07694   0.00090   0.00025   0.00164   0.00190   2.07884
   A19        1.98808   0.00352   0.00288   0.00228   0.00516   1.99323
   A20        2.15726  -0.00747  -0.00448  -0.00830  -0.01278   2.14448
   A21        2.13785   0.00395   0.00160   0.00602   0.00762   2.14547
   A22        1.91206  -0.00128   0.00205  -0.00890  -0.00686   1.90520
   A23        1.95444   0.00011  -0.00128   0.00345   0.00217   1.95661
   A24        1.84449   0.00052  -0.00202   0.00515   0.00314   1.84763
   A25        1.95444   0.00011  -0.00128   0.00344   0.00216   1.95660
   A26        1.91259  -0.00052   0.00123  -0.00529  -0.00406   1.90853
   A27        1.88496   0.00026   0.00211  -0.00177   0.00033   1.88529
   A28        1.91255  -0.00053   0.00124  -0.00531  -0.00407   1.90848
    D1        0.00001   0.00000  -0.00000   0.00000   0.00000   0.00001
    D2       -3.14159   0.00000   0.00000   0.00001   0.00001  -3.14159
    D3       -3.14159  -0.00000  -0.00000  -0.00000  -0.00000   3.14159
    D4       -0.00000   0.00000   0.00000   0.00000   0.00000   0.00000
    D5        0.00001  -0.00000  -0.00000  -0.00002  -0.00003  -0.00002
    D6        3.14158  -0.00000   0.00000  -0.00000   0.00000   3.14158
    D7       -3.14158  -0.00000  -0.00001  -0.00002  -0.00002   3.14158
    D8       -0.00001   0.00000   0.00000   0.00000   0.00000  -0.00000
    D9       -0.00000  -0.00000  -0.00000  -0.00000  -0.00000  -0.00000
   D10        3.14158  -0.00000   0.00000  -0.00000  -0.00000   3.14158
   D11       -3.14159  -0.00000  -0.00000  -0.00000  -0.00001   3.14159
   D12       -0.00000  -0.00000  -0.00000  -0.00001  -0.00001  -0.00001
   D13       -0.00002   0.00000   0.00001   0.00002   0.00003   0.00001
   D14        3.14157  -0.00000   0.00001  -0.00001   0.00000   3.14157
   D15        3.14158   0.00000   0.00001   0.00002   0.00003  -3.14158
   D16       -0.00001  -0.00000   0.00001  -0.00001   0.00000  -0.00001
   D17        0.00003  -0.00000  -0.00002  -0.00004  -0.00005  -0.00002
   D18       -3.14155  -0.00000  -0.00002  -0.00003  -0.00004  -3.14159
   D19       -3.14156  -0.00000  -0.00002  -0.00001  -0.00002  -3.14158
   D20        0.00005  -0.00000  -0.00002   0.00000  -0.00002   0.00003
   D21        1.06013   0.00025   0.00042   0.00131   0.00174   1.06187
   D22        3.14158   0.00000  -0.00003  -0.00001  -0.00004   3.14154
   D23       -1.06020  -0.00025  -0.00047  -0.00136  -0.00183  -1.06203
   D24       -2.08146   0.00025   0.00042   0.00128   0.00171  -2.07975
   D25       -0.00002   0.00000  -0.00003  -0.00004  -0.00006  -0.00008
   D26        2.08139  -0.00025  -0.00047  -0.00138  -0.00186   2.07953
   D27       -0.00002   0.00000   0.00001   0.00004   0.00005   0.00003
   D28        3.14158   0.00000   0.00000   0.00002   0.00002  -3.14158
   D29        3.14155   0.00000   0.00002   0.00003   0.00004  -3.14159
   D30       -0.00002   0.00000   0.00001   0.00001   0.00002  -0.00001
   D31       -3.14121  -0.00002  -0.00021  -0.00092  -0.00113   3.14085
   D32       -0.00030   0.00002   0.00016   0.00089   0.00105   0.00074
   D33        0.00040  -0.00002  -0.00021  -0.00091  -0.00112  -0.00072
   D34        3.14131   0.00002   0.00016   0.00090   0.00106  -3.14082
   D35        3.14124   0.00002   0.00019   0.00092   0.00112  -3.14082
   D36        0.00033  -0.00002  -0.00017  -0.00087  -0.00105  -0.00072
         Item               Value     Threshold  Converged?
 Maximum Force            0.011175     0.000450     NO 
 RMS     Force            0.002564     0.000300     NO 
 Maximum Displacement     0.088927     0.001800     NO 
 RMS     Displacement     0.022528     0.001200     NO 
 Predicted change in Energy=-4.293295D-04
 GradGradGradGradGradGradGradGradGradGradGradGradGradGradGradGradGradGrad

                          Input orientation:                          
 ---------------------------------------------------------------------
 Center     Atomic      Atomic             Coordinates (Angstroms)
 Number     Number       Type             X           Y           Z
 ---------------------------------------------------------------------
      1          6           0        1.941687   -1.477852    0.000067
      2          6           0        2.625329   -0.257558   -0.000121
      3          6           0        1.913106    0.948542   -0.000118
      4          6           0        0.524196    0.907965    0.000071
      5          6           0       -0.190189   -0.305940    0.000271
      6          6           0        0.544840   -1.504088    0.000250
      7          6           0       -1.677435   -0.302011    0.000466
      8          8           0       -2.225172   -1.512004   -0.000256
      9          7           0       -0.243548    2.177513    0.000103
     10          8           0       -2.348909    0.743189   -0.000313
     11          1           0        2.494674   -2.407430    0.000064
     12          1           0        3.706958   -0.236986   -0.000270
     13          1           0        2.440397    1.895316   -0.000255
     14          1           0        0.015167   -2.445505    0.000388
     15          1           0       -3.195722   -1.423755   -0.000780
     16          1           0       -0.047804    2.745556   -0.827202
     17          1           0       -1.269554    1.896802    0.000201
     18          1           0       -0.047692    2.745571    0.827371
 ---------------------------------------------------------------------
                    Distance matrix (angstroms):
                    1          2          3          4          5
     1  C    0.000000
     2  C    1.398744   0.000000
     3  C    2.426563   1.400692   0.000000
     4  C    2.775141   2.402749   1.389502   0.000000
     5  C    2.432751   2.815934   2.448995   1.408514   0.000000
     6  C    1.397094   2.425340   2.808478   2.412142   1.405641
     7  C    3.805345   4.302993   3.802087   2.512214   1.487250
     8  O    4.166999   5.010089   4.814523   3.662687   2.365533
     9  N    4.258750   3.762981   2.482242   1.483639   2.484026
    10  O    4.831381   5.073907   4.266959   2.877826   2.400154
    11  H    1.081623   2.153839   3.405990   3.856764   3.409509
    12  H    2.157760   1.081824   2.150205   3.382438   3.897757
    13  H    3.409835   2.160802   1.083705   2.155618   3.430089
    14  H    2.155884   3.405886   3.888666   3.391883   2.149397
    15  H    5.137694   5.936720   5.632754   4.390297   3.206671
    16  H    4.741269   4.104680   2.785407   2.094828   3.164904
    17  H    4.658365   4.450997   3.320921   2.048252   2.452978
    18  H    4.741241   4.104700   2.785458   2.094821   3.164825
                    6          7          8          9         10
     6  C    0.000000
     7  C    2.526558   0.000000
     8  O    2.770023   1.328194   0.000000
     9  N    3.765069   2.864275   4.188003   0.000000
    10  O    3.663883   1.242305   2.258585   2.547514   0.000000
    11  H    2.148925   4.673252   4.804033   5.340371   5.778122
    12  H    3.406543   5.384785   6.067605   4.629936   6.134677
    13  H    3.892182   4.667417   5.777314   2.698740   4.925936
    14  H    1.080194   2.731202   2.427044   4.630251   3.969461
    15  H    3.741424   1.887726   0.974554   4.656658   2.326530
    16  H    4.369826   3.553646   4.852998   1.022459   3.160428
    17  H    3.854618   2.236324   3.540221   1.063713   1.579820
    18  H    4.369762   3.553532   4.853177   1.022459   3.160726
                   11         12         13         14         15
    11  H    0.000000
    12  H    2.486053   0.000000
    13  H    4.303088   2.480098   0.000000
    14  H    2.479800   4.301962   4.972370   0.000000
    15  H    5.774792   7.003957   6.540800   3.369537   0.000000
    16  H    5.805328   4.865964   2.756428   5.256994   5.289189
    17  H    5.718026   5.414676   3.709951   4.528370   3.838779
    18  H    5.805297   4.866007   2.756535   5.256911   5.289537
                   16         17         18
    16  H    0.000000
    17  H    1.702249   0.000000
    18  H    1.654573   1.702223   0.000000
 Stoichiometry    C7H8NO2(1+)
 Framework group  C1[X(C7H8NO2)]
 Deg. of freedom    48
 Full point group                 C1      NOp   1
 Largest Abelian subgroup         C1      NOp   1
 Largest concise Abelian subgroup C1      NOp   1
                         Standard orientation:                         
 ---------------------------------------------------------------------
 Center     Atomic      Atomic             Coordinates (Angstroms)
 Number     Number       Type             X           Y           Z
 ---------------------------------------------------------------------
      1          6           0        1.946795   -1.471985    0.000053
      2          6           0        2.627475   -0.250036   -0.000135
      3          6           0        1.912329    0.954333   -0.000132
      4          6           0        0.523522    0.910388    0.000057
      5          6           0       -0.187918   -0.305246    0.000257
      6          6           0        0.550015   -1.501608    0.000237
      7          6           0       -1.675168   -0.304924    0.000453
      8          8           0       -2.219969   -1.516241   -0.000270
      9          7           0       -0.247299    2.178071    0.000089
     10          8           0       -2.349175    0.738645   -0.000326
     11          1           0        2.502035   -2.400219    0.000050
     12          1           0        3.709051   -0.226841   -0.000284
     13          1           0        2.437323    1.902383   -0.000268
     14          1           0        0.022627   -2.444306    0.000374
     15          1           0       -3.190730   -1.430347   -0.000794
     16          1           0       -0.052932    2.746587   -0.827216
     17          1           0       -1.272620    1.894872    0.000187
     18          1           0       -0.052820    2.746601    0.827357
 ---------------------------------------------------------------------
 Rotational constants (GHZ):      2.2304287      1.2018546      0.7843553
 Standard basis: 6-31+G(d,p) (6D, 7F)
 There are   230 symmetry adapted cartesian basis functions of A   symmetry.
 There are   230 symmetry adapted basis functions of A   symmetry.
   230 basis functions,   376 primitive gaussians,   230 cartesian basis functions
    36 alpha electrons       36 beta electrons
       nuclear repulsion energy       513.7445701532 Hartrees.
 NAtoms=   18 NActive=   18 NUniq=   18 SFac= 1.00D+00 NAtFMM=   60 NAOKFM=F Big=F
 Integral buffers will be    131072 words long.
 Regular integral format.
 Two-electron integral symmetry is turned on.
 One-electron integrals computed using PRISM.
 NBasis=   230 RedAO= T EigKep=  2.32D-06  NBF=   230
 NBsUse=   230 1.00D-06 EigRej= -1.00D+00 NBFU=   230
 Initial guess from the checkpoint file:  "B2PLYPAnthranilicyang.chk"
 B after Tr=    -0.000000   -0.000000    0.000000
         Rot=    0.999975    0.000003    0.000002   -0.007016 Ang=   0.80 deg.
 ExpMin= 4.38D-02 ExpMax= 5.48D+03 ExpMxC= 8.25D+02 IAcc=2 IRadAn=         4 AccDes= 0.00D+00
 Harris functional with IExCor=  419 and IRadAn=       4 diagonalized for initial guess.
 HarFok:  IExCor=  419 AccDes= 0.00D+00 IRadAn=         4 IDoV= 1 UseB2=F ITyADJ=14
 ICtDFT=  3500011 ScaDFX=  1.000000  1.000000  1.000000  1.000000
 FoFCou: FMM=F IPFlag=           0 FMFlag=      100000 FMFlg1=           0
         NFxFlg=           0 DoJE=T BraDBF=F KetDBF=T FulRan=T
         wScrn=  0.000000 ICntrl=     500 IOpCl=  0 I1Cent=   200000004 NGrid=           0
         NMat0=    1 NMatS0=      1 NMatT0=    0 NMatD0=    1 NMtDS0=    0 NMtDT0=    0
 Petite list used in FoFCou.
 Keep R1 ints in memory in canonical form, NReq=359209085.
 Requested convergence on RMS density matrix=1.00D-08 within 128 cycles.
 Requested convergence on MAX density matrix=1.00D-06.
 Requested convergence on             energy=1.00D-06.
 No special actions if energy rises.
 SCF Done:  E(RB2PLYP) =  -475.624519807     A.U. after   13 cycles
            NFock= 13  Conv=0.48D-08     -V/T= 2.0070
 DoSCS=T DFT=T ScalE2(SS,OS)=  0.270000  0.270000
 ExpMin= 4.38D-02 ExpMax= 5.48D+03 ExpMxC= 8.25D+02 IAcc=3 IRadAn=         5 AccDes= 0.00D+00
 HarFok:  IExCor=  205 AccDes= 0.00D+00 IRadAn=         5 IDoV=-2 UseB2=F ITyADJ=14
 ICtDFT= 12500011 ScaDFX=  1.000000  1.000000  1.000000  1.000000
 Range of M.O.s used for correlation:    11   230
 NBasis=   230 NAE=    36 NBE=    36 NFC=    10 NFV=     0
 NROrb=    220 NOA=    26 NOB=    26 NVA=   194 NVB=   194

 **** Warning!!: The largest alpha MO coefficient is  0.16759410D+03

 DoSCS=T DFT=T ScalE2(SS,OS)=  0.270000  0.270000
 Fully direct method using O(ONN) memory.
 JobTyp=1 Pass  1:  I=  11 to  17 NPSUse= 18 ParTrn=T ParDer=T DoDerP=T.
 JobTyp=1 Pass  2:  I=  18 to  24 NPSUse= 18 ParTrn=T ParDer=T DoDerP=T.
 JobTyp=1 Pass  3:  I=  25 to  31 NPSUse= 18 ParTrn=T ParDer=T DoDerP=T.
 JobTyp=1 Pass  4:  I=  32 to  36 NPSUse= 18 ParTrn=T ParDer=T DoDerP=T.
 Spin components of T(2) and E(2):
     alpha-alpha T2 =       0.1073232457D+00 E2=     -0.6547100941D-01
     alpha-beta  T2 =       0.5531199901D+00 E2=     -0.3538497083D+00
     beta-beta   T2 =       0.1073232457D+00 E2=     -0.6547100941D-01
 E2(B2PLYP) =    -0.4847917271D+00 E(B2PLYP) =    -0.47610931153445D+03
          IDoAtm=111111111111111111
          Differentiating once with respect to electric field.
                with respect to dipole field.
          Differentiating once with respect to nuclear coordinates.
 Keep R1 ints in memory in canonical form, NReq=359028194.
          There are     1 degrees of freedom in the 1st order CPHF.  IDoFFX=0 NUNeed=     1.
 LinEq1:  Iter=  0 NonCon=     1 RMS=1.81D-03 Max=6.65D-02 NDo=     1
 AX will form     1 AO Fock derivatives at one time.
 LinEq1:  Iter=  1 NonCon=     1 RMS=7.62D-04 Max=1.58D-02 NDo=     1
 LinEq1:  Iter=  2 NonCon=     1 RMS=2.95D-04 Max=7.06D-03 NDo=     1
 LinEq1:  Iter=  3 NonCon=     1 RMS=2.22D-04 Max=6.31D-03 NDo=     1
 LinEq1:  Iter=  4 NonCon=     1 RMS=9.04D-05 Max=2.31D-03 NDo=     1
 LinEq1:  Iter=  5 NonCon=     1 RMS=4.22D-05 Max=1.32D-03 NDo=     1
 LinEq1:  Iter=  6 NonCon=     1 RMS=2.03D-05 Max=8.72D-04 NDo=     1
 LinEq1:  Iter=  7 NonCon=     1 RMS=1.08D-05 Max=4.33D-04 NDo=     1
 LinEq1:  Iter=  8 NonCon=     1 RMS=3.78D-06 Max=9.98D-05 NDo=     1
 LinEq1:  Iter=  9 NonCon=     1 RMS=1.94D-06 Max=3.88D-05 NDo=     1
 LinEq1:  Iter= 10 NonCon=     1 RMS=5.50D-07 Max=1.08D-05 NDo=     1
 LinEq1:  Iter= 11 NonCon=     1 RMS=2.91D-07 Max=1.32D-05 NDo=     1
 LinEq1:  Iter= 12 NonCon=     1 RMS=1.29D-07 Max=3.49D-06 NDo=     1
 LinEq1:  Iter= 13 NonCon=     1 RMS=4.11D-08 Max=8.31D-07 NDo=     1
 LinEq1:  Iter= 14 NonCon=     1 RMS=2.37D-08 Max=7.04D-07 NDo=     1
 LinEq1:  Iter= 15 NonCon=     1 RMS=5.96D-09 Max=1.21D-07 NDo=     1
 LinEq1:  Iter= 16 NonCon=     1 RMS=1.55D-09 Max=2.49D-08 NDo=     1
 LinEq1:  Iter= 17 NonCon=     1 RMS=7.34D-10 Max=1.02D-08 NDo=     1
 LinEq1:  Iter= 18 NonCon=     1 RMS=2.08D-10 Max=3.94D-09 NDo=     1
 LinEq1:  Iter= 19 NonCon=     1 RMS=7.15D-11 Max=1.60D-09 NDo=     1
 LinEq1:  Iter= 20 NonCon=     0 RMS=3.33D-11 Max=6.52D-10 NDo=     1
 Linear equations converged to 1.000D-10 1.000D-09 after    20 iterations.
 End of Minotr F.D. properties file   721 does not exist.
 End of Minotr F.D. properties file   722 does not exist.
 End of Minotr F.D. properties file   788 does not exist.
 Calling FoFJK, ICntrl=  10002127 FMM=F ISym2X=0 I1Cent= 0 IOpClX= 0 NMat=1 NMatS=1 NMatT=0.
 ***** Axes restored to original set *****
 -------------------------------------------------------------------
 Center     Atomic                   Forces (Hartrees/Bohr)
 Number     Number              X              Y              Z
 -------------------------------------------------------------------
      1        6          -0.001465699    0.002230526   -0.000004272
      2        6          -0.002792960   -0.000239853    0.000000691
      3        6          -0.001710134   -0.001464306   -0.000001766
[...]
 ,-0.0000018,0.1798368,-0.0166614,-0.0000029,-0.0000055,0.0000079,-0.08
 96935,0.4292438,-0.2022833,-0.0000193,-0.0064687,0.42502,0.0000603,-0.
 0001302,0.0000554,-0.0576214,-0.7467883,0.0349531,-0.0000252,-0.059772
 5,-0.0986084,-0.0000038,-0.000014,0.0000039,0.0238909,0.0881848,0.1199
 525,-0.0000095,-0.0582426,0.027216,-0.0000039,0.0000189,-0.0000102,-0.
 0590811,2.0273292,0.0466713,0.0000863,0.2373033,1.7433034,-0.0004022,0
 .0000045,-0.0004582,0.3514701,-0.8717045,-0.5140045,0.0001267,-0.53730
 52,-1.0424465,0.0001605,0.0002066,0.0002501,-0.3300772,-0.4705253,-0.1
 559691,-0.0000013,0.0445207,-0.5202518,-0.0000463,0.0001091,0.0000029,
 -0.0464295,-1.0611446,0.1843027,-0.0001667,0.0684284,-1.1706525,0.0001
 437,-0.000188,0.0000301,-0.3397243,0.0665749,0.0221121,-0.0000037,0.02
 83523,0.0411185,0.000004,0.0000026,0.0000015,0.1448003,0.033918,-0.002
 3268,-0.0000002,-0.0062497,0.085281,-0.0000004,-0.000009,0.0000058,0.1
 419353,0.0922822,-0.011269,-0.0000004,-0.0222491,-0.0090694,-0.0000023
 ,0.0000089,-0.0000206,0.1520398,0.0935254,-0.0164532,-0.0000029,-0.016
 0844,0.0837128,-0.0000015,-0.0000289,0.0000012,0.1398441,0.4368671,0.1
 309597,-0.000037,0.129614,0.3178591,0.0000288,-0.0000566,0.0000165,0.3
 672427,0.2016166,0.010518,0.0115013,0.0147506,0.2510512,-0.0510348,0.0
 208816,-0.0831348,0.2670803,0.6373541,0.3956585,0.0000655,0.2169302,0.
 5305856,0.0001028,0.0000805,0.0001522,0.2006181,0.2015987,0.0104934,-0
 .0115242,0.0147427,0.251032,0.0510124,-0.0208967,0.0831062,0.2670593\P
 olar=116.1153674,-0.7393525,101.5345262,0.0029073,-0.0026143,48.782251
 3\PG=C01 [X(C7H8N1O2)]\NImag=0\\0.70318325,-0.03845575,0.74557200,0.00
 001302,-0.00001919,0.12196721,-0.18461492,-0.12171193,0.00000276,0.764
 17472,-0.06203191,-0.29812949,0.00000937,0.00440953,0.67580707,0.00000
 180,0.00000789,-0.05095609,0.00001044,-0.00001593,0.12557055,0.0619434
 5,0.02011168,0.00000152,-0.18454338,0.06165715,-0.00000621,0.70597642,
 -0.01417278,-0.05197792,0.00000064,0.12444740,-0.28790995,0.00000699,0
 .03636672,0.74439622,0.00000210,0.00000154,-0.00252958,-0.00000427,0.0
 0000225,-0.04922696,0.00000626,0.00000330,0.11257437,-0.04905072,-0.02
 732738,-0.00000093,-0.02747267,0.07944987,0.00000020,-0.35192946,-0.06
 240964,-0.00000161,0.71463859,-0.02781048,-0.01723446,-0.00000101,0.02
 781724,0.03068604,0.00000108,0.01479706,-0.12205640,-0.00000071,0.0515
 3450,0.61320613,-0.00000015,0.00000019,0.00291984,-0.00000026,0.000000
 34,-0.00635843,-0.00000168,-0.00000058,-0.04502376,0.00000813,0.000018
 76,0.13501094,-0.02698706,0.02745883,-0.00000130,0.00047404,-0.0062131
 5,-0.00000048,-0.03286883,-0.02032101,0.00000038,-0.17071039,-0.116885
 20,-0.00001118,0.65471266,0.06440941,0.03128348,0.00000392,0.00230356,
 -0.05753586,0.00000066,-0.06620526,0.02474095,-0.00000118,-0.05811439,
 -0.25520738,-0.00000602,-0.00619048,0.70373298,-0.00000292,0.00000076,
 -0.00323059,0.00000072,0.00000247,0.00311886,0.00000190,-0.00000372,-0
 .00196026,-0.00001399,-0.00000366,-0.03481329,0.00004229,-0.00002010,0
 .10193120,-0.35103508,0.02730214,-0.00000824,-0.02317036,-0.06821597,0
 .00000043,-0.04524979,0.01892019,-0.00000139,0.05780174,0.02649047,-0.
 00000033,-0.17172206,0.05838212,-0.00000658,0.70857817,-0.03292234,-0.
 13230884,-0.00000196,-0.03377417,0.03120695,-0.00000065,0.02771898,-0.
 01252057,0.00000077,-0.01927403,-0.05496383,0.00000142,0.11075053,-0.2
 7880298,0.00001136,0.04584513,0.73003772,-0.00000950,0.00000106,-0.050
 56222,-0.00000047,-0.00000291,-0.00303796,-0.00000147,0.00000145,0.003
 16431,0.00000252,0.00000103,-0.00741398,-0.00000807,0.00001029,-0.0428
 2714,0.00002615,-0.00000725,0.12221295,0.00300531,0.00224186,-0.000000
 78,-0.00027949,0.00455641,-0.00000005,0.01053310,-0.00409944,-0.000001
 36,-0.02212838,-0.02758808,0.00000097,-0.20459383,-0.00260647,-0.00002
 029,-0.02016713,0.01609917,-0.00000342,0.71494830,0.00439024,-0.006388
 45,0.00000061,0.00048042,-0.00339286,0.00000009,-0.00432608,-0.0070952
 3,0.00000030,-0.03358558,0.01355362,-0.00000326,-0.01135532,-0.1023664
 7,-0.00000251,0.02776644,0.01147447,0.00000218,-0.09778400,0.86657440,
 0.00000081,0.00000019,0.00926397,0.00000031,-0.00000057,-0.00200940,0.
 00000046,0.00000107,0.00706892,0.00000241,-0.00000319,-0.00585499,-0.0
 0001623,-0.00000441,-0.06505279,-0.00000087,0.00000112,-0.00425751,0.0
 0005162,-0.00016519,0.19658627,0.00120400,-0.00058518,-0.00000046,-0.0
 0015304,-0.00216568,0.00000019,-0.00311698,-0.00139432,-0.00000055,-0.
 00513898,0.00851958,-0.00000072,-0.03082986,-0.04498317,0.00001059,-0.
 00425795,-0.00204689,0.00000102,-0.17855121,-0.11398531,0.00003268,0.6
 7104569,-0.00049457,0.00057643,-0.00000049,0.00019760,-0.00097316,0.00
 000007,-0.00162088,0.00175726,-0.00000004,0.00364519,0.00072336,-0.000
 00037,-0.01731116,-0.00520355,0.00000472,0.00192410,-0.00417056,0.0000
 0080,-0.07212938,-0.29766980,0.00007083,0.06360097,0.45060079,-0.00000
 020,0.00000013,-0.00116145,0.00000007,0.00000048,0.00012252,0.00000033
 ,-0.00000090,-0.00062064,-0.00000115,0.00000002,0.00203425,0.00000200,
 0.00000195,0.00828328,-0.00000059,0.00000072,0.00146088,0.00002023,0.0
 0007379,-0.06196292,0.00000016,-0.00012802,0.03968272,0.00095113,0.000
 43994,-0.00000014,-0.00740392,-0.00588599,-0.00000026,-0.01969603,0.04
 788528,0.00000171,-0.12422096,0.02769402,0.00000347,0.01406286,-0.0071
 6105,0.00000083,-0.00081399,-0.00108500,0.00000014,-0.02162924,0.01502
 204,-0.00001004,0.00258132,-0.00853664,0.00000604,0.57187267,-0.002035
 48,-0.00134184,0.00000029,-0.00055083,0.00553594,-0.00000151,0.0077930
 1,-0.00867302,-0.00000032,0.03911832,-0.16634680,-0.00000661,0.0234541
 5,-0.02946621,-0.00000021,-0.00538969,-0.00393649,-0.00000178,-0.00189
 663,0.00639094,-0.00000281,0.00015749,-0.00340171,0.00000278,0.0907676
 5,0.60668960,-0.00000122,-0.00000035,-0.00158956,-0.00000038,0.0000016
 5,0.00750548,0.00000215,-0.00000245,0.00020016,0.00000252,-0.00000965,
 -0.06934228,0.00000468,0.00000158,-0.00369358,-0.00000031,-0.00000134,
 0.00834542,-0.00000113,0.00000011,-0.00232857,0.00000154,-0.00000051,-
 0.00130151,0.00002248,-0.00002146,0.71893502,-0.00202432,0.00187523,0.
 00000054,0.00030001,0.00007015,-0.00000013,-0.00154802,0.00120061,-0.0
 0000033,0.00545686,0.00377767,-0.00000057,-0.03091473,0.04301900,-0.00
 001204,-0.00535441,-0.00730730,-0.00000124,-0.28665040,0.24004633,-0.0
 0007373,0.03547075,-0.00683295,0.00000398,-0.01648445,-0.02106091,-0.0
 0001384,0.32205585,0.00136294,0.00129602,-0.00000058,-0.00049900,0.000
 62822,-0.00000021,0.00216213,0.00201772,-0.00000101,0.00190551,-0.0173
 8537,-0.00000056,0.02766747,-0.00515965,0.00000926,-0.00064450,0.00390
 747,-0.00000071,0.22488506,-0.44801348,0.00009521,0.01838965,-0.104525
 57,0.00004091,-0.04345438,-0.01674984,-0.00000821,-0.26542549,0.558744
 62,-0.00000004,0.00000072,-0.00168927,0.00000001,-0.00000018,0.0002539
 7,-0.00000072,0.00000137,-0.00052114,0.00000171,-0.00000300,0.00044157
 ,-0.00000907,0.00000984,0.01707699,-0.00000100,-0.00000115,0.00337859,
 -0.00007684,0.00010316,-0.07125797,-0.00000248,0.00003182,0.02647488,-
 0.00001972,-0.00001257,0.00948885,0.00009424,-0.00014479,0.03521476,-0
 .13746080,0.13005547,-0.00000503,0.01253099,-0.01616548,0.00000079,-0.
 00104953,-0.00362057,0.,-0.00118575,-0.00115594,0.00000016,-0.00513428
 ,-0.00106803,-0.00000065,-0.01149169,0.02788233,-0.00000080,0.00050781
 ,0.00162770,0.00000020,-0.00014832,-0.00019836,-0.00000002,0.00031763,
 0.00013168,-0.00000005,-0.00080647,0.00026314,-0.00000011,0.14174981,0
 .13012339,-0.28008757,0.00000854,0.01520750,-0.01725138,0.00000088,-0.
 00312737,-0.00307296,0.00000020,-0.00125659,0.00010207,0.00000006,-0.0
 0130279,0.00125312,0.,-0.00355943,0.00614299,-0.00000011,-0.00014763,0
 .00030954,0.00000006,0.00002914,0.00000243,-0.00000001,0.00028289,0.00
 005583,-0.00000011,-0.00014710,0.00007345,-0.00000004,-0.13691955,0.29
 166524,-0.00000486,0.00000785,-0.03820490,-0.00000043,0.00000107,0.002
 59778,0.00000058,0.00000017,0.00802252,0.00000004,-0.00000018,-0.00053
 577,-0.00000057,-0.00000027,0.00805838,-0.00000063,0.00000066,0.002264
 30,-0.00000004,-0.00000008,0.00030518,0.00000005,0.00000004,-0.0000417
 7,0.00000004,0.00000012,-0.00110450,0.00000014,0.00000009,-0.00029150,
 0.00000546,-0.00000928,0.02656775,-0.00835403,0.00242665,-0.00000032,-
 0.35679639,-0.00506195,-0.00000726,-0.00937986,-0.00241086,-0.00000017
 ,0.00085731,0.00202556,-0.00000011,0.00094015,-0.00017779,0.00000006,0
 .00016335,-0.00232680,-0.00000020,-0.00036979,-0.00003489,0.,0.0000106
 2,0.00005068,0.,-0.00065402,-0.00013177,0.00000001,0.00004309,-0.00013
 828,-0.00000006,0.00074759,0.00008795,0.00000011,0.37235747,-0.0286790
 6,0.00492723,-0.00000043,-0.00554829,-0.06086341,0.00000074,0.02901098
 ,0.00378086,0.00000059,0.00170060,-0.00395490,0.00000016,0.00002739,-0
 .00140661,0.00000009,-0.00279188,-0.00498535,0.00000034,0.00019580,-0.
 00035754,0.00000001,-0.00008701,0.00016012,-0.00000003,0.00233657,-0.0
 0023640,-0.00000011,-0.00002801,0.00039488,0.00000010,0.00032182,0.000
 98274,-0.00000018,0.00531981,0.06060848,0.00000122,0.00000009,0.003863
 62,-0.00000786,0.00000076,-0.03899227,-0.00000039,-0.00000064,0.002745
 42,-0.00000050,0.00000010,0.00780344,-0.00000024,-0.00000024,-0.001269
 33,-0.00000031,0.00000090,0.00806355,0.00000036,-0.00000010,-0.0011150
 6,0.,-0.00000002,0.00018634,-0.00000010,0.,0.00013962,-0.00000003,0.00
 000029,0.00013721,0.00000002,-0.00000013,-0.00364671,0.00000781,-0.000
 00103,0.02631089,-0.00168583,0.00349719,-0.00000027,0.01319542,0.01608
 701,0.00000051,-0.13015589,-0.12365465,-0.00000221,-0.01105696,-0.0288
 6200,-0.00000066,-0.00496079,0.00210948,-0.00000065,-0.00063281,0.0008
 0185,0.00000001,0.00072160,-0.00178725,0.00000032,-0.00074730,0.000080
 14,-0.00000014,0.00328725,-0.00016246,-0.00000042,0.00009471,0.0008343
 4,0.00000032,0.00055346,0.00080978,-0.00000010,0.00074716,-0.00025870,
 0.00000005,0.13321927,0.00379864,-0.00296527,0.00000008,-0.01539079,-0
 .01773329,-0.00000045,-0.12362638,-0.27925255,-0.00000533,0.00376536,0
 .00288058,0.00000010,0.00072766,0.00129802,-0.00000006,0.00103071,-0.0
 0002190,0.00000002,0.00059941,-0.00003304,0.00000018,0.00000996,0.0000
 7264,0.,0.00009302,0.00153896,0.,-0.00007864,0.00028599,-0.00000005,-0
 .00088020,-0.00082068,0.00000010,-0.00012652,0.00112529,0.00000001,0.1
 3094371,0.29307576,-0.00000098,-0.00000007,0.00744031,-0.00000032,0.00
 000186,0.00245578,-0.00000114,-0.00000643,-0.03332352,-0.00000104,-0.0
 0000118,0.00147367,0.00000011,0.00000009,0.00660641,0.00000050,-0.0000
 0045,-0.00152271,-0.00000004,0.00000017,0.00146449,-0.00000006,-0.0000
 0002,-0.00024100,0.00000015,0.00000087,-0.00319991,0.00000005,0.000000
 10,-0.00015310,-0.00000001,0.00000002,-0.00017451,0.00000009,-0.000000
 05,-0.00360040,0.00000301,0.00000530,0.02405353,-0.00912718,-0.0275112
 5,-0.00000048,-0.00569602,0.00052480,-0.00000050,-0.00098981,0.0009969
 8,-0.00000007,-0.00168594,0.00233546,-0.00000039,0.01180419,0.01652993
 ,0.00000026,-0.13091700,-0.12880353,-0.00000453,0.00190325,0.00180431,
 -0.00000054,-0.00380453,0.00016592,0.00000065,-0.00002652,0.00163179,0
 .00000029,-0.00000952,-0.00128772,0.00000014,0.00111726,0.00011585,0.0
 0000025,-0.00040485,-0.00133888,0.00000016,0.00008802,-0.00008658,0.00
 000006,0.13717917,0.00303496,0.00640383,0.00000021,0.00124447,0.000908
 74,0.,0.00034798,0.00027154,-0.00000001,0.00357911,-0.00125626,0.00000
 014,-0.01305141,-0.01860124,-0.00000023,-0.12677285,-0.28742233,-0.000
 00408,-0.00137584,-0.00220891,0.00000048,-0.00083852,0.00108575,-0.000
 00027,-0.00025556,-0.00102232,-0.00000010,-0.00005104,0.00115474,-0.00
 000007,-0.00007338,0.00066491,-0.00000005,0.00027294,0.00024050,-0.000
 00003,-0.00009061,0.00002078,0.,0.13442151,0.29966836,0.00000095,-0.00
 000076,0.00405053,-0.00000029,-0.00000050,0.00792188,-0.00000074,0.,-0
 .00152391,-0.00000056,0.00000066,0.00642513,0.00000030,-0.00000055,0.0
 0175586,-0.00000582,-0.00000378,-0.03772897,0.00000083,-0.00000004,-0.
 00385513,0.00000069,-0.00000008,0.00059158,0.00000042,0.00000037,0.001
 00835,-0.00000026,0.00000069,0.00058042,0.00000014,-0.00000010,-0.0037
 4318,0.,-0.00000011,-0.00059680,0.00000003,-0.00000002,-0.00063737,0.0
 0000467,0.00000414,0.02596078,-0.00015855,0.00008593,0.00000009,0.0000
 8196,0.00037246,-0.00000006,0.00055474,-0.00052828,0.00000003,-0.00116
 628,0.00013899,0.00000031,0.00191948,-0.00209807,0.00000084,0.00076394
 ,0.00007390,-0.00000019,-0.02595403,-0.00762430,-0.00000036,-0.4811315
 4,0.02411600,-0.00002154,0.00132367,0.00049802,-0.00000017,0.00152032,
 0.01032046,-0.00000124,0.00002138,-0.00000489,0.,-0.00000026,0.0000135
 3,0.,-0.00003206,0.00001119,-0.00000005,-0.00008572,0.00009268,-0.0000
 0009,0.50405853,0.00008591,0.00034815,0.00000012,0.00016745,-0.0000212
 1,-0.00000002,-0.00002172,-0.00053571,-0.00000007,-0.00164311,0.000865
 41,0.00000005,-0.00117713,-0.00625958,0.00000339,0.00095800,-0.0004408
 6,-0.00000047,-0.05656995,0.00158946,-0.00000144,0.07570115,-0.0502338
 6,0.00001620,0.00147119,0.00069669,0.00000044,0.00703430,0.00294758,-0
 .00000163,0.00001977,0.00000865,0.,0.00001497,0.00002920,0.,-0.0001290
 0,0.00000694,-0.00000006,-0.00021232,0.00071262,0.00000006,-0.02390128
 ,0.05193507,0.00000024,0.00000001,0.00031234,-0.00000009,-0.00000030,-
 0.00000799,-0.00000032,0.00000048,-0.00023854,0.00000115,-0.00000037,0
 .00077725,-0.00000086,0.00000343,0.00528194,-0.00000058,0.00000008,-0.
 00063966,0.00002043,0.00000082,0.00307710,-0.00004061,0.00001309,-0.01
 618604,-0.00000102,-0.00000048,0.00022221,-0.00000228,-0.00000216,-0.0
 0579674,0.,0.,0.00003884,0.,-0.00000001,-0.00002474,0.00000006,0.,-0.0
 0015291,-0.00000010,-0.00000003,-0.00024309,0.00002302,-0.00001534,0.0
 1361524,0.00054778,0.00044219,-0.00019571,-0.00010493,-0.00057003,0.00
 059438,0.00072203,0.00170268,0.00037190,0.00479921,0.01154006,-0.01608
 179,-0.00147808,0.00014605,-0.00117373,-0.00063688,0.00060129,0.000821
 57,-0.00072644,0.00069834,-0.00044118,0.00005192,-0.00034341,0.0005549
 8,-0.07122726,-0.04241173,0.06148847,-0.00273635,-0.00256676,-0.002363
 28,-0.00002995,-0.00006940,-0.00008211,-0.00002374,0.00000322,0.000000
 67,-0.00089482,-0.00034962,-0.00042496,-0.00007754,0.00008422,0.000177
 56,0.00003958,0.00004026,-0.00000336,0.06669280,0.00025882,0.00032931,
 0.00022394,-0.00013403,-0.00108052,-0.00113912,-0.00150346,0.00231787,
 -0.00034944,-0.00538928,-0.02001568,0.01968178,0.00289201,-0.00147823,
 0.00117369,-0.00069467,-0.00061501,-0.00116528,0.00037172,-0.00096739,
 0.00062216,0.00013994,0.00053553,0.00007769,-0.04231020,-0.16154285,0.
 16089873,-0.00033379,0.00081625,-0.00049672,0.00002036,0.00002974,0.00
 020289,-0.00002564,0.00009068,0.00000526,0.00033682,0.00026660,0.00077
 344,0.00019187,-0.00016953,-0.00020689,-0.00011360,-0.00006674,0.00000
 108,0.04110032,0.17089533,-0.00030458,-0.00041703,0.00000884,0.0000171
 0,0.00048634,0.00030677,0.00066300,-0.00119950,0.00033378,-0.00354212,
 0.00006503,0.00683870,0.00042892,-0.00133517,-0.00028532,0.00018473,-0
 .00051196,-0.00021063,0.00062381,0.00079275,0.00038146,-0.00035704,-0.
 00062090,-0.00002465,0.05841710,0.15199387,-0.29712051,-0.00139683,-0.
 00138181,-0.00063842,-0.00001164,-0.00002311,-0.00005974,0.00005500,-0
 .00008204,0.00002552,-0.00033970,0.00014948,-0.00014184,0.00006015,-0.
 00011026,0.00001689,0.00010693,0.00006043,0.00006219,-0.06562324,-0.16
 637285,0.31032056,-0.00088472,-0.00078815,0.,-0.00041747,-0.00024681,0
 .00000026,0.00007554,-0.00061102,0.00000081,-0.02261416,0.01408953,0.0
 0000205,-0.00223562,0.00155853,-0.00000020,-0.00122088,-0.00283496,-0.
 00000002,0.03016128,-0.02205466,0.00001364,-0.00253724,0.01403185,-0.0
 0001075,-0.26098127,-0.04745993,0.00004829,-0.01567106,0.02879956,0.00
 001950,-0.00020920,-0.00005235,-0.00000002,0.00013995,-0.00020108,-0.0
 0000017,-0.00084557,-0.00009114,-0.00000010,0.00081032,-0.00065296,-0.
 00000007,-0.00179477,-0.00187907,0.00000102,0.00302931,-0.00036720,0.0
 0209554,0.27217845,-0.00112063,-0.00063193,-0.00000012,0.00146819,0.00
 119855,0.00000052,0.00196901,-0.00850731,-0.00000077,0.02970046,0.0164
 2261,-0.00000450,-0.00206479,0.00065640,-0.00000114,0.00014485,-0.0019
 6549,0.00000054,0.01487809,-0.03043425,0.00000740,-0.00060195,0.010128
 97,-0.00000756,-0.03494846,-0.06665594,0.00001630,0.00457684,0.0187529
 6,0.00001731,-0.00026116,-0.00008784,-0.00000008,0.00026161,-0.0006265
 2,0.00000007,-0.00089273,-0.00001160,-0.00000015,0.00032988,-0.0002816
 0,-0.00000008,-0.00133917,-0.00151521,0.00000080,-0.01561514,-0.004303
 51,-0.00068937,0.01913096,0.07216545,-0.00000031,-0.00000010,0.0000882
 2,0.00000006,0.00000023,0.00042851,-0.00000038,-0.00000111,0.00052474,
 0.00000200,0.00000326,-0.00121449,-0.00000148,0.00000158,0.00130466,-0
 .00000052,-0.00000040,-0.00047899,0.00000882,-0.00000910,-0.00083488,-
 0.00000195,0.00000804,0.00272889,0.00006255,0.00002335,-0.06907478,0.0
 0000408,0.00001040,-0.01206310,-0.00000011,-0.00000001,0.00000761,0.00
 000003,-0.00000010,-0.00005579,-0.00000018,0.00000004,-0.00020502,0.00
 000013,-0.00000010,0.00000020,-0.00000063,-0.00000122,-0.00015967,0.03
 131110,0.00526690,0.00280500,-0.00007315,-0.00003062,0.07338693,0.0005
 4829,0.00044253,0.00019571,-0.00010457,-0.00057042,-0.00059405,0.00072
 231,0.00170268,-0.00037124,0.00480695,0.01154155,0.01608275,-0.0014778
 6,0.00014661,0.00117358,-0.00063717,0.00060183,-0.00082151,-0.00073072
 ,0.00070157,0.00044050,0.00005265,-0.00034513,-0.00055405,-0.07125887,
 -0.04245268,-0.06155290,-0.00274186,-0.00257412,0.00235863,-0.00002994
 ,-0.00006940,0.00008209,-0.00002373,0.00000317,-0.00000071,-0.00089488
 ,-0.00034979,0.00042471,-0.00007759,0.00008429,-0.00017775,0.00003961,
 0.00004057,0.00000328,0.00205339,0.00556002,0.00892288,0.00301713,-0.0
 1561585,-0.03131005,0.06673687,0.00025866,0.00032932,-0.00022394,-0.00
 013433,-0.00108037,0.00113898,-0.00150355,0.00231921,0.00034993,-0.005
 39894,-0.02001872,-0.01968109,0.00289439,-0.00147719,-0.00117410,-0.00
 069515,-0.00061540,0.00116488,0.00036990,-0.00096501,-0.00062109,0.000
 14016,0.00053492,-0.00007788,-0.04235533,-0.16153454,-0.16087452,-0.00
 033491,0.00081401,0.00049587,0.00002038,0.00002973,-0.00020285,-0.0000
 2567,0.00009075,-0.00000532,0.00033707,0.00026674,-0.00077343,0.000191
 98,-0.00016957,0.00020698,-0.00011358,-0.00006662,-0.00000111,0.005567
 45,0.01495816,0.01919609,-0.00037110,-0.00430373,-0.00527102,0.0411525
 5,0.17088829,0.00030462,0.00041705,0.00000879,-0.00001711,-0.00048642,
 0.00030701,-0.00066315,0.00119986,0.00033410,0.00354123,-0.00006700,0.
 00683219,-0.00042919,0.00133458,-0.00028529,-0.00018463,0.00051193,-0.
 00021026,-0.00062311,-0.00079371,0.00038182,0.00035693,0.00062103,-0.0
 0002535,-0.05848368,-0.15197387,-0.29708990,0.00139825,0.00138310,-0.0
 0063600,0.00001164,0.00002313,-0.00005977,-0.00005501,0.00008206,0.000
 02548,0.00034003,-0.00014942,-0.00014189,-0.00006014,0.00011026,0.0000
 1684,-0.00010690,-0.00006045,0.00006227,-0.00893127,-0.01919724,-0.022
 61859,-0.00209666,0.00069146,0.00281197,0.06569816,0.16635364,0.310286
 55\\0.00000622,0.00000021,0.00000032,0.00000321,-0.00000325,-0.0000001
 2,-0.00000694,0.00000553,-0.00000491,-0.00000336,0.00000147,0.00000035
 ,-0.00003687,0.00000700,0.00000919,0.00000314,-0.00000162,0.00000357,0
 .00005171,-0.00000574,-0.00003346,-0.00001087,-0.00002303,0.00001195,-
 0.00002188,-0.00000426,-0.00002233,-0.00003655,0.00002422,-0.00000075,
 0.00000168,0.00000169,-0.00000070,0.00000006,0.00000143,0.00000100,0.0
 0000097,0.00000096,-0.00000017,-0.00000046,0.00000197,-0.00000016,0.00
 000894,0.00000801,0.00000145,0.00001154,0.00000355,-0.00000138,0.00003
 573,-0.00001998,0.00003132,-0.00000627,0.00000184,0.00000483\\\@


 We find comfort among those who agree with us -- growth among those who don't.
 -- Frank A. Clark
 Job cpu time:       0 days  3 hours  0 minutes 48.0 seconds.
 File lengths (MBytes):  RWF=  14483 Int=      0 D2E=      0 Chk=      7 Scr=      1
 Normal termination of Gaussian 09 at Sun Dec 15 22:50:22 2024.
