 Entering Gaussian System, Link 0=g09
 Input=B2PLYPAnthranilic.gjf
 Output=B2PLYPAnthranilic.log
 Initial command:
 /home/c612/g09E/g09/l1.exe "/mnt/ja_sm883/scratch/Gau-776838.inp" -scrdir="/mnt/ja_sm883/scratch/"
 Default is to use a total of  18 processors:
                               18 via shared-memory
                                1 via Linda
 Entering Link 1 = /home/c612/g09E/g09/l1.exe PID=    776840.
  
 Copyright (c) 1988,1990,1992,1993,1995,1998,2003,2009,2015,
            Gaussian, Inc.  All Rights Reserved.
  
 This is part of the Gaussian(R) 09 program.  It is based on
 the Gaussian(R) 03 system (copyright 2003, Gaussian, Inc.),
 the Gaussian(R) 98 system (copyright 1998, Gaussian, Inc.),
 the Gaussian(R) 94 system (copyright 1995, Gaussian, Inc.),
 the Gaussian 92(TM) system (copyright 1992, Gaussian, Inc.),
 the Gaussian 90(TM) system (copyright 1990, Gaussian, Inc.),
 the Gaussian 88(TM) system (copyright 1988, Gaussian, Inc.),
 the Gaussian 86(TM) system (copyright 1986, Carnegie Mellon
 University), and the Gaussian 82(TM) system (copyright 1983,
 Carnegie Mellon University). Gaussian is a federally registered
 trademark of Gaussian, Inc.
  
 This software contains proprietary and confidential information,
 including trade secrets, belonging to Gaussian, Inc.
  
 This software is provided under written license and may be
 used, copied, transmitted, or stored only in accord with that
 written license.
  
 The following legend is applicable only to US Government
 contracts under FAR:
  
                    RESTRICTED RIGHTS LEGEND
  
 Use, reproduction and disclosure by the US Government is
 subject to restrictions as set forth in subparagraphs (a)
 and (c) of the Commercial Computer Software - Restricted
 Rights clause in FAR 52.227-19.
  
 Gaussian, Inc.
 340 Quinnipiac St., Bldg. 40, Wallingford CT 06492
  
  
 ---------------------------------------------------------------
 Warning -- This program may not be used in any manner that
 competes with the business of Gaussian, Inc. or will provide
 assistance to any competitor of Gaussian, Inc.  The licensee
 of this program is prohibited from giving any competitor of
 Gaussian, Inc. access to this program.  By using this program,
 the user acknowledges that Gaussian, Inc. is engaged in the
 business of creating and licensing software in the field of
 computational chemistry and represents and warrants to the
 licensee that it is not a competitor of Gaussian, Inc. and that
 it will not use this program in any manner prohibited above.
 ---------------------------------------------------------------
  

 Cite this work as:
 Gaussian 09, Revision E.01,
 M. J. Frisch, G. W. Trucks, H. B. Schlegel, G. E. Scuseria, 
 M. A. Robb, J. R. Cheeseman, G. Scalmani, V. Barone, B. Mennucci, 
 G. A. Petersson, H. Nakatsuji, M. Caricato, X. Li, H. P. Hratchian, 
 A. F. Izmaylov, J. Bloino, G. Zheng, J. L. Sonnenberg, M. Hada, 
 M. Ehara, K. Toyota, R. Fukuda, J. Hasegawa, M. Ishida, T. Nakajima, 
 Y. Honda, O. Kitao, H. Nakai, T. Vreven, J. A. Montgomery, Jr., 
 J. E. Peralta, F. Ogliaro, M. Bearpark, J. J. Heyd, E. Brothers, 
 K. N. Kudin, V. N. Staroverov, T. Keith, R. Kobayashi, J. Normand, 
 K. Raghavachari, A. Rendell, J. C. Burant, S. S. Iyengar, J. Tomasi, 
 M. Cossi, N. Rega, J. M. Millam, M. Klene, J. E. Knox, J. B. Cross, 
 V. Bakken, C. Adamo, J. Jaramillo, R. Gomperts, R. E. Stratmann, 
 O. Yazyev, A. J. Austin, R. Cammi, C. Pomelli, J. W. Ochterski, 
 R. L. Martin, K. Morokuma, V. G. Zakrzewski, G. A. Voth, 
 P. Salvador, J. J. Dannenberg, S. Dapprich, A. D. Daniels, 
 O. Farkas, J. B. Foresman, J. V. Ortiz, J. Cioslowski, 
 and D. J. Fox, Gaussian, Inc., Wallingford CT, 2013.
 
 ******************************************
 Gaussian 09:  ES64L-G09RevE.01 30-Nov-2015
                15-Dec-2024 
 ******************************************
 %chk=B2PLYPAnthranilic.chk
 -----------------------------
 # opt freq B2PLYP/6-31+g(d,p)
 -----------------------------
 1/18=20,19=15,38=1/1,3;
 2/9=110,12=2,17=6,18=5,40=1/2;
 3/5=1,6=6,7=111,11=9,16=1,25=1,30=1,71=1,74=-47/1,2,3;
 4//1;
 5/5=2,38=5/2;
 8/6=4,10=2/1;
 9/15=2,16=-3/6;
 10/5=1/2;
 6/7=2,8=2,9=2,10=2/1;
 7/12=2/1,2,3,16;
 1/18=20,19=15/3(2);
 2/9=110/2;
 99//99;
 2/9=110/2;
 3/5=1,6=6,7=111,11=9,16=1,25=1,30=1,71=1,74=-47/1,2,3;
 4/5=5,16=3,69=1/1;
 5/5=2,38=5/2;
 8/6=4,10=2/1;
 9/15=2,16=-3/6;
 10/5=1/2;
 7/12=2/1,2,3,16;
 1/18=20,19=15/3(-8);
 2/9=110/2;
 6/7=2,8=2,9=2,10=2/1;
 99//99;
 ----------
 [No Title]
 ----------
 Symbolic Z-matrix:
 Charge =  0 Multiplicity = 1
 C                    -1.84983  -1.52297   0.00001 
 C                    -2.57849  -0.32414   0. 
 C                    -1.93749   0.89832   0. 
 C                    -0.52642   0.98505   0.00001 
 C                     0.20963  -0.22822   0.00001 
 C                    -0.46948  -1.45938   0.00002 
 C                     1.67863  -0.20058   0. 
 O                     2.24715  -1.4246   -0.00005 
 N                     0.07087   2.20604   0.00003 
 O                     2.37429   0.80207  -0.00001 
 H                    -2.35885  -2.47981   0.00002 
 H                    -3.66432  -0.35051  0. 
 H                    -2.5146    1.8189   0. 
 H                     0.12141  -2.36836   0.00002 
 H                     3.20526  -1.28233  -0.00007 
 H                     1.07777   2.27372   0.00003 
 H                    -0.49358   3.03784  -0.00002 
 

 GradGradGradGradGradGradGradGradGradGradGradGradGradGradGradGradGradGrad
 Berny optimization.
 Initialization pass.
                           ----------------------------
                           !    Initial Parameters    !
                           ! (Angstroms and Degrees)  !
 --------------------------                            --------------------------
 ! Name  Definition              Value          Derivative Info.                !
 --------------------------------------------------------------------------------
 ! R1    R(1,2)                  1.4029         estimate D2E/DX2                !
 ! R2    R(1,6)                  1.3818         estimate D2E/DX2                !
 ! R3    R(1,11)                 1.0838         estimate D2E/DX2                !
 ! R4    R(2,3)                  1.3803         estimate D2E/DX2                !
 ! R5    R(2,12)                 1.0861         estimate D2E/DX2                !
 ! R6    R(3,4)                  1.4137         estimate D2E/DX2                !
 ! R7    R(3,13)                 1.0865         estimate D2E/DX2                !
 ! R8    R(4,5)                  1.4191         estimate D2E/DX2                !
 ! R9    R(4,9)                  1.3593         estimate D2E/DX2                !
 ! R10   R(5,6)                  1.406          estimate D2E/DX2                !
 ! R11   R(5,7)                  1.4693         estimate D2E/DX2                !
 ! R12   R(6,14)                 1.0842         estimate D2E/DX2                !
 ! R13   R(7,8)                  1.3496         estimate D2E/DX2                !
 ! R14   R(7,10)                 1.2204         estimate D2E/DX2                !
 ! R15   R(8,15)                 0.9686         estimate D2E/DX2                !
 ! R16   R(9,16)                 1.0092         estimate D2E/DX2                !
 ! R17   R(9,17)                 1.0052         estimate D2E/DX2                !
 ! A1    A(2,1,6)              118.6543         estimate D2E/DX2                !
 ! A2    A(2,1,11)             120.6962         estimate D2E/DX2                !
 ! A3    A(6,1,11)             120.6495         estimate D2E/DX2                !
 ! A4    A(1,2,3)              121.0379         estimate D2E/DX2                !
 ! A5    A(1,2,12)             119.9004         estimate D2E/DX2                !
 ! A6    A(3,2,12)             119.0617         estimate D2E/DX2                !
 ! A7    A(2,3,4)              121.1873         estimate D2E/DX2                !
 ! A8    A(2,3,13)             120.2456         estimate D2E/DX2                !
 ! A9    A(4,3,13)             118.5671         estimate D2E/DX2                !
 ! A10   A(3,4,5)              117.7268         estimate D2E/DX2                !
 ! A11   A(3,4,9)              119.584          estimate D2E/DX2                !
 ! A12   A(5,4,9)              122.6891         estimate D2E/DX2                !
 ! A13   A(4,5,6)              119.875          estimate D2E/DX2                !
 ! A14   A(4,5,7)              120.1656         estimate D2E/DX2                !
 ! A15   A(6,5,7)              119.9594         estimate D2E/DX2                !
 ! A16   A(1,6,5)              121.5187         estimate D2E/DX2                !
 ! A17   A(1,6,14)             120.3889         estimate D2E/DX2                !
 ! A18   A(5,6,14)             118.0924         estimate D2E/DX2                !
 ! A19   A(5,7,8)              113.8352         estimate D2E/DX2                !
 ! A20   A(5,7,10)             125.832          estimate D2E/DX2                !
 ! A21   A(8,7,10)             120.3328         estimate D2E/DX2                !
 ! A22   A(7,8,15)             106.4674         estimate D2E/DX2                !
 ! A23   A(4,9,16)             119.9125         estimate D2E/DX2                !
 ! A24   A(4,9,17)             119.7723         estimate D2E/DX2                !
 ! A25   A(16,9,17)            120.3151         estimate D2E/DX2                !
 ! D1    D(6,1,2,3)             -0.0004         estimate D2E/DX2                !
 ! D2    D(6,1,2,12)           179.9998         estimate D2E/DX2                !
 ! D3    D(11,1,2,3)           179.9998         estimate D2E/DX2                !
 ! D4    D(11,1,2,12)            0.0            estimate D2E/DX2                !
 ! D5    D(2,1,6,5)              0.0003         estimate D2E/DX2                !
 ! D6    D(2,1,6,14)          -179.9997         estimate D2E/DX2                !
 ! D7    D(11,1,6,5)          -179.9999         estimate D2E/DX2                !
 ! D8    D(11,1,6,14)            0.0001         estimate D2E/DX2                !
 ! D9    D(1,2,3,4)              0.0            estimate D2E/DX2                !
 ! D10   D(1,2,3,13)          -179.9997         estimate D2E/DX2                !
 ! D11   D(12,2,3,4)           179.9998         estimate D2E/DX2                !
 ! D12   D(12,2,3,13)            0.0002         estimate D2E/DX2                !
 ! D13   D(2,3,4,5)              0.0004         estimate D2E/DX2                !
 ! D14   D(2,3,4,9)           -179.9992         estimate D2E/DX2                !
 ! D15   D(13,3,4,5)          -179.9999         estimate D2E/DX2                !
 ! D16   D(13,3,4,9)             0.0005         estimate D2E/DX2                !
 ! D17   D(3,4,5,6)             -0.0005         estimate D2E/DX2                !
 ! D18   D(3,4,5,7)            179.999          estimate D2E/DX2                !
 ! D19   D(9,4,5,6)            179.9991         estimate D2E/DX2                !
 ! D20   D(9,4,5,7)             -0.0014         estimate D2E/DX2                !
 ! D21   D(3,4,9,16)           179.9998         estimate D2E/DX2                !
 ! D22   D(3,4,9,17)            -0.0031         estimate D2E/DX2                !
 ! D23   D(5,4,9,16)             0.0003         estimate D2E/DX2                !
 ! D24   D(5,4,9,17)           179.9973         estimate D2E/DX2                !
 ! D25   D(4,5,6,1)              0.0001         estimate D2E/DX2                !
 ! D26   D(4,5,6,14)          -179.9999         estimate D2E/DX2                !
 ! D27   D(7,5,6,1)           -179.9994         estimate D2E/DX2                !
 ! D28   D(7,5,6,14)             0.0006         estimate D2E/DX2                !
 ! D29   D(4,5,7,8)           -179.9973         estimate D2E/DX2                !
 ! D30   D(4,5,7,10)             0.0002         estimate D2E/DX2                !
 ! D31   D(6,5,7,8)              0.0022         estimate D2E/DX2                !
 ! D32   D(6,5,7,10)           179.9997         estimate D2E/DX2                !
 ! D33   D(5,7,8,15)           179.9995         estimate D2E/DX2                !
 ! D34   D(10,7,8,15)            0.0018         estimate D2E/DX2                !
 --------------------------------------------------------------------------------
 Trust Radius=3.00D-01 FncErr=1.00D-07 GrdErr=1.00D-07
 Number of steps in this run=     86 maximum allowed number of steps=    102.
 GradGradGradGradGradGradGradGradGradGradGradGradGradGradGradGradGradGrad

                          Input orientation:                          
 ---------------------------------------------------------------------
 Center     Atomic      Atomic             Coordinates (Angstroms)
 Number     Number       Type             X           Y           Z
 ---------------------------------------------------------------------
      1          6           0       -1.849831   -1.522965    0.000014
      2          6           0       -2.578490   -0.324142    0.000003
      3          6           0       -1.937487    0.898323    0.000001
      4          6           0       -0.526421    0.985046    0.000010
      5          6           0        0.209628   -0.228224    0.000012
      6          6           0       -0.469482   -1.459380    0.000015
      7          6           0        1.678631   -0.200578    0.000000
      8          8           0        2.247150   -1.424598   -0.000054
      9          7           0        0.070869    2.206040    0.000025
     10          8           0        2.374294    0.802073   -0.000008
     11          1           0       -2.358854   -2.479812    0.000018
     12          1           0       -3.664318   -0.350514   -0.000001
     13          1           0       -2.514603    1.818895   -0.000002
     14          1           0        0.121413   -2.368364    0.000018
     15          1           0        3.205258   -1.282331   -0.000065
     16          1           0        1.077765    2.273720    0.000034
     17          1           0       -0.493583    3.037837   -0.000018
 ---------------------------------------------------------------------
                    Distance matrix (angstroms):
                    1          2          3          4          5
     1  C    0.000000
     2  C    1.402897   0.000000
     3  C    2.422874   1.380328   0.000000
     4  C    2.835760   2.434124   1.413728   0.000000
     5  C    2.432638   2.789767   2.424708   1.419081   0.000000
     6  C    1.381813   2.395137   2.777373   2.445089   1.406035
     7  C    3.768123   4.258914   3.779404   2.503589   1.469263
     8  O    4.098162   4.949526   4.786141   3.674109   2.362796
     9  N    4.194588   3.663458   2.396585   1.359258   2.438216
    10  O    4.821725   5.079215   4.312855   2.906480   2.397351
    11  H    1.083818   2.166830   3.404313   3.919573   3.415662
    12  H    2.160325   1.086148   2.131089   3.410296   3.875876
    13  H    3.407338   2.143989   1.086515   2.155962   3.407658
    14  H    2.144878   3.386491   3.861387   3.415413   2.141957
    15  H    5.060813   5.862582   5.585972   4.366512   3.175680
    16  H    4.794334   4.485208   3.314131   2.057691   2.648280
    17  H    4.758185   3.955975   2.581158   2.053054   3.340907
                    6          7          8          9         10
     6  C    0.000000
     7  C    2.489773   0.000000
     8  O    2.716855   1.349607   0.000000
     9  N    3.705035   2.894254   4.232934   0.000000
    10  O    3.633350   1.220351   2.230298   2.697571   0.000000
    11  H    2.147326   4.636399   4.725331   5.278330   5.759641
    12  H    3.381798   5.345052   6.008254   4.526322   6.147625
    13  H    3.863885   4.654190   5.761470   2.614297   4.993520
    14  H    1.084163   2.669124   2.325823   4.574683   3.889363
    15  H    3.679003   1.871037   0.968613   4.689683   2.243934
    16  H    4.041041   2.546211   3.878791   1.009168   1.961309
    17  H    4.497282   3.899467   5.236883   1.005232   3.636394
                   11         12         13         14         15
    11  H    0.000000
    12  H    2.497628   0.000000
    13  H    4.301528   2.455235   0.000000
    14  H    2.482770   4.289927   4.947900   0.000000
    15  H    5.691511   6.932486   6.506490   3.269490   0.000000
    16  H    5.865698   5.419774   3.621046   4.739573   4.143878
    17  H    5.824404   4.640526   2.360157   5.441069   5.687291
                   16         17
    16  H    0.000000
    17  H    1.747286   0.000000
 Stoichiometry    C7H7NO2
 Framework group  C1[X(C7H7NO2)]
 Deg. of freedom    45
 Full point group                 C1      NOp   1
 Largest Abelian subgroup         C1      NOp   1
 Largest concise Abelian subgroup C1      NOp   1
                         Standard orientation:                         
 ---------------------------------------------------------------------
 Center     Atomic      Atomic             Coordinates (Angstroms)
 Number     Number       Type             X           Y           Z
 ---------------------------------------------------------------------
      1          6           0       -1.849831   -1.522964    0.000014
      2          6           0       -2.578490   -0.324141    0.000003
      3          6           0       -1.937487    0.898324    0.000001
      4          6           0       -0.526421    0.985046    0.000010
      5          6           0        0.209628   -0.228224    0.000012
      6          6           0       -0.469482   -1.459380    0.000015
      7          6           0        1.678631   -0.200578    0.000000
      8          8           0        2.247150   -1.424598   -0.000054
      9          7           0        0.070870    2.206040    0.000025
     10          8           0        2.374294    0.802072   -0.000008
     11          1           0       -2.358855   -2.479811    0.000018
     12          1           0       -3.664318   -0.350513   -0.000001
     13          1           0       -2.514603    1.818896   -0.000002
     14          1           0        0.121412   -2.368364    0.000018
     15          1           0        3.205258   -1.282332   -0.000065
     16          1           0        1.077766    2.273720    0.000034
     17          1           0       -0.493582    3.037837   -0.000018
 ---------------------------------------------------------------------
 Rotational constants (GHZ):      2.3028796      1.2196600      0.7973594
 Standard basis: 6-31+G(d,p) (6D, 7F)
 There are   225 symmetry adapted cartesian basis functions of A   symmetry.
 There are   225 symmetry adapted basis functions of A   symmetry.
   225 basis functions,   369 primitive gaussians,   225 cartesian basis functions
    36 alpha electrons       36 beta electrons
       nuclear repulsion energy       501.7062981153 Hartrees.
 NAtoms=   17 NActive=   17 NUniq=   17 SFac= 1.00D+00 NAtFMM=   60 NAOKFM=F Big=F
 Integral buffers will be    131072 words long.
 Regular integral format.
 Two-electron integral symmetry is turned on.
 One-electron integrals computed using PRISM.
 NBasis=   225 RedAO= T EigKep=  2.66D-06  NBF=   225
 NBsUse=   225 1.00D-06 EigRej= -1.00D+00 NBFU=   225
 ExpMin= 4.38D-02 ExpMax= 5.48D+03 ExpMxC= 8.25D+02 IAcc=2 IRadAn=         4 AccDes= 0.00D+00
 Harris functional with IExCor=  419 and IRadAn=       4 diagonalized for initial guess.
 HarFok:  IExCor=  419 AccDes= 0.00D+00 IRadAn=         4 IDoV= 1 UseB2=F ITyADJ=14
 ICtDFT=  3500011 ScaDFX=  1.000000  1.000000  1.000000  1.000000
 FoFCou: FMM=F IPFlag=           0 FMFlag=      100000 FMFlg1=           0
         NFxFlg=           0 DoJE=T BraDBF=F KetDBF=T FulRan=T
         wScrn=  0.000000 ICntrl=     500 IOpCl=  0 I1Cent=   200000004 NGrid=           0
         NMat0=    1 NMatS0=      1 NMatT0=    0 NMatD0=    1 NMtDS0=    0 NMtDT0=    0
 Petite list used in FoFCou.
 Keep R1 ints in memory in canonical form, NReq=329175655.
 Requested convergence on RMS density matrix=1.00D-08 within 128 cycles.
 Requested convergence on MAX density matrix=1.00D-06.
 Requested convergence on             energy=1.00D-06.
 No special actions if energy rises.
 SCF Done:  E(RB2PLYP) =  -475.271763843     A.U. after   15 cycles
            NFock= 15  Conv=0.54D-08     -V/T= 2.0067
 DoSCS=T DFT=T ScalE2(SS,OS)=  0.270000  0.270000
 ExpMin= 4.38D-02 ExpMax= 5.48D+03 ExpMxC= 8.25D+02 IAcc=3 IRadAn=         5 AccDes= 0.00D+00
 HarFok:  IExCor=  205 AccDes= 0.00D+00 IRadAn=         5 IDoV=-2 UseB2=F ITyADJ=14
 ICtDFT= 12500011 ScaDFX=  1.000000  1.000000  1.000000  1.000000
 Range of M.O.s used for correlation:    11   225
 NBasis=   225 NAE=    36 NBE=    36 NFC=    10 NFV=     0
 NROrb=    215 NOA=    26 NOB=    26 NVA=   189 NVB=   189

 **** Warning!!: The largest alpha MO coefficient is  0.15553034D+03

 DoSCS=T DFT=T ScalE2(SS,OS)=  0.270000  0.270000
 Fully direct method using O(ONN) memory.
 JobTyp=1 Pass  1:  I=  11 to  18 NPSUse= 18 ParTrn=T ParDer=T DoDerP=T.
 JobTyp=1 Pass  2:  I=  19 to  26 NPSUse= 18 ParTrn=T ParDer=T DoDerP=T.
 JobTyp=1 Pass  3:  I=  27 to  34 NPSUse= 18 ParTrn=T ParDer=T DoDerP=T.
 JobTyp=1 Pass  4:  I=  35 to  36 NPSUse= 18 ParTrn=T ParDer=T DoDerP=T.
 Spin components of T(2) and E(2):
     alpha-alpha T2 =       0.1082398760D+00 E2=     -0.6595692499D-01
     alpha-beta  T2 =       0.5524502433D+00 E2=     -0.3523120688D+00
     beta-beta   T2 =       0.1082398760D+00 E2=     -0.6595692499D-01
 E2(B2PLYP) =    -0.4842259188D+00 E(B2PLYP) =    -0.47575598976209D+03
          IDoAtm=11111111111111111
          Differentiating once with respect to electric field.
                with respect to dipole field.
          Differentiating once with respect to nuclear coordinates.
 Keep R1 ints in memory in canonical form, NReq=329001650.
          There are     1 degrees of freedom in the 1st order CPHF.  IDoFFX=0 NUNeed=     1.
 LinEq1:  Iter=  0 NonCon=     1 RMS=1.99D-03 Max=4.73D-02 NDo=     1
 AX will form     1 AO Fock derivatives at one time.
 LinEq1:  Iter=  1 NonCon=     1 RMS=8.43D-04 Max=1.88D-02 NDo=     1
 LinEq1:  Iter=  2 NonCon=     1 RMS=3.41D-04 Max=7.74D-03 NDo=     1
 LinEq1:  Iter=  3 NonCon=     1 RMS=2.67D-04 Max=7.28D-03 NDo=     1
 LinEq1:  Iter=  4 NonCon=     1 RMS=9.95D-05 Max=2.56D-03 NDo=     1
 LinEq1:  Iter=  5 NonCon=     1 RMS=4.67D-05 Max=1.09D-03 NDo=     1
 LinEq1:  Iter=  6 NonCon=     1 RMS=1.79D-05 Max=5.53D-04 NDo=     1
 LinEq1:  Iter=  7 NonCon=     1 RMS=8.81D-06 Max=3.49D-04 NDo=     1
 LinEq1:  Iter=  8 NonCon=     1 RMS=3.58D-06 Max=7.60D-05 NDo=     1
 LinEq1:  Iter=  9 NonCon=     1 RMS=1.84D-06 Max=4.86D-05 NDo=     1
 LinEq1:  Iter= 10 NonCon=     1 RMS=5.68D-07 Max=7.80D-06 NDo=     1
 LinEq1:  Iter= 11 NonCon=     1 RMS=2.05D-07 Max=3.92D-06 NDo=     1
 LinEq1:  Iter= 12 NonCon=     1 RMS=8.95D-08 Max=1.21D-06 NDo=     1
 LinEq1:  Iter= 13 NonCon=     1 RMS=3.01D-08 Max=4.18D-07 NDo=     1
 LinEq1:  Iter= 14 NonCon=     1 RMS=1.55D-08 Max=3.47D-07 NDo=     1
 LinEq1:  Iter= 15 NonCon=     1 RMS=4.89D-09 Max=1.29D-07 NDo=     1
 LinEq1:  Iter= 16 NonCon=     1 RMS=1.75D-09 Max=5.41D-08 NDo=     1
 LinEq1:  Iter= 17 NonCon=     1 RMS=9.05D-10 Max=3.49D-08 NDo=     1
 LinEq1:  Iter= 18 NonCon=     1 RMS=3.80D-10 Max=1.45D-08 NDo=     1
 LinEq1:  Iter= 19 NonCon=     1 RMS=1.98D-10 Max=5.99D-09 NDo=     1
 LinEq1:  Iter= 20 NonCon=     0 RMS=5.63D-11 Max=8.02D-10 NDo=     1
 Linear equations converged to 1.000D-10 1.000D-09 after    20 iterations.
 End of Minotr F.D. properties file   721 does not exist.
 End of Minotr F.D. properties file   722 does not exist.
 End of Minotr F.D. properties file   788 does not exist.

 **********************************************************************

            Population analysis using the SCF density.

 **********************************************************************

 Orbital symmetries:
       Occupied  (A) (A) (A) (A) (A) (A) (A) (A) (A) (A) (A) (A)
                 (A) (A) (A) (A) (A) (A) (A) (A) (A) (A) (A) (A)
                 (A) (A) (A) (A) (A) (A) (A) (A) (A) (A) (A) (A)
       Virtual   (A) (A) (A) (A) (A) (A) (A) (A) (A) (A) (A) (A)
                 (A) (A) (A) (A) (A) (A) (A) (A) (A) (A) (A) (A)
                 (A) (A) (A) (A) (A) (A) (A) (A) (A) (A) (A) (A)
                 (A) (A) (A) (A) (A) (A) (A) (A) (A) (A) (A) (A)
                 (A) (A) (A) (A) (A) (A) (A) (A) (A) (A) (A) (A)
                 (A) (A) (A) (A) (A) (A) (A) (A) (A) (A) (A) (A)
                 (A) (A) (A) (A) (A) (A) (A) (A) (A) (A) (A) (A)
                 (A) (A) (A) (A) (A) (A) (A) (A) (A) (A) (A) (A)
                 (A) (A) (A) (A) (A) (A) (A) (A) (A) (A) (A) (A)
                 (A) (A) (A) (A) (A) (A) (A) (A) (A) (A) (A) (A)
                 (A) (A) (A) (A) (A) (A) (A) (A) (A) (A) (A) (A)
                 (A) (A) (A) (A) (A) (A) (A) (A) (A) (A) (A) (A)
                 (A) (A) (A) (A) (A) (A) (A) (A) (A) (A) (A) (A)
                 (A) (A) (A) (A) (A) (A) (A) (A) (A) (A) (A) (A)
                 (A) (A) (A) (A) (A) (A) (A) (A) (A) (A) (A) (A)
                 (A) (A) (A) (A) (A) (A) (A) (A) (A)
 The electronic state is 1-A.
 Alpha  occ. eigenvalues --  -19.80063 -19.74259 -14.86748 -10.77868 -10.69711
 Alpha  occ. eigenvalues --  -10.64734 -10.64443 -10.64242 -10.63357 -10.62642
 Alpha  occ. eigenvalues --   -1.26631  -1.16605  -1.06520  -0.97440  -0.89039
 Alpha  occ. eigenvalues --   -0.85106  -0.76397  -0.71895  -0.68748  -0.61981
 Alpha  occ. eigenvalues --   -0.60486  -0.59252  -0.58069  -0.53672  -0.53427
 Alpha  occ. eigenvalues --   -0.51574  -0.50544  -0.48101  -0.45732  -0.44390
 Alpha  occ. eigenvalues --   -0.42285  -0.39677  -0.37757  -0.35821  -0.30514
 Alpha  occ. eigenvalues --   -0.24993
 Alpha virt. eigenvalues --    0.00149   0.02848   0.03773   0.04576   0.04947
 Alpha virt. eigenvalues --    0.05918   0.07087   0.07809   0.08319   0.09555
 Alpha virt. eigenvalues --    0.09750   0.10503   0.11000   0.12323   0.12856
 Alpha virt. eigenvalues --    0.14782   0.15740   0.16439   0.16594   0.16972
 Alpha virt. eigenvalues --    0.17915   0.19377   0.20264   0.20366   0.21323
 Alpha virt. eigenvalues --    0.22082   0.22483   0.22864   0.24169   0.24563
 Alpha virt. eigenvalues --    0.24896   0.25572   0.26199   0.26661   0.27489
 Alpha virt. eigenvalues --    0.27847   0.28528   0.28920   0.29610   0.31216
 Alpha virt. eigenvalues --    0.31525   0.32584   0.32972   0.33753   0.34340
 Alpha virt. eigenvalues --    0.35877   0.36513   0.37741   0.38419   0.39651
 Alpha virt. eigenvalues --    0.40851   0.43876   0.45360   0.47575   0.48736
 Alpha virt. eigenvalues --    0.51632   0.54453   0.54736   0.59649   0.69075
 Alpha virt. eigenvalues --    0.71396   0.75302   0.76035   0.77091   0.80511
 Alpha virt. eigenvalues --    0.81316   0.82369   0.82826   0.83947   0.84033
 Alpha virt. eigenvalues --    0.86754   0.87078   0.90773   0.93438   0.93723
 Alpha virt. eigenvalues --    0.98032   1.00090   1.02780   1.03374   1.05649
 Alpha virt. eigenvalues --    1.05660   1.08415   1.11882   1.13148   1.14379
 Alpha virt. eigenvalues --    1.16448   1.19436   1.20679   1.22564   1.22975
 Alpha virt. eigenvalues --    1.24240   1.26996   1.30338   1.33226   1.34062
 Alpha virt. eigenvalues --    1.34735   1.37160   1.37312   1.41031   1.43642
 Alpha virt. eigenvalues --    1.44117   1.46243   1.46252   1.48554   1.49053
 Alpha virt. eigenvalues --    1.49813   1.51131   1.51340   1.52321   1.57353
 Alpha virt. eigenvalues --    1.58704   1.66454   1.68888   1.73663   1.78099
 Alpha virt. eigenvalues --    1.84988   1.85767   1.91026   1.91915   1.93739
 Alpha virt. eigenvalues --    1.95600   1.98704   2.03387   2.04145   2.04449
 Alpha virt. eigenvalues --    2.08747   2.09742   2.12589   2.12757   2.15350
 Alpha virt. eigenvalues --    2.18357   2.18708   2.21693   2.24768   2.30143
 Alpha virt. eigenvalues --    2.32514   2.34978   2.39373   2.43358   2.46120
 Alpha virt. eigenvalues --    2.50562   2.51786   2.53222   2.53228   2.56994
 Alpha virt. eigenvalues --    2.58034   2.59148   2.63410   2.66618   2.66867
 Alpha virt. eigenvalues --    2.68270   2.71362   2.72620   2.74145   2.75751
 Alpha virt. eigenvalues --    2.76603   2.81361   2.82205   2.87182   2.88468
 Alpha virt. eigenvalues --    2.90535   2.90980   2.96368   3.02266   3.10059
 Alpha virt. eigenvalues --    3.16022   3.20341   3.25196   3.27671   3.35917
 Alpha virt. eigenvalues --    3.40037   3.41890   3.47768   3.51237   3.62664
 Alpha virt. eigenvalues --    3.66134   3.68495   3.84298   4.03502   4.36789
 Alpha virt. eigenvalues --    4.44211   4.46757   4.48359   4.49274   4.62980
 Alpha virt. eigenvalues --    4.67135   4.72346   4.96597   5.05756
          Condensed to atoms (all electrons):
               1          2          3          4          5          6
     1  C    7.836303   0.101856   0.492501  -0.572418   0.014005  -2.070036
     2  C    0.101856   6.068920  -0.677821   1.410990  -1.384924   0.704702
     3  C    0.492501  -0.677821   9.274197  -1.157749  -0.374591  -2.145132
     4  C   -0.572418   1.410990  -1.157749  14.945029  -4.805506  -1.917789
     5  C    0.014005  -1.384924  -0.374591  -4.805506  11.781902  -0.628450
     6  C   -2.070036   0.704702  -2.145132  -1.917789  -0.628450  12.594773
     7  C   -0.177712  -0.143455   0.027561  -0.886475   0.540309  -0.230013
     8  O    0.120015   0.001861  -0.023550  -0.098550  -0.059998  -0.035804
     9  N   -0.015610   0.048625  -0.147782   0.278352  -0.205859   0.141289
    10  O    0.045268  -0.005123   0.011814  -0.281789   0.031219   0.030947
    11  H    0.213526   0.034137   0.001171  -0.000305   0.006425   0.073385
    12  H    0.070316   0.201434   0.092004  -0.053336   0.025791  -0.010937
    13  H   -0.008983   0.082952   0.111109   0.105944   0.047023  -0.009759
    14  H    0.082621  -0.008199   0.010976   0.010660   0.098065   0.124575
    15  H   -0.009565  -0.000859   0.006898   0.008812   0.038536  -0.018835
    16  H    0.003367   0.001399   0.089575   0.113348  -0.172067  -0.041491
    17  H   -0.001174  -0.000008  -0.074469  -0.088785   0.134457   0.019100
               7          8          9         10         11         12
     1  C   -0.177712   0.120015  -0.015610   0.045268   0.213526   0.070316
     2  C   -0.143455   0.001861   0.048625  -0.005123   0.034137   0.201434
     3  C    0.027561  -0.023550  -0.147782   0.011814   0.001171   0.092004
     4  C   -0.886475  -0.098550   0.278352  -0.281789  -0.000305  -0.053336
     5  C    0.540309  -0.059998  -0.205859   0.031219   0.006425   0.025791
     6  C   -0.230013  -0.035804   0.141289   0.030947   0.073385  -0.010937
     7  C    5.494655   0.151328  -0.098397   0.445573   0.002669   0.001749
     8  O    0.151328   8.413075   0.001581  -0.144542   0.000090   0.000008
     9  N   -0.098397   0.001581   7.032137  -0.002446   0.000219  -0.000403
    10  O    0.445573  -0.144542  -0.002446   8.422008   0.000022  -0.000001
    11  H    0.002669   0.000090   0.000219   0.000022   0.530741  -0.003397
    12  H    0.001749   0.000008  -0.000403  -0.000001  -0.003397   0.534293
    13  H    0.009140   0.000020  -0.018584  -0.000014  -0.000138  -0.004239
    14  H    0.008185  -0.004091  -0.000741   0.000025  -0.003495  -0.000143
    15  H    0.003127   0.209920  -0.000248   0.005193  -0.000000   0.000000
    16  H    0.000435   0.000279   0.326702   0.014402  -0.000000   0.000002
    17  H   -0.001903   0.000149   0.327674   0.002360  -0.000000  -0.000010
              13         14         15         16         17
     1  C   -0.008983   0.082621  -0.009565   0.003367  -0.001174
     2  C    0.082952  -0.008199  -0.000859   0.001399  -0.000008
     3  C    0.111109   0.010976   0.006898   0.089575  -0.074469
     4  C    0.105944   0.010660   0.008812   0.113348  -0.088785
     5  C    0.047023   0.098065   0.038536  -0.172067   0.134457
     6  C   -0.009759   0.124575  -0.018835  -0.041491   0.019100
     7  C    0.009140   0.008185   0.003127   0.000435  -0.001903
     8  O    0.000020  -0.004091   0.209920   0.000279   0.000149
     9  N   -0.018584  -0.000741  -0.000248   0.326702   0.327674
    10  O   -0.000014   0.000025   0.005193   0.014402   0.002360
    11  H   -0.000138  -0.003495  -0.000000  -0.000000  -0.000000
    12  H   -0.004239  -0.000143   0.000000   0.000002  -0.000010
    13  H    0.551791   0.000011  -0.000000   0.000026   0.004801
    14  H    0.000011   0.508495   0.000157   0.000000   0.000002
    15  H   -0.000000   0.000157   0.360483   0.000018  -0.000001
    16  H    0.000026   0.000000   0.000018   0.313562  -0.020397
    17  H    0.004801   0.000002  -0.000001  -0.020397   0.384258
 Mulliken charges:
               1
     1  C   -0.124280
     2  C   -0.436486
     3  C    0.483288
     4  C   -1.010435
     5  C    0.913663
     6  C   -0.580525
     7  C    0.853224
     8  O   -0.531793
     9  N   -0.666508
    10  O   -0.574916
    11  H    0.144949
    12  H    0.146870
    13  H    0.128901
    14  H    0.172899
    15  H    0.396364
    16  H    0.370839
    17  H    0.313947
 Sum of Mulliken charges =  -0.00000
 Mulliken charges with hydrogens summed into heavy atoms:
               1
     1  C    0.020669
     2  C   -0.289617
     3  C    0.612189
     4  C   -1.010435
     5  C    0.913663
     6  C   -0.407626
     7  C    0.853224
     8  O   -0.135429
     9  N    0.018278
    10  O   -0.574916
 Electronic spatial extent (au):  <R**2>=           1376.2888
 Charge=             -0.0000 electrons
 Dipole moment (field-independent basis, Debye):
    X=             -1.2202    Y=              0.3726    Z=             -0.0000  Tot=              1.2758
 Quadrupole moment (field-independent basis, Debye-Ang):
   XX=            -52.2415   YY=            -50.8709   ZZ=            -62.7650
   XY=             -5.5568   XZ=              0.0000   YZ=             -0.0002
 Traceless Quadrupole moment (field-independent basis, Debye-Ang):
   XX=              3.0510   YY=              4.4216   ZZ=             -7.4725
   XY=             -5.5568   XZ=              0.0000   YZ=             -0.0002
 Octapole moment (field-independent basis, Debye-Ang**2):
  XXX=             19.7878  YYY=             24.9731  ZZZ=             -0.0004  XYY=             -2.7272
  XXY=            -17.1882  XXZ=             -0.0006  XZZ=             12.8383  YZZ=              0.2929
  YYZ=             -0.0005  XYZ=              0.0004
 Hexadecapole moment (field-independent basis, Debye-Ang**3):
 XXXX=           -951.1806 YYYY=           -527.6578 ZZZZ=            -71.0817 XXXY=            -79.6111
 XXXZ=              0.0008 YYYX=            -11.7715 YYYZ=             -0.0035 ZZZX=              0.0035
 ZZZY=             -0.0017 XXYY=           -266.6832 XXZZ=           -210.2464 YYZZ=           -132.3095
 XXYZ=              0.0005 YYXZ=              0.0015 ZZXY=             -5.4087
 N-N= 5.017062981153D+02 E-N=-2.112882017901D+03  KE= 4.721063651569D+02
 Calling FoFJK, ICntrl=  10002127 FMM=F ISym2X=0 I1Cent= 0 IOpClX= 0 NMat=1 NMatS=1 NMatT=0.
 ***** Axes restored to original set *****
 -------------------------------------------------------------------
 Center     Atomic                   Forces (Hartrees/Bohr)
 Number     Number              X              Y              Z
 -------------------------------------------------------------------
      1        6          -0.002679719   -0.002568592   -0.000000282
      2        6          -0.005505941   -0.001683719    0.000000061
      3        6          -0.000247959    0.004230840   -0.000000002
      4        6          -0.002381041   -0.000699680    0.000000255
      5        6           0.005343399   -0.000205748    0.000001328
      6        6           0.002308524   -0.004792978    0.000000196
      7        6          -0.012414562   -0.005634168   -0.000004907
      8        8           0.001838057   -0.009551884    0.000001493
      9        7           0.001615000    0.005086257    0.000000436
     10        8           0.009661735    0.014973256    0.000002203
     11        1           0.000399404    0.000771319   -0.000000034
     12        1           0.001086966   -0.000021365   -0.000000009
     13        1           0.000324635   -0.000887866   -0.000000028
     14        1          -0.001195012    0.001225244    0.000000043
     15        1           0.001597052    0.000696638   -0.000000113
     16        1          -0.000286007   -0.000591253   -0.000000765
     17        1           0.000535469   -0.000346303    0.000000125
 -------------------------------------------------------------------
 Cartesian Forces:  Max     0.014973256 RMS     0.003870671

 GradGradGradGradGradGradGradGradGradGradGradGradGradGradGradGradGradGrad
 Berny optimization.
 FormGI is forming the generalized inverse of G from B-inverse, IUseBI=4.
 Internal  Forces:  Max     0.017809904 RMS     0.002652866
 Search for a local minimum.
 Step number   1 out of a maximum of   86
 All quantities printed in internal units (Hartrees-Bohrs-Radians)
 Mixed Optimization -- RFO/linear search
 Second derivative matrix not updated -- first step.
 ITU=  0
     Eigenvalues ---    0.01173   0.01536   0.01702   0.01891   0.01998
     Eigenvalues ---    0.02090   0.02109   0.02154   0.02188   0.02211
     Eigenvalues ---    0.02231   0.02231   0.02258   0.02358   0.16000
     Eigenvalues ---    0.16000   0.16000   0.16000   0.16000   0.16000
     Eigenvalues ---    0.16000   0.22000   0.22478   0.24470   0.25000
     Eigenvalues ---    0.25000   0.25000   0.25000   0.35218   0.35262
     Eigenvalues ---    0.35496   0.35537   0.35829   0.40341   0.41155
     Eigenvalues ---    0.43626   0.44627   0.46112   0.46780   0.47417
     Eigenvalues ---    0.48492   0.53098   0.53661   0.55105   0.95228
 RFO step:  Lambda=-7.94642458D-04 EMin= 1.17253744D-02
 Linear search not attempted -- first point.
 Iteration  1 RMS(Cart)=  0.00755695 RMS(Int)=  0.00001438
 Iteration  2 RMS(Cart)=  0.00002129 RMS(Int)=  0.00000089
 Iteration  3 RMS(Cart)=  0.00000000 RMS(Int)=  0.00000089
 Variable       Old X    -DE/DX   Delta X   Delta X   Delta X     New X
                                 (Linear)    (Quad)   (Total)
    R1        2.65109   0.00249   0.00000   0.00547   0.00547   2.65656
    R2        2.61125   0.00412   0.00000   0.00851   0.00851   2.61975
    R3        2.04812  -0.00087   0.00000  -0.00244  -0.00244   2.04568
    R4        2.60844   0.00429   0.00000   0.00864   0.00864   2.61708
    R5        2.05252  -0.00109   0.00000  -0.00307  -0.00307   2.04945
    R6        2.67156   0.00250   0.00000   0.00567   0.00567   2.67723
    R7        2.05322  -0.00092   0.00000  -0.00262  -0.00262   2.05060
    R8        2.68168   0.00438   0.00000   0.01030   0.01030   2.69197
    R9        2.56862   0.00455   0.00000   0.00855   0.00855   2.57717
   R10        2.65702   0.00459   0.00000   0.01035   0.01036   2.66738
   R11        2.77650   0.00069   0.00000   0.00193   0.00193   2.77843
   R12        2.04877  -0.00168   0.00000  -0.00472  -0.00472   2.04405
   R13        2.55039   0.00948   0.00000   0.01718   0.01718   2.56756
   R14        2.30613   0.01781   0.00000   0.01869   0.01869   2.32482
   R15        1.83041   0.00168   0.00000   0.00313   0.00313   1.83354
   R16        1.90705  -0.00033   0.00000  -0.00070  -0.00070   1.90635
   R17        1.89961  -0.00059   0.00000  -0.00125  -0.00125   1.89836
    A1        2.07091   0.00060   0.00000   0.00277   0.00277   2.07368
    A2        2.10655  -0.00031   0.00000  -0.00145  -0.00145   2.10510
    A3        2.10573  -0.00029   0.00000  -0.00133  -0.00133   2.10440
    A4        2.11251  -0.00058   0.00000  -0.00288  -0.00289   2.10962
    A5        2.09266   0.00024   0.00000   0.00114   0.00114   2.09380
    A6        2.07802   0.00034   0.00000   0.00175   0.00175   2.07977
    A7        2.11512   0.00040   0.00000   0.00143   0.00142   2.11654
    A8        2.09868  -0.00040   0.00000  -0.00197  -0.00197   2.09671
    A9        2.06939   0.00000   0.00000   0.00054   0.00054   2.06993
   A10        2.05472   0.00066   0.00000   0.00252   0.00252   2.05724
   A11        2.08714   0.00026   0.00000   0.00109   0.00109   2.08823
   A12        2.14133  -0.00092   0.00000  -0.00361  -0.00361   2.13772
   A13        2.09221  -0.00114   0.00000  -0.00437  -0.00436   2.08785
   A14        2.09729  -0.00041   0.00000  -0.00171  -0.00171   2.09558
   A15        2.09369   0.00154   0.00000   0.00607   0.00607   2.09976
   A16        2.12090   0.00006   0.00000   0.00053   0.00053   2.12143
   A17        2.10118  -0.00037   0.00000  -0.00239  -0.00239   2.09879
   A18        2.06110   0.00031   0.00000   0.00186   0.00186   2.06296
   A19        1.98680  -0.00003   0.00000  -0.00012  -0.00012   1.98668
   A20        2.19618  -0.00067   0.00000  -0.00268  -0.00268   2.19350
   A21        2.10020   0.00070   0.00000   0.00281   0.00281   2.10301
   A22        1.85821  -0.00083   0.00000  -0.00518  -0.00518   1.85303
   A23        2.09287  -0.00088   0.00000  -0.00549  -0.00549   2.08738
   A24        2.09042   0.00068   0.00000   0.00421   0.00421   2.09464
   A25        2.09990   0.00021   0.00000   0.00128   0.00128   2.10117
    D1       -0.00001   0.00000   0.00000   0.00001   0.00001  -0.00000
    D2        3.14159   0.00000   0.00000   0.00000   0.00000   3.14159
    D3        3.14159   0.00000   0.00000   0.00000   0.00000   3.14159
    D4        0.00000  -0.00000   0.00000  -0.00000  -0.00000  -0.00000
    D5        0.00001  -0.00000   0.00000  -0.00001  -0.00001  -0.00000
    D6       -3.14159  -0.00000   0.00000  -0.00001  -0.00001   3.14159
    D7       -3.14159  -0.00000   0.00000  -0.00000  -0.00000   3.14159
    D8        0.00000  -0.00000   0.00000  -0.00000  -0.00000   0.00000
    D9       -0.00000   0.00000   0.00000   0.00000   0.00000   0.00000
   D10       -3.14159  -0.00000   0.00000  -0.00000  -0.00000  -3.14159
   D11        3.14159   0.00000   0.00000   0.00000   0.00000  -3.14159
   D12        0.00000  -0.00000   0.00000  -0.00000  -0.00000   0.00000
   D13        0.00001  -0.00000   0.00000  -0.00001  -0.00001   0.00000
   D14       -3.14158  -0.00000   0.00000  -0.00001  -0.00001  -3.14159
   D15       -3.14159   0.00000   0.00000   0.00000   0.00000  -3.14159
   D16        0.00001  -0.00000   0.00000  -0.00001  -0.00001   0.00000
   D17       -0.00001   0.00000   0.00000   0.00000   0.00000  -0.00000
   D18        3.14158   0.00000   0.00000   0.00001   0.00001   3.14159
   D19        3.14158   0.00000   0.00000   0.00001   0.00001   3.14159
   D20       -0.00002   0.00000   0.00000   0.00002   0.00002  -0.00001
   D21        3.14159   0.00000   0.00000   0.00003   0.00003  -3.14156
   D22       -0.00005   0.00000   0.00000   0.00001   0.00001  -0.00005
   D23        0.00000   0.00000   0.00000   0.00002   0.00002   0.00003
   D24        3.14155   0.00000   0.00000  -0.00000  -0.00000   3.14155
   D25        0.00000   0.00000   0.00000   0.00000   0.00000   0.00000
   D26       -3.14159   0.00000   0.00000   0.00000   0.00000  -3.14159
   D27       -3.14158  -0.00000   0.00000  -0.00001  -0.00001  -3.14159
   D28        0.00001  -0.00000   0.00000  -0.00001  -0.00001   0.00000
   D29       -3.14155  -0.00000   0.00000  -0.00009  -0.00009   3.14155
   D30        0.00000   0.00000   0.00000   0.00009   0.00009   0.00009
   D31        0.00004  -0.00000   0.00000  -0.00008  -0.00008  -0.00004
   D32        3.14159   0.00000   0.00000   0.00010   0.00010  -3.14150
   D33        3.14158   0.00000   0.00000   0.00008   0.00008  -3.14152
   D34        0.00003  -0.00000   0.00000  -0.00009  -0.00009  -0.00006
         Item               Value     Threshold  Converged?
 Maximum Force            0.017810     0.000450     NO 
 RMS     Force            0.002653     0.000300     NO 
 Maximum Displacement     0.027293     0.001800     NO 
 RMS     Displacement     0.007562     0.001200     NO 
 Predicted change in Energy=-3.978813D-04
 GradGradGradGradGradGradGradGradGradGradGradGradGradGradGradGradGradGrad

                          Input orientation:                          
 ---------------------------------------------------------------------
 Center     Atomic      Atomic             Coordinates (Angstroms)
 Number     Number       Type             X           Y           Z
 ---------------------------------------------------------------------
      1          6           0       -1.856837   -1.526341    0.000003
      2          6           0       -2.587821   -0.325541    0.000023
      3          6           0       -1.941993    0.899554    0.000024
      4          6           0       -0.527864    0.985360    0.000002
      5          6           0        0.213132   -0.231280   -0.000022
      6          6           0       -0.471862   -1.465444   -0.000019
      7          6           0        1.683049   -0.198543   -0.000051
      8          8           0        2.259493   -1.428896   -0.000021
      9          7           0        0.073702    2.209295    0.000006
     10          8           0        2.378135    0.816516    0.000035
     11          1           0       -2.365985   -2.481659    0.000004
     12          1           0       -3.672035   -0.351381    0.000040
     13          1           0       -2.518156    1.819087    0.000041
     14          1           0        0.113600   -2.374969   -0.000035
     15          1           0        3.217993   -1.278231    0.000021
     16          1           0        1.080698    2.269540   -0.000034
     17          1           0       -0.485311    3.043959   -0.000017
 ---------------------------------------------------------------------
                    Distance matrix (angstroms):
                    1          2          3          4          5
     1  C    0.000000
     2  C    1.405794   0.000000
     3  C    2.427388   1.384901   0.000000
     4  C    2.841621   2.441697   1.416730   0.000000
     5  C    2.441711   2.802539   2.433793   1.424530   0.000000
     6  C    1.386314   2.403469   2.784690   2.451444   1.411516
     7  C    3.780720   4.272758   3.787711   2.507940   1.470282
     8  O    4.117483   4.971302   4.803557   3.687545   2.371050
     9  N    4.204992   3.675473   2.403841   1.363782   2.444555
    10  O    4.839831   5.095588   4.320927   2.910900   2.405227
    11  H    1.082527   2.167500   3.407693   3.924144   3.422872
    12  H    2.162284   1.084522   2.134920   3.416531   3.887023
    13  H    3.410165   2.145759   1.085129   2.157861   3.415251
    14  H    2.145412   3.390845   3.866259   3.421006   2.145998
    15  H    5.080892   5.883459   5.600733   4.376676   3.182027
    16  H    4.799773   4.493604   3.318663   2.058298   2.647031
    17  H    4.771659   3.971660   2.592373   2.059039   3.348882
                    6          7          8          9         10
     6  C    0.000000
     7  C    2.499736   0.000000
     8  O    2.731599   1.358696   0.000000
     9  N    3.715017   2.896150   4.244303   0.000000
    10  O    3.651003   1.230239   2.248544   2.692628   0.000000
    11  H    2.149511   4.648365   4.743770   5.287450   5.777944
    12  H    3.388546   5.357265   6.028603   4.537357   6.161862
    13  H    3.869814   4.660575   5.777138   2.621068   4.997882
    14  H    1.081666   2.683281   2.345188   4.584438   3.913271
    15  H    3.694601   1.876640   0.970269   4.695679   2.256840
    16  H    4.044817   2.540524   3.881750   1.008796   1.947980
    17  H    4.509423   3.900719   5.247893   1.004569   3.627785
                   11         12         13         14         15
    11  H    0.000000
    12  H    2.498770   0.000000
    13  H    4.303437   2.458122   0.000000
    14  H    2.481879   4.292545   4.951388   0.000000
    15  H    5.712184   6.952089   6.518956   3.292429   0.000000
    16  H    5.869712   5.427494   3.626935   4.744127   4.141825
    17  H    5.836899   4.656560   2.373347   5.451924   5.691730
                   16         17
    16  H    0.000000
    17  H    1.747028   0.000000
 Stoichiometry    C7H7NO2
 Framework group  C1[X(C7H7NO2)]
 Deg. of freedom    45
 Full point group                 C1      NOp   1
 Largest Abelian subgroup         C1      NOp   1
 Largest concise Abelian subgroup C1      NOp   1
                         Standard orientation:                         
 ---------------------------------------------------------------------
 Center     Atomic      Atomic             Coordinates (Angstroms)
 Number     Number       Type             X           Y           Z
 ---------------------------------------------------------------------
      1          6           0       -1.862366   -1.520923    0.000003
      2          6           0       -2.589499   -0.317789    0.000024
      3          6           0       -1.939750    0.905231    0.000025
      4          6           0       -0.525353    0.986507    0.000003
      5          6           0        0.211741   -0.232500   -0.000021
      6          6           0       -0.477202   -1.464464   -0.000018
      7          6           0        1.681756   -0.204473   -0.000051
      8          8           0        2.254255   -1.436665   -0.000020
      9          7           0        0.080131    2.208509    0.000007
     10          8           0        2.380090    0.808354    0.000036
     11          1           0       -2.374571   -2.474606    0.000005
     12          1           0       -3.673790   -0.340155    0.000041
     13          1           0       -2.512965    1.826605    0.000042
     14          1           0        0.105343   -2.375860   -0.000034
     15          1           0        3.213233   -1.289072    0.000022
     16          1           0        1.087314    2.265528   -0.000033
     17          1           0       -0.476205    3.044959   -0.000017
 ---------------------------------------------------------------------
 Rotational constants (GHZ):      2.2903231      1.2117145      0.7924580
 Standard basis: 6-31+G(d,p) (6D, 7F)
 There are   225 symmetry adapted cartesian basis functions of A   symmetry.
 There are   225 symmetry adapted basis functions of A   symmetry.
   225 basis functions,   369 primitive gaussians,   225 cartesian basis functions
    36 alpha electrons       36 beta electrons
       nuclear repulsion energy       500.1568306699 Hartrees.
 NAtoms=   17 NActive=   17 NUniq=   17 SFac= 1.00D+00 NAtFMM=   60 NAOKFM=F Big=F
 Integral buffers will be    131072 words long.
 Regular integral format.
 Two-electron integral symmetry is turned on.
 One-electron integrals computed using PRISM.
 NBasis=   225 RedAO= T EigKep=  2.73D-06  NBF=   225
 NBsUse=   225 1.00D-06 EigRej= -1.00D+00 NBFU=   225
 Initial guess from the checkpoint file:  "B2PLYPAnthranilic.chk"
 B after Tr=     0.000000    0.000000   -0.000000
         Rot=    0.999999   -0.000000    0.000001    0.001243 Ang=  -0.14 deg.
 ExpMin= 4.38D-02 ExpMax= 5.48D+03 ExpMxC= 8.25D+02 IAcc=2 IRadAn=         4 AccDes= 0.00D+00
 Harris functional with IExCor=  419 and IRadAn=       4 diagonalized for initial guess.
 HarFok:  IExCor=  419 AccDes= 0.00D+00 IRadAn=         4 IDoV= 1 UseB2=F ITyADJ=14
 ICtDFT=  3500011 ScaDFX=  1.000000  1.000000  1.000000  1.000000
 FoFCou: FMM=F IPFlag=           0 FMFlag=      100000 FMFlg1=           0
         NFxFlg=           0 DoJE=T BraDBF=F KetDBF=T FulRan=T
         wScrn=  0.000000 ICntrl=     500 IOpCl=  0 I1Cent=   200000004 NGrid=           0
         NMat0=    1 NMatS0=      1 NMatT0=    0 NMatD0=    1 NMtDS0=    0 NMtDT0=    0
 Petite list used in FoFCou.
 Keep R1 ints in memory in canonical form, NReq=329175655.
 Requested convergence on RMS density matrix=1.00D-08 within 128 cycles.
 Requested convergence on MAX density matrix=1.00D-06.
 Requested convergence on             energy=1.00D-06.
 No special actions if energy rises.
 SCF Done:  E(RB2PLYP) =  -475.270973225     A.U. after   12 cycles
            NFock= 12  Conv=0.58D-08     -V/T= 2.0070
 DoSCS=T DFT=T ScalE2(SS,OS)=  0.270000  0.270000
 ExpMin= 4.38D-02 ExpMax= 5.48D+03 ExpMxC= 8.25D+02 IAcc=3 IRadAn=         5 AccDes= 0.00D+00
 HarFok:  IExCor=  205 AccDes= 0.00D+00 IRadAn=         5 IDoV=-2 UseB2=F ITyADJ=14
 ICtDFT= 12500011 ScaDFX=  1.000000  1.000000  1.000000  1.000000
 Range of M.O.s used for correlation:    11   225
 NBasis=   225 NAE=    36 NBE=    36 NFC=    10 NFV=     0
 NROrb=    215 NOA=    26 NOB=    26 NVA=   189 NVB=   189

 **** Warning!!: The largest alpha MO coefficient is  0.16260034D+03

 DoSCS=T DFT=T ScalE2(SS,OS)=  0.270000  0.270000
 Fully direct method using O(ONN) memory.
 JobTyp=1 Pass  1:  I=  11 to  18 NPSUse= 18 ParTrn=T ParDer=T DoDerP=T.
 JobTyp=1 Pass  2:  I=  19 to  26 NPSUse= 18 ParTrn=T ParDer=T DoDerP=T.
 JobTyp=1 Pass  3:  I=  27 to  34 NPSUse= 18 ParTrn=T ParDer=T DoDerP=T.
 JobTyp=1 Pass  4:  I=  35 to  36 NPSUse= 18 ParTrn=T ParDer=T DoDerP=T.
 Spin components of T(2) and E(2):
     alpha-alpha T2 =       0.1090219274D+00 E2=     -0.6610250114D-01
     alpha-beta  T2 =       0.5567043530D+00 E2=     -0.3532155271D+00
     beta-beta   T2 =       0.1090219274D+00 E2=     -0.6610250114D-01
 E2(B2PLYP) =    -0.4854205294D+00 E(B2PLYP) =    -0.47575639375423D+03
          IDoAtm=11111111111111111
          Differentiating once with respect to electric field.
                with respect to dipole field.
          Differentiating once with respect to nuclear coordinates.
 Keep R1 ints in memory in canonical form, NReq=329001650.
          There are     1 degrees of freedom in the 1st order CPHF.  IDoFFX=0 NUNeed=     1.
 LinEq1:  Iter=  0 NonCon=     1 RMS=2.02D-03 Max=4.88D-02 NDo=     1
 AX will form     1 AO Fock derivatives at one time.
 LinEq1:  Iter=  1 NonCon=     1 RMS=8.67D-04 Max=1.97D-02 NDo=     1
 LinEq1:  Iter=  2 NonCon=     1 RMS=3.56D-04 Max=8.14D-03 NDo=     1
 LinEq1:  Iter=  3 NonCon=     1 RMS=2.79D-04 Max=7.60D-03 NDo=     1
 LinEq1:  Iter=  4 NonCon=     1 RMS=1.05D-04 Max=2.69D-03 NDo=     1
 LinEq1:  Iter=  5 NonCon=     1 RMS=4.91D-05 Max=1.14D-03 NDo=     1
 LinEq1:  Iter=  6 NonCon=     1 RMS=1.92D-05 Max=6.10D-04 NDo=     1
 LinEq1:  Iter=  7 NonCon=     1 RMS=9.64D-06 Max=3.90D-04 NDo=     1
 LinEq1:  Iter=  8 NonCon=     1 RMS=3.86D-06 Max=7.99D-05 NDo=     1
 LinEq1:  Iter=  9 NonCon=     1 RMS=2.00D-06 Max=5.19D-05 NDo=     1
 LinEq1:  Iter= 10 NonCon=     1 RMS=6.01D-07 Max=9.03D-06 NDo=     1
 LinEq1:  Iter= 11 NonCon=     1 RMS=2.18D-07 Max=3.99D-06 NDo=     1
 LinEq1:  Iter= 12 NonCon=     1 RMS=9.27D-08 Max=1.18D-06 NDo=     1
 LinEq1:  Iter= 13 NonCon=     1 RMS=3.16D-08 Max=4.46D-07 NDo=     1
 LinEq1:  Iter= 14 NonCon=     1 RMS=1.60D-08 Max=2.38D-07 NDo=     1
 LinEq1:  Iter= 15 NonCon=     1 RMS=5.46D-09 Max=1.90D-07 NDo=     1
 LinEq1:  Iter= 16 NonCon=     1 RMS=1.87D-09 Max=5.67D-08 NDo=     1
 LinEq1:  Iter= 17 NonCon=     1 RMS=9.87D-10 Max=3.68D-08 NDo=     1
 LinEq1:  Iter= 18 NonCon=     1 RMS=3.67D-10 Max=1.53D-08 NDo=     1
 LinEq1:  Iter= 19 NonCon=     1 RMS=2.17D-10 Max=6.42D-09 NDo=     1
 LinEq1:  Iter= 20 NonCon=     0 RMS=6.13D-11 Max=5.80D-10 NDo=     1
 Linear equations converged to 1.000D-10 1.000D-09 after    20 iterations.
 End of Minotr F.D. properties file   721 does not exist.
 End of Minotr F.D. properties file   722 does not exist.
 End of Minotr F.D. properties file   788 does not exist.
 Calling FoFJK, ICntrl=  10002127 FMM=F ISym2X=0 I1Cent= 0 IOpClX= 0 NMat=1 NMatS=1 NMatT=0.
 ***** Axes restored to original set *****
 -------------------------------------------------------------------
 Center     Atomic                   Forces (Hartrees/Bohr)
 Number     Number              X              Y              Z
 -------------------------------------------------------------------
      1        6           0.000402070    0.000596373    0.000000376
      2        6           0.000086227   -0.000214515    0.000000024
      3        6           0.000739433    0.000245887    0.000000266
      4        6          -0.001041797   -0.000080815   -0.000001328
      5        6           0.002007961   -0.000152560   -0.000004556
      6        6          -0.000163826    0.000195105   -0.000000853
      7        6          -0.004335283   -0.000158732    0.000017995
      8        8           0.000447114   -0.001128344   -0.000005127
      9        7          -0.000508830    0.000322438    0.000000386
     10        8           0.001785770    0.000699124   -0.000007287
     11        1           0.000106573   -0.000080994    0.000000088
     12        1           0.000102369    0.000036257   -0.000000040
     13        1           0.000001758   -0.000048039    0.000000047
     14        1           0.000054072   -0.000118611   -0.000000128
     15        1           0.000205235    0.000360937   -0.000000121
     16        1           0.000287122   -0.000361034    0.000000450
     17        1          -0.000175969   -0.000112479   -0.000000192
 -------------------------------------------------------------------
 Cartesian Forces:  Max     0.004335283 RMS     0.000782176

 GradGradGradGradGradGradGradGradGradGradGradGradGradGradGradGradGradGrad
 Berny optimization.
 Using GEDIIS/GDIIS optimizer.
 FormGI is forming the generalized inverse of G from B-inverse, IUseBI=4.
 Internal  Forces:  Max     0.001901607 RMS     0.000437311
 Search for a local minimum.
 Step number   2 out of a maximum of   86
 All quantities printed in internal units (Hartrees-Bohrs-Radians)
 Mixed Optimization -- En-DIIS/RFO-DIIS
 Update second derivatives using D2CorX and points    1    2
 DE= -4.04D-04 DEPred=-3.98D-04 R= 1.02D+00
 TightC=F SS=  1.41D+00  RLast= 3.76D-02 DXNew= 5.0454D-01 1.1267D-01
 Trust test= 1.02D+00 RLast= 3.76D-02 DXMaxT set to 3.00D-01
 ITU=  1  0
 Use linear search instead of GDIIS.
     Eigenvalues ---    0.01173   0.01537   0.01701   0.01891   0.01997
     Eigenvalues ---    0.02090   0.02108   0.02154   0.02188   0.02211
     Eigenvalues ---    0.02231   0.02231   0.02258   0.02358   0.15684
     Eigenvalues ---    0.16000   0.16000   0.16000   0.16000   0.16000
     Eigenvalues ---    0.16037   0.21929   0.22491   0.24208   0.24952
     Eigenvalues ---    0.25000   0.25000   0.25721   0.34866   0.35234
     Eigenvalues ---    0.35372   0.35528   0.35991   0.40364   0.41068
     Eigenvalues ---    0.43489   0.45717   0.46147   0.46787   0.47355
     Eigenvalues ---    0.50008   0.53169   0.53775   0.54638   0.90324
 RFO step:  Lambda=-4.41732460D-05 EMin= 1.17253745D-02
 Quartic linear search produced a step of  0.02600.
 Iteration  1 RMS(Cart)=  0.00329866 RMS(Int)=  0.00000749
 Iteration  2 RMS(Cart)=  0.00000794 RMS(Int)=  0.00000026
 Iteration  3 RMS(Cart)=  0.00000000 RMS(Int)=  0.00000026
 Variable       Old X    -DE/DX   Delta X   Delta X   Delta X     New X
                                 (Linear)    (Quad)   (Total)
    R1        2.65656  -0.00029   0.00014  -0.00052  -0.00038   2.65619
    R2        2.61975  -0.00058   0.00022  -0.00099  -0.00077   2.61898
    R3        2.04568   0.00002  -0.00006  -0.00001  -0.00008   2.04560
    R4        2.61708  -0.00016   0.00022  -0.00008   0.00014   2.61723
    R5        2.04945  -0.00010  -0.00008  -0.00039  -0.00047   2.04898
    R6        2.67723  -0.00088   0.00015  -0.00188  -0.00174   2.67550
    R7        2.05060  -0.00004  -0.00007  -0.00020  -0.00027   2.05033
    R8        2.69197   0.00037   0.00027   0.00124   0.00151   2.69348
    R9        2.57717  -0.00031   0.00022  -0.00034  -0.00012   2.57705
   R10        2.66738  -0.00048   0.00027  -0.00079  -0.00052   2.66685
   R11        2.77843  -0.00190   0.00005  -0.00539  -0.00534   2.77309
   R12        2.04405   0.00013  -0.00012   0.00023   0.00011   2.04416
   R13        2.56756   0.00097   0.00045   0.00233   0.00277   2.57034
   R14        2.32482   0.00159   0.00049   0.00227   0.00275   2.32757
   R15        1.83354   0.00026   0.00008   0.00059   0.00067   1.83421
   R16        1.90635   0.00026  -0.00002   0.00057   0.00055   1.90690
   R17        1.89836   0.00000  -0.00003  -0.00003  -0.00006   1.89830
    A1        2.07368   0.00021   0.00007   0.00093   0.00100   2.07468
    A2        2.10510   0.00003  -0.00004   0.00040   0.00036   2.10546
    A3        2.10440  -0.00024  -0.00003  -0.00133  -0.00136   2.10304
    A4        2.10962  -0.00004  -0.00008  -0.00032  -0.00040   2.10922
    A5        2.09380   0.00005   0.00003   0.00037   0.00040   2.09420
    A6        2.07977  -0.00002   0.00005  -0.00005  -0.00000   2.07976
    A7        2.11654  -0.00012   0.00004  -0.00048  -0.00044   2.11610
    A8        2.09671   0.00004  -0.00005   0.00004  -0.00001   2.09670
    A9        2.06993   0.00009   0.00001   0.00044   0.00045   2.07038
   A10        2.05724   0.00019   0.00007   0.00096   0.00102   2.05826
   A11        2.08823  -0.00031   0.00003  -0.00128  -0.00125   2.08697
   A12        2.13772   0.00012  -0.00009   0.00032   0.00023   2.13795
   A13        2.08785  -0.00018  -0.00011  -0.00080  -0.00092   2.08693
   A14        2.09558   0.00096  -0.00004   0.00385   0.00381   2.09939
   A15        2.09976  -0.00078   0.00016  -0.00305  -0.00289   2.09686
   A16        2.12143  -0.00005   0.00001  -0.00028  -0.00027   2.12116
   A17        2.09879   0.00001  -0.00006  -0.00005  -0.00011   2.09868
   A18        2.06296   0.00005   0.00005   0.00033   0.00038   2.06334
   A19        1.98668   0.00002  -0.00000   0.00006   0.00006   1.98673
   A20        2.19350   0.00125  -0.00007   0.00503   0.00496   2.19846
   A21        2.10301  -0.00126   0.00007  -0.00509  -0.00502   2.09800
   A22        1.85303  -0.00060  -0.00013  -0.00398  -0.00412   1.84891
   A23        2.08738  -0.00035  -0.00014  -0.00240  -0.00254   2.08483
   A24        2.09464  -0.00002   0.00011  -0.00002   0.00009   2.09472
   A25        2.10117   0.00037   0.00003   0.00243   0.00246   2.10363
    D1       -0.00000  -0.00000   0.00000  -0.00000  -0.00000  -0.00000
    D2        3.14159  -0.00000   0.00000  -0.00000  -0.00000   3.14159
    D3        3.14159   0.00000   0.00000   0.00000   0.00000   3.14159
    D4       -0.00000   0.00000  -0.00000   0.00000   0.00000  -0.00000
    D5       -0.00000   0.00000  -0.00000   0.00001   0.00001   0.00001
    D6        3.14159   0.00000  -0.00000   0.00000   0.00000  -3.14159
    D7        3.14159   0.00000  -0.00000   0.00001   0.00001  -3.14159
    D8        0.00000   0.00000  -0.00000   0.00000   0.00000   0.00000
    D9        0.00000  -0.00000   0.00000  -0.00000  -0.00000  -0.00000
   D10       -3.14159   0.00000  -0.00000   0.00000   0.00000  -3.14159
   D11       -3.14159  -0.00000   0.00000  -0.00000  -0.00000   3.14159
   D12        0.00000   0.00000  -0.00000   0.00000   0.00000   0.00000
   D13        0.00000  -0.00000  -0.00000  -0.00000  -0.00000  -0.00000
   D14       -3.14159   0.00000  -0.00000   0.00002   0.00002  -3.14157
   D15       -3.14159  -0.00000   0.00000  -0.00001  -0.00001   3.14159
   D16        0.00000   0.00000  -0.00000   0.00001   0.00001   0.00001
   D17       -0.00000   0.00000   0.00000   0.00001   0.00001   0.00001
   D18        3.14159  -0.00000   0.00000  -0.00000  -0.00000   3.14158
   D19        3.14159  -0.00000   0.00000  -0.00001  -0.00001   3.14158
   D20       -0.00001  -0.00000   0.00000  -0.00002  -0.00002  -0.00003
   D21       -3.14156  -0.00000   0.00000  -0.00003  -0.00003  -3.14159
   D22       -0.00005  -0.00000   0.00000  -0.00002  -0.00002  -0.00007
   D23        0.00003  -0.00000   0.00000  -0.00001  -0.00001   0.00002
   D24        3.14155   0.00000  -0.00000   0.00000   0.00000   3.14155
   D25        0.00000  -0.00000   0.00000  -0.00001  -0.00001  -0.00001
   D26       -3.14159  -0.00000   0.00000  -0.00001  -0.00001   3.14159
   D27       -3.14159  -0.00000  -0.00000  -0.00000  -0.00000  -3.14159
   D28        0.00000   0.00000  -0.00000   0.00000   0.00000   0.00001
   D29        3.14155   0.00000  -0.00000   0.00027   0.00027  -3.14136
   D30        0.00009  -0.00000   0.00000  -0.00033  -0.00033  -0.00023
   D31       -0.00004   0.00000  -0.00000   0.00026   0.00026   0.00022
   D32       -3.14150  -0.00001   0.00000  -0.00034  -0.00034   3.14134
   D33       -3.14152  -0.00000   0.00000  -0.00029  -0.00029   3.14138
   D34       -0.00006   0.00000  -0.00000   0.00028   0.00028   0.00022
         Item               Value     Threshold  Converged?
 Maximum Force            0.001902     0.000450     NO 
 RMS     Force            0.000437     0.000300     NO 
 Maximum Displacement     0.012622     0.001800     NO 
 RMS     Displacement     0.003301     0.001200     NO 
 Predicted change in Energy=-2.231936D-05
 GradGradGradGradGradGradGradGradGradGradGradGradGradGradGradGradGradGrad

                          Input orientation:                          
 ---------------------------------------------------------------------
 Center     Atomic      Atomic             Coordinates (Angstroms)
 Number     Number       Type             X           Y           Z
 ---------------------------------------------------------------------
      1          6           0       -1.854367   -1.525058    0.000021
      2          6           0       -2.586799   -0.325374   -0.000032
      3          6           0       -1.942031    0.900365   -0.000026
      4          6           0       -0.528858    0.986756    0.000033
      5          6           0        0.214349   -0.229469    0.000088
      6          6           0       -0.469819   -1.463774    0.000075
      7          6           0        1.681515   -0.200217    0.000140
      8          8           0        2.255779   -1.433208   -0.000099
      9          7           0        0.070593    2.211658    0.000060
     10          8           0        2.384815    0.810944   -0.000090
     11          1           0       -2.361913   -2.481183    0.000018
     12          1           0       -3.670739   -0.352172   -0.000077
     13          1           0       -2.518950    1.819256   -0.000062
     14          1           0        0.115839   -2.373240    0.000112
     15          1           0        3.214350   -1.280722   -0.000239
     16          1           0        1.077928    2.271075    0.000100
     17          1           0       -0.489754    3.045389   -0.000020
 ---------------------------------------------------------------------
                    Distance matrix (angstroms):
                    1          2          3          4          5
     1  C    0.000000
     2  C    1.405595   0.000000
     3  C    2.427007   1.384977   0.000000
     4  C    2.840103   2.440657   1.415812   0.000000
     5  C    2.440930   2.802789   2.434440   1.425328   0.000000
     6  C    1.385905   2.403656   2.785061   2.451241   1.411238
     7  C    3.775933   4.270149   3.787000   2.508915   1.467458
     8  O    4.111172   4.967681   4.802830   3.689231   2.369900
     9  N    4.203394   3.673998   2.402112   1.363718   2.445356
    10  O    4.840203   5.099820   4.327770   2.918972   2.406944
    11  H    1.082487   2.167507   3.407517   3.922587   3.421599
    12  H    2.162144   1.084271   2.134779   3.415281   3.887025
    13  H    3.409708   2.145703   1.084986   2.157203   3.415874
    14  H    2.145024   3.390871   3.866694   3.421287   2.146033
    15  H    5.074603   5.879287   5.598697   4.376421   3.178859
    16  H    4.796768   4.491300   3.316474   2.056997   2.645466
    17  H    4.769817   3.969842   2.590412   2.059004   3.349695
                    6          7          8          9         10
     6  C    0.000000
     7  C    2.494958   0.000000
     8  O    2.725769   1.360164   0.000000
     9  N    3.714949   2.900382   4.249716   0.000000
    10  O    3.650106   1.231697   2.247859   2.705111   0.000000
    11  H    2.148288   4.642426   4.735116   5.285815   5.776636
    12  H    3.388443   5.354411   6.024305   4.535503   6.166244
    13  H    3.870042   4.660706   5.777245   2.619105   5.006356
    14  H    1.081722   2.678314   2.337306   4.585121   3.909894
    15  H    3.688713   1.875386   0.970624   4.698929   2.250154
    16  H    4.042848   2.543935   3.887036   1.009087   1.959575
    17  H    4.509207   3.904916   5.253169   1.004537   3.640864
                   11         12         13         14         15
    11  H    0.000000
    12  H    2.499142   0.000000
    13  H    4.303306   2.457991   0.000000
    14  H    2.480102   4.292189   4.951680   0.000000
    15  H    5.704017   6.947421   6.517714   3.285478   0.000000
    16  H    5.866555   5.425059   3.625145   4.742918   4.144823
    17  H    5.835065   4.654255   2.370873   5.452364   5.695228
                   16         17
    16  H    0.000000
    17  H    1.748482   0.000000
 Stoichiometry    C7H7NO2
 Framework group  C1[X(C7H7NO2)]
 Deg. of freedom    45
 Full point group                 C1      NOp   1
 Largest Abelian subgroup         C1      NOp   1
 Largest concise Abelian subgroup C1      NOp   1
                         Standard orientation:                         
 ---------------------------------------------------------------------
 Center     Atomic      Atomic             Coordinates (Angstroms)
 Number     Number       Type             X           Y           Z
 ---------------------------------------------------------------------
      1          6           0       -1.855980   -1.524428    0.000014
      2          6           0       -2.587903   -0.324434   -0.000039
      3          6           0       -1.942616    0.901032   -0.000033
      4          6           0       -0.529406    0.986824    0.000026
      5          6           0        0.213285   -0.229716    0.000080
      6          6           0       -0.471405   -1.463731    0.000067
      7          6           0        1.680464   -0.201086    0.000133
      8          8           0        2.254204   -1.434320   -0.000106
      9          7           0        0.070563    2.211472    0.000052
     10          8           0        2.384191    0.809777   -0.000098
     11          1           0       -2.363931   -2.480338    0.000010
     12          1           0       -3.671854   -0.350773   -0.000084
     13          1           0       -2.519146    1.820167   -0.000070
     14          1           0        0.113867   -2.373445    0.000104
     15          1           0        3.212840   -1.282240   -0.000246
     16          1           0        1.077924    2.270462    0.000092
     17          1           0       -0.489430    3.045440   -0.000027
 ---------------------------------------------------------------------
 Rotational constants (GHZ):      2.2886731      1.2118982      0.7923389
 Standard basis: 6-31+G(d,p) (6D, 7F)
 There are   225 symmetry adapted cartesian basis functions of A   symmetry.
 There are   225 symmetry adapted basis functions of A   symmetry.
   225 basis functions,   369 primitive gaussians,   225 cartesian basis functions
    36 alpha electrons       36 beta electrons
       nuclear repulsion energy       500.1168429984 Hartrees.
 NAtoms=   17 NActive=   17 NUniq=   17 SFac= 1.00D+00 NAtFMM=   60 NAOKFM=F Big=F
 Integral buffers will be    131072 words long.
 Regular integral format.
 Two-electron integral symmetry is turned on.
 One-electron integrals computed using PRISM.
 NBasis=   225 RedAO= T EigKep=  2.74D-06  NBF=   225
 NBsUse=   225 1.00D-06 EigRej= -1.00D+00 NBFU=   225
 Initial guess from the checkpoint file:  "B2PLYPAnthranilic.chk"
 B after Tr=    -0.000000   -0.000000    0.000000
         Rot=    0.999999    0.000001   -0.000002   -0.001113 Ang=   0.13 deg.
 Keep R1 ints in memory in canonical form, NReq=329175655.
 Requested convergence on RMS density matrix=1.00D-08 within 128 cycles.
 Requested convergence on MAX density matrix=1.00D-06.
 Requested convergence on             energy=1.00D-06.
 No special actions if energy rises.
 SCF Done:  E(RB2PLYP) =  -475.270915087     A.U. after   11 cycles
            NFock= 11  Conv=0.68D-08     -V/T= 2.0070
 DoSCS=T DFT=T ScalE2(SS,OS)=  0.270000  0.270000
 ExpMin= 4.38D-02 ExpMax= 5.48D+03 ExpMxC= 8.25D+02 IAcc=3 IRadAn=         5 AccDes= 0.00D+00
 HarFok:  IExCor=  205 AccDes= 0.00D+00 IRadAn=         5 IDoV=-2 UseB2=F ITyADJ=14
 ICtDFT= 12500011 ScaDFX=  1.000000  1.000000  1.000000  1.000000
 Range of M.O.s used for correlation:    11   225
 NBasis=   225 NAE=    36 NBE=    36 NFC=    10 NFV=     0
 NROrb=    215 NOA=    26 NOB=    26 NVA=   189 NVB=   189

 **** Warning!!: The largest alpha MO coefficient is  0.16102764D+03

 DoSCS=T DFT=T ScalE2(SS,OS)=  0.270000  0.270000
 Fully direct method using O(ONN) memory.
 JobTyp=1 Pass  1:  I=  11 to  18 NPSUse= 18 ParTrn=T ParDer=T DoDerP=T.
 JobTyp=1 Pass  2:  I=  19 to  26 NPSUse= 18 ParTrn=T ParDer=T DoDerP=T.
 JobTyp=1 Pass  3:  I=  27 to  34 NPSUse= 18 ParTrn=T ParDer=T DoDerP=T.
 JobTyp=1 Pass  4:  I=  35 to  36 NPSUse= 18 ParTrn=T ParDer=T DoDerP=T.
 Spin components of T(2) and E(2):
     alpha-alpha T2 =       0.1090590407D+00 E2=     -0.6611417281D-01
     alpha-beta  T2 =       0.5568929488D+00 E2=     -0.3532695199D+00
     beta-beta   T2 =       0.1090590407D+00 E2=     -0.6611417281D-01
 E2(B2PLYP) =    -0.4854978655D+00 E(B2PLYP) =    -0.47575641295273D+03
          IDoAtm=11111111111111111
          Differentiating once with respect to electric field.
                with respect to dipole field.
          Differentiating once with respect to nuclear coordinates.
 Keep R1 ints in memory in canonical form, NReq=329001650.
          There are     1 degrees of freedom in the 1st order CPHF.  IDoFFX=0 NUNeed=     1.
 LinEq1:  Iter=  0 NonCon=     1 RMS=2.02D-03 Max=4.89D-02 NDo=     1
 AX will form     1 AO Fock derivatives at one time.
 LinEq1:  Iter=  1 NonCon=     1 RMS=8.70D-04 Max=1.98D-02 NDo=     1
 LinEq1:  Iter=  2 NonCon=     1 RMS=3.58D-04 Max=8.23D-03 NDo=     1
 LinEq1:  Iter=  3 NonCon=     1 RMS=2.81D-04 Max=7.67D-03 NDo=     1
 LinEq1:  Iter=  4 NonCon=     1 RMS=1.06D-04 Max=2.70D-03 NDo=     1
 LinEq1:  Iter=  5 NonCon=     1 RMS=4.94D-05 Max=1.15D-03 NDo=     1
 LinEq1:  Iter=  6 NonCon=     1 RMS=1.93D-05 Max=6.14D-04 NDo=     1
 LinEq1:  Iter=  7 NonCon=     1 RMS=9.73D-06 Max=3.95D-04 NDo=     1
 LinEq1:  Iter=  8 NonCon=     1 RMS=3.88D-06 Max=8.00D-05 NDo=     1
 LinEq1:  Iter=  9 NonCon=     1 RMS=2.02D-06 Max=5.18D-05 NDo=     1
 LinEq1:  Iter= 10 NonCon=     1 RMS=6.03D-07 Max=9.05D-06 NDo=     1
 LinEq1:  Iter= 11 NonCon=     1 RMS=2.19D-07 Max=3.93D-06 NDo=     1
 LinEq1:  Iter= 12 NonCon=     1 RMS=9.27D-08 Max=1.18D-06 NDo=     1
 LinEq1:  Iter= 13 NonCon=     1 RMS=3.17D-08 Max=4.83D-07 NDo=     1
 LinEq1:  Iter= 14 NonCon=     1 RMS=1.60D-08 Max=2.38D-07 NDo=     1
 LinEq1:  Iter= 15 NonCon=     1 RMS=5.56D-09 Max=2.02D-07 NDo=     1
 LinEq1:  Iter= 16 NonCon=     1 RMS=1.96D-09 Max=6.49D-08 NDo=     1
 LinEq1:  Iter= 17 NonCon=     1 RMS=1.06D-09 Max=4.12D-08 NDo=     1
 LinEq1:  Iter= 18 NonCon=     1 RMS=4.26D-10 Max=1.76D-08 NDo=     1
 LinEq1:  Iter= 19 NonCon=     1 RMS=2.37D-10 Max=6.23D-09 NDo=     1
 LinEq1:  Iter= 20 NonCon=     0 RMS=6.23D-11 Max=6.03D-10 NDo=     1
 Linear equations converged to 1.000D-10 1.000D-09 after    20 iterations.
 End of Minotr F.D. properties file   721 does not exist.
 End of Minotr F.D. properties file   722 does not exist.
 End of Minotr F.D. properties file   788 does not exist.
 Calling FoFJK, ICntrl=  10002127 FMM=F ISym2X=0 I1Cent= 0 IOpClX= 0 NMat=1 NMatS=1 NMatT=0.
 ***** Axes restored to original set *****
 -------------------------------------------------------------------
 Center     Atomic                   Forces (Hartrees/Bohr)
 Number     Number              X              Y              Z
 -------------------------------------------------------------------
      1        6           0.000078644    0.000244443   -0.000001114
      2        6           0.000212903   -0.000084484   -0.000000104
      3        6           0.000205689   -0.000175428   -0.000000963
      4        6          -0.000325741   -0.000126620    0.000003067
      5        6           0.000533176    0.000297288    0.000015840
      6        6          -0.000255040    0.000052406    0.000002775
      7        6          -0.000767985    0.000483396   -0.000061839
      8        8           0.000346274   -0.000369582    0.000018293
      9        7           0.000334431   -0.000317098    0.000001208
     10        8          -0.000381540    0.000016752    0.000024524
     11        1          -0.000016520   -0.000070019   -0.000000430
     12        1          -0.000063935   -0.000005163    0.000000213
     13        1          -0.000023150    0.000035958   -0.000000137
     14        1          -0.000005939   -0.000026884    0.000000341
     15        1          -0.000079120    0.000111736    0.000000277
     16        1           0.000182807   -0.000039814   -0.000001930
     17        1           0.000025049   -0.000026889   -0.000000019
 -------------------------------------------------------------------
 Cartesian Forces:  Max     0.000767985 RMS     0.000210709

 GradGradGradGradGradGradGradGradGradGradGradGradGradGradGradGradGradGrad
 Berny optimization.
 Using GEDIIS/GDIIS optimizer.
 FormGI is forming the generalized inverse of G from B-inverse, IUseBI=4.
 Internal  Forces:  Max     0.001112110 RMS     0.000293756
 Search for a local minimum.
 Step number   3 out of a maximum of   86
 All quantities printed in internal units (Hartrees-Bohrs-Radians)
 Mixed Optimization -- En-DIIS/RFO-DIIS
 Swapping is turned off.
 Update second derivatives using D2CorX and points    1    2    3
 DE= -1.92D-05 DEPred=-2.23D-05 R= 8.60D-01
 TightC=F SS=  1.41D+00  RLast= 1.27D-02 DXNew= 5.0454D-01 3.8091D-02
 Trust test= 8.60D-01 RLast= 1.27D-02 DXMaxT set to 3.00D-01
 ITU=  1  1  0
     Eigenvalues ---    0.01173   0.01535   0.01700   0.01891   0.01997
     Eigenvalues ---    0.02090   0.02108   0.02154   0.02188   0.02211
     Eigenvalues ---    0.02231   0.02231   0.02258   0.02358   0.12649
     Eigenvalues ---    0.16000   0.16000   0.16000   0.16000   0.16008
     Eigenvalues ---    0.16024   0.20366   0.22155   0.22736   0.24589
     Eigenvalues ---    0.25000   0.25005   0.30836   0.35227   0.35259
     Eigenvalues ---    0.35502   0.35590   0.37751   0.40957   0.42471
     Eigenvalues ---    0.45143   0.45987   0.46777   0.47223   0.49073
     Eigenvalues ---    0.51960   0.53287   0.54456   0.55079   0.93618
 En-DIIS/RFO-DIIS IScMMF=        0 using points:     3    2
 RFO step:  Lambda=-1.05476598D-05.
 DidBck=F Rises=F RFO-DIIS coefs:    0.88005    0.11995
 Iteration  1 RMS(Cart)=  0.00433430 RMS(Int)=  0.00000770
 Iteration  2 RMS(Cart)=  0.00000972 RMS(Int)=  0.00000012
 Iteration  3 RMS(Cart)=  0.00000000 RMS(Int)=  0.00000012
 Variable       Old X    -DE/DX   Delta X   Delta X   Delta X     New X
                                 (Linear)    (Quad)   (Total)
    R1        2.65619  -0.00010   0.00005  -0.00026  -0.00021   2.65598
    R2        2.61898  -0.00013   0.00009  -0.00048  -0.00038   2.61860
    R3        2.04560   0.00007   0.00001   0.00009   0.00010   2.04571
    R4        2.61723  -0.00002  -0.00002   0.00019   0.00017   2.61740
    R5        2.04898   0.00006   0.00006  -0.00013  -0.00008   2.04890
    R6        2.67550  -0.00026   0.00021  -0.00134  -0.00113   2.67437
    R7        2.05033   0.00004   0.00003  -0.00007  -0.00004   2.05029
    R8        2.69348  -0.00082  -0.00018  -0.00080  -0.00098   2.69250
    R9        2.57705  -0.00011   0.00001  -0.00010  -0.00008   2.57697
   R10        2.66685  -0.00005   0.00006  -0.00020  -0.00014   2.66671
   R11        2.77309  -0.00088   0.00064  -0.00487  -0.00423   2.76886
   R12        2.04416   0.00002  -0.00001   0.00003   0.00001   2.04417
   R13        2.57034   0.00035  -0.00033   0.00226   0.00193   2.57226
   R14        2.32757  -0.00020  -0.00033   0.00153   0.00120   2.32877
   R15        1.83421  -0.00006  -0.00008   0.00030   0.00022   1.83443
[...]
 ! D31   D(6,5,7,8)             -0.0349         -DE/DX =    0.0                 !
 ! D32   D(6,5,7,10)           180.0395         -DE/DX =    0.0                 !
 ! D33   D(5,7,8,15)           180.0353         -DE/DX =    0.0                 !
 ! D34   D(10,7,8,15)           -0.0343         -DE/DX =    0.0                 !
 --------------------------------------------------------------------------------
 GradGradGradGradGradGradGradGradGradGradGradGradGradGradGradGradGradGrad

 1\1\ WCSS.PL-BEM-JP\Freq\RB2PLYP-FC\6-31+G(d,p)\C7H7N1O2\C612\15-Dec-2
 024\0\\#N Geom=AllCheck Guess=TCheck SCRF=Check GenChk RB2PLYP(FC)/6-3
 1+G(d,p) Freq\\[No Title]\\0,1\C,-1.8551256951,-1.5251102163,-0.000037
 1128\C,-2.5870397898,-0.3253258857,0.0001275506\C,-1.9421021836,0.9002
 451298,0.0001215016\C,-0.5291857559,0.9859672211,-0.000057537\C,0.2136
 274335,-0.2302160558,-0.0002370691\C,-0.4707584894,-1.4644169783,-0.00
 02037389\C,1.6794152692,-0.1993486384,-0.000437313\O,2.2573889109,-1.4
 311785913,0.0001799743\N,0.072916179,2.20937094,-0.0000711125\O,2.3808
 929941,0.8131016892,0.0002028648\H,-2.3629813243,-2.481200914,-0.00003
 05699\H,-3.6710938251,-0.3518932589,0.0002650487\H,-2.5188493088,1.819
 3196052,0.000249656\H,0.114614878,-2.374155519,-0.0003281914\H,3.21521
 95933,-1.2744097447,0.0005477866\H,1.0806542588,2.2659865924,-0.000282
 4445\H,-0.4856541449,3.0442906247,-0.0000072937\\Version=ES64L-G09RevE
 .01\State=1-A\HF=-475.2709134\MP2=-475.7564189\RMSD=2.911e-09\RMSF=3.0
 49e-05\ZeroPoint=0.1316725\Thermal=0.1398382\Dipole=-0.4598654,0.21267
 99,-0.0002157\DipoleDeriv=-0.5254822,0.2632433,0.0000391,0.1873779,-0.
 1658289,-0.0000258,0.0000472,-0.0000697,-0.1929348,0.1643236,0.0086798
 ,-0.0000097,-0.2708282,0.4675499,0.0000209,-0.0000092,-0.0000017,-0.10
 29388,-0.0968196,-0.6360537,-0.0000513,-0.0234519,-0.2094037,-0.000004
 5,-0.0000746,0.0001094,-0.1923769,0.3236925,0.8076168,0.0000024,0.3037
 454,1.3063168,0.0000131,0.0001568,-0.0000416,0.1051592,-0.973255,0.303
 8784,-0.000063,-0.3293377,-0.355369,0.0000658,0.0000295,0.0000053,-0.0
 574178,0.5057444,-0.119818,-0.000012,0.4203445,0.0235317,-0.000071,0.0
 000932,0.0000322,-0.0945334,2.2972654,-0.3310889,0.0000192,-0.1395959,
 1.5417642,-0.0001827,0.0004588,-0.0002806,0.3005272,-0.8723933,0.55106
 73,-0.0000547,0.6102297,-1.0804146,0.0000639,-0.0003697,0.0005295,-0.3
 778436,-0.4201476,-0.5487247,-0.0000449,-0.3161717,-1.3092084,0.000034
 2,-0.0000415,-0.0000545,-0.5647232,-1.1738624,-0.2524344,0.0000576,-0.
 3460404,-0.8748427,0.0001585,-0.000392,-0.0001967,-0.369134,0.015934,-
 0.0611815,0.0000061,-0.0720002,-0.0667,-0.000007,-0.0000131,0.0000163,
 0.1575951,-0.1078972,-0.0051018,0.0000338,-0.0039847,0.0815396,-0.0000
 025,0.0000363,0.0000027,0.1338257,0.0196986,0.0460572,0.0000163,0.0832
 729,-0.0887246,-0.0000219,0.0000124,-0.0000385,0.1466883,0.0796639,0.0
 507858,0.0000142,0.0452552,0.0055284,-0.0000032,0.0000136,-0.0000176,0
 .1327493,0.3167224,-0.0835311,0.0000009,-0.1314023,0.2776295,-0.000017
 9,0.0000014,-0.000027,0.3418307,0.3271803,-0.0093407,0.0000192,-0.0171
 216,0.2151373,-0.0000247,0.0000432,-0.0000327,0.3046257,0.119632,0.015
 9462,0.0000266,-0.000291,0.2314944,0.0000047,0.0000078,0.0000653,0.328
 9012\Polar=127.365376,4.3124469,115.3898055,-0.002095,0.0020341,54.260
 2255\PG=C01 [X(C7H7N1O2)]\NImag=1\\0.70633804,0.04538388,0.72899837,-0
 .00006944,0.00002896,0.10112983,-0.17980206,0.11878433,0.00002413,0.74
 855070,0.05836685,-0.27399806,-0.00001841,0.01758316,0.68963156,0.0000
 2278,-0.00002805,-0.04578035,-0.00007927,0.00003287,0.11932357,0.05718
 929,-0.01538034,-0.00001197,-0.18320753,-0.07472395,0.00001298,0.66840
 158,0.02192849,-0.05496960,-0.00000627,-0.13231515,-0.32534641,-0.0000
 0191,0.00001171,0.76872021,-0.00000855,-0.00000225,-0.00260753,0.00001
 093,-0.00000958,-0.03875554,-0.00007232,0.00004349,0.09548623,-0.05235
 391,0.02925315,0.00001170,-0.01772427,-0.07640631,-0.00000302,-0.29460
 533,0.03535045,0.00003183,0.68726717,0.02220889,-0.00439278,-0.0000058
 0,-0.03696597,0.02095718,0.00000756,-0.01927748,-0.12296764,-0.0000015
 6,0.03218260,0.73125003,0.00001136,-0.00000422,0.00598350,-0.00000193,
 0.00001350,-0.01254912,0.00003300,-0.00001043,-0.04372028,-0.00007843,
 0.00003228,0.12023889,-0.03684366,-0.02351357,0.00000690,-0.00189536,-
 0.01254514,-0.00000042,-0.01367742,0.02553330,0.00000536,-0.18307000,0
 .07927277,0.00003243,0.63971931,-0.06135685,0.01979041,0.00000999,0.00
 590337,-0.04829189,-0.00000336,0.04679556,0.02759459,-0.00000634,0.047
 75021,-0.23212072,-0.00001819,0.01211602,0.69291109,-0.00000114,0.0000
 0849,-0.00406755,0.00000064,-0.00000230,0.00607294,0.00000199,-0.00000
 517,-0.00916176,0.00003313,-0.00002349,-0.03115394,-0.00005362,0.00002
 736,0.08369215,-0.36859327,-0.04122375,0.00003347,-0.03246976,0.070328
 26,0.00000708,-0.04199311,-0.02545261,0.00000492,0.06593606,-0.0074257
 0,-0.00001249,-0.15144374,-0.05694922,0.00002261,0.73584572,0.01827771
 ,-0.12727168,-0.00000959,0.02762659,0.03136861,-0.00000305,-0.02122268
 ,-0.01612678,0.00000336,0.02348323,-0.05002097,-0.00000803,-0.09463071
 ,-0.27576397,-0.00000087,-0.04556390,0.70232895,0.00004039,-0.00000073
 ,-0.04432676,0.00000548,-0.00000721,-0.00489461,0.00000765,0.00000267,
 0.00704527,-0.00001034,0.00000354,-0.01497864,0.00001533,-0.00000254,-
 0.03181248,-0.00008311,0.00003820,0.11548869,0.01917696,-0.00747661,-0
 .00000617,0.00107331,0.01375991,0.00000085,-0.00892382,-0.00127897,-0.
 00000136,-0.00828555,0.03882174,0.00000036,-0.21274952,0.00385388,0.00
 004382,-0.03427138,-0.02641937,0.00000405,0.73321180,-0.00222995,-0.00
 836955,0.00000006,0.00030313,-0.00063397,-0.00000059,0.00103531,-0.006
 70201,-0.00000156,0.03382860,0.02032386,-0.00000742,0.01589313,-0.1038
 1193,0.00000368,-0.03219885,0.00832275,0.00000694,0.15109809,0.7795388
 7,0.00000318,-0.00000148,0.00847358,-0.00000115,0.00000179,-0.00178217
 ,0.00000019,0.00000047,0.00759814,-0.00000245,0.00000693,-0.00726395,0
 .00000839,0.00000362,-0.06214314,-0.00000310,-0.00000497,-0.00833743,0
 .00021731,0.00012817,0.19652994,-0.00185640,0.00174204,0.00000098,-0.0
 0075094,-0.00092018,-0.00000008,0.00005715,0.00210165,0.00000143,-0.00
 669243,-0.00999600,-0.00000103,-0.03233554,0.04237498,-0.00001814,-0.0
 0270291,0.00303250,-0.00000203,-0.15735509,0.08007481,-0.00005769,0.65
 283335,0.00336435,0.00039716,-0.00000189,-0.00001919,0.00143325,0.0000
 0030,-0.00039106,0.00084026,-0.00000024,-0.00214330,0.00131898,0.00000
 190,0.01876944,-0.00318602,0.00000986,-0.00406300,-0.00625218,-0.00000
 071,0.03705826,-0.22180876,0.00004433,0.00262756,0.38737256,-0.0000023
 3,0.00000059,-0.00122889,-0.00000020,-0.00000101,0.00005707,0.00000077
 ,0.00000030,-0.00065488,0.00000014,-0.00000284,0.00229840,-0.00000337,
 0.00000830,0.01020172,-0.00000019,0.00000277,0.00176588,-0.00004515,0.
 00008638,-0.06004204,0.00024268,-0.00005519,0.03283889,0.00930721,-0.0
 0828919,-0.00000210,-0.00458116,0.01645732,0.00000222,-0.03875405,-0.0
 5768211,0.00000359,-0.17896128,-0.08860569,0.00001484,0.03037216,0.018
 40944,-0.00000191,-0.01457232,-0.00212281,0.00000071,-0.01892722,-0.00
 915987,-0.00000419,0.00212895,0.00322878,-0.00000092,0.87474493,0.0011
 4036,-0.00780829,0.00000013,0.00575642,0.00763589,-0.00000014,-0.02630
 676,-0.00990015,0.00000282,-0.09467567,-0.32277175,-0.00000764,0.00295
 551,-0.04799068,-0.00000195,0.00016487,0.00036155,-0.00000271,-0.02105
 289,-0.00510348,-0.00000442,0.00340338,-0.00253043,0.00000263,-0.05214
 841,0.80543816,-0.00000101,0.00000024,-0.00204700,0.00000237,-0.000001
 53,0.00566240,0.00000233,0.00000758,0.00488954,0.00002160,0.00000073,-
 0.02140043,-0.00000506,-0.00000528,-0.00041880,0.00000255,-0.00000006,
 0.00564156,0.00000181,0.00000076,0.00034642,-0.00000015,0.00000015,-0.
 00038708,-0.00014893,0.00001652,-0.00271176,-0.00552362,-0.00043363,0.
 00000314,-0.00000075,-0.00420702,-0.00000088,0.00278921,0.00061787,0.0
 0000025,0.00043941,-0.01001565,-0.00000162,-0.03574264,-0.04517341,-0.
 00002537,-0.00265517,0.00937041,-0.00000295,-0.29544816,-0.24910160,-0
 .00015697,0.03512671,0.00264247,-0.00000051,0.00056914,0.01468497,-0.0
 0000047,0.31289856,-0.00687558,0.00387979,0.00000223,0.00016166,-0.006
 77736,-0.00000037,0.00600995,0.00334553,0.,-0.00665539,-0.02143273,0.0
 0000262,-0.03877072,-0.00492933,-0.00001442,0.00599731,0.00621180,-0.0
 0000173,-0.23827763,-0.45116366,-0.00019817,-0.01705774,-0.10335098,-0
 .00001533,0.01942374,0.00368721,-0.00000046,0.28781754,0.55975142,-0.0
 0000275,0.00000031,-0.00151698,0.00000038,-0.00000214,0.00028530,0.000
 00122,0.00000021,-0.00074502,0.00000009,-0.00000828,-0.00004587,-0.000
 00703,-0.00001553,0.01749053,-0.00000080,0.00000505,0.00454990,-0.0001
 8004,-0.00021945,-0.07300962,0.00000581,0.00000904,0.02632693,0.000005
 62,0.00000641,0.00232587,0.00018030,0.00022914,0.03365191,-0.12306151,
 -0.12043353,0.00000349,0.01187522,0.01719928,-0.00000073,-0.00157294,0
 .00305173,0.00000108,-0.00111996,0.00088281,0.00000016,-0.00515606,0.0
 0177082,0.00000253,-0.01033829,-0.03007712,0.00000024,0.00082249,-0.00
 175534,0.00000024,-0.00024903,0.00029646,-0.00000013,0.00041149,-0.000
 13994,-0.00000020,-0.00101781,-0.00023053,-0.00000043,0.12711923,-0.12
 070476,-0.28690084,0.,-0.01535799,-0.01803821,0.00000096,0.00417110,-0
 .00241715,-0.00000095,0.00091314,0.00011254,-0.00000016,0.00045462,0.0
 0152926,-0.00000053,0.00260380,0.00329501,0.00000035,0.00047318,-0.000
 02565,0.00000008,-0.00019637,0.00013177,-0.00000005,-0.00025318,0.0001
 1846,-0.00000005,-0.00013717,0.00002829,0.,0.12878520,0.30145263,0.000
 00380,0.00000028,-0.02827623,-0.00000234,-0.00000379,-0.00092087,0.000
 00192,-0.00000079,0.00640709,-0.00000054,-0.00000066,-0.00101810,0.000
 00170,0.00000020,0.00797786,0.00000133,0.00000414,-0.00060814,-0.00000
 009,0.00000003,0.00134785,-0.00000008,0.00000016,-0.00010936,0.0000003
 7,0.00000051,-0.00051126,0.00000036,0.,-0.00059065,-0.00000516,-0.0000
 0024,0.02303898,-0.01130572,-0.00394458,0.00000156,-0.34634080,-0.0072
 3552,0.00003896,-0.01032945,0.00268403,0.00000173,0.00120032,-0.002131
 77,0.00000097,0.00071424,-0.00007001,-0.00000020,0.00013829,0.00356162
 ,0.00000097,0.00019886,0.00003638,-0.00000005,-0.00020101,0.00005716,-
 0.00000009,-0.00096695,-0.00003850,0.00000015,-0.00016837,-0.00004547,
 -0.00000009,0.00080844,0.00016276,-0.00000044,0.36586895,0.02751364,0.
 00669041,-0.00000302,-0.00630836,-0.06122315,-0.00000064,-0.02911281,0
 .00350322,0.00000344,-0.00219330,-0.00516524,-0.00000050,-0.00055039,-
 0.00120860,0.00000005,0.00311402,-0.00487323,-0.00000121,0.00042094,-0
 .00022298,0.00000028,-0.00000619,0.00022937,-0.00000006,-0.00141829,0.
 00070900,0.00000028,-0.00007304,0.00002905,-0.00000009,-0.00061017,0.0
 0097570,0.00000027,0.00762165,0.05966238,0.00000242,0.00000143,0.00243
 615,0.00003920,-0.00000073,-0.03672915,-0.00000087,-0.00000096,0.00229
 281,0.00000153,-0.00000090,0.00931929,-0.00000081,-0.00000007,-0.00118
 185,0.00000215,-0.00000058,0.00707058,0.00000035,0.00000023,-0.0010937
 2,-0.00000004,0.00000003,0.00018261,-0.00000027,0.,-0.00018189,0.00000
 009,-0.00000010,0.00013132,-0.00000039,0.00000021,-0.00298341,-0.00004
 283,0.00000112,0.02550512,-0.00058444,-0.00316276,0.00000014,0.0118251
 1,-0.01466128,-0.00000251,-0.14124049,0.12816379,0.00002158,-0.0123455
 3,0.02907241,0.00000356,-0.00493351,-0.00214956,0.00000207,-0.00117023
 ,-0.00123137,0.00000073,0.00033813,0.00168520,0.00000012,-0.00083814,0
 .00004689,-0.00000014,0.00218731,0.00100279,-0.00000084,-0.00009796,-0
 .00030432,-0.00000006,0.00046307,-0.00077370,-0.00000001,0.00093795,0.
 00031835,-0.00000052,0.14637765,-0.00429919,-0.00285687,0.00000060,0.0
 1786898,-0.01927696,-0.00000316,0.12848212,-0.26055336,-0.00003086,-0.
 00424385,0.00166152,0.00000091,-0.00031304,0.00130657,-0.00000015,-0.0
 0088279,0.00007609,-0.00000066,-0.00100364,-0.00013571,-0.00000028,0.0
 0016763,-0.00003702,-0.00000002,-0.00091529,0.00231017,0.00000048,0.00
 029980,0.00035899,0.00000019,0.00092448,-0.00104338,-0.00000026,-0.000
 17384,0.00103545,0.00000031,-0.13682777,0.27678525,0.00000082,0.000000
 06,0.00803720,-0.00000044,0.00000046,0.00031068,0.00002149,-0.00003036
 ,-0.02874649,0.00000159,-0.00000284,0.00136610,0.00000154,-0.00000085,
 0.00571434,-0.00000007,0.00000050,-0.00125853,0.00000012,0.00000002,0.
 00007773,0.00000011,-0.00000008,-0.00008781,-0.00000057,-0.00000063,-0
 .00221664,0.00000001,0.00000015,-0.00000469,0.00000004,-0.00000002,0.0
 0053462,-0.00000068,0.00000031,-0.00425357,-0.00002407,0.00003291,0.02
 136752,-0.01051679,0.02734352,0.00000386,-0.00580958,-0.00115240,0.000
 00162,-0.00058452,-0.00104414,0.00000005,-0.00152410,-0.00328339,0.000
 00045,0.01130102,-0.01349390,-0.00000264,-0.14384211,0.13490199,0.0000
 2257,0.00160718,-0.00154566,0.00000058,-0.00483937,-0.00062147,-0.0000
 0176,0.00058995,-0.00073138,-0.00000012,0.00017731,0.00089660,0.000000
 13,0.00113987,-0.00028739,-0.00000070,-0.00064634,0.00138451,-0.000000
 02,0.00008228,0.00009258,-0.00000012,0.15284205,-0.00376614,0.00648136
 ,0.00000135,-0.00113418,0.00106823,-0.00000025,-0.00049877,0.00015732,
 0.00000019,-0.00415499,-0.00243612,0.00000070,0.01544409,-0.01872202,-
 0.00000334,0.13205055,-0.26905408,-0.00003121,0.00254327,-0.00273790,0
 .00000131,0.00061144,0.00166350,-0.00000049,0.00116874,-0.00088322,-0.
 00000022,-0.00023339,0.00100081,-0.00000012,0.00029449,0.00076198,0.00
 000011,-0.00029046,0.00021398,0.00000009,0.00011235,0.00000528,-0.0000
 0001,-0.14213941,0.28208018,0.00000043,-0.00000386,0.00331114,0.000002
 05,-0.00000120,0.00851294,0.00000067,0.00000028,-0.00147147,0.00000043
 ,0.00000069,0.00638866,-0.00000355,-0.00000197,0.00106571,0.00002401,-
 0.00002686,-0.03563289,0.00000225,0.00000039,-0.00318217,-0.00000157,0
 .00000042,0.00080619,0.00000023,0.,0.00029515,-0.00000064,-0.00000026,
 0.00048596,-0.00000071,0.00000042,-0.00418236,0.00000006,-0.00000022,-
 0.00025285,-0.00000006,0.00000002,-0.00070900,-0.00002402,0.00003222,0
 .02500641,0.00042642,-0.00023470,0.,0.00011792,0.00027713,0.00000013,-
 0.00015839,0.00037082,0.00000019,-0.00085863,-0.00008290,-0.00000060,0
 .00232119,0.00317905,-0.00000496,0.00041711,-0.00023378,-0.00000011,-0
 .03262618,0.00419282,-0.00000853,-0.48125718,-0.05724016,-0.00018820,0
 .00042264,-0.00058789,0.00000011,0.00258518,-0.00902065,0.00000190,0.0
 0002223,0.00002595,0.00000002,0.00003314,0.00000333,0.,-0.00005782,-0.
 00003389,0.00000005,-0.00011242,-0.00000369,0.00000037,0.50917684,-0.0
 0024955,0.00042073,0.00000070,-0.00015974,-0.00015452,-0.00000017,0.00
 011274,-0.00045718,-0.00000016,0.00158863,0.00086045,-0.00000006,0.001
 31784,-0.00689030,0.00000184,-0.00095288,-0.00068682,-0.00000088,0.055
 50508,0.00671195,0.00002515,-0.10832976,-0.06093546,-0.00002463,-0.000
 51024,0.00023555,-0.00000003,-0.00771546,0.00147884,-0.00000644,-0.000
 03127,-0.00001974,-0.00000004,-0.00004260,0.00003678,0.00000004,0.0001
 3566,0.00001661,-0.00000001,0.00005809,0.00075845,-0.00000007,0.058793
 79,0.05926473,0.00000046,-0.00000034,0.00044894,0.00000029,0.00000010,
 -0.00002235,-0.00000032,0.00000037,-0.00031137,-0.00000088,0.00000011,
 0.00117751,0.00000449,0.00000284,0.00361359,0.00000093,0.00000001,-0.0
 0065157,-0.00004220,0.00000272,0.00344806,-0.00016904,-0.00000699,-0.0
 1279292,0.00000014,-0.00000054,-0.00007689,0.00000660,-0.00000283,-0.0
 0568701,-0.00000006,-0.00000005,0.00001056,0.00000003,-0.00000004,-0.0
 0002836,-0.00000016,0.00000008,-0.00002139,0.00000005,-0.00000027,-0.0
 0044303,0.00019983,0.00000442,0.01125539,-0.00233020,0.00216009,0.0000
 0004,-0.00060771,-0.00326442,0.00000018,0.00579015,0.00135063,-0.00000
 012,-0.01219980,-0.01080679,0.00000204,-0.00620703,0.00130629,0.000000
 55,0.00139249,0.00165113,0.00000091,0.01561161,0.01064539,0.00000503,-
 0.00148257,-0.00452604,-0.00000027,-0.45598406,-0.02357616,0.00009502,
 -0.01215754,-0.00761381,-0.00000463,-0.00009185,0.00003650,-0.00000017
 ,0.00008712,-0.00010750,-0.00000004,-0.00007275,0.00006385,0.00000002,
 0.00023462,0.00024306,0.00000002,-0.00053537,0.00064674,-0.00000024,0.
 46947347,0.00195795,-0.00107505,0.00000039,-0.00158515,0.00288937,0.00
 000020,-0.00274067,-0.00749712,0.00000058,-0.03321389,0.00886063,0.000
 00654,0.00426832,0.00082796,0.00000031,-0.00159731,-0.00140572,-0.0000
 0126,-0.00843870,-0.01371998,-0.00000353,0.00051577,0.00406327,-0.0000
 0087,-0.02526404,-0.07690801,0.00000296,0.00235218,0.00711898,0.000002
 29,0.00013155,-0.00002589,0.00000009,-0.00021800,-0.00043854,-0.000000
 14,-0.00010673,0.00019719,0.00000006,-0.00007521,-0.00004999,0.0000000
 1,0.00049021,-0.00056415,0.00000029,0.03673515,0.07030430,0.00000026,0
 .00000010,0.00009042,0.00000006,-0.00000005,0.00226803,0.00000009,-0.0
 0000093,0.00394373,-0.00000289,-0.00000097,-0.00698820,-0.00000055,0.0
 0000033,0.00009559,-0.00000021,-0.00000027,-0.00076770,0.00000266,-0.0
 0000096,-0.00079353,-0.00000124,-0.00000141,0.00133440,0.00010384,0.00
 000301,0.00291397,-0.00000087,0.00000082,-0.00431102,-0.00000002,0.,-0
 .00015845,-0.00000007,0.00000003,-0.00040367,-0.00000011,0.,-0.0008491
 6,0.,0.00000008,-0.00002357,-0.00000030,0.00000034,0.00010401,-0.00009
 862,-0.00000141,0.00990569,0.00033366,-0.00057434,0.00000025,-0.000252
 34,0.00114431,0.00000010,0.00081969,-0.00339148,-0.00000058,0.01489784
 ,-0.01384988,-0.00000307,-0.00037344,-0.00426667,0.00000062,0.00032263
 ,-0.00040343,-0.00000050,-0.00345343,-0.00280158,-0.00000089,0.0004144
 5,0.00091285,-0.00000030,-0.20798673,0.19014930,0.00003084,-0.00177351
 ,0.00454503,0.00000037,-0.00005458,0.00008431,0.00000003,-0.00002867,0
 .00000361,0.00000004,-0.00087061,0.00079384,0.00000016,-0.00009905,-0.
 00024696,0.00000001,0.00008334,-0.00016708,0.00000008,-0.00092059,0.02
 678857,-0.00000201,0.19894135,-0.00066009,0.00098449,0.00000057,-0.000
 14194,-0.00124356,-0.00000020,0.00303602,0.00277627,-0.00000038,0.0193
 3668,-0.02403722,-0.00000180,-0.00570147,-0.00104440,0.00000061,0.0020
 5120,-0.00050932,-0.00000087,0.00041346,-0.00046186,0.00000073,-0.0001
 4550,0.00065073,-0.00000047,0.18768111,-0.34659998,-0.00002207,-0.0006
 9488,0.00076336,-0.00000058,-0.00005891,0.00006522,0.,0.00006715,0.000
 04641,0.,-0.00131995,0.00015016,0.00000035,-0.00030295,-0.00030775,-0.
 00000002,0.00010456,-0.00007592,0.00000011,-0.00494409,0.00742275,0.00
 000128,-0.19872040,0.36142064,-0.00000066,0.00000046,-0.00005948,-0.00
 000019,-0.00000077,-0.00105877,0.00000121,0.00000145,-0.00148848,-0.00
 000350,-0.00000450,-0.00765384,-0.00000173,0.00000148,0.00401510,0.000
 00089,0.00000026,0.00170689,0.00000144,0.00000061,-0.00017395,0.000000
 08,0.00000031,-0.00050913,0.00002733,-0.00001400,0.00787684,-0.0000004
 7,-0.00000131,0.00066318,0.00000005,0.00000003,0.00004187,0.,-0.000000
 02,0.00017060,0.00000028,-0.00000010,0.00073906,0.00000008,-0.00000013
 ,0.00002517,0.00000007,0.,-0.00002316,0.00000028,-0.00000650,-0.006360
 54,-0.00002516,0.00002273,0.00208863\\0.00000056,0.00001727,-0.0000032
 1,0.00001688,-0.00000482,-0.00000025,-0.00000949,-0.00000781,-0.000002
 81,0.00000528,0.00000491,0.00000927,-0.00001124,0.00001071,0.00004399,
 -0.00000044,0.00000420,0.00000823,0.00003372,-0.00003275,-0.00017293,0
 .00000304,0.00004881,0.00005099,-0.00002075,0.00001335,0.00000078,0.00
 000350,-0.00003657,0.00006850,-0.00000458,-0.00000786,-0.00000119,-0.0
 0000815,-0.00000425,0.00000062,-0.00000289,0.00000231,-0.00000033,-0.0
 0000240,-0.00000570,0.00000091,-0.00000579,-0.00000708,0.00000087,0.00
 000855,0.00000659,-0.00000415,-0.00000579,-0.00000129,0.00000071\\\@


 IF YOU WANT TO LEARN FROM THE THEORETICAL PHYSICISTS ABOUT THE
 METHODS WHICH THEY USE, I ADVISE YOU TO FOLLOW THIS PRINCIPLE VERY STRICTLY:
 DON'T LISTEN TO THEIR WORDS; PAY ATTENTION, INSTEAD, TO THEIR ACTIONS.
 -- A.EINSTEIN, 1934
 Job cpu time:       0 days  2 hours 36 minutes 46.9 seconds.
 File lengths (MBytes):  RWF=  13539 Int=      0 D2E=      0 Chk=      6 Scr=      1
 Normal termination of Gaussian 09 at Sun Dec 15 21:55:34 2024.
