 Entering Gaussian System, Link 0=g09
 Input=b3lypAnthranilicyang.gjf
 Output=b3lypAnthranilicyang.log
 Initial command:
 /home/phzd/g09E/g09/l1.exe "/home/phzd/g09E/scratch/Gau-116564.inp" -scrdir="/home/phzd/g09E/scratch/"
 Default is to use a total of  18 processors:
                               18 via shared-memory
                                1 via Linda
 Entering Link 1 = /home/phzd/g09E/g09/l1.exe PID=    116566.
  
 Copyright (c) 1988,1990,1992,1993,1995,1998,2003,2009,2015,
            Gaussian, Inc.  All Rights Reserved.
  
 This is part of the Gaussian(R) 09 program.  It is based on
 the Gaussian(R) 03 system (copyright 2003, Gaussian, Inc.),
 the Gaussian(R) 98 system (copyright 1998, Gaussian, Inc.),
 the Gaussian(R) 94 system (copyright 1995, Gaussian, Inc.),
 the Gaussian 92(TM) system (copyright 1992, Gaussian, Inc.),
 the Gaussian 90(TM) system (copyright 1990, Gaussian, Inc.),
 the Gaussian 88(TM) system (copyright 1988, Gaussian, Inc.),
 the Gaussian 86(TM) system (copyright 1986, Carnegie Mellon
 University), and the Gaussian 82(TM) system (copyright 1983,
 Carnegie Mellon University). Gaussian is a federally registered
 trademark of Gaussian, Inc.
  
 This software contains proprietary and confidential information,
 including trade secrets, belonging to Gaussian, Inc.
  
 This software is provided under written license and may be
 used, copied, transmitted, or stored only in accord with that
 written license.
  
 The following legend is applicable only to US Government
 contracts under FAR:
  
                    RESTRICTED RIGHTS LEGEND
  
 Use, reproduction and disclosure by the US Government is
 subject to restrictions as set forth in subparagraphs (a)
 and (c) of the Commercial Computer Software - Restricted
 Rights clause in FAR 52.227-19.
  
 Gaussian, Inc.
 340 Quinnipiac St., Bldg. 40, Wallingford CT 06492
  
  
 ---------------------------------------------------------------
 Warning -- This program may not be used in any manner that
 competes with the business of Gaussian, Inc. or will provide
 assistance to any competitor of Gaussian, Inc.  The licensee
 of this program is prohibited from giving any competitor of
 Gaussian, Inc. access to this program.  By using this program,
 the user acknowledges that Gaussian, Inc. is engaged in the
 business of creating and licensing software in the field of
 computational chemistry and represents and warrants to the
 licensee that it is not a competitor of Gaussian, Inc. and that
 it will not use this program in any manner prohibited above.
 ---------------------------------------------------------------
  

 Cite this work as:
 Gaussian 09, Revision E.01,
 M. J. Frisch, G. W. Trucks, H. B. Schlegel, G. E. Scuseria, 
 M. A. Robb, J. R. Cheeseman, G. Scalmani, V. Barone, B. Mennucci, 
 G. A. Petersson, H. Nakatsuji, M. Caricato, X. Li, H. P. Hratchian, 
 A. F. Izmaylov, J. Bloino, G. Zheng, J. L. Sonnenberg, M. Hada, 
 M. Ehara, K. Toyota, R. Fukuda, J. Hasegawa, M. Ishida, T. Nakajima, 
 Y. Honda, O. Kitao, H. Nakai, T. Vreven, J. A. Montgomery, Jr., 
 J. E. Peralta, F. Ogliaro, M. Bearpark, J. J. Heyd, E. Brothers, 
 K. N. Kudin, V. N. Staroverov, T. Keith, R. Kobayashi, J. Normand, 
 K. Raghavachari, A. Rendell, J. C. Burant, S. S. Iyengar, J. Tomasi, 
 M. Cossi, N. Rega, J. M. Millam, M. Klene, J. E. Knox, J. B. Cross, 
 V. Bakken, C. Adamo, J. Jaramillo, R. Gomperts, R. E. Stratmann, 
 O. Yazyev, A. J. Austin, R. Cammi, C. Pomelli, J. W. Ochterski, 
 R. L. Martin, K. Morokuma, V. G. Zakrzewski, G. A. Voth, 
 P. Salvador, J. J. Dannenberg, S. Dapprich, A. D. Daniels, 
 O. Farkas, J. B. Foresman, J. V. Ortiz, J. Cioslowski, 
 and D. J. Fox, Gaussian, Inc., Wallingford CT, 2013.
 
 ******************************************
 Gaussian 09:  ES64L-G09RevE.01 30-Nov-2015
                22-Jun-2024 
 ******************************************
 %chk=b3lypAnthranilicyang.chk
 ----------------------------
 # opt freq b3lyp/6-31+g(d,p)
 ----------------------------
 1/14=-1,18=20,19=15,26=3,38=1/1,3;
 2/9=110,12=2,17=6,18=5,40=1/2;
 3/5=1,6=6,7=111,11=2,16=1,25=1,30=1,71=1,74=-5/1,2,3;
 4//1;
 5/5=2,38=5/2;
 6/7=2,8=2,9=2,10=2,28=1/1;
 7//1,2,3,16;
 1/14=-1,18=20,19=15,26=3/3(2);
 2/9=110/2;
 99//99;
 2/9=110/2;
 3/5=1,6=6,7=111,11=2,16=1,25=1,30=1,71=1,74=-5/1,2,3;
 4/5=5,16=3,69=1/1;
 5/5=2,38=5/2;
 7//1,2,3,16;
 1/14=-1,18=20,19=15,26=3/3(-5);
 2/9=110/2;
 6/7=2,8=2,9=2,10=2,19=2,28=1/1;
 99/9=1/99;
 ----------
 [No Title]
 ----------
 Symbolic Z-matrix:
 Charge =  1 Multiplicity = 1
 C                    -2.15785   0.55836   0.00098 
 C                    -2.13315  -0.78213   0.00161 
 C                    -0.95671  -1.42629   0.00321 
 C                     0.20315  -0.7468    0.00422 
 C                     0.17555   0.60877   0.00548 
 C                    -1.00766   1.24967   0.00258 
 C                     1.33299   1.33461   0.00595 
 O                     1.4211    2.68338  -0.00722 
 N                     1.42505  -1.53418  -0.00678 
 O                     2.34547   0.67502   0.01261 
 H                    -3.12402   1.09058  -0.00086 
 H                    -3.07718  -1.35239   0.00041 
 H                    -0.94851  -2.5293    0.00334 
 H                    -1.06575   2.3511    0.00185 
 H                     2.35878   2.93328  -0.00277 
 H                     1.1812   -2.55027  -0.01759 
 H                     1.98205  -1.31118  -0.86242 
 H                     1.98542  -1.33026   0.85142 
 

 GradGradGradGradGradGradGradGradGradGradGradGradGradGradGradGradGradGrad
 Berny optimization.
 Initialization pass.
                           ----------------------------
                           !    Initial Parameters    !
                           ! (Angstroms and Degrees)  !
 --------------------------                            --------------------------
 ! Name  Definition              Value          Derivative Info.                !
 --------------------------------------------------------------------------------
 ! R1    R(1,2)                  1.3407         estimate D2E/DX2                !
 ! R2    R(1,6)                  1.342          estimate D2E/DX2                !
 ! R3    R(1,11)                 1.1031         estimate D2E/DX2                !
 ! R4    R(2,3)                  1.3413         estimate D2E/DX2                !
 ! R5    R(2,12)                 1.1029         estimate D2E/DX2                !
 ! R6    R(3,4)                  1.3442         estimate D2E/DX2                !
 ! R7    R(3,13)                 1.103          estimate D2E/DX2                !
 ! R8    R(4,5)                  1.3559         estimate D2E/DX2                !
 ! R9    R(4,9)                  1.4537         estimate D2E/DX2                !
 ! R10   R(5,6)                  1.3456         estimate D2E/DX2                !
 ! R11   R(5,7)                  1.3662         estimate D2E/DX2                !
 ! R12   R(6,14)                 1.103          estimate D2E/DX2                !
 ! R13   R(7,8)                  1.3517         estimate D2E/DX2                !
 ! R14   R(7,10)                 1.2084         estimate D2E/DX2                !
 ! R15   R(8,15)                 0.9704         estimate D2E/DX2                !
 ! R16   R(9,16)                 1.045          estimate D2E/DX2                !
 ! R17   R(9,17)                 1.045          estimate D2E/DX2                !
 ! R18   R(9,18)                 1.045          estimate D2E/DX2                !
 ! A1    A(2,1,6)              119.9525         estimate D2E/DX2                !
 ! A2    A(2,1,11)             119.904          estimate D2E/DX2                !
 ! A3    A(6,1,11)             120.1435         estimate D2E/DX2                !
 ! A4    A(1,2,3)              119.7582         estimate D2E/DX2                !
 ! A5    A(1,2,12)             120.0793         estimate D2E/DX2                !
 ! A6    A(3,2,12)             120.1625         estimate D2E/DX2                !
 ! A7    A(2,3,4)              120.934          estimate D2E/DX2                !
 ! A8    A(2,3,13)             119.1287         estimate D2E/DX2                !
 ! A9    A(4,3,13)             119.9373         estimate D2E/DX2                !
 ! A10   A(3,4,5)              119.1968         estimate D2E/DX2                !
 ! A11   A(3,4,9)              116.8382         estimate D2E/DX2                !
 ! A12   A(5,4,9)              123.9632         estimate D2E/DX2                !
 ! A13   A(4,5,6)              119.609          estimate D2E/DX2                !
 ! A14   A(4,5,7)              120.9256         estimate D2E/DX2                !
 ! A15   A(6,5,7)              119.4652         estimate D2E/DX2                !
 ! A16   A(1,6,5)              120.5493         estimate D2E/DX2                !
 ! A17   A(1,6,14)             117.989          estimate D2E/DX2                !
 ! A18   A(5,6,14)             121.4616         estimate D2E/DX2                !
 ! A19   A(5,7,8)              125.8273         estimate D2E/DX2                !
 ! A20   A(5,7,10)             114.8253         estimate D2E/DX2                !
 ! A21   A(8,7,10)             119.3464         estimate D2E/DX2                !
 ! A22   A(7,8,15)             108.6572         estimate D2E/DX2                !
 ! A23   A(4,9,16)             109.3055         estimate D2E/DX2                !
 ! A24   A(4,9,17)             109.7937         estimate D2E/DX2                !
 ! A25   A(4,9,18)             109.8055         estimate D2E/DX2                !
 ! A26   A(16,9,17)            108.8683         estimate D2E/DX2                !
 ! A27   A(16,9,18)            108.8659         estimate D2E/DX2                !
 ! A28   A(17,9,18)            110.1774         estimate D2E/DX2                !
 ! D1    D(6,1,2,3)             -0.0313         estimate D2E/DX2                !
 ! D2    D(6,1,2,12)           179.9932         estimate D2E/DX2                !
 ! D3    D(11,1,2,3)           179.9683         estimate D2E/DX2                !
 ! D4    D(11,1,2,12)           -0.0073         estimate D2E/DX2                !
 ! D5    D(2,1,6,5)             -0.0328         estimate D2E/DX2                !
 ! D6    D(2,1,6,14)           179.9913         estimate D2E/DX2                !
 ! D7    D(11,1,6,5)           179.9677         estimate D2E/DX2                !
 ! D8    D(11,1,6,14)           -0.0082         estimate D2E/DX2                !
 ! D9    D(1,2,3,4)              0.0017         estimate D2E/DX2                !
 ! D10   D(1,2,3,13)          -179.9781         estimate D2E/DX2                !
 ! D11   D(12,2,3,4)           179.9772         estimate D2E/DX2                !
 ! D12   D(12,2,3,13)           -0.0026         estimate D2E/DX2                !
 ! D13   D(2,3,4,5)              0.0904         estimate D2E/DX2                !
 ! D14   D(2,3,4,9)           -179.4387         estimate D2E/DX2                !
 ! D15   D(13,3,4,5)          -179.93           estimate D2E/DX2                !
 ! D16   D(13,3,4,9)             0.541          estimate D2E/DX2                !
 ! D17   D(3,4,5,6)             -0.1527         estimate D2E/DX2                !
 ! D18   D(3,4,5,7)           -179.9712         estimate D2E/DX2                !
 ! D19   D(9,4,5,6)            179.3407         estimate D2E/DX2                !
 ! D20   D(9,4,5,7)             -0.4779         estimate D2E/DX2                !
 ! D21   D(3,4,9,16)             0.2081         estimate D2E/DX2                !
 ! D22   D(3,4,9,17)           119.5653         estimate D2E/DX2                !
 ! D23   D(3,4,9,18)          -119.1532         estimate D2E/DX2                !
 ! D24   D(5,4,9,16)          -179.2962         estimate D2E/DX2                !
 ! D25   D(5,4,9,17)           -59.9391         estimate D2E/DX2                !
 ! D26   D(5,4,9,18)            61.3425         estimate D2E/DX2                !
 ! D27   D(4,5,6,1)              0.1252         estimate D2E/DX2                !
 ! D28   D(4,5,6,14)          -179.8997         estimate D2E/DX2                !
 ! D29   D(7,5,6,1)            179.9464         estimate D2E/DX2                !
 ! D30   D(7,5,6,14)            -0.0785         estimate D2E/DX2                !
 ! D31   D(4,5,7,8)            179.2469         estimate D2E/DX2                !
 ! D32   D(4,5,7,10)            -0.3891         estimate D2E/DX2                !
 ! D33   D(6,5,7,8)             -0.5719         estimate D2E/DX2                !
 ! D34   D(6,5,7,10)           179.7921         estimate D2E/DX2                !
 ! D35   D(5,7,8,15)           179.9618         estimate D2E/DX2                !
 ! D36   D(10,7,8,15)           -0.4172         estimate D2E/DX2                !
 --------------------------------------------------------------------------------
 Trust Radius=3.00D-01 FncErr=1.00D-07 GrdErr=1.00D-06
 Number of steps in this run=     92 maximum allowed number of steps=    108.
 GradGradGradGradGradGradGradGradGradGradGradGradGradGradGradGradGradGrad

                          Input orientation:                          
 ---------------------------------------------------------------------
 Center     Atomic      Atomic             Coordinates (Angstroms)
 Number     Number       Type             X           Y           Z
 ---------------------------------------------------------------------
      1          6           0       -2.157849    0.558355    0.000981
      2          6           0       -2.133153   -0.782129    0.001611
      3          6           0       -0.956711   -1.426285    0.003206
      4          6           0        0.203146   -0.746800    0.004222
      5          6           0        0.175545    0.608773    0.005484
      6          6           0       -1.007664    1.249674    0.002581
      7          6           0        1.332989    1.334611    0.005954
      8          8           0        1.421097    2.683376   -0.007216
      9          7           0        1.425045   -1.534180   -0.006778
     10          8           0        2.345474    0.675023    0.012613
     11          1           0       -3.124020    1.090579   -0.000860
     12          1           0       -3.077180   -1.352385    0.000412
     13          1           0       -0.948511   -2.529304    0.003343
     14          1           0       -1.065751    2.351104    0.001853
     15          1           0        2.358776    2.933284   -0.002771
     16          1           0        1.181198   -2.550270   -0.017586
     17          1           0        1.982052   -1.311177   -0.862421
     18          1           0        1.985422   -1.330261    0.851415
 ---------------------------------------------------------------------
                    Distance matrix (angstroms):
                    1          2          3          4          5
     1  C    0.000000
     2  C    1.340712   0.000000
     3  C    2.319813   1.341251   0.000000
     4  C    2.697728   2.336568   1.344236   0.000000
     5  C    2.333943   2.695313   2.328834   1.355855   0.000000
     6  C    1.341958   2.322703   2.676444   2.334946   1.345640
     7  C    3.576108   4.061373   3.586820   2.368295   1.366206
     8  O    4.162287   4.964121   4.747988   3.640006   2.419822
     9  N    4.149204   3.636815   2.384220   1.453659   2.480655
    10  O    4.504849   4.709725   3.914078   2.571229   2.170952
    11  H    1.103065   2.118693   3.321423   3.800792   3.334562
    12  H    2.120400   1.102896   2.121758   3.335759   3.798208
    13  H    3.316043   2.110924   1.103049   2.122177   3.333322
    14  H    2.099197   3.310060   3.778963   3.347703   2.139286
    15  H    5.102960   5.829386   5.477073   4.264951   3.189031
    16  H    4.562141   3.756543   2.415456   2.051723   3.315331
    17  H    4.623786   4.238084   3.065761   2.057692   2.775416
    18  H    4.632149   4.240905   3.063466   2.057831   2.784081
                    6          7          8          9         10
     6  C    0.000000
     7  C    2.342196   0.000000
     8  O    2.820368   1.351704   0.000000
     9  N    3.697026   2.870296   4.217558   0.000000
    10  O    3.402037   1.208398   2.210961   2.393354   0.000000
    11  H    2.122330   4.463690   4.816132   5.251989   5.485274
    12  H    3.324697   5.164259   6.043337   4.505900   5.789275
    13  H    3.779441   4.487214   5.726010   2.573741   4.595447
    14  H    1.102961   2.605231   2.508964   4.615146   3.800766
    15  H    3.763973   1.899492   0.970420   4.564001   2.258353
    16  H    4.385328   3.887917   5.239152   1.044996   3.429135
    17  H    4.030458   2.859292   4.123409   1.045042   2.200625
    18  H    4.041676   2.870891   4.143066   1.045036   2.203268
                   11         12         13         14         15
    11  H    0.000000
    12  H    2.443413   0.000000
    13  H    4.223317   2.432361   0.000000
    14  H    2.413587   4.214461   4.881816   0.000000
    15  H    5.784170   6.922181   6.385770   3.473664   0.000000
    16  H    5.638348   4.423690   2.129915   5.391904   5.608589
    17  H    5.708125   5.132447   3.289617   4.842352   4.346995
    18  H    5.717800   5.133677   3.280990   4.856322   4.364269
                   16         17         18
    16  H    0.000000
    17  H    1.700137   0.000000
    18  H    1.700106   1.713946   0.000000
 Stoichiometry    C7H8NO2(1+)
 Framework group  C1[X(C7H8NO2)]
 Deg. of freedom    48
 Full point group                 C1      NOp   1
 Largest Abelian subgroup         C1      NOp   1
 Largest concise Abelian subgroup C1      NOp   1
                         Standard orientation:                         
 ---------------------------------------------------------------------
 Center     Atomic      Atomic             Coordinates (Angstroms)
 Number     Number       Type             X           Y           Z
 ---------------------------------------------------------------------
      1          6           0       -1.801119   -1.500982    0.000572
      2          6           0       -2.495224   -0.353931   -0.000058
      3          6           0       -1.843688    0.818440   -0.001653
      4          6           0       -0.500169    0.862333   -0.002669
      5          6           0        0.199526   -0.299031   -0.003931
      6          6           0       -0.459470   -1.472257   -0.001028
      7          6           0        1.565728   -0.295633   -0.004401
      8          8           0        2.359667   -1.389521    0.008769
      9          7           0        0.113424    2.180099    0.008331
     10          8           0        2.070346    0.802339   -0.011060
     11          1           0       -2.334496   -2.466517    0.002413
     12          1           0       -3.597917   -0.375097    0.001141
     13          1           0       -2.425086    1.755827   -0.001790
     14          1           0        0.078882   -2.434909   -0.000300
     15          1           0        3.286121   -1.100767    0.004324
     16          1           0       -0.634807    2.909517    0.019139
     17          1           0        0.703528    2.288566    0.863974
     18          1           0        0.696199    2.306507   -0.849862
 ---------------------------------------------------------------------
 Rotational constants (GHZ):      2.3125256      1.3100466      0.8404200
 Standard basis: 6-31+G(d,p) (6D, 7F)
 There are   230 symmetry adapted cartesian basis functions of A   symmetry.
 There are   230 symmetry adapted basis functions of A   symmetry.
   230 basis functions,   376 primitive gaussians,   230 cartesian basis functions
    36 alpha electrons       36 beta electrons
       nuclear repulsion energy       529.5520273280 Hartrees.
 NAtoms=   18 NActive=   18 NUniq=   18 SFac= 1.00D+00 NAtFMM=   60 NAOKFM=F Big=F
 Integral buffers will be    131072 words long.
 Raffenetti 2 integral format.
 Two-electron integral symmetry is turned on.
 One-electron integrals computed using PRISM.
 NBasis=   230 RedAO= T EigKep=  1.55D-06  NBF=   230
 NBsUse=   230 1.00D-06 EigRej= -1.00D+00 NBFU=   230
 ExpMin= 4.38D-02 ExpMax= 5.48D+03 ExpMxC= 8.25D+02 IAcc=2 IRadAn=         4 AccDes= 0.00D+00
 Harris functional with IExCor=  402 and IRadAn=       4 diagonalized for initial guess.
 HarFok:  IExCor=  402 AccDes= 0.00D+00 IRadAn=         4 IDoV= 1 UseB2=F ITyADJ=14
 ICtDFT=  3500011 ScaDFX=  1.000000  1.000000  1.000000  1.000000
 FoFCou: FMM=F IPFlag=           0 FMFlag=      100000 FMFlg1=           0
         NFxFlg=           0 DoJE=T BraDBF=F KetDBF=T FulRan=T
         wScrn=  0.000000 ICntrl=     500 IOpCl=  0 I1Cent=   200000004 NGrid=           0
         NMat0=    1 NMatS0=      1 NMatT0=    0 NMatD0=    1 NMtDS0=    0 NMtDT0=    0
 Petite list used in FoFCou.
 Keep R1 ints in memory in canonical form, NReq=359209085.
 Requested convergence on RMS density matrix=1.00D-08 within 128 cycles.
 Requested convergence on MAX density matrix=1.00D-06.
 Requested convergence on             energy=1.00D-06.
 No special actions if energy rises.
 SCF Done:  E(RB3LYP) =  -476.527627424     A.U. after   15 cycles
            NFock= 15  Conv=0.39D-08     -V/T= 2.0070

 **********************************************************************

            Population analysis using the SCF density.

 **********************************************************************

 Orbital symmetries:
       Occupied  (A) (A) (A) (A) (A) (A) (A) (A) (A) (A) (A) (A)
                 (A) (A) (A) (A) (A) (A) (A) (A) (A) (A) (A) (A)
                 (A) (A) (A) (A) (A) (A) (A) (A) (A) (A) (A) (A)
       Virtual   (A) (A) (A) (A) (A) (A) (A) (A) (A) (A) (A) (A)
                 (A) (A) (A) (A) (A) (A) (A) (A) (A) (A) (A) (A)
                 (A) (A) (A) (A) (A) (A) (A) (A) (A) (A) (A) (A)
                 (A) (A) (A) (A) (A) (A) (A) (A) (A) (A) (A) (A)
                 (A) (A) (A) (A) (A) (A) (A) (A) (A) (A) (A) (A)
                 (A) (A) (A) (A) (A) (A) (A) (A) (A) (A) (A) (A)
                 (A) (A) (A) (A) (A) (A) (A) (A) (A) (A) (A) (A)
                 (A) (A) (A) (A) (A) (A) (A) (A) (A) (A) (A) (A)
                 (A) (A) (A) (A) (A) (A) (A) (A) (A) (A) (A) (A)
                 (A) (A) (A) (A) (A) (A) (A) (A) (A) (A) (A) (A)
                 (A) (A) (A) (A) (A) (A) (A) (A) (A) (A) (A) (A)
                 (A) (A) (A) (A) (A) (A) (A) (A) (A) (A) (A) (A)
                 (A) (A) (A) (A) (A) (A) (A) (A) (A) (A) (A) (A)
                 (A) (A) (A) (A) (A) (A) (A) (A) (A) (A) (A) (A)
                 (A) (A) (A) (A) (A) (A) (A) (A) (A) (A) (A) (A)
                 (A) (A) (A) (A) (A) (A) (A) (A) (A) (A) (A) (A)
                 (A) (A)
 The electronic state is 1-A.
 Alpha  occ. eigenvalues --  -19.35387 -19.30197 -14.65756 -10.48329 -10.42937
 Alpha  occ. eigenvalues --  -10.37555 -10.37397 -10.36097 -10.36027 -10.35161
 Alpha  occ. eigenvalues --   -1.27736  -1.20798  -1.17882  -1.07000  -0.97138
 Alpha  occ. eigenvalues --   -0.94413  -0.84746  -0.82164  -0.78869  -0.77301
 Alpha  occ. eigenvalues --   -0.74734  -0.72804  -0.68897  -0.65640  -0.63863
 Alpha  occ. eigenvalues --   -0.62848  -0.62764  -0.60836  -0.56188  -0.56074
 Alpha  occ. eigenvalues --   -0.53273  -0.52744  -0.48517  -0.44703  -0.44548
 Alpha  occ. eigenvalues --   -0.44481
 Alpha virt. eigenvalues --   -0.22519  -0.18166  -0.18122  -0.13791  -0.11963
 Alpha virt. eigenvalues --   -0.11785  -0.10318  -0.10276  -0.08817  -0.07993
 Alpha virt. eigenvalues --   -0.06738  -0.05942  -0.05395  -0.05316  -0.03729
 Alpha virt. eigenvalues --   -0.03500  -0.02257  -0.01251  -0.00249   0.00263
 Alpha virt. eigenvalues --    0.00441   0.00997   0.01611   0.01873   0.03706
 Alpha virt. eigenvalues --    0.04028   0.04221   0.05317   0.06027   0.06479
 Alpha virt. eigenvalues --    0.06882   0.07817   0.08005   0.08331   0.08584
 Alpha virt. eigenvalues --    0.09201   0.09896   0.10940   0.11160   0.12228
 Alpha virt. eigenvalues --    0.12886   0.13375   0.14924   0.15381   0.16526
 Alpha virt. eigenvalues --    0.17056   0.17243   0.17769   0.18280   0.20456
 Alpha virt. eigenvalues --    0.21673   0.22821   0.23457   0.25190   0.26285
 Alpha virt. eigenvalues --    0.27041   0.31586   0.32480   0.33452   0.36809
 Alpha virt. eigenvalues --    0.44548   0.49105   0.49495   0.52361   0.52457
 Alpha virt. eigenvalues --    0.54734   0.55709   0.57321   0.58058   0.58286
 Alpha virt. eigenvalues --    0.59950   0.60289   0.63014   0.63412   0.65314
 Alpha virt. eigenvalues --    0.69060   0.69548   0.70140   0.72677   0.73262
 Alpha virt. eigenvalues --    0.75672   0.76254   0.76802   0.79795   0.82547
 Alpha virt. eigenvalues --    0.83496   0.85156   0.89015   0.92733   0.94262
 Alpha virt. eigenvalues --    0.96481   0.99225   0.99698   1.00334   1.02970
 Alpha virt. eigenvalues --    1.03615   1.04590   1.05676   1.08930   1.09274
 Alpha virt. eigenvalues --    1.11787   1.14310   1.15283   1.17203   1.18293
 Alpha virt. eigenvalues --    1.21699   1.23308   1.23838   1.25339   1.25943
 Alpha virt. eigenvalues --    1.27559   1.31615   1.34252   1.41723   1.44395
 Alpha virt. eigenvalues --    1.53371   1.55560   1.58615   1.60110   1.62920
 Alpha virt. eigenvalues --    1.67655   1.69515   1.71131   1.71496   1.74858
 Alpha virt. eigenvalues --    1.76303   1.80701   1.80937   1.83691   1.84113
 Alpha virt. eigenvalues --    1.87507   1.88595   1.90035   1.95449   1.95637
 Alpha virt. eigenvalues --    1.97471   1.98598   2.00499   2.06948   2.12732
 Alpha virt. eigenvalues --    2.14448   2.16518   2.17718   2.19699   2.20507
 Alpha virt. eigenvalues --    2.23886   2.24362   2.26499   2.27659   2.30826
 Alpha virt. eigenvalues --    2.32742   2.37826   2.38179   2.39921   2.41100
 Alpha virt. eigenvalues --    2.42654   2.44508   2.46345   2.48421   2.52137
 Alpha virt. eigenvalues --    2.52931   2.58694   2.58987   2.62890   2.63567
 Alpha virt. eigenvalues --    2.68765   2.71743   2.74672   2.79027   2.85641
 Alpha virt. eigenvalues --    2.95597   2.97497   3.04785   3.06094   3.07851
 Alpha virt. eigenvalues --    3.08279   3.12018   3.14119   3.24446   3.26124
 Alpha virt. eigenvalues --    3.28966   3.34889   3.43351   3.80637   4.05968
 Alpha virt. eigenvalues --    4.12551   4.14522   4.17681   4.24738   4.33426
 Alpha virt. eigenvalues --    4.34170   4.42734   4.65073   4.78269
          Condensed to atoms (all electrons):
               1          2          3          4          5          6
     1  C    8.137085   0.235218   0.322217   0.005285  -0.349080  -3.179891
     2  C    0.235218   6.505623  -1.116250   1.870005  -2.130216   0.843827
     3  C    0.322217  -1.116250  11.599331  -1.528992  -1.858107  -2.758587
     4  C    0.005285   1.870005  -1.528992  27.306719 -11.122652  -8.582710
     5  C   -0.349080  -2.130216  -1.858107 -11.122652  20.815309   0.286640
     6  C   -3.179891   0.843827  -2.758587  -8.582710   0.286640  21.276183
     7  C    0.349486  -0.203599   0.214519  -0.090116  -0.561287  -1.297771
     8  O    0.153527  -0.003185  -0.020263  -0.261170  -0.065093   0.046772
     9  N   -0.053804   0.095730   0.309344  -0.774332  -0.119197   0.350147
    10  O    0.064768   0.010915  -0.090948  -0.106732   0.043705  -0.226765
    11  H    0.193296   0.039094   0.024883   0.010099  -0.010440   0.062788
    12  H    0.089703   0.159079   0.087131  -0.041362   0.027238  -0.004407
    13  H   -0.000449   0.130785  -0.032600   0.180660   0.066965  -0.030608
    14  H    0.051032  -0.008438   0.010190   0.090591   0.135798   0.023648
    15  H   -0.011107  -0.000254   0.003308  -0.024633   0.094404   0.007792
    16  H   -0.002716   0.008879  -0.126691   0.031875   0.101907   0.010717
    17  H    0.001488   0.000634   0.053555  -0.000174  -0.072953  -0.021927
    18  H    0.002291  -0.001284   0.054884  -0.014475  -0.059651  -0.021538
               7          8          9         10         11         12
     1  C    0.349486   0.153527  -0.053804   0.064768   0.193296   0.089703
     2  C   -0.203599  -0.003185   0.095730   0.010915   0.039094   0.159079
     3  C    0.214519  -0.020263   0.309344  -0.090948   0.024883   0.087131
     4  C   -0.090116  -0.261170  -0.774332  -0.106732   0.010099  -0.041362
     5  C   -0.561287  -0.065093  -0.119197   0.043705  -0.010440   0.027238
     6  C   -1.297771   0.046772   0.350147  -0.226765   0.062788  -0.004407
     7  C    6.285491   0.226880  -0.072056   0.356739  -0.001899   0.000869
     8  O    0.226880   8.362290   0.007826  -0.168001   0.000054   0.000006
     9  N   -0.072056   0.007826   7.061284  -0.027598   0.000191  -0.000919
    10  O    0.356739  -0.168001  -0.027598   8.627744   0.000065   0.000003
    11  H   -0.001899   0.000054   0.000191   0.000065   0.515369  -0.005536
    12  H    0.000869   0.000006  -0.000919   0.000003  -0.005536   0.516185
    13  H    0.013153  -0.000016  -0.033501   0.000006  -0.000200  -0.006077
    14  H    0.004117   0.000520  -0.001095   0.001875  -0.005145  -0.000186
    15  H   -0.038315   0.207005   0.000776   0.001825  -0.000000  -0.000000
    16  H   -0.010960   0.000161   0.234596   0.011095  -0.000001  -0.000022
    17  H    0.019532  -0.000271   0.313203  -0.001754  -0.000000   0.000003
    18  H    0.019419  -0.000203   0.313554  -0.001948  -0.000000   0.000003
              13         14         15         16         17         18
     1  C   -0.000449   0.051032  -0.011107  -0.002716   0.001488   0.002291
     2  C    0.130785  -0.008438  -0.000254   0.008879   0.000634  -0.001284
     3  C   -0.032600   0.010190   0.003308  -0.126691   0.053555   0.054884
     4  C    0.180660   0.090591  -0.024633   0.031875  -0.000174  -0.014475
     5  C    0.066965   0.135798   0.094404   0.101907  -0.072953  -0.059651
     6  C   -0.030608   0.023648   0.007792   0.010717  -0.021927  -0.021538
     7  C    0.013153   0.004117  -0.038315  -0.010960   0.019532   0.019419
     8  O   -0.000016   0.000520   0.207005   0.000161  -0.000271  -0.000203
     9  N   -0.033501  -0.001095   0.000776   0.234596   0.313203   0.313554
    10  O    0.000006   0.001875   0.001825   0.011095  -0.001754  -0.001948
    11  H   -0.000200  -0.005145  -0.000000  -0.000001  -0.000000  -0.000000
    12  H   -0.006077  -0.000186  -0.000000  -0.000022   0.000003   0.000003
    13  H    0.558465   0.000019  -0.000000   0.010638   0.000127   0.000123
    14  H    0.000019   0.499243  -0.000016   0.000003  -0.000001  -0.000001
    15  H   -0.000000  -0.000016   0.349490  -0.000001   0.000006   0.000004
    16  H    0.010638   0.000003  -0.000001   0.379572  -0.014550  -0.014434
    17  H    0.000127  -0.000001   0.000006  -0.014550   0.312560  -0.020060
    18  H    0.000123  -0.000001   0.000004  -0.014434  -0.020060   0.312064
 Mulliken charges:
               1
     1  C   -0.008350
     2  C   -0.436561
     3  C    0.853076
     4  C   -0.947887
     5  C    0.776708
     6  C   -0.784311
     7  C    0.785797
     8  O   -0.486838
     9  N   -0.604147
    10  O   -0.494996
    11  H    0.177382
    12  H    0.178288
    13  H    0.142510
    14  H    0.197844
    15  H    0.409716
    16  H    0.379932
    17  H    0.430584
    18  H    0.431252
 Sum of Mulliken charges =   1.00000
 Mulliken charges with hydrogens summed into heavy atoms:
               1
     1  C    0.169032
     2  C   -0.258273
     3  C    0.995586
     4  C   -0.947887
     5  C    0.776708
     6  C   -0.586466
     7  C    0.785797
     8  O   -0.077122
     9  N    0.637620
    10  O   -0.494996
 Electronic spatial extent (au):  <R**2>=           1298.2710
 Charge=              1.0000 electrons
 Dipole moment (field-independent basis, Debye):
    X=             -1.9275    Y=              5.1589    Z=              0.0408  Tot=              5.5074
 Quadrupole moment (field-independent basis, Debye-Ang):
   XX=            -38.1307   YY=            -29.4951   ZZ=            -55.3777
   XY=             -1.8957   XZ=              0.0238   YZ=              0.1228
 Traceless Quadrupole moment (field-independent basis, Debye-Ang):
   XX=              2.8704   YY=             11.5061   ZZ=            -14.3765
   XY=             -1.8957   XZ=              0.0238   YZ=              0.1228
 Octapole moment (field-independent basis, Debye-Ang**2):
  XXX=             15.3767  YYY=             55.3347  ZZZ=              0.0969  XYY=             -7.6061
  XXY=            -16.2965  XXZ=              0.1350  XZZ=             11.5618  YZZ=              9.6015
  YYZ=              0.1869  XYZ=              0.0937
 Hexadecapole moment (field-independent basis, Debye-Ang**3):
 XXXX=           -721.1679 YYYY=           -394.6303 ZZZZ=            -59.3099 XXXY=            -59.8718
 XXXZ=              0.3321 YYYX=              9.2985 YYYZ=              0.4200 ZZZX=              0.0989
 ZZZY=              0.1280 XXYY=           -230.2033 XXZZ=           -182.3781 YYZZ=            -99.6747
 XXYZ=              0.2088 YYXZ=             -0.1431 ZZXY=              2.3399
 N-N= 5.295520273280D+02 E-N=-2.157109247028D+03  KE= 4.732352975938D+02
 Calling FoFJK, ICntrl=      2127 FMM=F ISym2X=0 I1Cent= 0 IOpClX= 0 NMat=1 NMatS=1 NMatT=0.
 ***** Axes restored to original set *****
 -------------------------------------------------------------------
 Center     Atomic                   Forces (Hartrees/Bohr)
 Number     Number              X              Y              Z
 -------------------------------------------------------------------
      1        6          -0.063663022    0.034406391   -0.000127884
      2        6          -0.062424093   -0.033001108    0.000119038
      3        6           0.009786967   -0.070013787    0.000059483
      4        6           0.009749568   -0.025427565   -0.000447707
      5        6          -0.031677940    0.015200177   -0.000176143
      6        6          -0.019562256    0.062483539    0.000126020
      7        6           0.078030849    0.056029604   -0.000835126
      8        8          -0.028676151   -0.012216736    0.000369759
      9        7           0.011834159   -0.020450934    0.000187151
     10        8           0.060727625   -0.011083511    0.000645299
     11        1           0.009863980   -0.004991151   -0.000013201
     12        1           0.010118688    0.004608848    0.000026622
     13        1          -0.000235973    0.008596141   -0.000091749
     14        1           0.007216289   -0.011297462    0.000045823
     15        1           0.002611471   -0.002650715    0.000003607
     16        1           0.003770897    0.013140379    0.000133912
     17        1           0.001262638   -0.001887483    0.018066983
     18        1           0.001266305   -0.001444623   -0.018091887
 -------------------------------------------------------------------
 Cartesian Forces:  Max     0.078030849 RMS     0.026322940

 GradGradGradGradGradGradGradGradGradGradGradGradGradGradGradGradGradGrad
 Berny optimization.
 FormGI is forming the generalized inverse of G from B-inverse, IUseBI=4.
 Internal  Forces:  Max     0.111457298 RMS     0.024132484
 Search for a local minimum.
 Step number   1 out of a maximum of   92
 All quantities printed in internal units (Hartrees-Bohrs-Radians)
 Mixed Optimization -- RFO/linear search
 Second derivative matrix not updated -- first step.
 ITU=  0
     Eigenvalues ---    0.00982   0.02035   0.02331   0.02464   0.02536
     Eigenvalues ---    0.02682   0.02736   0.02830   0.02837   0.02845
     Eigenvalues ---    0.02863   0.02864   0.02870   0.07562   0.07686
     Eigenvalues ---    0.16000   0.16000   0.16000   0.16000   0.16000
     Eigenvalues ---    0.16000   0.16000   0.16000   0.22000   0.22491
     Eigenvalues ---    0.24479   0.24999   0.25000   0.25000   0.25000
     Eigenvalues ---    0.33345   0.33347   0.33357   0.33364   0.37770
     Eigenvalues ---    0.40571   0.40572   0.40578   0.49445   0.50005
     Eigenvalues ---    0.51713   0.53291   0.54660   0.55031   0.56363
     Eigenvalues ---    0.56517   0.56927   1.00714
 RFO step:  Lambda=-8.56807586D-02 EMin= 9.81970317D-03
 Linear search not attempted -- first point.
 Maximum step size (   0.300) exceeded in Quadratic search.
    -- Step size scaled by   0.728
 Iteration  1 RMS(Cart)=  0.08801157 RMS(Int)=  0.00346767
 Iteration  2 RMS(Cart)=  0.00418742 RMS(Int)=  0.00004553
 Iteration  3 RMS(Cart)=  0.00001163 RMS(Int)=  0.00004513
 Iteration  4 RMS(Cart)=  0.00000000 RMS(Int)=  0.00004513
 Variable       Old X    -DE/DX   Delta X   Delta X   Delta X     New X
                                 (Linear)    (Quad)   (Total)
    R1        2.53358   0.05802   0.00000   0.06422   0.06416   2.59774
    R2        2.53593   0.05971   0.00000   0.06663   0.06663   2.60257
    R3        2.08449  -0.01105   0.00000  -0.01918  -0.01918   2.06531
    R4        2.53460   0.06126   0.00000   0.06781   0.06774   2.60234
    R5        2.08417  -0.01104   0.00000  -0.01917  -0.01917   2.06500
    R6        2.54024   0.05410   0.00000   0.06060   0.06059   2.60083
    R7        2.08446  -0.00860   0.00000  -0.01493  -0.01493   2.06953
    R8        2.56219   0.06753   0.00000   0.07895   0.07900   2.64120
    R9        2.74702   0.02100   0.00000   0.03298   0.03298   2.78000
   R10        2.54289   0.06776   0.00000   0.07668   0.07675   2.61964
   R11        2.58175   0.11146   0.00000   0.13455   0.13455   2.71631
   R12        2.08429  -0.01166   0.00000  -0.02024  -0.02024   2.06405
   R13        2.55435  -0.01654   0.00000  -0.01904  -0.01904   2.53531
   R14        2.28354   0.05694   0.00000   0.03792   0.03792   2.32146
   R15        1.83383   0.00184   0.00000   0.00217   0.00217   1.83600
   R16        1.97476  -0.01366   0.00000  -0.02022  -0.02022   1.95454
   R17        1.97484  -0.01452   0.00000  -0.02151  -0.02151   1.95333
   R18        1.97483  -0.01446   0.00000  -0.02142  -0.02142   1.95342
    A1        2.09357  -0.00142   0.00000  -0.00362  -0.00367   2.08990
    A2        2.09272   0.00112   0.00000   0.00302   0.00304   2.09576
    A3        2.09690   0.00030   0.00000   0.00060   0.00062   2.09752
    A4        2.09017  -0.00038   0.00000  -0.00195  -0.00207   2.08810
    A5        2.09578   0.00153   0.00000   0.00493   0.00500   2.10077
    A6        2.09723  -0.00114   0.00000  -0.00299  -0.00292   2.09431
    A7        2.11070  -0.00000   0.00000  -0.00100  -0.00108   2.10962
    A8        2.07919  -0.00018   0.00000  -0.00004  -0.00000   2.07918
    A9        2.09330   0.00018   0.00000   0.00104   0.00108   2.09438
   A10        2.08038   0.00827   0.00000   0.01777   0.01782   2.09820
   A11        2.03921  -0.00463   0.00000  -0.00995  -0.00998   2.02923
   A12        2.16357  -0.00364   0.00000  -0.00781  -0.00784   2.15573
   A13        2.08757  -0.01420   0.00000  -0.03021  -0.03009   2.05749
   A14        2.11055   0.01893   0.00000   0.04076   0.04069   2.15124
   A15        2.08506  -0.00473   0.00000  -0.01054  -0.01060   2.07446
   A16        2.10398   0.00774   0.00000   0.01901   0.01908   2.12306
   A17        2.05930   0.00302   0.00000   0.01092   0.01088   2.07018
   A18        2.11991  -0.01076   0.00000  -0.02992  -0.02996   2.08995
   A19        2.19610  -0.05683   0.00000  -0.12319  -0.12319   2.07291
   A20        2.00408   0.05565   0.00000   0.12066   0.12065   2.12473
   A21        2.08299   0.00117   0.00000   0.00255   0.00255   2.08554
   A22        1.89643  -0.00594   0.00000  -0.01759  -0.01759   1.87884
   A23        1.90774   0.00003   0.00000   0.00319   0.00305   1.91079
   A24        1.91626   0.00736   0.00000   0.02021   0.02013   1.93639
   A25        1.91647   0.00740   0.00000   0.02037   0.02030   1.93676
   A26        1.90011  -0.00116   0.00000  -0.00035  -0.00048   1.89963
   A27        1.90007  -0.00115   0.00000  -0.00027  -0.00040   1.89967
   A28        1.92296  -0.01256   0.00000  -0.04323  -0.04325   1.87971
    D1       -0.00055  -0.00001   0.00000  -0.00009  -0.00009  -0.00063
    D2        3.14147  -0.00000   0.00000  -0.00006  -0.00006   3.14141
    D3        3.14104  -0.00001   0.00000  -0.00005  -0.00005   3.14099
    D4       -0.00013  -0.00000   0.00000  -0.00003  -0.00003  -0.00015
    D5       -0.00057   0.00002   0.00000   0.00016   0.00016  -0.00042
    D6        3.14144   0.00003   0.00000   0.00020   0.00020  -3.14154
    D7        3.14103   0.00002   0.00000   0.00012   0.00012   3.14115
    D8       -0.00014   0.00003   0.00000   0.00017   0.00017   0.00002
    D9        0.00003   0.00004   0.00000   0.00018   0.00017   0.00020
   D10       -3.14121  -0.00000   0.00000  -0.00007  -0.00008  -3.14129
   D11        3.14119   0.00003   0.00000   0.00015   0.00015   3.14135
   D12       -0.00005  -0.00001   0.00000  -0.00009  -0.00010  -0.00014
   D13        0.00158  -0.00005   0.00000  -0.00031  -0.00032   0.00126
   D14       -3.13180  -0.00019   0.00000  -0.00140  -0.00141  -3.13320
   D15       -3.14037  -0.00002   0.00000  -0.00006  -0.00006  -3.14043
   D16        0.00944  -0.00016   0.00000  -0.00115  -0.00115   0.00829
   D17       -0.00266   0.00009   0.00000   0.00044   0.00043  -0.00224
   D18       -3.14109  -0.00003   0.00000  -0.00036  -0.00037  -3.14146
   D19        3.13009   0.00024   0.00000   0.00160   0.00160   3.13169
   D20       -0.00834   0.00012   0.00000   0.00081   0.00081  -0.00753
   D21        0.00363   0.00010   0.00000   0.00058   0.00058   0.00421
   D22        2.08681   0.00315   0.00000   0.01431   0.01435   2.10116
   D23       -2.07962  -0.00298   0.00000  -0.01335  -0.01340  -2.09301
   D24       -3.12931  -0.00011   0.00000  -0.00069  -0.00068  -3.12999
   D25       -1.04613   0.00294   0.00000   0.01304   0.01309  -1.03305
   D26        1.07063  -0.00319   0.00000  -0.01462  -0.01466   1.05597
   D27        0.00219  -0.00007   0.00000  -0.00036  -0.00035   0.00183
   D28       -3.13984  -0.00008   0.00000  -0.00040  -0.00039  -3.14023
   D29        3.14066   0.00009   0.00000   0.00051   0.00050   3.14116
   D30       -0.00137   0.00009   0.00000   0.00048   0.00046  -0.00091
   D31        3.12845   0.00029   0.00000   0.00208   0.00211   3.13056
   D32       -0.00679  -0.00016   0.00000  -0.00113  -0.00115  -0.00794
   D33       -0.00998   0.00019   0.00000   0.00133   0.00135  -0.00864
   D34        3.13796  -0.00026   0.00000  -0.00189  -0.00192   3.13604
   D35        3.14093  -0.00028   0.00000  -0.00161  -0.00155   3.13938
   D36       -0.00728   0.00035   0.00000   0.00210   0.00205  -0.00523
         Item               Value     Threshold  Converged?
 Maximum Force            0.111457     0.000450     NO 
 RMS     Force            0.024132     0.000300     NO 
 Maximum Displacement     0.368848     0.001800     NO 
 RMS     Displacement     0.088195     0.001200     NO 
 Predicted change in Energy=-4.355395D-02
 GradGradGradGradGradGradGradGradGradGradGradGradGradGradGradGradGradGrad

                          Input orientation:                          
 ---------------------------------------------------------------------
 Center     Atomic      Atomic             Coordinates (Angstroms)
 Number     Number       Type             X           Y           Z
 ---------------------------------------------------------------------
      1          6           0       -2.190144    0.582593    0.001055
      2          6           0       -2.187796   -0.792067    0.001544
      3          6           0       -0.989721   -1.471052    0.002557
      4          6           0        0.207129   -0.791529    0.003328
      5          6           0        0.222540    0.606047    0.004616
      6          6           0       -0.995523    1.267875    0.002337
      7          6           0        1.433148    1.381014    0.005312
      8          8           0        1.342958    2.719556   -0.006425
      9          7           0        1.424603   -1.617261   -0.006688
     10          8           0        2.540660    0.849528    0.013105
     11          1           0       -3.136821    1.128728   -0.000321
     12          1           0       -3.129697   -1.346080    0.000709
     13          1           0       -0.997616   -2.566172    0.002647
     14          1           0       -1.018930    2.359874    0.001969
     15          1           0        2.246866    3.075752   -0.001991
     16          1           0        1.162704   -2.617795   -0.017028
     17          1           0        2.001705   -1.414633   -0.839963
     18          1           0        2.003843   -1.432390    0.829282
 ---------------------------------------------------------------------
                    Distance matrix (angstroms):
                    1          2          3          4          5
     1  C    0.000000
     2  C    1.374662   0.000000
     3  C    2.378755   1.377100   0.000000
     4  C    2.763175   2.394925   1.376300   0.000000
     5  C    2.412802   2.786477   2.404978   1.397661   0.000000
     6  C    1.377219   2.380100   2.738933   2.384852   1.386254
     7  C    3.710221   4.222976   3.742269   2.494608   1.437409
     8  O    4.129102   4.979737   4.796110   3.690247   2.392150
     9  N    4.231526   3.705461   2.418765   1.471114   2.527484
    10  O    4.738345   5.005324   4.224783   2.852812   2.330887
    11  H    1.092915   2.142453   3.371780   3.856087   3.399784
    12  H    2.145353   1.092753   2.143623   3.382594   3.879215
    13  H    3.367024   2.136347   1.095149   2.144940   3.398788
    14  H    2.128490   3.361693   3.831037   3.381503   2.148759
    15  H    5.089490   5.884409   5.581124   4.372233   3.193334
    16  H    4.635127   3.815688   2.438921   2.061258   3.358204
    17  H    4.718880   4.318292   3.108320   2.078438   2.821681
    18  H    4.726060   4.320301   3.105865   2.078722   2.829900
                    6          7          8          9         10
     6  C    0.000000
     7  C    2.431307   0.000000
     8  O    2.752445   1.341629   0.000000
     9  N    3.765780   2.998310   4.337585   0.000000
    10  O    3.560860   1.228463   2.220782   2.707586   0.000000
    11  H    2.145816   4.576931   4.753861   5.324198   5.684358
    12  H    3.374531   5.315695   6.044344   4.562373   6.080609
    13  H    3.834048   4.635612   5.780770   2.601474   4.917979
    14  H    1.092250   2.640239   2.389133   4.667818   3.866775
    15  H    3.712348   1.879981   0.971568   4.764505   2.245577
    16  H    4.444857   4.008006   5.340405   1.034296   3.731220
    17  H    4.109586   2.975464   4.268519   1.033660   2.478835
    18  H    4.119644   2.986614   4.286471   1.033703   2.482231
                   11         12         13         14         15
    11  H    0.000000
    12  H    2.474819   0.000000
    13  H    4.269485   2.456501   0.000000
    14  H    2.449733   4.264907   4.926093   0.000000
    15  H    5.724945   6.961324   6.508302   3.343340   0.000000
    16  H    5.702862   4.476861   2.161026   5.434802   5.795870
    17  H    5.794665   5.200262   3.321440   4.907137   4.574479
    18  H    5.802930   5.200694   3.313238   4.919641   4.590580
                   16         17         18
    16  H    0.000000
    17  H    1.681887   0.000000
    18  H    1.681946   1.669341   0.000000
 Stoichiometry    C7H8NO2(1+)
 Framework group  C1[X(C7H8NO2)]
 Deg. of freedom    48
 Full point group                 C1      NOp   1
 Largest Abelian subgroup         C1      NOp   1
 Largest concise Abelian subgroup C1      NOp   1
                         Standard orientation:                         
 ---------------------------------------------------------------------
 Center     Atomic      Atomic             Coordinates (Angstroms)
 Number     Number       Type             X           Y           Z
 ---------------------------------------------------------------------
      1          6           0       -1.809861   -1.564246    0.000058
      2          6           0       -2.559233   -0.411797   -0.000959
      3          6           0       -1.927051    0.811620   -0.001996
      4          6           0       -0.553385    0.896729   -0.002270
      5          6           0        0.223384   -0.265202   -0.003017
      6          6           0       -0.434914   -1.485177   -0.000724
      7          6           0        1.660737   -0.252501   -0.003177
      8          8           0        2.316804   -1.422712    0.009057
      9          7           0        0.014832    2.253640    0.007669
     10          8           0        2.297701    0.797898   -0.010955
     11          1           0       -2.304129   -2.539007    0.001457
     12          1           0       -3.650801   -0.462665   -0.000523
     13          1           0       -2.532215    1.724379   -0.002509
     14          1           0        0.142331   -2.412430    0.000058
     15          1           0        3.268438   -1.226955    0.004938
     16          1           0       -0.751346    2.948364    0.017572
     17          1           0        0.608544    2.399557    0.841135
     18          1           0        0.601255    2.415238   -0.828116
 ---------------------------------------------------------------------
 Rotational constants (GHZ):      2.2011972      1.2296159      0.7924027
 Standard basis: 6-31+G(d,p) (6D, 7F)
 There are   230 symmetry adapted cartesian basis functions of A   symmetry.
 There are   230 symmetry adapted basis functions of A   symmetry.
   230 basis functions,   376 primitive gaussians,   230 cartesian basis functions
    36 alpha electrons       36 beta electrons
       nuclear repulsion energy       516.1772303122 Hartrees.
 NAtoms=   18 NActive=   18 NUniq=   18 SFac= 1.00D+00 NAtFMM=   60 NAOKFM=F Big=F
 Integral buffers will be    131072 words long.
 Raffenetti 2 integral format.
 Two-electron integral symmetry is turned on.
 One-electron integrals computed using PRISM.
 NBasis=   230 RedAO= T EigKep=  2.01D-06  NBF=   230
 NBsUse=   230 1.00D-06 EigRej= -1.00D+00 NBFU=   230
 Initial guess from the checkpoint file:  "b3lypAnthranilicyang.chk"
 B after Tr=     0.000000    0.000000   -0.000000
         Rot=    0.999989    0.000085    0.000197   -0.004713 Ang=   0.54 deg.
 ExpMin= 4.38D-02 ExpMax= 5.48D+03 ExpMxC= 8.25D+02 IAcc=2 IRadAn=         4 AccDes= 0.00D+00
 Harris functional with IExCor=  402 and IRadAn=       4 diagonalized for initial guess.
 HarFok:  IExCor=  402 AccDes= 0.00D+00 IRadAn=         4 IDoV= 1 UseB2=F ITyADJ=14
 ICtDFT=  3500011 ScaDFX=  1.000000  1.000000  1.000000  1.000000
 FoFCou: FMM=F IPFlag=           0 FMFlag=      100000 FMFlg1=           0
         NFxFlg=           0 DoJE=T BraDBF=F KetDBF=T FulRan=T
         wScrn=  0.000000 ICntrl=     500 IOpCl=  0 I1Cent=   200000004 NGrid=           0
         NMat0=    1 NMatS0=      1 NMatT0=    0 NMatD0=    1 NMtDS0=    0 NMtDT0=    0
 Petite list used in FoFCou.
 Keep R1 ints in memory in canonical form, NReq=359209085.
 Requested convergence on RMS density matrix=1.00D-08 within 128 cycles.
 Requested convergence on MAX density matrix=1.00D-06.
 Requested convergence on             energy=1.00D-06.
 No special actions if energy rises.
 SCF Done:  E(RB3LYP) =  -476.563402560     A.U. after   13 cycles
            NFock= 13  Conv=0.82D-08     -V/T= 2.0089
 Calling FoFJK, ICntrl=      2127 FMM=F ISym2X=0 I1Cent= 0 IOpClX= 0 NMat=1 NMatS=1 NMatT=0.
 ***** Axes restored to original set *****
 -------------------------------------------------------------------
 Center     Atomic                   Forces (Hartrees/Bohr)
 Number     Number              X              Y              Z
 -------------------------------------------------------------------
      1        6          -0.020011053    0.010879995   -0.000026589
      2        6          -0.021939505   -0.009572414    0.000118469
      3        6           0.006158523   -0.025814123    0.000034037
      4        6          -0.006337824   -0.000926961   -0.000353551
      5        6          -0.012902074    0.002945760   -0.000218616
      6        6          -0.006793148    0.021067219    0.000149238
      7        6           0.045417125    0.016282293   -0.000349397
      8        8          -0.015868251   -0.006891965    0.000228179
      9        7           0.007113698   -0.002479306    0.000293816
     10        8           0.002332677   -0.012137605    0.000137600
     11        1           0.004963380   -0.002072393   -0.000016935
     12        1           0.004965188    0.001743445    0.000015333
     13        1           0.000002804    0.004291791   -0.000081851
     14        1           0.003845886   -0.005450902    0.000025071
     15        1           0.001801136    0.000246234   -0.000034450
     16        1           0.003035400    0.006529344    0.000069282
     17        1           0.002093434    0.000596356    0.006821638
     18        1           0.002122604    0.000763232   -0.006811274
 -------------------------------------------------------------------
 Cartesian Forces:  Max     0.045417125 RMS     0.010198789

 GradGradGradGradGradGradGradGradGradGradGradGradGradGradGradGradGradGrad
 Berny optimization.
 Using GEDIIS/GDIIS optimizer.
 FormGI is forming the generalized inverse of G from B-inverse, IUseBI=4.
 Internal  Forces:  Max     0.027023883 RMS     0.008140159
 Search for a local minimum.
 Step number   2 out of a maximum of   92
 All quantities printed in internal units (Hartrees-Bohrs-Radians)
 Mixed Optimization -- RFO/linear search
 Update second derivatives using D2CorX and points    1    2
 DE= -3.58D-02 DEPred=-4.36D-02 R= 8.21D-01
 TightC=F SS=  1.41D+00  RLast= 3.01D-01 DXNew= 5.0454D-01 9.0392D-01
 Trust test= 8.21D-01 RLast= 3.01D-01 DXMaxT set to 5.05D-01
 ITU=  1  0
 Use linear search instead of GDIIS.
     Eigenvalues ---    0.00982   0.02047   0.02331   0.02470   0.02536
     Eigenvalues ---    0.02679   0.02737   0.02831   0.02837   0.02845
     Eigenvalues ---    0.02863   0.02864   0.02870   0.07390   0.07522
     Eigenvalues ---    0.15878   0.16000   0.16000   0.16000   0.16000
     Eigenvalues ---    0.16000   0.16000   0.16023   0.21491   0.22019
     Eigenvalues ---    0.22736   0.24511   0.24999   0.25000   0.30295
     Eigenvalues ---    0.33346   0.33351   0.33361   0.33542   0.37816
     Eigenvalues ---    0.40528   0.40572   0.40682   0.48802   0.50242
     Eigenvalues ---    0.53283   0.53431   0.54661   0.55208   0.56499
     Eigenvalues ---    0.56914   0.67866   1.02813
 RFO step:  Lambda=-1.98330407D-02 EMin= 9.81970374D-03
 Quartic linear search produced a step of  0.35567.
 Iteration  1 RMS(Cart)=  0.10684462 RMS(Int)=  0.00346997
 Iteration  2 RMS(Cart)=  0.00714147 RMS(Int)=  0.00017470
 Iteration  3 RMS(Cart)=  0.00002110 RMS(Int)=  0.00017448
 Iteration  4 RMS(Cart)=  0.00000000 RMS(Int)=  0.00017448
 Variable       Old X    -DE/DX   Delta X   Delta X   Delta X     New X
                                 (Linear)    (Quad)   (Total)
    R1        2.59774   0.02180   0.02282   0.04144   0.06424   2.66197
    R2        2.60257   0.01958   0.02370   0.03527   0.05893   2.66150
    R3        2.06531  -0.00533  -0.00682  -0.01764  -0.02446   2.04085
    R4        2.60234   0.02160   0.02409   0.03951   0.06363   2.66597
    R5        2.06500  -0.00516  -0.00682  -0.01698  -0.02380   2.04121
    R6        2.60083   0.01306   0.02155   0.01962   0.04121   2.64204
    R7        2.06953  -0.00429  -0.00531  -0.01427  -0.01958   2.04996
    R8        2.64120   0.00309   0.02810  -0.00695   0.02117   2.66237
    R9        2.78000   0.00885   0.01173   0.02516   0.03689   2.81690
   R10        2.61964   0.01713   0.02730   0.02676   0.05403   2.67367
   R11        2.71631   0.02702   0.04786   0.04676   0.09462   2.81093
   R12        2.06405  -0.00553  -0.00720  -0.01823  -0.02543   2.03863
   R13        2.53531  -0.00569  -0.00677  -0.01053  -0.01730   2.51801
   R14        2.32146   0.00736   0.01349   0.00318   0.01667   2.33812
   R15        1.83600   0.00177   0.00077   0.00397   0.00474   1.84074
   R16        1.95454  -0.00708  -0.00719  -0.01941  -0.02660   1.92794
   R17        1.95333  -0.00422  -0.00765  -0.01015  -0.01780   1.93553
   R18        1.95342  -0.00418  -0.00762  -0.01007  -0.01768   1.93573
    A1        2.08990  -0.00023  -0.00130   0.00713   0.00577   2.09567
    A2        2.09576   0.00083   0.00108   0.00165   0.00277   2.09853
    A3        2.09752  -0.00060   0.00022  -0.00879  -0.00853   2.08899
    A4        2.08810  -0.00022  -0.00074   0.00696   0.00623   2.09433
    A5        2.10077   0.00115   0.00178   0.00394   0.00571   2.10649
    A6        2.09431  -0.00093  -0.00104  -0.01090  -0.01195   2.08236
    A7        2.10962  -0.00619  -0.00038  -0.03387  -0.03419   2.07543
    A8        2.07918   0.00306  -0.00000   0.01674   0.01670   2.09589
    A9        2.09438   0.00313   0.00038   0.01713   0.01748   2.11187
   A10        2.09820   0.00837   0.00634   0.03388   0.04027   2.13847
   A11        2.02923   0.01444  -0.00355   0.07613   0.07254   2.10178
   A12        2.15573  -0.02281  -0.00279  -0.10997  -0.11279   2.04294
   A13        2.05749   0.00196  -0.01070   0.00787  -0.00284   2.05465
   A14        2.15124  -0.02211   0.01447  -0.11256  -0.09809   2.05315
   A15        2.07446   0.02016  -0.00377   0.10469   0.10093   2.17538
   A16        2.12306  -0.00368   0.00679  -0.02196  -0.01524   2.10782
   A17        2.07018   0.00569   0.00387   0.03787   0.04177   2.11195
   A18        2.08995  -0.00201  -0.01066  -0.01590  -0.02652   2.06342
   A19        2.07291  -0.01624  -0.04381  -0.06553  -0.10935   1.96356
   A20        2.12473  -0.00341   0.04291  -0.03216   0.01074   2.13548
   A21        2.08554   0.01965   0.00091   0.09771   0.09861   2.18414
   A22        1.87884  -0.00080  -0.00625  -0.00432  -0.01057   1.86826
   A23        1.91079   0.00198   0.00109   0.02527   0.02560   1.93640
   A24        1.93639   0.00248   0.00716   0.01121   0.01804   1.95443
   A25        1.93676   0.00251   0.00722   0.01149   0.01837   1.95513
   A26        1.89963  -0.00050  -0.00017   0.00663   0.00579   1.90543
   A27        1.89967  -0.00050  -0.00014   0.00675   0.00593   1.90560
   A28        1.87971  -0.00618  -0.01538  -0.06259  -0.07791   1.80181
    D1       -0.00063   0.00001  -0.00003   0.00015   0.00010  -0.00053
    D2        3.14141   0.00002  -0.00002  -0.00010  -0.00020   3.14121
    D3        3.14099  -0.00001  -0.00002  -0.00001   0.00001   3.14100
    D4       -0.00015  -0.00000  -0.00001  -0.00026  -0.00029  -0.00044
    D5       -0.00042   0.00000   0.00006   0.00053   0.00066   0.00024
    D6       -3.14154  -0.00001   0.00007   0.00014   0.00027  -3.14127
    D7        3.14115   0.00002   0.00004   0.00069   0.00075  -3.14128
    D8        0.00002   0.00001   0.00006   0.00030   0.00036   0.00039
    D9        0.00020   0.00004   0.00006   0.00051   0.00046   0.00067
   D10       -3.14129   0.00000  -0.00003  -0.00081  -0.00095   3.14095
   D11        3.14135   0.00004   0.00005   0.00076   0.00076  -3.14107
   D12       -0.00014  -0.00001  -0.00003  -0.00057  -0.00065  -0.00080
   D13        0.00126  -0.00010  -0.00011  -0.00179  -0.00180  -0.00054
   D14       -3.13320  -0.00014  -0.00050  -0.00651  -0.00729  -3.14049
   D15       -3.14043  -0.00005  -0.00002  -0.00046  -0.00037  -3.14080
   D16        0.00829  -0.00010  -0.00041  -0.00517  -0.00586   0.00243
   D17       -0.00224   0.00009   0.00015   0.00235   0.00249   0.00025
   D18       -3.14146  -0.00003  -0.00013  -0.00033  -0.00026   3.14147
   D19        3.13169   0.00031   0.00057   0.00826   0.00857   3.14026
   D20       -0.00753   0.00019   0.00029   0.00558   0.00582  -0.00171
   D21        0.00421   0.00009   0.00021   0.00229   0.00241   0.00663
   D22        2.10116   0.00232   0.00510   0.03399   0.03928   2.14044
   D23       -2.09301  -0.00216  -0.00477  -0.02976  -0.03490  -2.12791
   D24       -3.12999  -0.00010  -0.00024  -0.00327  -0.00342  -3.13342
   D25       -1.03305   0.00213   0.00465   0.02842   0.03345  -0.99960
   D26        1.05597  -0.00235  -0.00521  -0.03532  -0.04074   1.01523
   D27        0.00183  -0.00006  -0.00013  -0.00179  -0.00193  -0.00010
   D28       -3.14023  -0.00004  -0.00014  -0.00138  -0.00154   3.14141
   D29        3.14116  -0.00000   0.00018   0.00047   0.00074  -3.14128
   D30       -0.00091   0.00001   0.00017   0.00088   0.00114   0.00023
   D31        3.13056   0.00023   0.00075   0.00686   0.00755   3.13811
   D32       -0.00794   0.00007  -0.00041   0.00165   0.00126  -0.00668
   D33       -0.00864   0.00013   0.00048   0.00429   0.00474  -0.00389
   D34        3.13604  -0.00003  -0.00068  -0.00093  -0.00154   3.13450
   D35        3.13938  -0.00002  -0.00055  -0.00110  -0.00174   3.13764
   D36       -0.00523   0.00010   0.00073   0.00377   0.00458  -0.00065
         Item               Value     Threshold  Converged?
 Maximum Force            0.027024     0.000450     NO 
 RMS     Force            0.008140     0.000300     NO 
 Maximum Displacement     0.402675     0.001800     NO 
 RMS     Displacement     0.110638     0.001200     NO 
 Predicted change in Energy=-1.081063D-02
 GradGradGradGradGradGradGradGradGradGradGradGradGradGradGradGradGradGrad

                          Input orientation:                          
 ---------------------------------------------------------------------
 Center     Atomic      Atomic             Coordinates (Angstroms)
 Number     Number       Type             X           Y           Z
 ---------------------------------------------------------------------
      1          6           0       -2.272372    0.591417    0.002448
      2          6           0       -2.267351   -0.817229    0.001508
      3          6           0       -1.043038   -1.518179   -0.000551
      4          6           0        0.151658   -0.791956   -0.000806
      5          6           0        0.181926    0.616581    0.000276
      6          6           0       -1.056079    1.301512    0.001983
      7          6           0        1.514209    1.278110    0.000041
      8          8           0        1.423526    2.607490   -0.003162
      9          7           0        1.464339   -1.498253   -0.004371
     10          8           0        2.572081    0.636442    0.005931
     11          1           0       -3.207348    1.131935    0.003469
     12          1           0       -3.194224   -1.371891    0.002206
     13          1           0       -1.037486   -2.602955   -0.000670
     14          1           0       -1.042365    2.380218    0.002989
     15          1           0        2.333221    2.955720    0.000604
     16          1           0        1.334080   -2.510089   -0.012693
     17          1           0        2.043422   -1.227055   -0.804484
     18          1           0        2.041708   -1.239831    0.801325
 ---------------------------------------------------------------------
                    Distance matrix (angstroms):
                    1          2          3          4          5
     1  C    0.000000
     2  C    1.408656   0.000000
     3  C    2.441652   1.410771   0.000000
     4  C    2.790995   2.419142   1.398105   0.000000
     5  C    2.454427   2.838092   2.461247   1.408863   0.000000
     6  C    1.408404   2.440542   2.819722   2.416867   1.414846
     7  C    3.848343   4.323267   3.789293   2.478249   1.487480
     8  O    4.210017   5.035007   4.806775   3.629585   2.346338
     9  N    4.281329   3.793328   2.507460   1.490637   2.473284
    10  O    4.844663   5.053046   4.208506   2.810483   2.390244
    11  H    1.079972   2.163987   3.421601   3.870955   3.428232
    12  H    2.168961   1.080159   2.156156   3.395771   3.918215
    13  H    3.424758   2.168268   1.084790   2.166513   3.442728
    14  H    2.170882   3.424071   3.898399   3.389454   2.146930
    15  H    5.177009   5.949824   5.604899   4.336392   3.177993
    16  H    4.756686   3.979482   2.575796   2.085724   3.332221
    17  H    4.752268   4.404581   3.202701   2.100947   2.740767
    18  H    4.754257   4.402986   3.199397   2.101498   2.747133
                    6          7          8          9         10
     6  C    0.000000
     7  C    2.570395   0.000000
     8  O    2.802507   1.332474   0.000000
     9  N    3.767126   2.776814   4.105946   0.000000
    10  O    3.688615   1.237281   2.281292   2.405020   0.000000
    11  H    2.157942   4.723820   4.860278   5.361214   5.800631
    12  H    3.423265   5.402948   6.095828   4.660282   6.106037
    13  H    3.904512   4.644761   5.762406   2.734869   4.850022
    14  H    1.078794   2.784012   2.476350   4.618026   4.013101
    15  H    3.771441   1.866858   0.974076   4.537935   2.331551
    16  H    4.499042   3.792500   5.118370   1.020220   3.381368
    17  H    4.080557   2.683873   3.966122   1.024239   2.099732
    18  H    4.085788   2.694501   3.978848   1.024345   2.105789
                   11         12         13         14         15
    11  H    0.000000
    12  H    2.503860   0.000000
    13  H    4.319458   2.483354   0.000000
    14  H    2.499072   4.325369   4.983177   0.000000
    15  H    5.833018   7.020033   6.500810   3.424294   0.000000
    16  H    5.821440   4.669181   2.373414   5.437172   5.556395
    17  H    5.812762   5.301383   3.468603   4.815238   4.269397
    18  H    5.815018   5.298209   3.461609   4.822199   4.281213
                   16         17         18
    16  H    0.000000
    17  H    1.666216   0.000000
    18  H    1.666409   1.605861   0.000000
 Stoichiometry    C7H8NO2(1+)
 Framework group  C1[X(C7H8NO2)]
 Deg. of freedom    48
 Full point group                 C1      NOp   1
 Largest Abelian subgroup         C1      NOp   1
 Largest concise Abelian subgroup C1      NOp   1
                         Standard orientation:                         
 ---------------------------------------------------------------------
 Center     Atomic      Atomic             Coordinates (Angstroms)
 Number     Number       Type             X           Y           Z
 ---------------------------------------------------------------------
      1          6           0       -2.030685   -1.411641   -0.000962
      2          6           0       -2.653639   -0.148217   -0.000868
      3          6           0       -1.869711    1.024699    0.000228
      4          6           0       -0.476598    0.906649    0.000390
      5          6           0        0.177901   -0.340959    0.000139
      6          6           0       -0.625421   -1.505632   -0.000610
      7          6           0        1.665381   -0.339802    0.000180
      8          8           0        2.176334   -1.570411    0.004220
      9          7           0        0.384066    2.123715    0.002951
     10          8           0        2.326697    0.705894   -0.006562
     11          1           0       -2.627025   -2.312040   -0.001245
     12          1           0       -3.730547   -0.064474   -0.001489
     13          1           0       -2.347929    1.998391   -0.000305
     14          1           0       -0.132657   -2.465309   -0.000976
     15          1           0        3.145911   -1.476987    0.000261
     16          1           0       -0.183256    2.971615    0.010724
     17          1           0        1.023431    2.139432    0.802970
     18          1           0        1.015998    2.148930   -0.802846
 ---------------------------------------------------------------------
 Rotational constants (GHZ):      2.2527562      1.1995960      0.7859365
 Standard basis: 6-31+G(d,p) (6D, 7F)
 There are   230 symmetry adapted cartesian basis functions of A   symmetry.
 There are   230 symmetry adapted basis functions of A   symmetry.
   230 basis functions,   376 primitive gaussians,   230 cartesian basis functions
    36 alpha electrons       36 beta electrons
       nuclear repulsion energy       513.6085656129 Hartrees.
 NAtoms=   18 NActive=   18 NUniq=   18 SFac= 1.00D+00 NAtFMM=   60 NAOKFM=F Big=F
 Integral buffers will be    131072 words long.
 Raffenetti 2 integral format.
 Two-electron integral symmetry is turned on.
 One-electron integrals computed using PRISM.
 NBasis=   230 RedAO= T EigKep=  2.30D-06  NBF=   230
 NBsUse=   230 1.00D-06 EigRej= -1.00D+00 NBFU=   230
 Initial guess from the checkpoint file:  "b3lypAnthranilicyang.chk"
 B after Tr=    -0.000000    0.000000    0.000000
         Rot=    0.998763   -0.000040   -0.000072    0.049721 Ang=  -5.70 deg.
 ExpMin= 4.38D-02 ExpMax= 5.48D+03 ExpMxC= 8.25D+02 IAcc=2 IRadAn=         4 AccDes= 0.00D+00
 Harris functional with IExCor=  402 and IRadAn=       4 diagonalized for initial guess.
 HarFok:  IExCor=  402 AccDes= 0.00D+00 IRadAn=         4 IDoV= 1 UseB2=F ITyADJ=14
 ICtDFT=  3500011 ScaDFX=  1.000000  1.000000  1.000000  1.000000
 FoFCou: FMM=F IPFlag=           0 FMFlag=      100000 FMFlg1=           0
         NFxFlg=           0 DoJE=T BraDBF=F KetDBF=T FulRan=T
         wScrn=  0.000000 ICntrl=     500 IOpCl=  0 I1Cent=   200000004 NGrid=           0
         NMat0=    1 NMatS0=      1 NMatT0=    0 NMatD0=    1 NMtDS0=    0 NMtDT0=    0
 Petite list used in FoFCou.
 Keep R1 ints in memory in canonical form, NReq=359209085.
 Requested convergence on RMS density matrix=1.00D-08 within 128 cycles.
 Requested convergence on MAX density matrix=1.00D-06.
 Requested convergence on             energy=1.00D-06.
 No special actions if energy rises.
 SCF Done:  E(RB3LYP) =  -476.566928214     A.U. after   13 cycles
            NFock= 13  Conv=0.95D-08     -V/T= 2.0097
 Calling FoFJK, ICntrl=      2127 FMM=F ISym2X=0 I1Cent= 0 IOpClX= 0 NMat=1 NMatS=1 NMatT=0.
 ***** Axes restored to original set *****
 -------------------------------------------------------------------
 Center     Atomic                   Forces (Hartrees/Bohr)
 Number     Number              X              Y              Z
 -------------------------------------------------------------------
      1        6           0.014077610   -0.006953469   -0.000002188
      2        6           0.012907971    0.008591619   -0.000028653
      3        6           0.003093889    0.007886123    0.000115872
      4        6          -0.005188355    0.002392608   -0.000119420
      5        6          -0.008193262   -0.006769474   -0.000096054
      6        6           0.002555835   -0.010751088   -0.000044433
      7        6          -0.003880448   -0.001132309    0.000528893
      8        8           0.010161672   -0.005891361   -0.000017218
      9        7          -0.010494482   -0.014893992    0.000014385
     10        8          -0.007169899    0.022721658   -0.000256424
     11        1          -0.002685530    0.001537424    0.000020919
     12        1          -0.002721656   -0.001359571   -0.000005227
     13        1          -0.000041832   -0.001278036   -0.000048051
     14        1          -0.001297509    0.003727964   -0.000007185
     15        1           0.000254478    0.004867979   -0.000051255
     16        1          -0.002319091   -0.004817015    0.000006045
     17        1           0.000514774    0.001083868   -0.002066618
     18        1           0.000425836    0.001037072    0.002056612
 -------------------------------------------------------------------
 Cartesian Forces:  Max     0.022721658 RMS     0.006055875

 GradGradGradGradGradGradGradGradGradGradGradGradGradGradGradGradGradGrad
 Berny optimization.
 Using GEDIIS/GDIIS optimizer.
 FormGI is forming the generalized inverse of G from B-inverse, IUseBI=4.
 Internal  Forces:  Max     0.039062729 RMS     0.009121226
 Search for a local minimum.
 Step number   3 out of a maximum of   92
 All quantities printed in internal units (Hartrees-Bohrs-Radians)
 Mixed Optimization -- RFO/linear search
 Update second derivatives using D2CorX and points    1    2    3
 DE= -3.53D-03 DEPred=-1.08D-02 R= 3.26D-01
 Trust test= 3.26D-01 RLast= 3.33D-01 DXMaxT set to 5.05D-01
 ITU=  0  1  0
 Use linear search instead of GDIIS.
     Eigenvalues ---    0.00982   0.02079   0.02331   0.02465   0.02536
     Eigenvalues ---    0.02685   0.02735   0.02831   0.02837   0.02845
     Eigenvalues ---    0.02863   0.02864   0.02870   0.07127   0.07198
     Eigenvalues ---    0.15371   0.16000   0.16000   0.16000   0.16000
     Eigenvalues ---    0.16000   0.16008   0.16186   0.20938   0.22016
     Eigenvalues ---    0.23132   0.24570   0.25000   0.25709   0.32932
     Eigenvalues ---    0.33347   0.33356   0.33361   0.37123   0.40193
     Eigenvalues ---    0.40527   0.40572   0.42314   0.45248   0.50552
     Eigenvalues ---    0.53250   0.54269   0.54657   0.55382   0.56610
     Eigenvalues ---    0.56925   0.67432   1.03626
 RFO step:  Lambda=-3.35065314D-03 EMin= 9.81969895D-03
 Quartic linear search produced a step of -0.40072.
 Iteration  1 RMS(Cart)=  0.07856348 RMS(Int)=  0.00158499
 Iteration  2 RMS(Cart)=  0.00232026 RMS(Int)=  0.00008386
 Iteration  3 RMS(Cart)=  0.00000231 RMS(Int)=  0.00008386
 Iteration  4 RMS(Cart)=  0.00000000 RMS(Int)=  0.00008386
 Variable       Old X    -DE/DX   Delta X   Delta X   Delta X     New X
                                 (Linear)    (Quad)   (Total)
    R1        2.66197  -0.01431  -0.02574   0.01150  -0.01424   2.64773
    R2        2.66150  -0.01417  -0.02362   0.00846  -0.01513   2.64637
    R3        2.04085   0.00309   0.00980  -0.00605   0.00375   2.04461
    R4        2.66597  -0.01251  -0.02550   0.01327  -0.01225   2.65372
    R5        2.04121   0.00303   0.00954  -0.00575   0.00379   2.04499
    R6        2.64204  -0.01122  -0.01651   0.00323  -0.01331   2.62873
    R7        2.04996   0.00128   0.00784  -0.00725   0.00060   2.05056
    R8        2.66237   0.01574  -0.00848   0.02045   0.01196   2.67432
    R9        2.81690  -0.00212  -0.01478   0.01376  -0.00103   2.81587
   R10        2.67367  -0.01001  -0.02165   0.00963  -0.01200   2.66167
   R11        2.81093   0.00858  -0.03792   0.04696   0.00904   2.81998
   R12        2.03863   0.00371   0.01019  -0.00527   0.00492   2.04354
   R13        2.51801  -0.00173   0.00693  -0.00959  -0.00266   2.51535
   R14        2.33812  -0.01792  -0.00668  -0.00717  -0.01385   2.32428
   R15        1.84074   0.00198  -0.00190   0.00497   0.00308   1.84381
   R16        1.92794   0.00507   0.01066  -0.00504   0.00562   1.93355
   R17        1.93553   0.00219   0.00713  -0.00389   0.00324   1.93877
   R18        1.93573   0.00212   0.00709  -0.00395   0.00314   1.93887
    A1        2.09567   0.00184  -0.00231   0.00464   0.00236   2.09803
    A2        2.09853  -0.00094  -0.00111   0.00131   0.00019   2.09871
    A3        2.08899  -0.00091   0.00342  -0.00595  -0.00255   2.08644
    A4        2.09433   0.00147  -0.00250   0.00400   0.00148   2.09582
    A5        2.10649  -0.00097  -0.00229   0.00231   0.00003   2.10652
    A6        2.08236  -0.00050   0.00479  -0.00631  -0.00151   2.08085
    A7        2.07543   0.00305   0.01370  -0.01369  -0.00003   2.07540
    A8        2.09589  -0.00157  -0.00669   0.00651  -0.00016   2.09573
    A9        2.11187  -0.00148  -0.00701   0.00718   0.00019   2.11206
   A10        2.13847  -0.00428  -0.01614   0.01596  -0.00021   2.13826
   A11        2.10178  -0.02829  -0.02907  -0.02512  -0.05417   2.04760
   A12        2.04294   0.03258   0.04520   0.00917   0.05438   2.09732
   A13        2.05465  -0.00659   0.00114  -0.00885  -0.00769   2.04696
   A14        2.05315   0.03906   0.03931   0.02572   0.06502   2.11817
   A15        2.17538  -0.03247  -0.04044  -0.01688  -0.05733   2.11805
   A16        2.10782   0.00450   0.00611  -0.00206   0.00409   2.11191
   A17        2.11195  -0.00362  -0.01674   0.01452  -0.00224   2.10971
   A18        2.06342  -0.00088   0.01063  -0.01246  -0.00185   2.06157
   A19        1.96356  -0.00039   0.04382  -0.04768  -0.00386   1.95970
   A20        2.13548   0.01856  -0.00431   0.02999   0.02568   2.16116
   A21        2.18414  -0.01817  -0.03951   0.01770  -0.02181   2.16233
   A22        1.86826   0.00820   0.00424   0.02983   0.03407   1.90233
   A23        1.93640  -0.00185  -0.01026   0.01164   0.00166   1.93805
   A24        1.95443  -0.00063  -0.00723   0.00423  -0.00290   1.95153
   A25        1.95513  -0.00072  -0.00736   0.00393  -0.00333   1.95180
   A26        1.90543   0.00126  -0.00232   0.01071   0.00863   1.91405
   A27        1.90560   0.00124  -0.00238   0.01048   0.00835   1.91396
   A28        1.80181   0.00100   0.03122  -0.04393  -0.01279   1.78902
    D1       -0.00053   0.00001  -0.00004   0.00032   0.00028  -0.00025
    D2        3.14121   0.00001   0.00008  -0.00023  -0.00010   3.14111
    D3        3.14100   0.00001  -0.00000   0.00032   0.00028   3.14128
    D4       -0.00044   0.00001   0.00012  -0.00024  -0.00010  -0.00054
    D5        0.00024  -0.00001  -0.00026   0.00063   0.00032   0.00056
    D6       -3.14127  -0.00001  -0.00011   0.00026   0.00012  -3.14115
    D7       -3.14128  -0.00001  -0.00030   0.00063   0.00031  -3.14097
    D8        0.00039  -0.00001  -0.00015   0.00026   0.00012   0.00050
    D9        0.00067  -0.00001  -0.00019  -0.00009  -0.00020   0.00047
   D10        3.14095   0.00001   0.00038  -0.00112  -0.00064   3.14031
   D11       -3.14107  -0.00001  -0.00031   0.00046   0.00018  -3.14090
   D12       -0.00080   0.00001   0.00026  -0.00057  -0.00026  -0.00106
   D13       -0.00054   0.00002   0.00072  -0.00114  -0.00048  -0.00102
   D14       -3.14049  -0.00004   0.00292  -0.00939  -0.00622   3.13648
   D15       -3.14080  -0.00000   0.00015  -0.00010  -0.00004  -3.14084
   D16        0.00243  -0.00006   0.00235  -0.00835  -0.00578  -0.00335
   D17        0.00025  -0.00001  -0.00100   0.00205   0.00104   0.00130
   D18        3.14147  -0.00002   0.00011  -0.00047  -0.00053   3.14094
   D19        3.14026  -0.00001  -0.00343   0.01001   0.00684  -3.13609
   D20       -0.00171  -0.00001  -0.00233   0.00749   0.00527   0.00356
   D21        0.00663  -0.00002  -0.00097   0.00224   0.00130   0.00792
   D22        2.14044  -0.00017  -0.01574   0.02741   0.01158   2.15202
   D23       -2.12791   0.00022   0.01399  -0.02246  -0.00832  -2.13623
   D24       -3.13342  -0.00005   0.00137  -0.00559  -0.00425  -3.13766
   D25       -0.99960  -0.00020  -0.01340   0.01959   0.00603  -0.99357
   D26        1.01523   0.00019   0.01632  -0.03028  -0.01386   1.00137
   D27       -0.00010   0.00001   0.00077  -0.00177  -0.00095  -0.00105
   D28        3.14141   0.00001   0.00062  -0.00140  -0.00075   3.14066
   D29       -3.14128  -0.00000  -0.00030   0.00093   0.00060  -3.14069
   D30        0.00023  -0.00001  -0.00046   0.00130   0.00079   0.00102
   D31        3.13811  -0.00009  -0.00302   0.00568   0.00269   3.14079
   D32       -0.00668   0.00009  -0.00050   0.00511   0.00461  -0.00207
   D33       -0.00389  -0.00008  -0.00190   0.00297   0.00106  -0.00283
   D34        3.13450   0.00010   0.00062   0.00241   0.00299   3.13749
   D35        3.13764   0.00017   0.00070   0.00238   0.00311   3.14075
   D36       -0.00065  -0.00010  -0.00184   0.00294   0.00108   0.00043
         Item               Value     Threshold  Converged?
 Maximum Force            0.039063     0.000450     NO 
 RMS     Force            0.009121     0.000300     NO 
 Maximum Displacement     0.293313     0.001800     NO 
 RMS     Displacement     0.079134     0.001200     NO 
 Predicted change in Energy=-5.419932D-03
 GradGradGradGradGradGradGradGradGradGradGradGradGradGradGradGradGradGrad

                          Input orientation:                          
 ---------------------------------------------------------------------
 Center     Atomic      Atomic             Coordinates (Angstroms)
 Number     Number       Type             X           Y           Z
 ---------------------------------------------------------------------
      1          6           0       -2.229503    0.596744    0.003690
      2          6           0       -2.237887   -0.804348    0.000611
[...]
 3304,-0.6124303,-0.2537997,0.0235304,-0.3490958,-0.2688374,0.0199462,0
 .0277698,0.0181356,0.0242594,0.0743664,0.1523453,-0.0092536,-0.0470884
 ,0.0720169,-0.0046999,-0.000268,-0.0085916,-0.0525232,1.9127539,0.1101
 532,-0.0344482,0.3000281,1.9361649,-0.0774384,-0.0431244,-0.0738718,0.
 3581583,-0.4577009,-0.1901367,0.0110903,-0.2565892,-1.4499793,0.055728
 7,0.0141554,0.0545653,-0.3302856,-0.4385539,-0.1230053,0.0129498,0.084
 3999,-0.5749752,0.0221738,0.0034447,0.0262981,-0.0482759,-1.2678241,0.
 1652986,0.0100015,0.0849105,-1.0479899,0.0303151,0.0136914,0.0287246,-
 0.3432319,0.038325,0.0226406,0.0009715,0.0290838,0.0686068,0.0027161,0
 .000687,0.0028359,0.141684,0.0485232,-0.0229745,0.0027417,-0.0265434,0
 .0699538,0.0035669,0.0029258,0.0034691,0.1382133,0.084297,0.0395089,-0
 .000533,0.0288285,-0.0010322,0.0061368,-0.0000732,0.0058923,0.1482166,
 0.1054161,-0.0054448,0.0008368,-0.004141,0.0705979,0.0030179,0.0007899
 ,0.0030699,0.1362811,0.3000067,0.1134551,-0.0038974,0.119479,0.4562186
 ,-0.0063288,-0.0042029,-0.0062671,0.3665955,0.1982255,-0.0149932,-0.03
 21922,-0.0105578,0.2490248,0.0347276,-0.0548002,0.0595931,0.2585952,0.
 3552367,0.3129712,-0.0170639,0.1298539,0.8461337,-0.0315749,-0.0088042
 ,-0.0350002,0.2002856,0.2015959,-0.013963,0.0358015,-0.0066671,0.24061
 67,-0.0329646,0.0579572,-0.0576233,0.263475\Polar=114.8229986,6.304029
 2,105.368608,-1.5404935,-2.6581039,48.9722433\PG=C01 [X(C7H8N1O2)]\NIm
 ag=0\\0.73399643,-0.03886075,0.69087648,-0.00971683,-0.02396199,0.1391
 7490,-0.13288106,-0.03163904,0.00273101,0.72668448,0.03069701,-0.34215
 346,0.01182773,0.03952974,0.68802557,-0.00006009,0.01301508,-0.0646640
 7,-0.01296362,-0.02517806,0.14252371,0.03451899,0.07009848,-0.00366886
 ,-0.28042945,0.05647954,0.00164642,0.67275681,0.03225787,-0.02298135,0
 .00070802,0.12223363,-0.18211419,0.00300593,0.00530657,0.75375765,-0.0
 0197212,-0.00001450,0.00671158,-0.00130276,0.00426443,-0.06277712,-0.0
 1056593,-0.02793578,0.13166762,-0.01909177,-0.02932846,0.00157803,-0.0
 6079556,0.03213898,-0.00021421,-0.27352155,-0.14667730,0.01058494,0.63
 798026,-0.03012566,-0.05034669,0.00259842,-0.02342559,0.06485770,-0.00
 230417,-0.06742052,-0.19421362,0.00720384,0.07031701,0.66538968,0.0016
 1505,0.00257949,-0.00531459,0.00227338,-0.00336938,0.00351240,0.007030
 76,0.00871890,-0.06206816,-0.01219404,-0.02399936,0.16084288,-0.053379
 15,-0.02096674,0.00209432,-0.01193867,0.01974437,-0.00075980,0.0169534
 1,-0.02370091,0.00092264,-0.11590390,-0.03974592,0.00287619,0.66068882
 ,0.01995080,0.05824931,-0.00266561,0.02892471,-0.04784567,0.00134169,-
 0.07392284,-0.02561975,0.00300129,0.02053712,-0.29883229,0.01040323,-0
 .02613583,0.67276867,0.00026782,-0.00188746,0.00721874,-0.00117286,0.0
 0151736,-0.00554887,0.00316864,0.00203546,0.00958766,0.00018345,0.0115
 5950,-0.05844423,-0.00885883,-0.02359170,0.13728166,-0.29209673,-0.058
 94086,0.00699587,0.03404483,-0.07053243,0.00263262,-0.05998478,-0.0063
 3502,0.00133085,0.02944727,0.07572764,-0.00385945,-0.26206169,0.060439
 94,0.00111579,0.66397210,-0.12184860,-0.18277864,0.00760273,-0.0324994
 1,-0.02535493,0.00204727,0.00307141,-0.00049866,-0.00026280,0.02657117
 ,-0.02573585,0.00084816,0.11474349,-0.18036529,0.00310125,0.01401996,0
 .75187467,0.00981384,0.00640712,-0.06564042,0.00093011,0.00277372,0.00
 637286,0.00091352,-0.00008564,-0.00508791,-0.00166760,-0.00009368,0.00
 454450,-0.00130921,0.00413712,-0.06240174,-0.01063426,-0.02762222,0.14
 365943,-0.00192398,0.00526376,-0.00003451,-0.00327054,0.00521215,-0.00
 019727,0.01151037,0.00490799,-0.00032778,0.01120106,-0.03093066,0.0011
 5178,-0.16639176,-0.03780496,0.00343571,-0.03347368,-0.00693313,0.0009
 3403,0.82550375,0.00674072,-0.00084427,0.00029169,0.00059399,-0.000369
 75,-0.00005375,0.00545090,-0.00658235,0.00046051,-0.03480121,-0.021158
 04,0.00154350,-0.04636742,-0.12944702,0.00329827,0.00309527,0.02213785
 ,-0.00108746,-0.11860479,0.74564848,-0.00010512,0.00031657,0.00849650,
 0.00000862,-0.00013995,-0.00131226,-0.00034655,0.00047365,0.00603498,0
 .00131503,0.00146026,-0.00167296,0.00382342,0.00314058,-0.07598060,0.0
 0049493,-0.00089460,-0.00069287,-0.00635772,-0.02217843,0.20726757,0.0
 0139773,-0.00009993,-0.00003494,0.00048019,-0.00131687,0.00004904,-0.0
 0069832,-0.00265731,0.00012047,-0.00866370,0.00319434,0.00006296,0.001
 35079,-0.04100142,0.00200669,-0.00398886,-0.00206549,0.00017918,-0.127
 48381,-0.02071956,0.00213830,0.56225811,-0.00003929,0.00011063,-0.0000
 3308,0.00111798,-0.00178007,0.00005571,-0.00348648,-0.00053879,0.00006
 393,-0.00134351,0.00505265,-0.00010484,-0.01569846,-0.03811659,0.00244
 251,0.00268321,-0.00432337,0.00016334,0.01825065,-0.34563700,0.0124148
 1,0.12521777,0.55366647,-0.00003696,-0.00003031,-0.00060745,-0.0000606
 3,0.00010321,-0.00006304,0.00015946,0.00004761,-0.00060754,0.00026735,
 -0.00019443,0.00213542,0.00086011,0.00292325,0.00908328,-0.00003772,0.
 00025343,0.00040481,0.00037137,0.01315002,-0.06477491,-0.01550058,-0.0
 2556673,0.04318107,0.00102925,0.00198918,-0.00013192,-0.00146889,-0.00
 975684,0.00059665,-0.04118207,0.02939917,-0.00050835,-0.15579057,0.026
 28077,0.00037959,-0.00321279,0.00877937,-0.00034960,0.00126277,0.00186
 392,0.00003261,-0.02220146,0.00024874,0.00035418,0.00500185,-0.0042181
 9,0.00007269,0.47964939,-0.00063430,-0.00153278,0.00002490,-0.00462493
 ,0.00021853,0.00039638,-0.00881546,0.01245562,-0.00031349,0.03781671,-
 0.12471598,0.00161011,0.03779092,-0.01313473,-0.00016810,-0.00239936,-
 0.00566617,0.00063622,-0.01787583,0.00585217,-0.00005499,0.00482239,-0
 .00598241,0.00012386,0.02389198,0.65665534,-0.00001345,-0.00002093,-0.
 00122491,0.00037453,0.00049348,0.00712919,0.00120848,-0.00103286,0.001
 77150,-0.00014963,0.00182697,-0.07276344,-0.00163992,0.00038053,-0.000
 89446,0.00022073,0.00054876,0.00740788,0.00116158,-0.00039105,-0.00279
 519,-0.00033354,0.00029071,-0.00129932,0.00327401,0.00196265,0.7053645
 0,-0.00260430,-0.00075462,0.00004929,0.00064719,-0.00026437,0.00000650
 ,-0.00294980,-0.00101187,0.00009372,-0.00222833,0.01322612,-0.00055591
 ,-0.05734801,0.01422838,0.00079763,0.00112012,-0.00936844,0.00046283,-
 0.52050966,0.20021726,-0.00062536,-0.00208292,0.05215435,-0.00181849,0
 .01135802,-0.00663222,0.00027022,0.60522357,-0.00073865,0.00214428,-0.
 00016648,-0.00059993,0.00048578,0.00000516,0.00027127,0.00265271,-0.00
 015079,0.01063948,-0.01086319,0.00028313,0.00181978,0.01952840,-0.0000
 6466,-0.00334228,-0.00123717,0.00027194,0.18447248,-0.21536103,0.00290
 142,0.07533261,-0.06968032,0.00294857,-0.03094373,-0.04744722,0.003159
 35,-0.24203254,0.28376707,0.00004665,-0.00016547,-0.00186319,0.0000215
 2,-0.00000056,0.00035873,0.00003359,-0.00012355,-0.00053009,-0.0004374
 1,0.00023237,-0.00013276,0.00136173,-0.00030177,0.01879684,0.00019408,
 0.00038604,0.00339389,0.00007875,0.00260345,-0.07426108,-0.00286453,0.
 00338387,0.02669059,0.00136277,0.00270817,0.01004237,0.00023466,-0.006
 57341,0.03764720,-0.27468590,0.12643431,-0.00114499,0.00567699,-0.0026
 6312,0.00009224,0.00135676,-0.00108224,0.00016044,0.00015804,-0.001025
 86,0.00004338,-0.00249843,-0.00324488,0.00033079,-0.01803140,0.0143093
 2,-0.00021658,-0.00013422,0.00130401,-0.00004974,-0.00003533,-0.000218
 10,0.00001081,0.00008271,0.00013621,-0.00002846,-0.00065169,-0.0001099
 6,0.00001212,0.28697241,0.12650751,-0.13386899,0.00174157,0.02766491,-
 0.01089630,0.00014756,-0.00079070,-0.00526397,0.00057004,-0.00114270,-
 0.00109656,0.00007272,-0.00326421,-0.00116199,0.00043275,-0.01607583,0
 .01216492,-0.00005615,-0.00041071,0.00092442,-0.00001897,0.00000205,-0
 .00009889,0.00000518,0.00027978,0.00028253,-0.00006671,-0.00050284,-0.
 00007617,0.00000092,-0.13358141,0.13805309,-0.00114453,0.00174394,-0.0
 4049640,-0.00126277,0.00072766,0.00427136,0.00014458,0.00057638,0.0071
 4576,0.00004823,0.00007156,0.00003154,0.00033091,0.00043340,0.00709137
 ,0.00113937,-0.00063965,0.00401128,0.00002727,-0.00005168,0.00033481,0
 .00000098,0.00000957,0.00001696,-0.00003461,-0.00006365,-0.00108586,0.
 00003015,-0.00000643,-0.00027013,0.00097073,-0.00239157,0.02712488,0.0
 0556173,0.00231407,-0.00010229,-0.27669151,-0.12445799,0.01006236,-0.0
 1782796,-0.01380956,0.00104359,-0.00174697,0.00323306,0.00002257,0.000
 45025,0.00077054,-0.00005864,0.00116405,0.00093889,0.00007504,-0.00041
 875,-0.00007094,-0.00001060,0.00006167,-0.00000324,0.00000285,-0.00145
 192,-0.00080394,0.00006656,0.00019533,-0.00025315,0.00001018,0.0006317
 1,-0.00010215,-0.00008274,0.28896434,-0.02774404,-0.00944412,0.0012022
 5,-0.12492892,-0.13162304,0.00642071,0.01655551,0.01179472,-0.00064414
 ,0.00270999,-0.00118724,0.00031493,0.00097030,-0.00079588,-0.00001944,
 0.00068267,-0.00577699,0.00057087,0.00015016,-0.00028143,-0.00004070,-
 0.00012580,0.00010894,0.00000639,0.00159480,0.00056003,-0.00004843,-0.
 00014211,0.00024512,-0.00000225,0.00011065,0.00103704,-0.00022405,0.13
 175367,0.13515255,0.00123998,0.00063052,0.00554900,0.01008624,0.006408
 67,-0.04183154,-0.00031701,-0.00006187,0.00448113,0.00004692,0.0003057
 8,0.00699750,-0.00006653,-0.00001764,-0.00081270,0.00008628,0.00056510
 ,0.00725946,-0.00001981,-0.00003714,-0.00113249,0.00000831,0.00000437,
 0.00020005,-0.00003979,-0.00000195,0.00015148,0.00000477,0.00000054,0.
 00013544,-0.00009272,-0.00021980,-0.00392072,-0.01090098,-0.00736004,0
 .02732961,-0.00493887,0.00217726,0.00012428,0.00547600,0.02859361,-0.0
 0130500,-0.05955994,-0.00331825,0.00059577,0.00283953,-0.02836485,0.00
 128043,-0.00456867,-0.00102861,0.00024470,-0.00108923,0.00010732,-0.00
 000325,0.00100575,-0.00116750,0.00006088,-0.00056885,-0.00025981,0.000
 01800,0.00284736,0.00063819,-0.00015241,-0.00018796,0.00060519,-0.0000
 2622,0.00023683,0.00134833,-0.00006675,0.00096399,-0.00028978,-0.00007
 894,0.05886198,0.00266485,0.00047166,0.00022473,-0.00189051,-0.0105692
 7,0.00068827,-0.00320204,-0.34099285,0.01366504,0.00316007,-0.01131321
 ,0.00060293,-0.00264879,0.00113803,0.00026136,0.00038995,0.00057119,-0
 .00007770,0.00120527,-0.00035435,0.00005737,-0.00034428,-0.00009148,0.
 00000021,0.00090626,0.00185460,-0.00026144,-0.00035750,0.00059031,-0.0
 0002624,-0.00025700,-0.00053149,0.00002369,-0.00017779,0.00085037,-0.0
 0020627,0.00244618,0.35911457,0.00010326,0.00023733,0.00664837,0.00005
 951,0.00010598,0.00402962,0.00058447,0.01366209,-0.03663740,-0.0001225
 3,0.00120708,0.00346980,0.00031696,0.00023123,0.00587212,-0.00001792,-
 0.00007179,-0.00100331,-0.00004419,0.00010275,0.00144071,0.00002117,-0
 .00000189,-0.00023520,-0.00016187,-0.00025374,-0.00359744,0.00001655,-
 0.00004390,-0.00014415,0.00000491,-0.00000676,-0.00010968,-0.00008412,
 -0.00020479,-0.00384278,-0.00075909,-0.01496343,0.02541750,0.00478540,
 -0.02791553,0.00127176,-0.00479167,-0.00252429,0.00034136,-0.00107794,
 0.00016920,-0.00000492,-0.00397875,0.00060827,0.00015531,0.00322584,0.
 02814025,-0.00125482,-0.05876396,-0.00246009,0.00046343,0.00070639,0.0
 0339866,-0.00024747,-0.00215388,-0.00163541,0.00012309,-0.00087723,0.0
 0161557,-0.00003472,0.00081638,-0.00147055,0.00006248,0.00096087,0.000
 25976,-0.00010810,0.00017568,-0.00130699,0.00004412,0.00013738,-0.0000
 2177,-0.00001467,0.06040617,0.00168025,-0.00798728,0.00058611,-0.00204
 985,0.00016812,0.00035217,-0.00047980,0.00053388,-0.00005748,0.0020816
 5,0.00120714,0.00015823,-0.00050485,-0.01020200,0.00062961,-0.00051320
 ,-0.35092776,0.01395583,0.00009363,-0.00116115,-0.00013710,-0.00258358
 ,-0.00019047,0.00007515,-0.00014893,-0.00020572,0.00005934,-0.00015336
 ,0.00029447,0.00001662,0.00009498,0.00076882,-0.00021928,0.00022553,-0
 .00036775,-0.00001226,-0.00001787,-0.00005000,-0.00002798,0.00242734,0
 .36789216,-0.00006019,0.00114792,0.00573692,0.00031952,0.00036063,0.00
 709796,0.00002579,-0.00006998,-0.00094769,0.00008973,0.00018413,0.0055
 8863,0.00002757,0.00007917,0.00360564,0.00038151,0.01399990,-0.0410174
 7,-0.00009746,-0.00019975,-0.00416207,0.00016610,0.00005707,0.00036300
 ,0.00004414,0.00002558,0.00105788,0.00000146,0.00004264,0.00059514,-0.
 00010115,-0.00022102,-0.00405344,-0.00002401,0.00001753,-0.00054170,-0
 .00001473,-0.00002761,-0.00067743,-0.00075428,-0.01536735,0.02745105,-
 0.00007765,-0.00008022,0.00000689,-0.00017399,0.00025085,-0.00000644,0
 .00054233,0.00004562,-0.00001829,-0.00009182,-0.00038107,0.00003431,0.
 00162682,0.00219491,-0.00002979,-0.00002339,0.00030384,-0.00002039,0.0
 0746178,-0.00594167,0.00018623,-0.41981142,-0.17732552,0.01563880,0.00
 032812,0.00031840,-0.00001655,-0.00511264,0.00550163,-0.00026111,0.000
 00631,-0.00000355,0.00000059,-0.00000705,-0.00000451,-0.00000014,0.000
 02085,0.00001726,-0.00000407,0.00014064,-0.00015705,0.00000136,0.41545
 801,-0.00015115,0.00032810,-0.00000853,0.00006723,0.00022227,-0.000007
 39,0.00060448,-0.00051323,-0.00000274,-0.00215265,-0.00023783,0.000087
 34,0.00326618,-0.00529168,0.00041994,0.00105141,0.00027660,-0.00004949
 ,-0.05276181,-0.03169660,0.00257210,-0.12818574,-0.10637946,0.00648153
 ,0.00133418,0.00176255,-0.00009333,0.00263755,0.00975699,-0.00075150,0
 .00001818,0.00001743,0.00000006,-0.00000474,0.00003070,-0.00000236,-0.
 00011732,-0.00005369,-0.00000239,-0.00052238,0.00044360,-0.00001594,0.
 17602693,0.13456440,0.00001023,-0.00000935,0.00007064,0.00000241,-0.00
 001195,0.00008519,-0.00004498,0.00000878,-0.00030865,0.00011610,0.0000
 5465,0.00077602,-0.00007915,0.00043987,0.00532616,-0.00005441,-0.00003
 478,-0.00035383,0.00231082,0.00169034,0.00295119,0.01340951,0.00740586
 ,-0.01730880,-0.00006249,-0.00007565,0.00024272,-0.00013191,-0.0008064
 9,-0.00571054,-0.00000042,0.00000048,0.00002637,-0.00000011,-0.0000023
 8,-0.00002437,0.00000208,-0.00000465,-0.00015234,0.00001795,-0.0000230
 8,-0.00013675,-0.01555023,-0.00878966,0.01459233,0.00019709,0.00042023
 ,0.00026581,-0.00005364,-0.00001045,-0.00114301,0.00099713,0.00088739,
 -0.00048804,-0.00324920,0.02133170,0.02267686,-0.00257734,-0.00050629,
 0.00160734,-0.00070678,0.00052654,-0.00125332,-0.00126543,0.00060347,0
 .00069471,0.00023412,-0.00049931,-0.00044067,-0.05458162,0.01433855,0.
 01885735,-0.00066689,-0.00342525,0.00202438,0.00000793,-0.00007149,0.0
 0016752,0.00001153,-0.00003610,0.00001116,-0.00058778,-0.00078707,0.00
 082856,-0.00021015,0.00004761,-0.00025396,0.00004646,0.00010136,0.0000
 0257,0.05446995,0.00020908,0.00075660,-0.00014104,0.00054646,-0.001213
 00,0.00074857,-0.00239355,0.00202120,0.00012837,0.00422074,-0.01189642
 ,-0.00812144,0.00207392,-0.00007465,-0.00057399,-0.00068731,-0.0006218
 9,0.00062110,0.00027821,-0.00052291,-0.00024409,-0.00003335,0.00033811
 ,-0.00037731,0.01464463,-0.18737419,-0.17265953,-0.00119773,-0.0010825
 1,0.00168200,0.00000766,-0.00001346,-0.00013530,-0.00006496,0.00005689
 ,-0.00000414,-0.00013785,-0.00000822,-0.00048479,0.00016199,-0.0000265
 7,0.00009993,-0.00005326,-0.00007865,0.00000916,-0.02093371,0.19332026
 ,0.00005441,0.00049986,-0.00000966,0.00024113,-0.00040593,0.00028711,-
 0.00116378,0.00058330,0.00043601,0.00378577,0.00165756,0.00654660,-0.0
 0104532,0.00105107,-0.00038263,-0.00037059,0.00033740,-0.00021282,-0.0
 0007753,-0.00095308,0.00043769,0.00000385,0.00070566,-0.00002906,0.018
 07906,-0.16266584,-0.27666900,0.00059626,0.00209851,-0.00084689,-0.000
 00049,0.00002224,-0.00005642,-0.00007791,0.00004647,0.00002171,0.00037
 547,0.00006189,-0.00014006,-0.00009996,0.00006178,0.00001830,-0.000061
 81,-0.00010271,0.00006777,-0.01831832,0.17940238,0.28895507,0.00000892
 ,-0.00048566,0.00002528,-0.00049485,-0.00123053,0.00006856,-0.00246367
 ,0.00248331,-0.00004865,-0.03224816,-0.01165697,0.00112579,-0.00182535
 ,0.00036737,0.00003541,-0.00014398,-0.00190302,0.00007967,0.02096220,0
 .00544274,-0.00064785,-0.00554622,0.00578625,-0.00010542,-0.16442905,-
 0.09775309,0.00629395,-0.02425999,0.00792718,-0.00014793,-0.00005516,-
 0.00002974,0.00000242,-0.00005024,0.00008907,-0.00000405,-0.00025817,-
 0.00024614,0.00001213,0.00069469,-0.00011062,-0.00000878,-0.00038209,-
 0.00131590,0.00006335,0.00767417,0.00561768,-0.00309554,0.19415309,-0.
 00077260,-0.00171538,0.00009981,0.00048299,0.00117384,-0.00004883,0.00
 495899,-0.00584037,0.00020210,0.00102965,0.02628161,-0.00125674,-0.003
 55342,-0.00067000,0.00014008,0.00140582,-0.00303564,0.00009009,0.04517
 947,-0.02073547,0.00005968,-0.00941362,0.01323428,-0.00029770,-0.08507
 097,-0.13588196,0.00471524,-0.01873675,0.02768302,-0.00148363,-0.00024
 530,-0.00023675,0.00001512,0.00057008,-0.00041273,0.00000505,-0.001062
 11,-0.00065567,0.00003975,0.00090946,-0.00014833,-0.00001116,-0.000665
 26,-0.00308193,0.00014383,-0.00881607,-0.00993503,-0.00035033,0.080449
 25,0.12210980,0.00003769,0.00009363,0.00017149,-0.00000814,-0.00001762
 ,0.00025504,-0.00016372,0.00024633,0.00068139,0.00053975,-0.00100780,-
 0.00094234,0.00021168,0.00006506,0.00091550,-0.00006897,0.00015231,-0.
 00044986,-0.00243439,0.00080451,-0.00052503,0.00057919,-0.00057270,0.0
 0286440,0.00571114,0.00494035,-0.06837502,0.00104620,-0.00199810,-0.01
 347350,0.00001202,0.00001117,-0.00000167,-0.00002553,0.00001503,-0.000
 04198,0.00004903,0.00002557,-0.00020156,-0.00005389,0.00000882,0.00000
 242,0.00003364,0.00015408,-0.00019919,-0.02343449,-0.01853725,0.004180
 92,-0.00597578,-0.00379209,0.07379866,0.00018388,0.00037454,-0.0003082
 0,-0.00001986,0.00011063,0.00115367,0.00105969,0.00090173,0.00038442,-
 0.00431588,0.01915819,-0.02411895,-0.00259015,-0.00068856,-0.00146943,
 -0.00064666,0.00062231,0.00122035,-0.00127801,0.00057733,-0.00068591,0
 .00024883,-0.00048289,0.00047594,-0.05636387,0.01817022,-0.02935873,-0
 .00075843,-0.00365357,-0.00170572,0.00000156,-0.00008700,-0.00016325,0
 .00001409,-0.00003857,-0.00000780,-0.00063019,-0.00085694,-0.00073903,
 -0.00019586,0.00006811,0.00025737,0.00004871,0.00010419,-0.00001132,0.
 00026045,-0.00225866,0.00117530,0.00866386,-0.00664962,0.02394456,0.05
 631784,0.00020694,0.00071589,0.00006876,0.00049653,-0.00123212,-0.0006
 3228,-0.00228576,0.00194335,-0.00017782,0.00422328,-0.01119186,0.00962
 907,0.00217757,-0.00012687,0.00046728,-0.00066958,-0.00070285,-0.00055
 500,0.00030813,-0.00041155,0.00031241,-0.00002222,0.00030777,0.0003480
 8,0.01892590,-0.15770021,0.16113725,-0.00130931,-0.00140055,-0.0015850
 6,0.00001256,-0.00000367,0.00013021,-0.00005738,0.00005283,0.00000345,
 -0.00015212,0.00002950,0.00047526,0.00016651,-0.00004114,-0.00010169,-
 0.00004733,-0.00006956,0.00000503,-0.00317111,0.01635445,-0.02205026,0
 .00656882,-0.00813331,0.01940868,-0.02537143,0.16160991,-0.00007963,-0
 .00058145,0.00004256,-0.00027721,0.00054057,0.00027374,0.00135511,-0.0
 0075679,0.00044694,-0.00376988,-0.00076266,0.00689319,0.00093323,-0.00
 105079,-0.00031374,0.00045129,-0.00031650,-0.00019389,0.00011935,0.001
 00732,0.00034600,-0.00001214,-0.00071816,-0.00001427,-0.02861823,0.151
 16919,-0.30446286,-0.00047856,-0.00190102,-0.00042787,-0.00000291,-0.0
 0002366,-0.00006002,0.00008377,-0.00004796,0.00002289,-0.00034427,-0.0
 0004372,-0.00013677,0.00009334,-0.00005913,0.00001962,0.00006704,0.000
 11101,0.00005609,-0.00180444,0.01858736,-0.02260463,0.00232744,0.00172
 975,0.00134031,0.02995671,-0.16688336,0.31877271\\-0.00001314,-0.00001
 722,-0.00000192,-0.00000913,0.00000982,-0.00000181,0.00000577,0.000007
 84,0.00000164,0.00003442,-0.00004496,-0.00000086,-0.00002832,0.0000135
 0,-0.00000174,0.00002527,0.00000179,0.00001456,-0.00002597,0.00003388,
 -0.00000269,0.00000008,-0.00001106,-0.00000564,-0.00002900,0.00003731,
 -0.00004528,0.00002774,-0.00001716,0.00000604,0.00000146,0.00000149,0.
 00000488,0.00000278,-0.00000398,0.00000151,-0.00000054,-0.00000208,-0.
 00000733,-0.00000375,-0.00000014,-0.00000757,0.00000024,0.00000233,0.0
 0000080,-0.00000703,-0.00002018,0.00001505,0.00000829,0.00001259,0.000
 02315,0.00001082,-0.00000378,0.00000721\\\@


 DO NOT LET SELFISH MEN OR GREEDY INTERESTS SKIN YOUR COUNTRY OF ITS
 BEAUTY, ITS RICHES, OR ITS ROMANCE. -- THEODORE ROOSEVELT
 Job cpu time:       0 days  0 hours 20 minutes 30.9 seconds.
 File lengths (MBytes):  RWF=    100 Int=      0 D2E=      0 Chk=      5 Scr=      1
 Normal termination of Gaussian 09 at Sat Jun 22 16:31:20 2024.
