 Entering Gaussian System, Link 0=g09
 Input=b3lypAnthranilic.gjf
 Output=b3lypAnthranilic.log
 Initial command:
 /home/phzd/g09E/g09/l1.exe "/home/phzd/g09E/scratch/Gau-153601.inp" -scrdir="/home/phzd/g09E/scratch/"
 Default is to use a total of  18 processors:
                               18 via shared-memory
                                1 via Linda
 Entering Link 1 = /home/phzd/g09E/g09/l1.exe PID=    153603.
  
 Copyright (c) 1988,1990,1992,1993,1995,1998,2003,2009,2015,
            Gaussian, Inc.  All Rights Reserved.
  
 This is part of the Gaussian(R) 09 program.  It is based on
 the Gaussian(R) 03 system (copyright 2003, Gaussian, Inc.),
 the Gaussian(R) 98 system (copyright 1998, Gaussian, Inc.),
 the Gaussian(R) 94 system (copyright 1995, Gaussian, Inc.),
 the Gaussian 92(TM) system (copyright 1992, Gaussian, Inc.),
 the Gaussian 90(TM) system (copyright 1990, Gaussian, Inc.),
 the Gaussian 88(TM) system (copyright 1988, Gaussian, Inc.),
 the Gaussian 86(TM) system (copyright 1986, Carnegie Mellon
 University), and the Gaussian 82(TM) system (copyright 1983,
 Carnegie Mellon University). Gaussian is a federally registered
 trademark of Gaussian, Inc.
  
 This software contains proprietary and confidential information,
 including trade secrets, belonging to Gaussian, Inc.
  
 This software is provided under written license and may be
 used, copied, transmitted, or stored only in accord with that
 written license.
  
 The following legend is applicable only to US Government
 contracts under FAR:
  
                    RESTRICTED RIGHTS LEGEND
  
 Use, reproduction and disclosure by the US Government is
 subject to restrictions as set forth in subparagraphs (a)
 and (c) of the Commercial Computer Software - Restricted
 Rights clause in FAR 52.227-19.
  
 Gaussian, Inc.
 340 Quinnipiac St., Bldg. 40, Wallingford CT 06492
  
  
 ---------------------------------------------------------------
 Warning -- This program may not be used in any manner that
 competes with the business of Gaussian, Inc. or will provide
 assistance to any competitor of Gaussian, Inc.  The licensee
 of this program is prohibited from giving any competitor of
 Gaussian, Inc. access to this program.  By using this program,
 the user acknowledges that Gaussian, Inc. is engaged in the
 business of creating and licensing software in the field of
 computational chemistry and represents and warrants to the
 licensee that it is not a competitor of Gaussian, Inc. and that
 it will not use this program in any manner prohibited above.
 ---------------------------------------------------------------
  

 Cite this work as:
 Gaussian 09, Revision E.01,
 M. J. Frisch, G. W. Trucks, H. B. Schlegel, G. E. Scuseria, 
 M. A. Robb, J. R. Cheeseman, G. Scalmani, V. Barone, B. Mennucci, 
 G. A. Petersson, H. Nakatsuji, M. Caricato, X. Li, H. P. Hratchian, 
 A. F. Izmaylov, J. Bloino, G. Zheng, J. L. Sonnenberg, M. Hada, 
 M. Ehara, K. Toyota, R. Fukuda, J. Hasegawa, M. Ishida, T. Nakajima, 
 Y. Honda, O. Kitao, H. Nakai, T. Vreven, J. A. Montgomery, Jr., 
 J. E. Peralta, F. Ogliaro, M. Bearpark, J. J. Heyd, E. Brothers, 
 K. N. Kudin, V. N. Staroverov, T. Keith, R. Kobayashi, J. Normand, 
 K. Raghavachari, A. Rendell, J. C. Burant, S. S. Iyengar, J. Tomasi, 
 M. Cossi, N. Rega, J. M. Millam, M. Klene, J. E. Knox, J. B. Cross, 
 V. Bakken, C. Adamo, J. Jaramillo, R. Gomperts, R. E. Stratmann, 
 O. Yazyev, A. J. Austin, R. Cammi, C. Pomelli, J. W. Ochterski, 
 R. L. Martin, K. Morokuma, V. G. Zakrzewski, G. A. Voth, 
 P. Salvador, J. J. Dannenberg, S. Dapprich, A. D. Daniels, 
 O. Farkas, J. B. Foresman, J. V. Ortiz, J. Cioslowski, 
 and D. J. Fox, Gaussian, Inc., Wallingford CT, 2013.
 
 ******************************************
 Gaussian 09:  ES64L-G09RevE.01 30-Nov-2015
                22-Jun-2024 
 ******************************************
 %chk=b3lypAnthranilic.chk
 ----------------------------
 # opt freq b3lyp/6-31+g(d,p)
 ----------------------------
 1/14=-1,18=20,19=15,26=3,38=1/1,3;
 2/9=110,12=2,17=6,18=5,40=1/2;
 3/5=1,6=6,7=111,11=2,16=1,25=1,30=1,71=1,74=-5/1,2,3;
 4//1;
 5/5=2,38=5/2;
 6/7=2,8=2,9=2,10=2,28=1/1;
 7//1,2,3,16;
 1/14=-1,18=20,19=15,26=3/3(2);
 2/9=110/2;
 99//99;
 2/9=110/2;
 3/5=1,6=6,7=111,11=2,16=1,25=1,30=1,71=1,74=-5/1,2,3;
 4/5=5,16=3,69=1/1;
 5/5=2,38=5/2;
 7//1,2,3,16;
 1/14=-1,18=20,19=15,26=3/3(-5);
 2/9=110/2;
 6/7=2,8=2,9=2,10=2,19=2,28=1/1;
 99/9=1/99;
 ----------
 [No Title]
 ----------
 Symbolic Z-matrix:
 Charge =  0 Multiplicity = 1
 C                    -2.01818   0.46687  -0.00093 
 C                    -2.04512  -0.87176   0.00009 
 C                    -0.88855  -1.54881   0.00051 
 C                     0.2937   -0.90488   0.00004 
 C                     0.33409   0.44672  -0.00082 
 C                    -0.84093   1.11039  -0.00141 
 C                     1.48486   1.18758  -0.00116 
 O                     1.45999   2.54666  -0.00248 
 N                     1.30948  -1.66505   0.0004 
 O                     2.60872   0.73333  -0.00015 
 H                    -2.96395   1.03489  -0.0013 
 H                    -3.00835  -1.40877   0.00053 
 H                    -0.93601  -2.65225   0.00123 
 H                    -0.88979   2.21237  -0.00218 
 H                     2.37592   2.86791  -0.002 
 H                     2.29128  -1.30555  -0.00001 
 H                     1.18471  -2.70711   0.00101 
 

 GradGradGradGradGradGradGradGradGradGradGradGradGradGradGradGradGradGrad
 Berny optimization.
 Initialization pass.
                           ----------------------------
                           !    Initial Parameters    !
                           ! (Angstroms and Degrees)  !
 --------------------------                            --------------------------
 ! Name  Definition              Value          Derivative Info.                !
 --------------------------------------------------------------------------------
 ! R1    R(1,2)                  1.3389         estimate D2E/DX2                !
 ! R2    R(1,6)                  1.3417         estimate D2E/DX2                !
 ! R3    R(1,11)                 1.1032         estimate D2E/DX2                !
 ! R4    R(2,3)                  1.3402         estimate D2E/DX2                !
 ! R5    R(2,12)                 1.1028         estimate D2E/DX2                !
 ! R6    R(3,4)                  1.3462         estimate D2E/DX2                !
 ! R7    R(3,13)                 1.1045         estimate D2E/DX2                !
 ! R8    R(4,5)                  1.3522         estimate D2E/DX2                !
 ! R9    R(4,9)                  1.2687         estimate D2E/DX2                !
 ! R10   R(5,6)                  1.3495         estimate D2E/DX2                !
 ! R11   R(5,7)                  1.3686         estimate D2E/DX2                !
 ! R12   R(6,14)                 1.1031         estimate D2E/DX2                !
 ! R13   R(7,8)                  1.3593         estimate D2E/DX2                !
 ! R14   R(7,10)                 1.2122         estimate D2E/DX2                !
 ! R15   R(8,15)                 0.9706         estimate D2E/DX2                !
 ! R16   R(9,16)                 1.0455         estimate D2E/DX2                !
 ! R17   R(9,17)                 1.0495         estimate D2E/DX2                !
 ! A1    A(2,1,6)              119.8152         estimate D2E/DX2                !
 ! A2    A(2,1,11)             119.8359         estimate D2E/DX2                !
 ! A3    A(6,1,11)             120.3489         estimate D2E/DX2                !
 ! A4    A(1,2,3)              119.1916         estimate D2E/DX2                !
 ! A5    A(1,2,12)             120.2932         estimate D2E/DX2                !
 ! A6    A(3,2,12)             120.5151         estimate D2E/DX2                !
 ! A7    A(2,3,4)              121.0802         estimate D2E/DX2                !
 ! A8    A(2,3,13)             117.8816         estimate D2E/DX2                !
 ! A9    A(4,3,13)             121.0381         estimate D2E/DX2                !
 ! A10   A(3,4,5)              120.2869         estimate D2E/DX2                !
 ! A11   A(3,4,9)              114.6153         estimate D2E/DX2                !
 ! A12   A(5,4,9)              125.0977         estimate D2E/DX2                !
 ! A13   A(4,5,6)              117.7471         estimate D2E/DX2                !
 ! A14   A(4,5,7)              124.485          estimate D2E/DX2                !
 ! A15   A(6,5,7)              117.7678         estimate D2E/DX2                !
 ! A16   A(1,6,5)              121.8789         estimate D2E/DX2                !
 ! A17   A(1,6,14)             116.1236         estimate D2E/DX2                !
 ! A18   A(5,6,14)             121.9976         estimate D2E/DX2                !
 ! A19   A(5,7,8)              121.7253         estimate D2E/DX2                !
 ! A20   A(5,7,10)             125.2183         estimate D2E/DX2                !
 ! A21   A(8,7,10)             113.0564         estimate D2E/DX2                !
 ! A22   A(7,8,15)             108.2791         estimate D2E/DX2                !
 ! A23   A(4,9,16)             123.0799         estimate D2E/DX2                !
 ! A24   A(4,9,17)             119.9816         estimate D2E/DX2                !
 ! A25   A(16,9,17)            116.9385         estimate D2E/DX2                !
 ! D1    D(6,1,2,3)             -0.005          estimate D2E/DX2                !
 ! D2    D(6,1,2,12)           179.9983         estimate D2E/DX2                !
 ! D3    D(11,1,2,3)           179.9983         estimate D2E/DX2                !
 ! D4    D(11,1,2,12)            0.0015         estimate D2E/DX2                !
 ! D5    D(2,1,6,5)             -0.0042         estimate D2E/DX2                !
 ! D6    D(2,1,6,14)          -179.9961         estimate D2E/DX2                !
 ! D7    D(11,1,6,5)           179.9925         estimate D2E/DX2                !
 ! D8    D(11,1,6,14)            0.0007         estimate D2E/DX2                !
 ! D9    D(1,2,3,4)              0.0063         estimate D2E/DX2                !
 ! D10   D(1,2,3,13)          -179.9929         estimate D2E/DX2                !
 ! D11   D(12,2,3,4)          -179.9969         estimate D2E/DX2                !
 ! D12   D(12,2,3,13)            0.0039         estimate D2E/DX2                !
 ! D13   D(2,3,4,5)              0.0015         estimate D2E/DX2                !
 ! D14   D(2,3,4,9)           -179.9942         estimate D2E/DX2                !
 ! D15   D(13,3,4,5)          -179.9994         estimate D2E/DX2                !
 ! D16   D(13,3,4,9)             0.005          estimate D2E/DX2                !
 ! D17   D(3,4,5,6)             -0.0103         estimate D2E/DX2                !
 ! D18   D(3,4,5,7)            179.9905         estimate D2E/DX2                !
 ! D19   D(9,4,5,6)            179.9849         estimate D2E/DX2                !
 ! D20   D(9,4,5,7)             -0.0143         estimate D2E/DX2                !
 ! D21   D(3,4,9,16)           179.9915         estimate D2E/DX2                !
 ! D22   D(3,4,9,17)             0.0            estimate D2E/DX2                !
 ! D23   D(5,4,9,16)            -0.0039         estimate D2E/DX2                !
 ! D24   D(5,4,9,17)          -179.9954         estimate D2E/DX2                !
 ! D25   D(4,5,6,1)              0.0118         estimate D2E/DX2                !
 ! D26   D(4,5,6,14)          -179.9969         estimate D2E/DX2                !
 ! D27   D(7,5,6,1)           -179.989          estimate D2E/DX2                !
 ! D28   D(7,5,6,14)             0.0024         estimate D2E/DX2                !
 ! D29   D(4,5,7,8)            179.9783         estimate D2E/DX2                !
 ! D30   D(4,5,7,10)            -0.0332         estimate D2E/DX2                !
 ! D31   D(6,5,7,8)             -0.0209         estimate D2E/DX2                !
 ! D32   D(6,5,7,10)           179.9676         estimate D2E/DX2                !
 ! D33   D(5,7,8,15)           179.9699         estimate D2E/DX2                !
 ! D34   D(10,7,8,15)           -0.02           estimate D2E/DX2                !
 --------------------------------------------------------------------------------
 Trust Radius=3.00D-01 FncErr=1.00D-07 GrdErr=1.00D-06
 Number of steps in this run=     86 maximum allowed number of steps=    102.
 GradGradGradGradGradGradGradGradGradGradGradGradGradGradGradGradGradGrad

                          Input orientation:                          
 ---------------------------------------------------------------------
 Center     Atomic      Atomic             Coordinates (Angstroms)
 Number     Number       Type             X           Y           Z
 ---------------------------------------------------------------------
      1          6           0       -2.018185    0.466871   -0.000925
      2          6           0       -2.045123   -0.871756    0.000092
      3          6           0       -0.888554   -1.548805    0.000506
      4          6           0        0.293696   -0.904882    0.000044
      5          6           0        0.334085    0.446718   -0.000823
      6          6           0       -0.840931    1.110394   -0.001413
      7          6           0        1.484856    1.187584   -0.001159
      8          8           0        1.459991    2.546664   -0.002477
      9          7           0        1.309481   -1.665045    0.000401
     10          8           0        2.608718    0.733326   -0.000154
     11          1           0       -2.963947    1.034888   -0.001303
     12          1           0       -3.008355   -1.408774    0.000528
     13          1           0       -0.936014   -2.652245    0.001225
     14          1           0       -0.889792    2.212373   -0.002182
     15          1           0        2.375923    2.867908   -0.002001
     16          1           0        2.291278   -1.305550   -0.000012
     17          1           0        1.184710   -2.707108    0.001009
 ---------------------------------------------------------------------
                    Distance matrix (angstroms):
                    1          2          3          4          5
     1  C    0.000000
     2  C    1.338898   0.000000
     3  C    2.310632   1.340167   0.000000
     4  C    2.688215   2.339054   1.346236   0.000000
     5  C    2.352356   2.720111   2.340291   1.352204   0.000000
     6  C    1.341659   2.319267   2.659626   2.312730   1.349492
     7  C    3.576412   4.086763   3.622279   2.407754   1.368633
     8  O    4.052561   4.896062   4.721074   3.643271   2.382738
     9  N    3.952016   3.447126   2.201106   1.268727   2.326143
    10  O    4.634569   4.922857   4.176007   2.836028   2.292619
    11  H    1.103227   2.116490   3.314020   3.791431   3.350069
    12  H    2.120963   1.102817   2.124421   3.340277   3.822925
    13  H    3.301512   2.097681   1.104460   2.136695   3.349138
    14  H    2.078473   3.293425   3.761179   3.334356   2.148352
    15  H    5.007311   5.790573   5.492192   4.309248   3.167217
    16  H    4.659715   4.358044   3.189123   2.037368   2.626985
    17  H    4.509178   3.714881   2.374887   2.010454   3.266525
                    6          7          8          9         10
     6  C    0.000000
     7  C    2.327068   0.000000
     8  O    2.712400   1.359308   0.000000
     9  N    3.511031   2.858015   4.214398   0.000000
    10  O    3.470196   1.212195   2.146573   2.727673   0.000000
    11  H    2.124358   4.451423   4.675114   5.054882   5.580819
    12  H    3.323242   5.189414   5.967547   4.325434   6.011664
    13  H    3.763841   4.539262   5.724466   2.452919   4.901757
    14  H    1.103062   2.586338   2.373443   4.457710   3.798310
    15  H    3.665652   1.901970   0.970633   4.656712   2.147239
    16  H    3.955695   2.620312   3.940888   1.045544   2.063440
    17  H    4.321637   3.906241   5.260980   1.049506   3.723491
                   11         12         13         14         15
    11  H    0.000000
    12  H    2.444066   0.000000
    13  H    4.208024   2.416778   0.000000
    14  H    2.385077   4.195357   4.864839   0.000000
    15  H    5.645722   6.876079   6.437470   3.330859   0.000000
    16  H    5.752829   5.300638   3.496999   4.742889   4.174317
    17  H    5.586940   4.389472   2.121434   5.338994   5.700860
                   16         17
    16  H    0.000000
    17  H    1.785738   0.000000
 Stoichiometry    C7H7NO2
 Framework group  C1[X(C7H7NO2)]
 Deg. of freedom    45
 Full point group                 C1      NOp   1
 Largest Abelian subgroup         C1      NOp   1
 Largest concise Abelian subgroup C1      NOp   1
                         Standard orientation:                         
 ---------------------------------------------------------------------
 Center     Atomic      Atomic             Coordinates (Angstroms)
 Number     Number       Type             X           Y           Z
 ---------------------------------------------------------------------
      1          6           0       -1.694666   -1.530944   -0.000066
      2          6           0       -2.475469   -0.443287   -0.000187
      3          6           0       -1.906236    0.769981   -0.000049
      4          6           0       -0.567241    0.909428    0.000081
      5          6           0        0.231996   -0.181294    0.000044
      6          6           0       -0.360014   -1.393999    0.000089
      7          6           0        1.599993   -0.139560   -0.000020
      8          8           0        2.349705   -1.273425    0.000384
      9          7           0       -0.161104    2.111393    0.000320
     10          8           0        2.268534    0.871612   -0.000625
     11          1           0       -2.152000   -2.534913   -0.000149
     12          1           0       -3.573426   -0.546696   -0.000344
     13          1           0       -2.570665    1.652232   -0.000032
     14          1           0        0.224226   -2.329632    0.000115
     15          1           0        3.286410   -1.019040   -0.000230
     16          1           0        0.851546    2.371588    0.000575
     17          1           0       -0.854449    2.899262    0.000400
 ---------------------------------------------------------------------
 Rotational constants (GHZ):      2.4998982      1.2768062      0.8451510
 Standard basis: 6-31+G(d,p) (6D, 7F)
 There are   225 symmetry adapted cartesian basis functions of A   symmetry.
 There are   225 symmetry adapted basis functions of A   symmetry.
   225 basis functions,   369 primitive gaussians,   225 cartesian basis functions
    36 alpha electrons       36 beta electrons
       nuclear repulsion energy       516.8739568893 Hartrees.
 NAtoms=   17 NActive=   17 NUniq=   17 SFac= 1.00D+00 NAtFMM=   60 NAOKFM=F Big=F
 Integral buffers will be    131072 words long.
 Raffenetti 2 integral format.
 Two-electron integral symmetry is turned on.
 One-electron integrals computed using PRISM.
 NBasis=   225 RedAO= T EigKep=  1.77D-06  NBF=   225
 NBsUse=   225 1.00D-06 EigRej= -1.00D+00 NBFU=   225
 ExpMin= 4.38D-02 ExpMax= 5.48D+03 ExpMxC= 8.25D+02 IAcc=2 IRadAn=         4 AccDes= 0.00D+00
 Harris functional with IExCor=  402 and IRadAn=       4 diagonalized for initial guess.
 HarFok:  IExCor=  402 AccDes= 0.00D+00 IRadAn=         4 IDoV= 1 UseB2=F ITyADJ=14
 ICtDFT=  3500011 ScaDFX=  1.000000  1.000000  1.000000  1.000000
 FoFCou: FMM=F IPFlag=           0 FMFlag=      100000 FMFlg1=           0
         NFxFlg=           0 DoJE=T BraDBF=F KetDBF=T FulRan=T
         wScrn=  0.000000 ICntrl=     500 IOpCl=  0 I1Cent=   200000004 NGrid=           0
         NMat0=    1 NMatS0=      1 NMatT0=    0 NMatD0=    1 NMtDS0=    0 NMtDT0=    0
 Petite list used in FoFCou.
 Keep R1 ints in memory in canonical form, NReq=329175655.
 Requested convergence on RMS density matrix=1.00D-08 within 128 cycles.
 Requested convergence on MAX density matrix=1.00D-06.
 Requested convergence on             energy=1.00D-06.
 No special actions if energy rises.
 SCF Done:  E(RB3LYP) =  -476.171712253     A.U. after   15 cycles
            NFock= 15  Conv=0.36D-08     -V/T= 2.0064

 **********************************************************************

            Population analysis using the SCF density.

 **********************************************************************

 Orbital symmetries:
       Occupied  (A) (A) (A) (A) (A) (A) (A) (A) (A) (A) (A) (A)
                 (A) (A) (A) (A) (A) (A) (A) (A) (A) (A) (A) (A)
                 (A) (A) (A) (A) (A) (A) (A) (A) (A) (A) (A) (A)
       Virtual   (A) (A) (A) (A) (A) (A) (A) (A) (A) (A) (A) (A)
                 (A) (A) (A) (A) (A) (A) (A) (A) (A) (A) (A) (A)
                 (A) (A) (A) (A) (A) (A) (A) (A) (A) (A) (A) (A)
                 (A) (A) (A) (A) (A) (A) (A) (A) (A) (A) (A) (A)
                 (A) (A) (A) (A) (A) (A) (A) (A) (A) (A) (A) (A)
                 (A) (A) (A) (A) (A) (A) (A) (A) (A) (A) (A) (A)
                 (A) (A) (A) (A) (A) (A) (A) (A) (A) (A) (A) (A)
                 (A) (A) (A) (A) (A) (A) (A) (A) (A) (A) (A) (A)
                 (A) (A) (A) (A) (A) (A) (A) (A) (A) (A) (A) (A)
                 (A) (A) (A) (A) (A) (A) (A) (A) (A) (A) (A) (A)
                 (A) (A) (A) (A) (A) (A) (A) (A) (A) (A) (A) (A)
                 (A) (A) (A) (A) (A) (A) (A) (A) (A) (A) (A) (A)
                 (A) (A) (A) (A) (A) (A) (A) (A) (A) (A) (A) (A)
                 (A) (A) (A) (A) (A) (A) (A) (A) (A) (A) (A) (A)
                 (A) (A) (A) (A) (A) (A) (A) (A) (A) (A) (A) (A)
                 (A) (A) (A) (A) (A) (A) (A) (A) (A)
 The electronic state is 1-A.
 Alpha  occ. eigenvalues --  -19.19018 -19.13527 -14.36277 -10.31385 -10.23880
 Alpha  occ. eigenvalues --  -10.19581 -10.19293 -10.18887 -10.18457 -10.17561
 Alpha  occ. eigenvalues --   -1.11356  -1.01013  -0.97427  -0.87910  -0.80172
 Alpha  occ. eigenvalues --   -0.74759  -0.67701  -0.64400  -0.60584  -0.55516
 Alpha  occ. eigenvalues --   -0.53489  -0.51542  -0.48395  -0.47186  -0.46609
 Alpha  occ. eigenvalues --   -0.44044  -0.43555  -0.41643  -0.40182  -0.36976
 Alpha  occ. eigenvalues --   -0.35952  -0.34205  -0.31846  -0.27718  -0.27563
 Alpha  occ. eigenvalues --   -0.21579
 Alpha virt. eigenvalues --   -0.04896  -0.00649   0.00570   0.00909   0.01327
 Alpha virt. eigenvalues --    0.03056   0.04358   0.05092   0.05146   0.05962
 Alpha virt. eigenvalues --    0.06471   0.07530   0.07999   0.09070   0.10009
 Alpha virt. eigenvalues --    0.11546   0.12759   0.12788   0.13553   0.13892
 Alpha virt. eigenvalues --    0.14628   0.15526   0.16641   0.17548   0.17653
 Alpha virt. eigenvalues --    0.17916   0.18349   0.19455   0.19968   0.20402
 Alpha virt. eigenvalues --    0.20935   0.21858   0.22249   0.22821   0.23657
 Alpha virt. eigenvalues --    0.23899   0.24867   0.24990   0.25126   0.26692
 Alpha virt. eigenvalues --    0.27237   0.28303   0.29352   0.29423   0.29668
 Alpha virt. eigenvalues --    0.31735   0.32198   0.33912   0.34608   0.35593
 Alpha virt. eigenvalues --    0.36892   0.39573   0.40994   0.42316   0.44668
 Alpha virt. eigenvalues --    0.48355   0.49606   0.51577   0.54904   0.63827
 Alpha virt. eigenvalues --    0.65550   0.66804   0.69480   0.69743   0.70328
 Alpha virt. eigenvalues --    0.72330   0.73514   0.74092   0.75230   0.77084
 Alpha virt. eigenvalues --    0.78490   0.78582   0.82673   0.84772   0.86260
 Alpha virt. eigenvalues --    0.88237   0.89825   0.91317   0.94164   0.94719
 Alpha virt. eigenvalues --    0.95902   0.99714   1.00974   1.03751   1.03921
 Alpha virt. eigenvalues --    1.08709   1.10696   1.12151   1.13100   1.14522
 Alpha virt. eigenvalues --    1.16155   1.17034   1.21974   1.22321   1.22381
 Alpha virt. eigenvalues --    1.26527   1.28257   1.30029   1.30187   1.33537
 Alpha virt. eigenvalues --    1.33824   1.36603   1.37925   1.39406   1.39921
 Alpha virt. eigenvalues --    1.41196   1.41655   1.43113   1.43752   1.47479
 Alpha virt. eigenvalues --    1.49708   1.57892   1.59477   1.66832   1.72150
 Alpha virt. eigenvalues --    1.75823   1.76451   1.83163   1.84915   1.86165
 Alpha virt. eigenvalues --    1.87136   1.90521   1.91581   1.95852   1.98776
 Alpha virt. eigenvalues --    2.01221   2.03336   2.04753   2.05942   2.07810
 Alpha virt. eigenvalues --    2.08216   2.10014   2.11797   2.18072   2.22688
 Alpha virt. eigenvalues --    2.23528   2.24390   2.30519   2.32245   2.35006
 Alpha virt. eigenvalues --    2.36717   2.38461   2.41362   2.44563   2.45545
 Alpha virt. eigenvalues --    2.47187   2.49086   2.53066   2.53332   2.54580
 Alpha virt. eigenvalues --    2.56110   2.61165   2.61480   2.62152   2.64104
 Alpha virt. eigenvalues --    2.67553   2.68439   2.69680   2.75761   2.79968
 Alpha virt. eigenvalues --    2.80190   2.85924   2.88678   2.89634   2.99991
 Alpha virt. eigenvalues --    3.05288   3.09653   3.14345   3.21081   3.23456
 Alpha virt. eigenvalues --    3.24257   3.28246   3.35732   3.37998   3.46618
 Alpha virt. eigenvalues --    3.49450   3.56782   3.80588   3.99985   4.20755
 Alpha virt. eigenvalues --    4.26862   4.31585   4.34247   4.40874   4.50111
 Alpha virt. eigenvalues --    4.53586   4.59864   4.80900   5.00346
          Condensed to atoms (all electrons):
               1          2          3          4          5          6
     1  C    9.444644   0.416239   0.454427  -0.439478  -1.014416  -3.400003
     2  C    0.416239   6.651751  -0.955815   2.102370  -2.197539   0.313336
     3  C    0.454427  -0.955815  13.216038   1.071002  -3.931872  -4.160497
     4  C   -0.439478   2.102370   1.071002  30.937186 -14.290275  -9.384089
     5  C   -1.014416  -2.197539  -3.931872 -14.290275  24.218051   1.583396
     6  C   -3.400003   0.313336  -4.160497  -9.384089   1.583396  21.614650
     7  C    0.026365  -0.198516  -0.265549  -2.292353   0.497465  -0.148481
     8  O    0.189903   0.002996  -0.052233  -0.361397  -0.226626   0.165653
     9  N   -0.008000   0.076460  -0.180660  -0.151921  -0.032210   0.255372
    10  O    0.079868  -0.002547   0.044176   0.001965  -0.187805  -0.197234
    11  H    0.171923   0.027714   0.009781   0.000091  -0.002995   0.103602
    12  H    0.075351   0.147591   0.127082  -0.071950   0.008599   0.018699
    13  H    0.016755   0.098721   0.102755   0.065293   0.068181  -0.046287
    14  H    0.088391   0.016301  -0.004733   0.069432   0.067860   0.069388
    15  H   -0.015925  -0.001345   0.009279   0.010060   0.109978  -0.028728
    16  H    0.006937   0.001852   0.210810   0.283585  -0.393016  -0.086103
    17  H   -0.008001   0.005579  -0.253665  -0.115448   0.301003   0.053796
               7          8          9         10         11         12
     1  C    0.026365   0.189903  -0.008000   0.079868   0.171923   0.075351
     2  C   -0.198516   0.002996   0.076460  -0.002547   0.027714   0.147591
     3  C   -0.265549  -0.052233  -0.180660   0.044176   0.009781   0.127082
     4  C   -2.292353  -0.361397  -0.151921   0.001965   0.000091  -0.071950
     5  C    0.497465  -0.226626  -0.032210  -0.187805  -0.002995   0.008599
     6  C   -0.148481   0.165653   0.255372  -0.197234   0.103602   0.018699
     7  C    6.895043   0.302412  -0.157535   0.449476  -0.001230   0.000185
     8  O    0.302412   8.523553   0.004966  -0.219865   0.000093   0.000015
     9  N   -0.157535   0.004966   7.273587  -0.005080   0.000347  -0.000804
    10  O    0.449476  -0.219865  -0.005080   8.565830   0.000048  -0.000013
    11  H   -0.001230   0.000093   0.000347   0.000048   0.585292  -0.006394
    12  H    0.000185   0.000015  -0.000804  -0.000013  -0.006394   0.584790
    13  H    0.015393   0.000005  -0.032049  -0.000076  -0.000252  -0.006920
    14  H   -0.005947  -0.001409  -0.001476   0.001128  -0.007123  -0.000241
    15  H   -0.050102   0.194552  -0.000383   0.007475  -0.000000  -0.000000
    16  H   -0.012380   0.000394   0.285406   0.023526  -0.000001   0.000005
    17  H    0.004027   0.000260   0.299437   0.001360  -0.000000  -0.000044
              13         14         15         16         17
     1  C    0.016755   0.088391  -0.015925   0.006937  -0.008001
     2  C    0.098721   0.016301  -0.001345   0.001852   0.005579
     3  C    0.102755  -0.004733   0.009279   0.210810  -0.253665
     4  C    0.065293   0.069432   0.010060   0.283585  -0.115448
     5  C    0.068181   0.067860   0.109978  -0.393016   0.301003
     6  C   -0.046287   0.069388  -0.028728  -0.086103   0.053796
     7  C    0.015393  -0.005947  -0.050102  -0.012380   0.004027
     8  O    0.000005  -0.001409   0.194552   0.000394   0.000260
     9  N   -0.032049  -0.001476  -0.000383   0.285406   0.299437
    10  O   -0.000076   0.001128   0.007475   0.023526   0.001360
    11  H   -0.000252  -0.007123  -0.000000  -0.000001  -0.000000
    12  H   -0.006920  -0.000241  -0.000000   0.000005  -0.000044
    13  H    0.603296   0.000021  -0.000000   0.000246   0.009481
    14  H    0.000021   0.551681   0.000106  -0.000002   0.000005
    15  H   -0.000000   0.000106   0.377778   0.000020  -0.000001
    16  H    0.000246  -0.000002   0.000020   0.359126  -0.027442
    17  H    0.009481   0.000005  -0.000001  -0.027442   0.431108
 Mulliken charges:
               1
     1  C   -0.084981
     2  C   -0.505150
     3  C    0.559674
     4  C   -1.434075
     5  C    1.422221
     6  C   -0.726472
     7  C    0.941725
     8  O   -0.523271
     9  N   -0.625456
    10  O   -0.562234
    11  H    0.119105
    12  H    0.124047
    13  H    0.105436
    14  H    0.156617
    15  H    0.387236
    16  H    0.347035
    17  H    0.298544
 Sum of Mulliken charges =  -0.00000
 Mulliken charges with hydrogens summed into heavy atoms:
               1
     1  C    0.034124
     2  C   -0.381103
     3  C    0.665110
     4  C   -1.434075
     5  C    1.422221
     6  C   -0.569855
     7  C    0.941725
     8  O   -0.136035
     9  N    0.020123
    10  O   -0.562234
 Electronic spatial extent (au):  <R**2>=           1308.7791
 Charge=             -0.0000 electrons
 Dipole moment (field-independent basis, Debye):
    X=             -1.7587    Y=              1.0792    Z=              0.0006  Tot=              2.0634
 Quadrupole moment (field-independent basis, Debye-Ang):
   XX=            -53.2394   YY=            -51.3503   ZZ=            -61.2465
   XY=             -4.8238   XZ=              0.0006   YZ=              0.0058
 Traceless Quadrupole moment (field-independent basis, Debye-Ang):
   XX=              2.0393   YY=              3.9285   ZZ=             -5.9678
   XY=             -4.8238   XZ=              0.0006   YZ=              0.0058
 Octapole moment (field-independent basis, Debye-Ang**2):
  XXX=             21.0265  YYY=             27.5396  ZZZ=             -0.0009  XYY=             -7.3081
  XXY=            -11.0213  XXZ=             -0.0047  XZZ=             10.8235  YZZ=              1.2336
  YYZ=              0.0055  XYZ=              0.0090
 Hexadecapole moment (field-independent basis, Debye-Ang**3):
 XXXX=           -905.4664 YYYY=           -499.9378 ZZZZ=            -67.7416 XXXY=            -65.6300
 XXXZ=             -0.0057 YYYX=            -12.5430 YYYZ=              0.0243 ZZZX=             -0.0040
 ZZZY=             -0.0007 XXYY=           -266.6047 XXZZ=           -199.5444 YYZZ=           -123.0217
 XXYZ=              0.0287 YYXZ=             -0.0008 ZZXY=             -4.0966
 N-N= 5.168739568893D+02 E-N=-2.144467470653D+03  KE= 4.731469287705D+02
 Calling FoFJK, ICntrl=      2127 FMM=F ISym2X=0 I1Cent= 0 IOpClX= 0 NMat=1 NMatS=1 NMatT=0.
 ***** Axes restored to original set *****
 -------------------------------------------------------------------
 Center     Atomic                   Forces (Hartrees/Bohr)
 Number     Number              X              Y              Z
 -------------------------------------------------------------------
      1        6          -0.058915511    0.053188386   -0.000037059
      2        6          -0.048655550   -0.046113730    0.000033165
      3        6          -0.046134581   -0.060383226    0.000047784
      4        6          -0.016730529   -0.001242103    0.000001408
      5        6          -0.020385604    0.030174485   -0.000045347
      6        6          -0.031370436    0.067033713   -0.000043758
      7        6           0.070443524    0.048078089   -0.000004791
      8        8          -0.033475773    0.016537493   -0.000027571
      9        7           0.132827461   -0.089308712    0.000038945
     10        8           0.041927494   -0.037666778    0.000040078
     11        1           0.009799861   -0.003978233    0.000000917
     12        1           0.009035177    0.003666424   -0.000003575
     13        1           0.005651107    0.010447557   -0.000005611
     14        1           0.008517447   -0.011597677    0.000006740
     15        1          -0.000756388   -0.008114364   -0.000000022
     16        1          -0.026789675   -0.004450744    0.000019829
     17        1           0.005011977    0.033729420   -0.000021132
 -------------------------------------------------------------------
 Cartesian Forces:  Max     0.132827461 RMS     0.035324588

 GradGradGradGradGradGradGradGradGradGradGradGradGradGradGradGradGradGrad
 Berny optimization.
 FormGI is forming the generalized inverse of G from B-inverse, IUseBI=4.
 Internal  Forces:  Max     0.124877225 RMS     0.028657850
 Search for a local minimum.
 Step number   1 out of a maximum of   86
 All quantities printed in internal units (Hartrees-Bohrs-Radians)
 Mixed Optimization -- RFO/linear search
 Second derivative matrix not updated -- first step.
 ITU=  0
     Eigenvalues ---    0.02230   0.02426   0.02504   0.02669   0.02748
     Eigenvalues ---    0.02804   0.02819   0.02837   0.02876   0.02878
     Eigenvalues ---    0.02889   0.02968   0.03428   0.03428   0.16000
     Eigenvalues ---    0.16000   0.16000   0.16000   0.16000   0.16000
     Eigenvalues ---    0.16000   0.22000   0.22490   0.24477   0.25000
     Eigenvalues ---    0.25000   0.25000   0.25000   0.33194   0.33328
     Eigenvalues ---    0.33346   0.33373   0.39945   0.40500   0.49648
     Eigenvalues ---    0.49874   0.51240   0.53088   0.53248   0.55127
     Eigenvalues ---    0.56274   0.56358   0.57197   0.76684   0.98927
 RFO step:  Lambda=-9.83351580D-02 EMin= 2.23005642D-02
 Linear search not attempted -- first point.
 Maximum step size (   0.300) exceeded in Quadratic search.
    -- Step size scaled by   0.724
 Iteration  1 RMS(Cart)=  0.06312428 RMS(Int)=  0.00129435
 Iteration  2 RMS(Cart)=  0.00202568 RMS(Int)=  0.00005302
 Iteration  3 RMS(Cart)=  0.00000210 RMS(Int)=  0.00005299
 Iteration  4 RMS(Cart)=  0.00000000 RMS(Int)=  0.00005299
 Variable       Old X    -DE/DX   Delta X   Delta X   Delta X     New X
                                 (Linear)    (Quad)   (Total)
    R1        2.53015   0.07448   0.00000   0.07931   0.07921   2.60936
    R2        2.53537   0.05073   0.00000   0.05438   0.05429   2.58966
    R3        2.08480  -0.01045   0.00000  -0.01753  -0.01753   2.06727
    R4        2.53255   0.05490   0.00000   0.05922   0.05920   2.59175
    R5        2.08402  -0.00968   0.00000  -0.01621  -0.01621   2.06781
    R6        2.54402   0.08340   0.00000   0.09267   0.09276   2.63677
    R7        2.08713  -0.01068   0.00000  -0.01797  -0.01797   2.06916
    R8        2.55529   0.07875   0.00000   0.08941   0.08951   2.64480
    R9        2.39755   0.12488   0.00000   0.10449   0.10449   2.50204
   R10        2.55017   0.07294   0.00000   0.08137   0.08138   2.63155
   R11        2.58634   0.07590   0.00000   0.08997   0.08997   2.67631
   R12        2.08449  -0.01196   0.00000  -0.02006  -0.02006   2.06443
   R13        2.56872   0.00905   0.00000   0.01041   0.01041   2.57913
   R14        2.29072   0.05299   0.00000   0.03527   0.03527   2.32599
   R15        1.83423  -0.00340   0.00000  -0.00390  -0.00390   1.83033
   R16        1.97579  -0.02669   0.00000  -0.03838  -0.03838   1.93741
   R17        1.98328  -0.03409   0.00000  -0.04957  -0.04957   1.93371
    A1        2.09117  -0.00341   0.00000  -0.01114  -0.01133   2.07984
    A2        2.09153   0.00341   0.00000   0.01035   0.01044   2.10197
    A3        2.10049   0.00000   0.00000   0.00079   0.00089   2.10137
    A4        2.08029   0.00754   0.00000   0.01499   0.01487   2.09515
    A5        2.09951  -0.00252   0.00000  -0.00400  -0.00394   2.09557
    A6        2.10339  -0.00502   0.00000  -0.01099  -0.01093   2.09246
    A7        2.11325   0.00335   0.00000   0.00861   0.00868   2.12193
    A8        2.05742   0.00375   0.00000   0.01089   0.01086   2.06828
    A9        2.11251  -0.00710   0.00000  -0.01950  -0.01954   2.09298
   A10        2.09940  -0.01701   0.00000  -0.03267  -0.03247   2.06693
   A11        2.00041   0.03658   0.00000   0.07468   0.07458   2.07500
   A12        2.18337  -0.01957   0.00000  -0.04201  -0.04211   2.14126
   A13        2.05508   0.00828   0.00000   0.01880   0.01892   2.07400
   A14        2.17267  -0.02340   0.00000  -0.04942  -0.04948   2.12319
   A15        2.05544   0.01512   0.00000   0.03062   0.03056   2.08600
   A16        2.12719   0.00125   0.00000   0.00141   0.00133   2.12852
   A17        2.02674   0.00771   0.00000   0.02265   0.02269   2.04943
   A18        2.12926  -0.00896   0.00000  -0.02406  -0.02402   2.10524
   A19        2.12451  -0.03462   0.00000  -0.07195  -0.07195   2.05255
   A20        2.18547  -0.00469   0.00000  -0.00975  -0.00975   2.17572
   A21        1.97321   0.03931   0.00000   0.08171   0.08171   2.05491
   A22        1.88983  -0.01359   0.00000  -0.03807  -0.03807   1.85175
   A23        2.14815  -0.00727   0.00000  -0.02036  -0.02036   2.12779
   A24        2.09407   0.00459   0.00000   0.01287   0.01287   2.10694
   A25        2.04096   0.00268   0.00000   0.00750   0.00750   2.04846
    D1       -0.00009   0.00000   0.00000   0.00002   0.00002  -0.00007
    D2        3.14156  -0.00000   0.00000   0.00000   0.00000   3.14156
    D3        3.14156   0.00000   0.00000   0.00001   0.00001   3.14157
    D4        0.00003  -0.00000   0.00000  -0.00001  -0.00001   0.00002
    D5       -0.00007   0.00000   0.00000   0.00001   0.00001  -0.00006
    D6       -3.14152  -0.00000   0.00000  -0.00001  -0.00002  -3.14154
    D7        3.14146   0.00000   0.00000   0.00002   0.00002   3.14148
    D8        0.00001  -0.00000   0.00000  -0.00001  -0.00001   0.00001
    D9        0.00011  -0.00000   0.00000  -0.00002  -0.00002   0.00009
   D10       -3.14147  -0.00000   0.00000  -0.00003  -0.00003  -3.14149
   D11       -3.14154  -0.00000   0.00000  -0.00000  -0.00000  -3.14154
   D12        0.00007  -0.00000   0.00000  -0.00001  -0.00001   0.00006
   D13        0.00003  -0.00000   0.00000  -0.00000  -0.00000   0.00002
   D14       -3.14149  -0.00000   0.00000  -0.00003  -0.00003  -3.14152
   D15       -3.14158   0.00000   0.00000   0.00000   0.00000  -3.14158
   D16        0.00009  -0.00000   0.00000  -0.00002  -0.00002   0.00006
   D17       -0.00018   0.00001   0.00000   0.00003   0.00003  -0.00015
   D18        3.14143   0.00001   0.00000   0.00003   0.00003   3.14146
   D19        3.14133   0.00001   0.00000   0.00006   0.00006   3.14139
   D20       -0.00025   0.00001   0.00000   0.00006   0.00006  -0.00019
   D21        3.14144   0.00001   0.00000   0.00007   0.00007   3.14151
   D22       -0.00000   0.00000   0.00000   0.00002   0.00002   0.00002
   D23       -0.00007   0.00001   0.00000   0.00004   0.00004  -0.00003
   D24       -3.14151  -0.00000   0.00000  -0.00001  -0.00001  -3.14152
   D25        0.00021  -0.00000   0.00000  -0.00003  -0.00003   0.00017
   D26       -3.14154   0.00000   0.00000  -0.00000  -0.00000  -3.14154
   D27       -3.14140  -0.00001   0.00000  -0.00003  -0.00003  -3.14143
   D28        0.00004   0.00000   0.00000  -0.00000  -0.00000   0.00004
   D29        3.14121  -0.00000   0.00000  -0.00001  -0.00001   3.14121
   D30       -0.00058   0.00002   0.00000   0.00009   0.00009  -0.00048
   D31       -0.00036  -0.00000   0.00000  -0.00001  -0.00001  -0.00037
   D32        3.14103   0.00002   0.00000   0.00010   0.00010   3.14112
   D33        3.14107   0.00001   0.00000   0.00008   0.00008   3.14115
   D34       -0.00035  -0.00000   0.00000  -0.00000  -0.00001  -0.00035
         Item               Value     Threshold  Converged?
 Maximum Force            0.124877     0.000450     NO 
 RMS     Force            0.028658     0.000300     NO 
 Maximum Displacement     0.306853     0.001800     NO 
 RMS     Displacement     0.063097     0.001200     NO 
 Predicted change in Energy=-4.984467D-02
 GradGradGradGradGradGradGradGradGradGradGradGradGradGradGradGradGradGrad

                          Input orientation:                          
 ---------------------------------------------------------------------
 Center     Atomic      Atomic             Coordinates (Angstroms)
 Number     Number       Type             X           Y           Z
 ---------------------------------------------------------------------
      1          6           0       -2.091598    0.502672   -0.000935
      2          6           0       -2.115097   -0.877942    0.000068
      3          6           0       -0.939726   -1.584698    0.000504
      4          6           0        0.299019   -0.942490    0.000065
      5          6           0        0.323997    0.456856   -0.000815
      6          6           0       -0.883766    1.150057   -0.001399
      7          6           0        1.542672    1.178362   -0.001139
      8          8           0        1.470657    2.541277   -0.002472
      9          7           0        1.400446   -1.677264    0.000438
     10          8           0        2.660799    0.663770   -0.000204
     11          1           0       -3.025248    1.072784   -0.001308
     12          1           0       -3.071281   -1.409981    0.000478
     13          1           0       -0.987773   -2.678593    0.001205
     14          1           0       -0.898398    2.242407   -0.002140
     15          1           0        2.385783    2.858565   -0.002084
     16          1           0        2.334262   -1.254076    0.000074
     17          1           0        1.347090   -2.699145    0.001020
 ---------------------------------------------------------------------
                    Distance matrix (angstroms):
                    1          2          3          4          5
     1  C    0.000000
     2  C    1.380814   0.000000
     3  C    2.384098   1.371496   0.000000
     4  C    2.793482   2.414979   1.395320   0.000000
     5  C    2.416030   2.780444   2.401029   1.399570   0.000000
     6  C    1.370389   2.372543   2.735328   2.403692   1.392559
     7  C    3.696549   4.196148   3.714404   2.458595   1.416241
     8  O    4.104336   4.954664   4.778454   3.675510   2.379000
     9  N    4.116611   3.605268   2.342002   1.324022   2.390232
    10  O    4.755127   5.018572   4.244925   2.856235   2.345945
    11  H    1.093952   2.152605   3.378108   3.887426   3.405410
    12  H    2.148958   1.094236   2.138704   3.402568   3.874661
    13  H    3.367326   2.124431   1.094951   2.160992   3.398792
    14  H    2.109598   3.349170   3.827328   3.402555   2.163895
    15  H    5.059364   5.849736   5.549919   4.336197   3.165306
    16  H    4.761764   4.465230   3.290640   2.058956   2.639783
    17  H    4.698533   3.911972   2.543918   2.045554   3.317690
                    6          7          8          9         10
     6  C    0.000000
     7  C    2.426603   0.000000
     8  O    2.734739   1.364817   0.000000
     9  N    3.634745   2.859165   4.219125   0.000000
    10  O    3.577767   1.230860   2.222943   2.658746   0.000000
    11  H    2.142876   4.569140   4.729655   5.210521   5.700740
    12  H    3.367346   5.290376   6.020104   4.479708   6.095670
    13  H    3.830064   4.612945   5.769830   2.589643   4.948078
    14  H    1.092448   2.662896   2.387833   4.544062   3.893582
    15  H    3.689030   1.879872   0.968569   4.641620   2.211959
    16  H    4.016909   2.558001   3.892367   1.025232   1.945445
    17  H    4.448942   3.882437   5.241879   1.023274   3.610406
                   11         12         13         14         15
    11  H    0.000000
    12  H    2.483192   0.000000
    13  H    4.268974   2.439341   0.000000
    14  H    2.427244   4.249866   4.921813   0.000000
    15  H    5.698094   6.928206   6.483904   3.341480   0.000000
    16  H    5.842827   5.407791   3.614577   4.761878   4.112964
    17  H    5.774495   4.602602   2.334953   5.427813   5.653940
                   16         17
    16  H    0.000000
    17  H    1.750067   0.000000
 Stoichiometry    C7H7NO2
 Framework group  C1[X(C7H7NO2)]
 Deg. of freedom    45
 Full point group                 C1      NOp   1
 Largest Abelian subgroup         C1      NOp   1
 Largest concise Abelian subgroup C1      NOp   1
                         Standard orientation:                         
 ---------------------------------------------------------------------
 Center     Atomic      Atomic             Coordinates (Angstroms)
 Number     Number       Type             X           Y           Z
 ---------------------------------------------------------------------
      1          6           0       -1.814656   -1.514350   -0.000069
      2          6           0       -2.554919   -0.348735   -0.000147
      3          6           0       -1.920836    0.867382   -0.000022
      4          6           0       -0.528983    0.965688    0.000079
      5          6           0        0.222314   -0.215137    0.000022
      6          6           0       -0.446474   -1.436588    0.000052
      7          6           0        1.638411   -0.194955   -0.000046
      8          8           0        2.287953   -1.395296    0.000368
      9          7           0        0.027398    2.167135    0.000280
     10          8           0        2.323900    0.827356   -0.000552
     11          1           0       -2.313795   -2.487792   -0.000147
     12          1           0       -3.648233   -0.393630   -0.000272
     13          1           0       -2.532472    1.775578    0.000006
     14          1           0        0.110880   -2.376161    0.000060
     15          1           0        3.234211   -1.188604   -0.000164
     16          1           0        1.044847    2.293228    0.000430
     17          1           0       -0.551200    3.011121    0.000380
 ---------------------------------------------------------------------
 Rotational constants (GHZ):      2.3621853      1.2390370      0.8127338
 Standard basis: 6-31+G(d,p) (6D, 7F)
 There are   225 symmetry adapted cartesian basis functions of A   symmetry.
 There are   225 symmetry adapted basis functions of A   symmetry.
   225 basis functions,   369 primitive gaussians,   225 cartesian basis functions
    36 alpha electrons       36 beta electrons
       nuclear repulsion energy       506.1940514604 Hartrees.
 NAtoms=   17 NActive=   17 NUniq=   17 SFac= 1.00D+00 NAtFMM=   60 NAOKFM=F Big=F
 Integral buffers will be    131072 words long.
 Raffenetti 2 integral format.
 Two-electron integral symmetry is turned on.
 One-electron integrals computed using PRISM.
 NBasis=   225 RedAO= T EigKep=  2.37D-06  NBF=   225
 NBsUse=   225 1.00D-06 EigRej= -1.00D+00 NBFU=   225
 Initial guess from the checkpoint file:  "b3lypAnthranilic.chk"
 B after Tr=    -0.000000    0.000000    0.000000
         Rot=    0.999708   -0.000001   -0.000001    0.024173 Ang=  -2.77 deg.
 ExpMin= 4.38D-02 ExpMax= 5.48D+03 ExpMxC= 8.25D+02 IAcc=2 IRadAn=         4 AccDes= 0.00D+00
 Harris functional with IExCor=  402 and IRadAn=       4 diagonalized for initial guess.
 HarFok:  IExCor=  402 AccDes= 0.00D+00 IRadAn=         4 IDoV= 1 UseB2=F ITyADJ=14
 ICtDFT=  3500011 ScaDFX=  1.000000  1.000000  1.000000  1.000000
 FoFCou: FMM=F IPFlag=           0 FMFlag=      100000 FMFlg1=           0
         NFxFlg=           0 DoJE=T BraDBF=F KetDBF=T FulRan=T
         wScrn=  0.000000 ICntrl=     500 IOpCl=  0 I1Cent=   200000004 NGrid=           0
         NMat0=    1 NMatS0=      1 NMatT0=    0 NMatD0=    1 NMtDS0=    0 NMtDT0=    0
 Petite list used in FoFCou.
 Keep R1 ints in memory in canonical form, NReq=329175655.
 Requested convergence on RMS density matrix=1.00D-08 within 128 cycles.
 Requested convergence on MAX density matrix=1.00D-06.
 Requested convergence on             energy=1.00D-06.
 No special actions if energy rises.
 SCF Done:  E(RB3LYP) =  -476.217455799     A.U. after   14 cycles
            NFock= 14  Conv=0.28D-08     -V/T= 2.0086
 Calling FoFJK, ICntrl=      2127 FMM=F ISym2X=0 I1Cent= 0 IOpClX= 0 NMat=1 NMatS=1 NMatT=0.
 ***** Axes restored to original set *****
 -------------------------------------------------------------------
 Center     Atomic                   Forces (Hartrees/Bohr)
 Number     Number              X              Y              Z
 -------------------------------------------------------------------
      1        6          -0.020291325    0.018474871   -0.000011385
      2        6          -0.013496194   -0.015759785    0.000008358
      3        6          -0.014061819   -0.021720092    0.000016467
      4        6          -0.008996889   -0.001734047   -0.000000484
      5        6          -0.017356808    0.012463813   -0.000024599
      6        6          -0.011542136    0.022817931   -0.000009149
      7        6           0.036400452    0.015517847    0.000004660
      8        8          -0.011712222   -0.001556757    0.000004333
      9        7           0.047231621   -0.036207201    0.000017507
     10        8           0.007680773   -0.004047552   -0.000003061
     11        1           0.005135459   -0.002422720    0.000000176
     12        1           0.004799403    0.001520725   -0.000001803
     13        1           0.003658071    0.004759002   -0.000001929
     14        1           0.005570621   -0.005465324    0.000002996
     15        1           0.001956886   -0.001026731   -0.000004190
     16        1          -0.013075561    0.000434085    0.000010927
     17        1          -0.001900330    0.013951936   -0.000008825
 -------------------------------------------------------------------
 Cartesian Forces:  Max     0.047231621 RMS     0.013209401

 GradGradGradGradGradGradGradGradGradGradGradGradGradGradGradGradGradGrad
 Berny optimization.
 Using GEDIIS/GDIIS optimizer.
 FormGI is forming the generalized inverse of G from B-inverse, IUseBI=4.
 Internal  Forces:  Max     0.038941291 RMS     0.009333940
 Search for a local minimum.
 Step number   2 out of a maximum of   86
 All quantities printed in internal units (Hartrees-Bohrs-Radians)
 Mixed Optimization -- RFO/linear search
 Update second derivatives using D2CorX and points    1    2
 DE= -4.57D-02 DEPred=-4.98D-02 R= 9.18D-01
 TightC=F SS=  1.41D+00  RLast= 3.00D-01 DXNew= 5.0454D-01 9.0000D-01
 Trust test= 9.18D-01 RLast= 3.00D-01 DXMaxT set to 5.05D-01
 ITU=  1  0
 Use linear search instead of GDIIS.
     Eigenvalues ---    0.02230   0.02421   0.02504   0.02671   0.02748
     Eigenvalues ---    0.02806   0.02820   0.02838   0.02876   0.02878
     Eigenvalues ---    0.02889   0.02977   0.03428   0.03428   0.15850
     Eigenvalues ---    0.16000   0.16000   0.16000   0.16000   0.16000
     Eigenvalues ---    0.16105   0.21994   0.22489   0.24505   0.24667
     Eigenvalues ---    0.25000   0.25000   0.27725   0.33178   0.33278
     Eigenvalues ---    0.33345   0.33365   0.39883   0.40410   0.49293
     Eigenvalues ---    0.50077   0.50371   0.53092   0.53241   0.54912
     Eigenvalues ---    0.56326   0.57142   0.60510   0.77236   1.00413
 RFO step:  Lambda=-4.08108480D-03 EMin= 2.23005642D-02
 Quartic linear search produced a step of  0.53744.
 Iteration  1 RMS(Cart)=  0.03780078 RMS(Int)=  0.00076657
 Iteration  2 RMS(Cart)=  0.00091565 RMS(Int)=  0.00003516
 Iteration  3 RMS(Cart)=  0.00000027 RMS(Int)=  0.00003516
 Variable       Old X    -DE/DX   Delta X   Delta X   Delta X     New X
                                 (Linear)    (Quad)   (Total)
    R1        2.60936   0.02505   0.04257   0.00808   0.05058   2.65994
    R2        2.58966   0.01579   0.02918   0.00255   0.03167   2.62133
    R3        2.06727  -0.00565  -0.00942  -0.01248  -0.02190   2.04537
    R4        2.59175   0.01484   0.03182  -0.00399   0.02781   2.61957
    R5        2.06781  -0.00493  -0.00871  -0.01020  -0.01891   2.04889
    R6        2.63677   0.02162   0.04985  -0.00820   0.04171   2.67848
    R7        2.06916  -0.00492  -0.00966  -0.00890  -0.01856   2.05059
    R8        2.64480   0.02962   0.04811   0.01838   0.06656   2.71136
    R9        2.50204   0.03894   0.05616   0.00261   0.05877   2.56081
   R10        2.63155   0.02065   0.04374  -0.00169   0.04206   2.67362
   R11        2.67631   0.03407   0.04835   0.03549   0.08384   2.76015
   R12        2.06443  -0.00554  -0.01078  -0.01007  -0.02085   2.04358
   R13        2.57913  -0.00207   0.00559  -0.01355  -0.00796   2.57117
   R14        2.32599   0.00867   0.01896  -0.01168   0.00728   2.33327
   R15        1.83033   0.00151  -0.00210   0.00719   0.00509   1.83542
   R16        1.93741  -0.01173  -0.02063  -0.01553  -0.03616   1.90125
   R17        1.93371  -0.01383  -0.02664  -0.01578  -0.04242   1.89129
    A1        2.07984  -0.00123  -0.00609  -0.00227  -0.00849   2.07135
    A2        2.10197   0.00125   0.00561   0.00311   0.00879   2.11076
    A3        2.10137  -0.00002   0.00048  -0.00083  -0.00029   2.10108
    A4        2.09515   0.00341   0.00799   0.00823   0.01613   2.11129
    A5        2.09557  -0.00067  -0.00212   0.00270   0.00063   2.09620
    A6        2.09246  -0.00274  -0.00587  -0.01093  -0.01676   2.07569
    A7        2.12193  -0.00000   0.00467  -0.00763  -0.00292   2.11901
    A8        2.06828   0.00356   0.00583   0.02464   0.03045   2.09873
    A9        2.09298  -0.00356  -0.01050  -0.01701  -0.02753   2.06545
   A10        2.06693  -0.00341  -0.01745   0.00680  -0.01052   2.05641
   A11        2.07500   0.00445   0.04008  -0.03214   0.00788   2.08288
   A12        2.14126  -0.00104  -0.02263   0.02533   0.00264   2.14389
   A13        2.07400   0.00135   0.01017  -0.00377   0.00649   2.08048
   A14        2.12319  -0.00314  -0.02659   0.01807  -0.00856   2.11463
   A15        2.08600   0.00179   0.01642  -0.01431   0.00208   2.08807
   A16        2.12852  -0.00011   0.00072  -0.00136  -0.00069   2.12783
   A17        2.04943   0.00573   0.01219   0.03456   0.04678   2.09620
   A18        2.10524  -0.00562  -0.01291  -0.03320  -0.04609   2.05915
   A19        2.05255  -0.01465  -0.03867  -0.03267  -0.07134   1.98122
   A20        2.17572   0.00678  -0.00524   0.04859   0.04335   2.21907
   A21        2.05491   0.00787   0.04391  -0.01592   0.02799   2.08290
   A22        1.85175  -0.00295  -0.02046   0.00378  -0.01669   1.83507
   A23        2.12779  -0.00579  -0.01094  -0.03739  -0.04833   2.07945
   A24        2.10694   0.00035   0.00691  -0.00732  -0.00040   2.10654
   A25        2.04846   0.00543   0.00403   0.04471   0.04874   2.09719
    D1       -0.00007   0.00000   0.00001   0.00009   0.00010   0.00003
    D2        3.14156   0.00000   0.00000   0.00001   0.00001   3.14158
    D3        3.14157   0.00000   0.00000   0.00003   0.00003  -3.14158
    D4        0.00002  -0.00000  -0.00000  -0.00005  -0.00005  -0.00004
    D5       -0.00006   0.00000   0.00001   0.00005   0.00005  -0.00001
    D6       -3.14154  -0.00000  -0.00001  -0.00010  -0.00011   3.14154
    D7        3.14148   0.00000   0.00001   0.00011   0.00012  -3.14158
    D8        0.00001  -0.00000  -0.00000  -0.00004  -0.00004  -0.00004
    D9        0.00009  -0.00000  -0.00001  -0.00009  -0.00010  -0.00001
   D10       -3.14149  -0.00000  -0.00001  -0.00013  -0.00015   3.14155
   D11       -3.14154  -0.00000  -0.00000  -0.00002  -0.00002  -3.14156
   D12        0.00006  -0.00000  -0.00001  -0.00006  -0.00006  -0.00000
   D13        0.00002  -0.00000  -0.00000  -0.00005  -0.00005  -0.00003
   D14       -3.14152  -0.00000  -0.00002  -0.00015  -0.00016   3.14150
   D15       -3.14158   0.00000   0.00000  -0.00000  -0.00000  -3.14158
   D16        0.00006  -0.00000  -0.00001  -0.00010  -0.00012  -0.00006
   D17       -0.00015   0.00000   0.00002   0.00018   0.00019   0.00004
   D18        3.14146   0.00000   0.00002   0.00020   0.00021  -3.14151
   D19        3.14139   0.00001   0.00003   0.00028   0.00031  -3.14148
   D20       -0.00019   0.00001   0.00003   0.00030   0.00033   0.00015
   D21        3.14151   0.00001   0.00004   0.00030   0.00034  -3.14133
   D22        0.00002   0.00000   0.00001   0.00008   0.00010   0.00012
   D23       -0.00003   0.00001   0.00002   0.00020   0.00022   0.00019
   D24       -3.14152  -0.00000  -0.00000  -0.00002  -0.00002  -3.14154
   D25        0.00017  -0.00000  -0.00002  -0.00018  -0.00020  -0.00003
   D26       -3.14154  -0.00000  -0.00000  -0.00003  -0.00003  -3.14157
   D27       -3.14143  -0.00001  -0.00002  -0.00021  -0.00022   3.14153
   D28        0.00004  -0.00000  -0.00000  -0.00005  -0.00005  -0.00002
   D29        3.14121   0.00000  -0.00000   0.00009   0.00009   3.14130
   D30       -0.00048   0.00001   0.00005   0.00040   0.00045  -0.00004
   D31       -0.00037   0.00000  -0.00000   0.00011   0.00011  -0.00026
   D32        3.14112   0.00001   0.00005   0.00042   0.00047   3.14159
   D33        3.14115   0.00001   0.00004   0.00042   0.00047  -3.14157
   D34       -0.00035   0.00000  -0.00000   0.00014   0.00014  -0.00022
         Item               Value     Threshold  Converged?
 Maximum Force            0.038941     0.000450     NO 
 RMS     Force            0.009334     0.000300     NO 
 Maximum Displacement     0.132167     0.001800     NO 
 RMS     Displacement     0.037576     0.001200     NO 
 Predicted change in Energy=-6.617794D-03
 GradGradGradGradGradGradGradGradGradGradGradGradGradGradGradGradGradGrad

                          Input orientation:                          
 ---------------------------------------------------------------------
 Center     Atomic      Atomic             Coordinates (Angstroms)
 Number     Number       Type             X           Y           Z
 ---------------------------------------------------------------------
      1          6           0       -2.120423    0.526252   -0.000860
      2          6           0       -2.142260   -0.881161   -0.000102
      3          6           0       -0.964853   -1.612804    0.000361
      4          6           0        0.301039   -0.975218    0.000078
      5          6           0        0.328355    0.459313   -0.000739
      6          6           0       -0.893270    1.172996   -0.001172
      7          6           0        1.592406    1.191127   -0.001175
      8          8           0        1.437127    2.542843   -0.002314
      9          7           0        1.425451   -1.731560    0.000661
     10          8           0        2.730739    0.712891   -0.000882
     11          1           0       -3.040053    1.097035   -0.001214
     12          1           0       -3.088571   -1.410354    0.000170
     13          1           0       -0.995314   -2.697504    0.000989
     14          1           0       -0.849623    2.253530   -0.001806
     15          1           0        2.339593    2.901882   -0.002509
     16          1           0        2.322455   -1.275911    0.000687
     17          1           0        1.369038   -2.730795    0.001184
 ---------------------------------------------------------------------
                    Distance matrix (angstroms):
                    1          2          3          4          5
     1  C    0.000000
     2  C    1.407582   0.000000
     3  C    2.431235   1.386214   0.000000
     4  C    2.849191   2.445109   1.417391   0.000000
     5  C    2.449693   2.810838   2.442552   1.434791   0.000000
     6  C    1.387149   2.404067   2.786720   2.457885   1.414818
     7  C    3.771891   4.271078   3.794945   2.522039   1.460609
     8  O    4.089353   4.953365   4.799888   3.696953   2.360186
     9  N    4.203682   3.667662   2.393252   1.355122   2.450214
    10  O    4.854751   5.127097   4.366493   2.958574   2.415730
    11  H    1.082364   2.172393   3.413164   3.931555   3.428245
    12  H    2.165122   1.084228   2.133345   3.417425   3.895002
    13  H    3.414451   2.148160   1.085128   2.155644   3.423098
    14  H    2.144393   3.390751   3.868051   3.427658   2.146357
    15  H    5.053253   5.865017   5.594798   4.380367   3.164052
    16  H    4.794472   4.482132   3.304526   2.043658   2.643376
    17  H    4.773331   3.968672   2.587846   2.054914   3.355564
                    6          7          8          9         10
     6  C    0.000000
     7  C    2.485742   0.000000
     8  O    2.703189   1.360606   0.000000
     9  N    3.716573   2.927453   4.274421   0.000000
    10  O    3.653100   1.234711   2.241017   2.771123   0.000000
    11  H    2.148127   4.633415   4.704838   5.285989   5.783564
    12  H    3.390140   5.355301   6.009136   4.525435   6.194557
    13  H    3.871846   4.670948   5.777372   2.606367   5.051166
    14  H    1.081415   2.663120   2.304980   4.588781   3.897764
    15  H    3.666122   1.866808   0.971263   4.722759   2.223663
    16  H    4.042033   2.572791   3.920038   1.006097   2.030280
    17  H    4.511942   3.928278   5.274079   1.000826   3.703135
                   11         12         13         14         15
    11  H    0.000000
    12  H    2.507859   0.000000
    13  H    4.310394   2.457332   0.000000
    14  H    2.476986   4.293825   4.953178   0.000000
    15  H    5.674333   6.932557   6.517265   3.254452   0.000000
    16  H    5.864074   5.412696   3.609503   4.745423   4.177830
    17  H    5.838867   4.649068   2.364586   5.455818   5.715683
                   16         17
    16  H    0.000000
    17  H    1.739451   0.000000
 Stoichiometry    C7H7NO2
 Framework group  C1[X(C7H7NO2)]
 Deg. of freedom    45
 Full point group                 C1      NOp   1
 Largest Abelian subgroup         C1      NOp   1
 Largest concise Abelian subgroup C1      NOp   1
                         Standard orientation:                         
 ---------------------------------------------------------------------
 Center     Atomic      Atomic             Coordinates (Angstroms)
 Number     Number       Type             X           Y           Z
 ---------------------------------------------------------------------
      1          6           0       -1.835729   -1.543991   -0.000071
      2          6           0       -2.584012   -0.351783    0.000075
      3          6           0       -1.956457    0.884245    0.000116
      4          6           0       -0.543420    0.995267    0.000025
      5          6           0        0.223606   -0.217291   -0.000079
      6          6           0       -0.451072   -1.460882   -0.000140
      7          6           0        1.683917   -0.187801   -0.000077
      8          8           0        2.251869   -1.424199    0.000188
      9          7           0        0.026013    2.224943   -0.000040
     10          8           0        2.409427    0.811273   -0.000030
     11          1           0       -2.326240   -2.508828   -0.000111
     12          1           0       -3.667572   -0.389822    0.000116
     13          1           0       -2.544819    1.796020    0.000184
     14          1           0        0.146406   -2.362259   -0.000199
     15          1           0        3.209726   -1.263383    0.000179
     16          1           0        1.029283    2.300312   -0.000333
     17          1           0       -0.540236    3.050179    0.000078
 ---------------------------------------------------------------------
 Rotational constants (GHZ):      2.2771638      1.2083611      0.7894467
 Standard basis: 6-31+G(d,p) (6D, 7F)
 There are   225 symmetry adapted cartesian basis functions of A   symmetry.
 There are   225 symmetry adapted basis functions of A   symmetry.
   225 basis functions,   369 primitive gaussians,   225 cartesian basis functions
    36 alpha electrons       36 beta electrons
       nuclear repulsion energy       499.4577666805 Hartrees.
 NAtoms=   17 NActive=   17 NUniq=   17 SFac= 1.00D+00 NAtFMM=   60 NAOKFM=F Big=F
 Integral buffers will be    131072 words long.
 Raffenetti 2 integral format.
 Two-electron integral symmetry is turned on.
 One-electron integrals computed using PRISM.
 NBasis=   225 RedAO= T EigKep=  2.81D-06  NBF=   225
 NBsUse=   225 1.00D-06 EigRej= -1.00D+00 NBFU=   225
 Initial guess from the checkpoint file:  "b3lypAnthranilic.chk"
 B after Tr=    -0.000000   -0.000000   -0.000000
         Rot=    0.999997    0.000001    0.000001    0.002504 Ang=   0.29 deg.
 ExpMin= 4.38D-02 ExpMax= 5.48D+03 ExpMxC= 8.25D+02 IAcc=2 IRadAn=         4 AccDes= 0.00D+00
 Harris functional with IExCor=  402 and IRadAn=       4 diagonalized for initial guess.
 HarFok:  IExCor=  402 AccDes= 0.00D+00 IRadAn=         4 IDoV= 1 UseB2=F ITyADJ=14
 ICtDFT=  3500011 ScaDFX=  1.000000  1.000000  1.000000  1.000000
 FoFCou: FMM=F IPFlag=           0 FMFlag=      100000 FMFlg1=           0
         NFxFlg=           0 DoJE=T BraDBF=F KetDBF=T FulRan=T
         wScrn=  0.000000 ICntrl=     500 IOpCl=  0 I1Cent=   200000004 NGrid=           0
         NMat0=    1 NMatS0=      1 NMatT0=    0 NMatD0=    1 NMtDS0=    0 NMtDT0=    0
 Petite list used in FoFCou.
 Keep R1 ints in memory in canonical form, NReq=329175655.
 Requested convergence on RMS density matrix=1.00D-08 within 128 cycles.
 Requested convergence on MAX density matrix=1.00D-06.
 Requested convergence on             energy=1.00D-06.
 No special actions if energy rises.
 SCF Done:  E(RB3LYP) =  -476.224314422     A.U. after   13 cycles
            NFock= 13  Conv=0.97D-08     -V/T= 2.0095
 Calling FoFJK, ICntrl=      2127 FMM=F ISym2X=0 I1Cent= 0 IOpClX= 0 NMat=1 NMatS=1 NMatT=0.
 ***** Axes restored to original set *****
 -------------------------------------------------------------------
 Center     Atomic                   Forces (Hartrees/Bohr)
 Number     Number              X              Y              Z
 -------------------------------------------------------------------
      1        6           0.003738296   -0.001593073   -0.000000220
      2        6           0.002570217    0.000746815    0.000001605
      3        6          -0.000971214    0.003046608   -0.000004177
      4        6          -0.006886155    0.006210241    0.000006346
      5        6          -0.004082913   -0.005783530    0.000010269
      6        6          -0.000587836   -0.003355714   -0.000001781
      7        6           0.008073413    0.000280543   -0.000033759
      8        8           0.002169710    0.000587669    0.000012418
      9        7           0.004173698    0.003268567   -0.000003389
     10        8          -0.008412392   -0.002317344    0.000016973
     11        1          -0.001519450    0.000463665   -0.000000010
     12        1          -0.001630051   -0.000503503   -0.000000733
     13        1          -0.000462330   -0.001289457    0.000000406
     14        1          -0.000129944    0.001328602    0.000000851
     15        1          -0.000263229    0.001371969   -0.000002645
     16        1           0.004911126    0.002317885   -0.000006392
     17        1          -0.000690945   -0.004779943    0.000004236
 -------------------------------------------------------------------
 Cartesian Forces:  Max     0.008412392 RMS     0.002869823

 GradGradGradGradGradGradGradGradGradGradGradGradGradGradGradGradGradGrad
 Berny optimization.
 Using GEDIIS/GDIIS optimizer.
 FormGI is forming the generalized inverse of G from B-inverse, IUseBI=4.
 Internal  Forces:  Max     0.009827420 RMS     0.002871222
 Search for a local minimum.
 Step number   3 out of a maximum of   86
 All quantities printed in internal units (Hartrees-Bohrs-Radians)
 Mixed Optimization -- RFO/linear search
 Update second derivatives using D2CorX and points    1    2    3
 DE= -6.86D-03 DEPred=-6.62D-03 R= 1.04D+00
 TightC=F SS=  1.41D+00  RLast= 2.18D-01 DXNew= 8.4853D-01 6.5290D-01
 Trust test= 1.04D+00 RLast= 2.18D-01 DXMaxT set to 6.53D-01
 ITU=  1  1  0
 Use linear search instead of GDIIS.
     Eigenvalues ---    0.02230   0.02423   0.02504   0.02671   0.02748
     Eigenvalues ---    0.02808   0.02820   0.02839   0.02876   0.02878
     Eigenvalues ---    0.02889   0.02980   0.03428   0.03428   0.15236
     Eigenvalues ---    0.16000   0.16000   0.16000   0.16000   0.16006
     Eigenvalues ---    0.16152   0.21937   0.22350   0.24112   0.24525
     Eigenvalues ---    0.25000   0.25708   0.27441   0.33215   0.33338
     Eigenvalues ---    0.33357   0.33624   0.40142   0.41378   0.47030
     Eigenvalues ---    0.50167   0.50982   0.53209   0.53278   0.55710
     Eigenvalues ---    0.56388   0.56996   0.59047   0.73166   1.01735
 RFO step:  Lambda=-1.54474733D-03 EMin= 2.23005613D-02
 Quartic linear search produced a step of -0.09873.
 Iteration  1 RMS(Cart)=  0.04104118 RMS(Int)=  0.00058273
 Iteration  2 RMS(Cart)=  0.00093036 RMS(Int)=  0.00000141
 Iteration  3 RMS(Cart)=  0.00000028 RMS(Int)=  0.00000141
 Variable       Old X    -DE/DX   Delta X   Delta X   Delta X     New X
                                 (Linear)    (Quad)   (Total)
    R1        2.65994  -0.00097  -0.00499   0.00690   0.00190   2.66185
    R2        2.62133  -0.00144  -0.00313   0.00280  -0.00033   2.62100
    R3        2.04537   0.00154   0.00216   0.00065   0.00281   2.04818
    R4        2.61957  -0.00162  -0.00275   0.00192  -0.00083   2.61873
    R5        2.04889   0.00167   0.00187   0.00151   0.00338   2.05227
    R6        2.67848  -0.00047  -0.00412   0.00546   0.00134   2.67982
    R7        2.05059   0.00130   0.00183   0.00061   0.00245   2.05304
    R8        2.71136  -0.00806  -0.00657  -0.00316  -0.00973   2.70163
    R9        2.56081   0.00651  -0.00580   0.01724   0.01144   2.57225
   R10        2.67362  -0.00195  -0.00415   0.00304  -0.00111   2.67251
   R11        2.76015   0.00132  -0.00828   0.01613   0.00785   2.76800
   R12        2.04358   0.00132   0.00206   0.00028   0.00234   2.04592
   R13        2.57117   0.00173   0.00079   0.00146   0.00224   2.57342
   R14        2.33327  -0.00686  -0.00072  -0.00538  -0.00610   2.32717
   R15        1.83542   0.00026  -0.00050   0.00140   0.00090   1.83632
   R16        1.90125   0.00543   0.00357   0.00642   0.00999   1.91124
   R17        1.89129   0.00481   0.00419   0.00424   0.00842   1.89971
    A1        2.07135   0.00044   0.00084   0.00202   0.00286   2.07421
    A2        2.11076  -0.00063  -0.00087  -0.00273  -0.00360   2.10716
    A3        2.10108   0.00020   0.00003   0.00071   0.00074   2.10182
    A4        2.11129  -0.00046  -0.00159   0.00233   0.00073   2.11202
    A5        2.09620  -0.00014  -0.00006  -0.00186  -0.00193   2.09428
    A6        2.07569   0.00059   0.00166  -0.00046   0.00119   2.07688
    A7        2.11901  -0.00124   0.00029  -0.00528  -0.00499   2.11402
    A8        2.09873   0.00018  -0.00301   0.00466   0.00165   2.10038
    A9        2.06545   0.00105   0.00272   0.00062   0.00334   2.06879
   A10        2.05641   0.00106   0.00104   0.00169   0.00272   2.05913
   A11        2.08288   0.00578  -0.00078   0.02163   0.02085   2.10373
   A12        2.14389  -0.00684  -0.00026  -0.02331  -0.02357   2.12032
   A13        2.08048   0.00179  -0.00064   0.00609   0.00545   2.08593
   A14        2.11463  -0.00983   0.00085  -0.03590  -0.03506   2.07957
   A15        2.08807   0.00804  -0.00020   0.02982   0.02961   2.11769
   A16        2.12783  -0.00159   0.00007  -0.00684  -0.00677   2.12106
   A17        2.09620   0.00061  -0.00462   0.00959   0.00497   2.10118
   A18        2.05915   0.00098   0.00455  -0.00275   0.00180   2.06095
   A19        1.98122   0.00615   0.00704   0.01142   0.01846   1.99968
   A20        2.21907  -0.00937  -0.00428  -0.02658  -0.03086   2.18821
   A21        2.08290   0.00322  -0.00276   0.01516   0.01239   2.09529
   A22        1.83507   0.00252   0.00165   0.01244   0.01409   1.84916
   A23        2.07945   0.00047   0.00477  -0.00498  -0.00021   2.07924
   A24        2.10654  -0.00063   0.00004  -0.00396  -0.00392   2.10261
   A25        2.09719   0.00017  -0.00481   0.00895   0.00414   2.10133
    D1        0.00003  -0.00000  -0.00001  -0.00001  -0.00002   0.00001
    D2        3.14158   0.00000  -0.00000   0.00001   0.00001   3.14159
    D3       -3.14158   0.00000  -0.00000   0.00000   0.00000  -3.14158
    D4       -0.00004   0.00000   0.00001   0.00003   0.00003  -0.00000
    D5       -0.00001   0.00000  -0.00001   0.00001   0.00001  -0.00000
    D6        3.14154   0.00000   0.00001   0.00004   0.00005   3.14159
    D7       -3.14158  -0.00000  -0.00001  -0.00000  -0.00001   3.14159
    D8       -0.00004   0.00000   0.00000   0.00003   0.00003  -0.00001
    D9       -0.00001   0.00000   0.00001   0.00000   0.00001   0.00000
   D10        3.14155   0.00000   0.00001   0.00003   0.00004   3.14159
   D11       -3.14156  -0.00000   0.00000  -0.00002  -0.00002  -3.14158
   D12       -0.00000   0.00000   0.00001   0.00001   0.00001   0.00001
   D13       -0.00003   0.00000   0.00000   0.00001   0.00001  -0.00002
   D14        3.14150   0.00000   0.00002   0.00008   0.00010  -3.14159
   D15       -3.14158  -0.00000   0.00000  -0.00002  -0.00002   3.14158
   D16       -0.00006   0.00000   0.00001   0.00005   0.00007   0.00001
   D17        0.00004  -0.00000  -0.00002  -0.00000  -0.00002   0.00002
   D18       -3.14151  -0.00000  -0.00002  -0.00005  -0.00007  -3.14158
   D19       -3.14148  -0.00000  -0.00003  -0.00009  -0.00012   3.14159
   D20        0.00015  -0.00001  -0.00003  -0.00013  -0.00016  -0.00001
   D21       -3.14133  -0.00001  -0.00003  -0.00015  -0.00019  -3.14152
   D22        0.00012  -0.00000  -0.00001  -0.00008  -0.00008   0.00003
   D23        0.00019  -0.00000  -0.00002  -0.00007  -0.00009   0.00010
   D24       -3.14154   0.00000   0.00000   0.00001   0.00001  -3.14153
   D25       -0.00003   0.00000   0.00002  -0.00000   0.00002  -0.00001
   D26       -3.14157  -0.00000   0.00000  -0.00003  -0.00003   3.14158
   D27        3.14153   0.00000   0.00002   0.00004   0.00006   3.14159
   D28       -0.00002   0.00000   0.00001   0.00001   0.00002   0.00000
   D29        3.14130   0.00001  -0.00001   0.00034   0.00033  -3.14156
   D30       -0.00004  -0.00001  -0.00004  -0.00029  -0.00033  -0.00037
   D31       -0.00026   0.00001  -0.00001   0.00030   0.00028   0.00002
   D32        3.14159  -0.00001  -0.00005  -0.00033  -0.00038   3.14121
   D33       -3.14157  -0.00001  -0.00005  -0.00021  -0.00026   3.14135
   D34       -0.00022   0.00001  -0.00001   0.00036   0.00035   0.00013
         Item               Value     Threshold  Converged?
 Maximum Force            0.009827     0.000450     NO 
 RMS     Force            0.002871     0.000300     NO 
 Maximum Displacement     0.159912     0.001800     NO 
 RMS     Displacement     0.041530     0.001200     NO 
 Predicted change in Energy=-8.567340D-04
 GradGradGradGradGradGradGradGradGradGradGradGradGradGradGradGradGradGrad

                          Input orientation:                          
 ---------------------------------------------------------------------
 Center     Atomic      Atomic             Coordinates (Angstroms)
 Number     Number       Type             X           Y           Z
 ---------------------------------------------------------------------
      1          6           0       -2.140024    0.519757   -0.000909
      2          6           0       -2.151822   -0.888782   -0.000003
      3          6           0       -0.970128   -1.612639    0.000473
      4          6           0        0.289044   -0.960341    0.000066
      5          6           0        0.303860    0.469225   -0.000871
      6          6           0       -0.919555    1.178662   -0.001332
      7          6           0        1.590427    1.169426   -0.001322
      8          8           0        1.495822    2.527929   -0.002175
      9          7           0        1.442387   -1.683249    0.000533
     10          8           0        2.696639    0.628269   -0.000590
     11          1           0       -3.067004    1.081400   -0.001270
     12          1           0       -3.096915   -1.423782    0.000343
     13          1           0       -0.991874   -2.698843    0.001173
     14          1           0       -0.881300    2.260640   -0.002034
     15          1           0        2.409346    2.859208   -0.002164
     16          1           0        2.328766   -1.196182    0.000295
     17          1           0        1.414170   -2.688137    0.001142
 ---------------------------------------------------------------------
                    Distance matrix (angstroms):
                    1          2          3          4          5
     1  C    0.000000
     2  C    1.408589   0.000000
     3  C    2.432237   1.385774   0.000000
     4  C    2.844480   2.441914   1.418099   0.000000
     5  C    2.444407   2.806164   2.440739   1.429643   0.000000
     6  C    1.386976   2.406825   2.791760   2.456837   1.414230
     7  C    3.786599   4.270907   3.781049   2.495898   1.464765
     8  O    4.153568   4.997921   4.819255   3.691117   2.378873
     9  N    4.205581   3.680966   2.413547   1.361175   2.435034
    10  O    4.837880   5.080257   4.297307   2.884475   2.398058
    11  H    1.083852   2.172367   3.413905   3.928329   3.426002
    12  H    2.166330   1.086015   2.135157   3.417528   3.892140
    13  H    3.417257   2.149838   1.086422   2.159431   3.422804
    14  H    2.148269   3.396039   3.874298   3.427014   2.147970
    15  H    5.115643   5.903531   5.605200   4.368597   3.185136
    16  H    4.786913   4.491120   3.325076   2.053311   2.621798
    17  H    4.787785   3.994242   2.615639   2.061841   3.346897
                    6          7          8          9         10
     6  C    0.000000
     7  C    2.509998   0.000000
     8  O    2.766688   1.361793   0.000000
     9  N    3.710702   2.856515   4.211518   0.000000
    10  O    3.657839   1.231485   2.247369   2.629880   0.000000
    11  H    2.149651   4.658263   4.786630   5.289414   5.781428
    12  H    3.393172   5.356856   6.058816   4.546712   6.146233
    13  H    3.878181   4.650999   5.788591   2.637623   4.967374
    14  H    1.082654   2.701885   2.392102   4.577531   3.932719
    15  H    3.729050   1.877763   0.971737   4.644237   2.249361
    16  H    4.023863   2.478154   3.816124   1.011386   1.861170
    17  H    4.516460   3.861588   5.216705   1.005284   3.555739
                   11         12         13         14         15
    11  H    0.000000
    12  H    2.505361   0.000000
    13  H    4.312356   2.461094   0.000000
    14  H    2.483527   4.299293   4.960717   0.000000
    15  H    5.757692   6.975882   6.516152   3.344643   0.000000
    16  H    5.856767   5.430453   3.644810   4.717430   4.056191
    17  H    5.855795   4.684921   2.406068   5.455234   5.635904
                   16         17
    16  H    0.000000
    17  H    1.749976   0.000000
 Stoichiometry    C7H7NO2
 Framework group  C1[X(C7H7NO2)]
 Deg. of freedom    45
 Full point group                 C1      NOp   1
 Largest Abelian subgroup         C1      NOp   1
 Largest concise Abelian subgroup C1      NOp   1
                         Standard orientation:                         
 ---------------------------------------------------------------------
 Center     Atomic      Atomic             Coordinates (Angstroms)
 Number     Number       Type             X           Y           Z
[...]
 ! D30   D(4,5,7,10)             0.0521         -DE/DX =   -0.0001              !
 ! D31   D(6,5,7,8)             -0.0515         -DE/DX =    0.0001              !
 ! D32   D(6,5,7,10)           180.0537         -DE/DX =   -0.0001              !
 ! D33   D(5,7,8,15)           180.0498         -DE/DX =   -0.0001              !
 ! D34   D(10,7,8,15)           -0.0485         -DE/DX =    0.0001              !
 --------------------------------------------------------------------------------
 GradGradGradGradGradGradGradGradGradGradGradGradGradGradGradGradGradGrad

 1\1\ WCSS.PL-BEM-QINLAB\Freq\RB3LYP\6-31+G(d,p)\C7H7N1O2\PHZD\22-Jun-2
 024\0\\#N Geom=AllCheck Guess=TCheck SCRF=Check GenChk RB3LYP/6-31+G(d
 ,p) Freq\\[No Title]\\0,1\C,-2.1268692123,0.5214973042,-0.000852189\C,
 -2.1450599134,-0.884596542,-0.0002036769\C,-0.9668469645,-1.6113889755
 ,0.0003002131\C,0.2940589785,-0.9657035695,0.0001822494\C,0.3146981809
 ,0.4622750771,-0.0004678194\C,-0.9047878044,1.1737422735,-0.0009995422
 \C,1.5920843246,1.1818515919,-0.000614417\O,1.467854504,2.5363065383,-
 0.002398902\N,1.4359646244,-1.7090012477,0.0007257196\O,2.709395057,0.
 6680705547,-0.0011264047\H,-3.0530097382,1.0861803364,-0.001240172\H,-
 3.0938663889,-1.4142421032,-0.0000903193\H,-0.9954699991,-2.6980204413
 ,0.0008092783\H,-0.8649324893,2.2567672211,-0.001507236\H,2.3722856093
 ,2.890123479,-0.0031162828\H,2.331128373,-1.237488628,0.0007466856\H,1
 .3852098583,-2.713811869,0.0012088155\\Version=ES64L-G09RevE.01\State=
 1-A\HF=-476.2249226\RMSD=3.857e-09\RMSF=5.502e-05\ZeroPoint=0.1318739\
 Thermal=0.1397514\Dipole=-0.3071475,-0.4342971,0.000526\DipoleDeriv=-0
 .252447,-0.3162824,0.0001815,-0.2418031,-0.4725483,0.0001133,0.0001239
 ,0.0001004,-0.1962049,0.1447261,-0.2172783,0.0001648,0.0567566,0.53143
 17,-0.0003032,-0.000003,-0.0003376,-0.09333,-0.4494338,0.511441,-0.000
 3109,-0.0999936,0.0964956,-0.0001276,0.0000407,-0.0000198,-0.1975622,1
 .0859347,-0.9172516,0.0006754,-0.412029,0.583681,-0.0003322,0.000144,-
 0.0004943,0.1147836,-0.845963,-0.5820297,0.0003087,0.0324684,-0.518127
 4,0.0002972,-0.0001268,0.0002958,-0.0576239,0.5565973,0.4159799,-0.000
 143,-0.1220734,0.022149,-0.0001044,0.0000214,-0.0001876,-0.0858858,1.9
 605516,0.5355369,-0.0002652,0.3485608,1.9331507,-0.001288,-0.000609,-0
 .0017872,0.3006904,-0.4062253,-0.1494248,0.000111,-0.2431568,-1.536510
 6,0.0008668,0.0002797,0.0016684,-0.3761087,-1.02838,0.6995832,-0.00042
 78,0.4760123,-0.6861722,0.0002056,-0.0002888,0.0001714,-0.5512179,-1.4
 416672,-0.0366336,-0.0001261,0.089811,-0.6969964,0.0003458,0.0005831,0
 .00026,-0.3772462,-0.0655597,0.0646751,-0.0000713,0.0758678,0.0129651,
 0.0000938,-0.0000471,0.000114,0.1549567,-0.0647916,-0.0810248,0.000010
 7,-0.0827581,0.0345354,0.0000373,0.0000031,0.0000261,0.1293336,0.04834
 67,0.0346012,-0.0000236,0.0007437,-0.1230002,0.0001126,0.0000097,0.000
 1278,0.1447121,0.1021222,0.0055935,-0.0000241,0.0120738,-0.0186513,0.0
 00087,-0.0000146,0.0000593,0.1284272,0.2093888,0.0378522,-0.0000125,0.
 0907741,0.3819474,-0.0000355,-0.0000583,-0.0000493,0.3397901,0.2873893
 ,0.0593267,-0.0000477,0.0612903,0.2713387,-0.0000391,-0.0000451,-0.000
 0608,0.2986919,0.1594109,-0.0646645,0.,-0.0425447,0.1843118,0.0000707,
 -0.0000128,0.0001135,0.3237939\Polar=129.2442824,3.8510599,115.7983694
 ,0.0009732,-0.0338718,54.2194525\PG=C01 [X(C7H7N1O2)]\NImag=1\\0.74090
 516,-0.03107872,0.66988783,0.00009855,-0.00026457,0.12014814,-0.125870
 39,-0.03251670,0.00000557,0.73823481,0.03041367,-0.31774563,0.00012548
 ,0.01614440,0.67670054,-0.00002545,0.00011314,-0.06140553,0.00007553,-
 0.00024738,0.13845191,0.03210197,0.06891914,-0.00002790,-0.30624421,0.
 08030382,-0.00007163,0.68268521,0.02798342,-0.02970857,0.00002231,0.13
 947378,-0.19551878,0.00008430,-0.04513979,0.73128817,-0.00000794,0.000
 02859,0.00905524,-0.00009876,0.00007451,-0.05597077,0.00009991,-0.0002
 9188,0.11951997,-0.01749907,-0.03770477,0.00001486,-0.05920585,0.03150
 670,-0.00002310,-0.23469360,-0.10316464,0.00002513,0.71709355,-0.03096
 117,-0.03966430,0.00000936,-0.00999233,0.06098145,-0.00002928,-0.04886
 833,-0.17343927,0.00004397,-0.03447867,0.67733390,0.00001021,0.0000092
 7,-0.00522280,-0.00000464,-0.00002192,0.00139922,-0.00000281,0.0000322
 3,-0.07058607,0.00010821,-0.00023804,0.17008415,-0.06069166,-0.0249544
 6,-0.00000357,-0.01726235,0.03193685,-0.00001599,0.02894833,-0.0246653
 2,0.00001189,-0.13949588,-0.02420109,-0.00000643,0.65417640,0.01603814
 ,0.04270440,-0.00001262,0.01340538,-0.03416793,0.00001686,-0.04782597,
 -0.01425368,-0.00000124,0.00577964,-0.26323264,0.00008356,-0.02934594,
 0.65309372,-0.00001597,-0.00001109,0.00924804,-0.00000649,0.00001807,-
 0.00555063,0.00002842,-0.00000034,0.00838981,-0.00002695,0.00007704,-0
 .06916283,0.00006086,-0.00027048,0.13311145,-0.31102030,-0.06720106,0.
 00000265,0.02826064,-0.07590883,0.00004012,-0.05812217,0.00278570,-0.0
 0000973,0.04308972,0.06409354,-0.00001929,-0.24399549,0.06819414,-0.00
 007604,0.67718031,-0.12841369,-0.17769441,0.00003656,-0.03000019,-0.02
 903939,0.00001221,-0.00234485,-0.00236916,0.00000034,0.03185701,-0.027
 24553,0.00001665,0.10697882,-0.17451953,0.00006480,0.03716326,0.740224
 41,0.00002458,0.00004169,-0.06228269,0.00001509,0.00000570,0.00704867,
 -0.00000539,0.00000191,-0.00402509,-0.00001034,0.00002848,0.00216313,-
 0.00008346,0.00006286,-0.05798432,0.00006426,-0.00027752,0.14110397,0.
 00833425,0.01770051,-0.00000354,0.00687772,-0.00965572,0.00000509,-0.0
 0801777,0.00001168,0.00000334,0.03061532,-0.03510016,0.00002604,-0.168
 38172,-0.04187035,-0.00001854,-0.05090263,-0.00685221,-0.00001025,0.87
 557557,0.01164725,0.00324910,0.00000589,0.00392645,-0.00606630,0.00000
 244,-0.00170070,-0.00699093,0.00000637,-0.02793775,-0.01974179,0.00000
 285,-0.05475667,-0.13909735,0.00001054,-0.00241620,0.02259907,-0.00000
 921,-0.09602148,0.63119649,-0.00001154,-0.00000139,0.00752694,-0.00000
 238,0.00000774,-0.00087975,0.00000123,0.00000863,0.00598914,0.00001439
 ,0.00002222,-0.00066612,0.00003091,0.00004052,-0.07601247,0.00001132,-
 0.00002286,-0.00382510,-0.00027956,-0.00027974,0.20761634,0.00086608,-
 0.00136773,0.00000055,-0.00054211,-0.00026505,0.,0.00093518,-0.0019544
 2,-0.00000054,-0.00950602,0.00324805,-0.00000198,0.00202218,-0.0390920
 3,0.00003955,-0.00410960,-0.00182126,0.00000527,-0.12287202,-0.0208747
 3,0.00004927,0.58330216,-0.00326420,-0.00264162,-0.00000057,-0.0011672
 7,0.00135281,-0.00000081,0.00033258,-0.00001335,-0.00000148,-0.0043383
 3,0.00508788,0.00000051,-0.01754797,-0.03844559,0.00006094,0.00608570,
 -0.00494126,0.00000180,0.01909036,-0.25196292,0.00021654,0.11274314,0.
 45121426,0.00000464,0.00000314,-0.00061547,0.00000120,-0.00000215,-0.0
 0008541,-0.00000076,-0.00000053,-0.00074999,0.00000457,-0.00000558,0.0
 0256045,0.00000859,0.00004453,0.01080430,-0.00000707,0.00000722,0.0007
 2562,-0.00001628,0.00025842,-0.06220440,-0.00030590,-0.00050825,0.0351
 6083,0.00150025,0.01407155,-0.00000628,0.00868915,-0.01622392,0.000008
 04,-0.06953298,0.02232759,-0.00002542,-0.29262993,0.10082623,-0.000089
 20,0.01901478,0.02370244,-0.00001033,-0.01100523,-0.00490823,0.0000039
 2,-0.02959227,-0.00451147,0.00001140,0.00383655,0.00057952,-0.00000133
 ,0.79552804,0.00459196,-0.00037885,0.00000082,-0.00553287,-0.00471457,
 0.00000359,-0.00670738,0.01980610,-0.00000528,0.10679528,-0.20243320,0
 .00009023,0.03668362,-0.03799215,0.00002811,-0.00706936,-0.00265125,0.
 00000058,0.00732170,0.00461517,-0.00000595,0.00038555,-0.00440718,0.00
 000661,0.05272450,0.85697674,-0.00000228,0.00000114,-0.00087092,0.0000
 0320,0.00000098,0.00419218,-0.00000861,0.00000172,0.01086043,-0.000100
 68,0.00009289,-0.03922912,-0.00001363,0.00002571,0.00729542,0.00000122
 ,0.00000198,0.00373672,-0.00000898,-0.00000379,-0.00120617,0.00000005,
 0.00000407,-0.00011465,0.00015358,-0.00037820,0.01391607,-0.00669184,-
 0.00638438,-0.00000174,-0.00379273,0.00656618,-0.00000290,0.00598679,0
 .00089841,-0.00000047,-0.01317695,0.01672916,-0.00001345,-0.06747113,0
 .00790646,0.00003405,0.00758201,-0.00929904,0.00001147,-0.55327360,0.1
 9218945,0.00018775,-0.00756596,0.05704026,-0.00003004,0.01723126,-0.00
 770456,0.00000637,0.63600588,0.00107140,0.00490960,-0.00000324,0.00189
 302,-0.00351972,0.00000217,-0.00472049,0.00032085,-0.00000035,0.012459
 75,-0.00936358,0.00000942,0.00432901,0.02477953,-0.00000082,-0.0063140
 3,-0.00259060,0.00000350,0.18139175,-0.19855760,-0.00004108,0.07489736
 ,-0.06333748,0.00004556,-0.01298905,-0.01252556,0.00000815,-0.24917333
 ,0.24595883,0.00000241,-0.00000171,-0.00170624,-0.00000023,-0.00000117
 ,0.00037645,0.00000164,-0.00000091,-0.00070969,-0.00000182,-0.00000519
 ,-0.00056964,0.00001283,-0.00001628,0.01915604,0.,0.00001139,0.0047108
 2,0.00023817,-0.00004934,-0.07617771,-0.00006455,0.00006914,0.02675144
 ,-0.00000376,0.00001354,0.00237350,-0.00019351,0.00000027,0.03541192,-
 0.26518169,0.12652886,-0.00008938,0.00460580,-0.00298915,0.00000157,0.
 00139271,-0.00072557,0.00000051,0.00000660,-0.00084037,0.00000056,-0.0
 0222218,-0.00414540,0.00000152,-0.01941303,0.01649045,-0.00001263,0.00
 005782,0.00171457,-0.00000199,-0.00009763,-0.00042268,0.00000042,0.000
 15342,0.00015159,-0.00000029,-0.00091112,-0.00030293,0.00000087,0.2798
 2147,0.12669375,-0.13569063,0.00006669,0.02862245,-0.01143708,0.000010
 16,-0.00201183,-0.00517280,0.00000444,-0.00089074,-0.00093367,-0.00000
 006,-0.00268747,-0.00107455,0.00000168,-0.01507395,0.01168300,-0.00000
 609,-0.00044200,0.00070424,0.00000051,0.00005300,-0.00000457,0.,0.0002
 4570,0.00035378,-0.00000020,-0.00036873,-0.00008098,-0.00000006,-0.135
 47949,0.14053356,-0.00009005,0.00006713,-0.03087447,-0.00001248,0.0000
 0463,0.00091680,-0.00000070,0.00000458,0.00545811,0.00000166,-0.000000
 40,-0.00036421,-0.00000075,0.00000417,0.00695899,0.00000430,-0.0000025
 2,0.00139387,0.00000038,0.00000076,0.00138317,0.00000002,0.00000021,-0
 .00002325,-0.00000081,-0.00000017,-0.00053246,-0.00000005,-0.00000066,
 -0.00058798,0.00009782,-0.00007355,0.02362675,0.00336520,0.00163890,-0
 .00000098,-0.27206141,-0.11815161,0.00002279,-0.01867816,-0.01517688,0
 .00000415,-0.00218601,0.00387101,-0.00000346,-0.00001637,0.00064077,-0
 .00000046,0.00172694,0.00023950,-0.00000056,0.00030958,0.00025241,-0.0
 0000019,-0.00006250,-0.00023401,0.00000035,-0.00116671,-0.00105591,0.0
 0000028,-0.00018616,-0.00006228,0.00000017,0.00067702,-0.00034826,0.00
 000067,0.28739647,-0.02889353,-0.00849428,0.00000209,-0.11894634,-0.12
 647831,0.00002413,0.01549625,0.01138944,-0.00000163,0.00368610,-0.0015
 2109,0.00000524,0.00111469,-0.00036794,-0.00000026,0.00090610,-0.00634
 958,0.00000606,-0.00005769,-0.00027625,-0.00000010,-0.00015964,0.00008
 433,0.00000002,0.00031357,0.00085861,-0.00000036,-0.00007366,0.0000434
 8,0.00000001,0.00041624,0.00108417,-0.00000200,0.12769607,0.12968477,0
 .00001405,0.00000762,0.00435488,0.00002313,0.00002385,-0.03956762,-0.0
 0000917,-0.00000540,0.00427926,-0.00000380,0.00000413,0.00845224,0.000
 00017,-0.00000006,-0.00063911,-0.00000255,0.00000591,0.00619161,-0.000
 00061,-0.00000043,-0.00111369,0.00000016,0.00000009,0.00019283,0.00000
 020,-0.00000039,-0.00013893,0.00000005,-0.00000010,0.00013132,0.000000
 17,-0.00000215,-0.00328456,-0.00002332,-0.00003046,0.02616604,-0.00430
 087,0.00203199,-0.00000245,0.00502253,0.02877709,-0.00001305,-0.058862
 22,-0.00933415,0.00000097,0.00198342,-0.02833592,0.00001319,-0.0042833
 2,-0.00108849,-0.00000203,-0.00161493,0.00012776,-0.00000026,0.0005240
 8,-0.00124470,0.00000081,-0.00051452,-0.00032536,0.00000040,0.00221727
 ,-0.00109083,0.00000126,0.00000240,0.00012191,-0.00000013,0.00011588,0
 .00141830,-0.00000069,0.00099126,-0.00028624,0.00000081,0.05940051,0.0
 0339638,0.00113856,0.00000429,-0.00271623,-0.01313191,0.00000633,-0.00
 972148,-0.33446108,0.00014230,0.00395310,-0.01312620,0.00000905,-0.003
 10941,0.00081777,0.00000276,-0.00022920,0.00061343,-0.00000283,0.00145
 253,-0.00030810,-0.00000103,-0.00045580,-0.00034870,0.00000021,0.00096
 729,0.00215694,-0.00000205,-0.00056069,0.00029052,0.00000043,-0.000200
 02,-0.00072173,0.00000040,0.00019999,0.00094303,-0.00000274,0.00864083
 ,0.35597240,-0.00000299,0.00000364,0.00713940,0.00000185,0.00001110,0.
 00218714,0.00000074,0.00014133,-0.03187962,-0.00000248,0.00000491,0.00
 376990,0.00000082,0.00000096,0.00467278,-0.00000076,-0.00000056,-0.000
 58887,-0.00000108,0.00000013,0.00011934,0.00000014,-0.00000004,-0.0000
 5314,0.00000091,-0.00000316,-0.00271183,0.00000032,0.00000003,0.000000
 94,0.00000008,0.00000083,0.00062972,0.00000072,-0.00000257,-0.00456893
 ,0.00000119,-0.00015609,0.02224393,0.00413398,-0.02824112,0.00001247,-
 0.00491100,-0.00227537,-0.00000079,-0.00085377,0.00033271,-0.00000012,
 -0.00494919,0.00157270,-0.00000272,0.00423176,0.02673500,-0.00001075,-
 0.05865047,-0.01035748,0.00000045,0.00089677,0.00372780,-0.00000428,-0
 .00292198,-0.00210466,0.00000376,0.00037900,0.00143243,-0.00000047,0.0
 0065448,-0.00108312,0.00000080,0.00101205,0.00042182,0.00000059,0.0000
 3265,-0.00142155,0.00000087,0.00014186,-0.00001168,0.00000013,0.060806
 65,0.00190053,-0.00870120,0.00000632,-0.00254998,0.00032235,0.00000319
 ,-0.00020243,0.00063645,-0.00000109,0.00267804,0.00106732,0.00000331,-
 0.00127912,-0.01193195,0.00000566,-0.00743357,-0.34611664,0.00014365,-
 0.00057935,-0.00212893,0.00000080,-0.00330595,0.00014608,0.00000073,-0
 .00042353,-0.00067853,0.00000078,0.00015706,0.00046304,-0.00000031,-0.
 00014243,0.00085356,-0.00000267,0.00017416,-0.00049342,0.00000034,-0.0
 0002308,-0.00007087,-0.00000036,0.01120455,0.36621532,0.00000079,0.000
 00267,0.00534892,-0.00000033,0.00000193,0.00761148,-0.00000097,-0.0000
 0090,-0.00077480,-0.00000263,0.00000321,0.00548206,0.00000574,0.000009
 87,0.00327100,-0.00000500,0.00014588,-0.03900489,-0.00000240,-0.000002
 04,-0.00355088,0.00000318,0.00000160,0.00043630,0.00000005,0.00000058,
 0.00036303,0.00000091,0.00000019,0.00051413,0.00000082,-0.00000232,-0.
 00457968,-0.00000004,-0.00000015,-0.00020184,0.00000012,-0.00000038,-0
 .00079066,0.00000013,-0.00015956,0.02615258,0.00024638,0.00015489,0.00
 000028,0.00007666,-0.00015607,0.00000011,-0.00001142,-0.00010277,-0.00
 000002,0.00019520,-0.00028187,0.00000147,0.00197201,0.00213784,0.00000
 374,-0.00038999,0.00037551,-0.00000116,0.00403428,-0.00765687,-0.00000
 111,-0.44162109,-0.16688397,0.00033620,-0.00008838,0.00038352,-0.00000
 040,-0.00476594,0.00498940,-0.00000137,0.00000054,-0.00000897,-0.00000
 002,0.00001449,-0.00001236,-0.00000005,0.00000345,0.00002298,-0.000000
 07,0.00013509,-0.00029746,-0.00000019,0.44023633,0.00015984,0.00066246
 ,0.00000016,0.00030158,-0.00016306,0.00000008,0.00015325,-0.00058216,-
 0.00000039,-0.00196217,-0.00023891,0.00000100,0.00404963,-0.00609975,0
 .00001261,0.00098306,0.00011316,-0.00000073,-0.05685911,-0.02950950,0.
 00005618,-0.11818449,-0.09648599,0.00015384,0.00033183,0.00077727,-0.0
 0000045,0.00413467,0.00902014,-0.00001894,0.00004377,-0.00000710,-0.00
 000009,0.00003053,0.00005102,0.,-0.00013872,-0.00005039,-0.00000005,-0
 .00043994,0.00047203,-0.00000057,0.16755316,0.12315713,-0.00000028,-0.
 00000104,0.00018704,-0.00000043,-0.00000017,0.00006495,-0.00000035,0.0
 0000128,-0.00033920,0.00000257,0.00000180,0.00103839,-0.00001086,0.000
 00578,0.00386602,-0.00000155,-0.00000070,-0.00038061,0.00008558,0.0000
 5544,0.00335684,0.00027050,0.00015969,-0.01348177,0.00000026,-0.000001
 45,-0.00004390,-0.00000845,-0.00001730,-0.00566031,-0.00000014,0.00000
 012,-0.00000977,-0.00000003,-0.00000008,-0.00002840,0.00000023,0.,-0.0
 0002152,0.00000038,-0.00000072,-0.00028444,-0.00033751,-0.00020388,0.0
 1166532,-0.00013489,-0.00156191,0.00000111,-0.00179561,0.00042187,-0.0
 0000094,0.00183788,0.00403746,-0.00000231,-0.02677596,-0.00909141,-0.0
 0000227,-0.00179466,-0.00302458,0.00000222,0.00057694,-0.00040541,-0.0
 0000099,0.00948569,0.00274878,-0.00000611,-0.00192382,0.00120472,0.,-0
 .36783224,-0.15221715,-0.00002472,-0.01020824,-0.00179092,0.00000556,-
 0.00000617,-0.00001638,0.00000007,-0.00018520,0.00023448,-0.00000005,-
 0.00005071,-0.00026077,0.00000007,0.00024056,-0.00006511,-0.00000002,-
 0.00005048,-0.00037549,0.00000032,0.38772692,-0.00138497,-0.00321544,0
 .00000197,-0.00123874,0.00405386,-0.00000158,0.00813628,-0.00336323,0.
 00000606,0.01180655,0.02310502,-0.00000949,-0.00582330,-0.00373717,0.0
 0000155,0.00274684,-0.00069148,-0.00000201,0.02272316,-0.00752492,-0.0
 0000282,-0.00408758,0.00449086,-0.00000312,-0.15054722,-0.15205580,0.0
 0002472,-0.01260045,0.00571139,-0.00000137,-0.00011439,-0.00010699,0.0
 0000016,0.00035656,-0.00015923,-0.00000031,-0.00004479,0.00010975,-0.0
 0000057,0.00025613,-0.00003422,-0.00000004,-0.00016044,-0.00110941,0.0
 0000113,0.15373090,0.13900774,0.00000060,0.00000198,0.00011633,0.00000
 050,-0.00000116,0.00202164,-0.00000458,0.00000379,0.00380519,-0.000005
 95,-0.00001703,-0.00427670,0.00000476,0.00000219,-0.00108899,-0.000001
 19,-0.00000005,-0.00059551,-0.00001699,0.00000198,-0.00028181,0.000004
 72,-0.00000291,0.00126930,-0.00003286,0.00002144,-0.00151235,0.0000085
 2,-0.00000628,-0.00479433,0.00000002,0.00000003,-0.00014895,-0.0000001
 4,-0.00000004,-0.00039158,0.00000021,-0.00000067,-0.00077867,-0.000000
 23,0.00000008,-0.00003018,0.00000021,0.00000133,0.00009371,0.00002780,
 -0.00000649,0.01211244,-0.00006255,-0.00003498,-0.00000020,-0.00008163
 ,-0.00044485,0.00000059,0.00112822,0.00241278,-0.00000059,0.00713464,0
 .03181063,-0.00001343,-0.00475073,0.00185294,-0.00000281,0.00080728,0.
 00117007,0.,-0.00367107,0.00091387,0.00000010,0.00077513,-0.00078784,0
 .00000124,-0.07670198,-0.02909210,-0.00000591,0.00058086,-0.00471744,0
 .00000291,-0.00001148,-0.00012721,0.00000004,0.00002890,-0.00001249,-0
 .00000007,-0.00077607,-0.00136782,0.00000041,-0.00037845,0.00018768,-0
 .00000016,0.00001288,0.00021859,-0.00000026,0.01088998,-0.02375453,0.0
 0001459,0.06507607,0.00009992,0.00138299,-0.00000094,0.00089358,-0.001
 42832,0.00000044,-0.00409806,0.00243200,-0.00000323,-0.00004513,-0.016
 63537,0.00000619,0.00327812,0.00352480,-0.00000078,-0.00131214,-0.0010
 2425,0.00000216,-0.00225361,-0.00019947,0.00000182,0.00024158,0.000212
 45,-0.00000064,-0.02648679,-0.46770753,0.00022292,0.00054321,-0.001521
 86,0.00000052,0.00001693,0.00001780,0.00000002,-0.00007095,0.00000125,
 0.00000009,0.00079442,0.00017661,0.00000050,0.00025179,-0.00002037,0.0
 0000001,-0.00005650,-0.00000693,0.00000008,0.00643092,-0.00448072,0.00
 000179,0.02177270,0.48527691,0.00000067,-0.00000021,-0.00014680,-0.000
 00033,-0.00000004,-0.00081073,0.00000092,-0.00000215,-0.00232193,0.000
 00637,0.00000753,-0.00487203,-0.00000189,0.00000368,0.00366449,-0.0000
 0069,0.00000127,0.00161268,-0.00000038,-0.00000028,-0.00007367,-0.0000
 0044,-0.00000052,-0.00057301,-0.00000839,0.00022910,0.00362298,0.00000
 118,0.00000054,0.00077934,0.00000005,-0.00000004,0.00003790,0.00000003
 ,0.00000007,0.00016647,-0.00000061,0.00000002,0.00063009,-0.00000021,-
 0.00000015,0.00003786,-0.00000010,-0.00000009,-0.00002234,0.00000026,-
 0.00000779,-0.00551952,0.00000355,-0.00023095,0.00378821\\0.00002923,0
 .00001134,0.00000569,0.00003115,0.00000261,-0.00000084,0.00002823,0.00
 002367,0.00000529,-0.00006180,0.00010457,-0.00001393,-0.00006868,-0.00
 006679,-0.00006551,0.00002325,-0.00004521,-0.00001179,0.00004851,-0.00
 002727,0.00025397,0.00006195,-0.00006520,-0.00007519,0.00006041,-0.000
 06984,-0.00000289,-0.00009064,0.00008097,-0.00010050,0.00000083,-0.000
 01698,0.00000161,0.00000244,0.00001221,-0.00000089,-0.00000281,0.00000
 519,0.00000047,-0.00000480,-0.00001777,-0.00000102,0.00000573,0.000025
 37,-0.00000137,-0.00004345,0.00000839,0.00000776,-0.00001955,0.0000347
 4,-0.00000086\\\@


 It is also a good rule not to put too much confidence in
 experimental results until they have been confirmed by
 Theory.
                             -- Sir Arthur Eddington
 Job cpu time:       0 days  0 hours 21 minutes 36.3 seconds.
 File lengths (MBytes):  RWF=     93 Int=      0 D2E=      0 Chk=      5 Scr=      1
 Normal termination of Gaussian 09 at Sat Jun 22 16:37:36 2024.
