 Entering Gaussian System, Link 0=g09
 Input=B3PWAnthranilicyang.gjf
 Output=B3PWAnthranilicyang.log
 Initial command:
 /home/c612/g09E/g09/l1.exe "/mnt/ja_sm883/scratch/Gau-837279.inp" -scrdir="/mnt/ja_sm883/scratch/"
 Default is to use a total of  18 processors:
                               18 via shared-memory
                                1 via Linda
 Entering Link 1 = /home/c612/g09E/g09/l1.exe PID=    837281.
  
 Copyright (c) 1988,1990,1992,1993,1995,1998,2003,2009,2015,
            Gaussian, Inc.  All Rights Reserved.
  
 This is part of the Gaussian(R) 09 program.  It is based on
 the Gaussian(R) 03 system (copyright 2003, Gaussian, Inc.),
 the Gaussian(R) 98 system (copyright 1998, Gaussian, Inc.),
 the Gaussian(R) 94 system (copyright 1995, Gaussian, Inc.),
 the Gaussian 92(TM) system (copyright 1992, Gaussian, Inc.),
 the Gaussian 90(TM) system (copyright 1990, Gaussian, Inc.),
 the Gaussian 88(TM) system (copyright 1988, Gaussian, Inc.),
 the Gaussian 86(TM) system (copyright 1986, Carnegie Mellon
 University), and the Gaussian 82(TM) system (copyright 1983,
 Carnegie Mellon University). Gaussian is a federally registered
 trademark of Gaussian, Inc.
  
 This software contains proprietary and confidential information,
 including trade secrets, belonging to Gaussian, Inc.
  
 This software is provided under written license and may be
 used, copied, transmitted, or stored only in accord with that
 written license.
  
 The following legend is applicable only to US Government
 contracts under FAR:
  
                    RESTRICTED RIGHTS LEGEND
  
 Use, reproduction and disclosure by the US Government is
 subject to restrictions as set forth in subparagraphs (a)
 and (c) of the Commercial Computer Software - Restricted
 Rights clause in FAR 52.227-19.
  
 Gaussian, Inc.
 340 Quinnipiac St., Bldg. 40, Wallingford CT 06492
  
  
 ---------------------------------------------------------------
 Warning -- This program may not be used in any manner that
 competes with the business of Gaussian, Inc. or will provide
 assistance to any competitor of Gaussian, Inc.  The licensee
 of this program is prohibited from giving any competitor of
 Gaussian, Inc. access to this program.  By using this program,
 the user acknowledges that Gaussian, Inc. is engaged in the
 business of creating and licensing software in the field of
 computational chemistry and represents and warrants to the
 licensee that it is not a competitor of Gaussian, Inc. and that
 it will not use this program in any manner prohibited above.
 ---------------------------------------------------------------
  

 Cite this work as:
 Gaussian 09, Revision E.01,
 M. J. Frisch, G. W. Trucks, H. B. Schlegel, G. E. Scuseria, 
 M. A. Robb, J. R. Cheeseman, G. Scalmani, V. Barone, B. Mennucci, 
 G. A. Petersson, H. Nakatsuji, M. Caricato, X. Li, H. P. Hratchian, 
 A. F. Izmaylov, J. Bloino, G. Zheng, J. L. Sonnenberg, M. Hada, 
 M. Ehara, K. Toyota, R. Fukuda, J. Hasegawa, M. Ishida, T. Nakajima, 
 Y. Honda, O. Kitao, H. Nakai, T. Vreven, J. A. Montgomery, Jr., 
 J. E. Peralta, F. Ogliaro, M. Bearpark, J. J. Heyd, E. Brothers, 
 K. N. Kudin, V. N. Staroverov, T. Keith, R. Kobayashi, J. Normand, 
 K. Raghavachari, A. Rendell, J. C. Burant, S. S. Iyengar, J. Tomasi, 
 M. Cossi, N. Rega, J. M. Millam, M. Klene, J. E. Knox, J. B. Cross, 
 V. Bakken, C. Adamo, J. Jaramillo, R. Gomperts, R. E. Stratmann, 
 O. Yazyev, A. J. Austin, R. Cammi, C. Pomelli, J. W. Ochterski, 
 R. L. Martin, K. Morokuma, V. G. Zakrzewski, G. A. Voth, 
 P. Salvador, J. J. Dannenberg, S. Dapprich, A. D. Daniels, 
 O. Farkas, J. B. Foresman, J. V. Ortiz, J. Cioslowski, 
 and D. J. Fox, Gaussian, Inc., Wallingford CT, 2013.
 
 ******************************************
 Gaussian 09:  ES64L-G09RevE.01 30-Nov-2015
                15-Dec-2024 
 ******************************************
 %chk=B3PWAnthranilicyang.chk
 -----------------------------
 # opt freq b3pw91/6-31+g(d,p)
 -----------------------------
 1/14=-1,18=20,19=15,26=3,38=1/1,3;
 2/9=110,12=2,17=6,18=5,40=1/2;
 3/5=1,6=6,7=111,11=2,16=1,25=1,30=1,71=1,74=-6/1,2,3;
 4//1;
 5/5=2,38=5/2;
 6/7=2,8=2,9=2,10=2,28=1/1;
 7//1,2,3,16;
 1/14=-1,18=20,19=15,26=3/3(2);
 2/9=110/2;
 99//99;
 2/9=110/2;
 3/5=1,6=6,7=111,11=2,16=1,25=1,30=1,71=1,74=-6/1,2,3;
 4/5=5,16=3,69=1/1;
 5/5=2,38=5/2;
 7//1,2,3,16;
 1/14=-1,18=20,19=15,26=3/3(-5);
 2/9=110/2;
 6/7=2,8=2,9=2,10=2,19=2,28=1/1;
 99/9=1/99;
 ----------
 [No Title]
 ----------
 Symbolic Z-matrix:
 Charge =  1 Multiplicity = 1
 C                     1.93276  -1.47123   0.00002 
 C                     2.61353  -0.25624  0. 
 C                     1.90767   0.94823  -0.00001 
 C                     0.52532   0.90876   0.00001 
 C                    -0.18261  -0.30052   0.00004 
 C                     0.54078  -1.49551   0.00004 
 C                    -1.67045  -0.30089   0.00006 
 O                    -2.21126  -1.49852  -0.00008 
 N                    -0.24055   2.17222   0.00001 
 O                    -2.33903   0.72943  -0.00004 
 H                     2.48678  -2.40327   0.00002 
 H                     3.69798  -0.23777  -0.00002 
 H                     2.43642   1.89748  -0.00002 
 H                     0.00226  -2.43677   0.00006 
 H                    -3.18137  -1.42286  -0.00018 
 H                    -0.04096   2.73807  -0.83031 
 H                    -1.27588   1.87871  -0.00006 
 H                    -0.04107   2.73802   0.83039 
 

 GradGradGradGradGradGradGradGradGradGradGradGradGradGradGradGradGradGrad
 Berny optimization.
 Initialization pass.
                           ----------------------------
                           !    Initial Parameters    !
                           ! (Angstroms and Degrees)  !
 --------------------------                            --------------------------
 ! Name  Definition              Value          Derivative Info.                !
 --------------------------------------------------------------------------------
 ! R1    R(1,2)                  1.3927         estimate D2E/DX2                !
 ! R2    R(1,6)                  1.3922         estimate D2E/DX2                !
 ! R3    R(1,11)                 1.0843         estimate D2E/DX2                !
 ! R4    R(2,3)                  1.3961         estimate D2E/DX2                !
 ! R5    R(2,12)                 1.0846         estimate D2E/DX2                !
 ! R6    R(3,4)                  1.3829         estimate D2E/DX2                !
 ! R7    R(3,13)                 1.0866         estimate D2E/DX2                !
 ! R8    R(4,5)                  1.4013         estimate D2E/DX2                !
 ! R9    R(4,9)                  1.4775         estimate D2E/DX2                !
 ! R10   R(5,6)                  1.3969         estimate D2E/DX2                !
 ! R11   R(5,7)                  1.4878         estimate D2E/DX2                !
 ! R12   R(6,14)                 1.0844         estimate D2E/DX2                !
 ! R13   R(7,8)                  1.3141         estimate D2E/DX2                !
 ! R14   R(7,10)                 1.2282         estimate D2E/DX2                !
 ! R15   R(8,15)                 0.9731         estimate D2E/DX2                !
 ! R16   R(9,16)                 1.0244         estimate D2E/DX2                !
 ! R17   R(9,17)                 1.0761         estimate D2E/DX2                !
 ! R18   R(9,18)                 1.0244         estimate D2E/DX2                !
 ! A1    A(2,1,6)              120.2616         estimate D2E/DX2                !
 ! A2    A(2,1,11)             120.0102         estimate D2E/DX2                !
 ! A3    A(6,1,11)             119.7282         estimate D2E/DX2                !
 ! A4    A(1,2,3)              120.3663         estimate D2E/DX2                !
 ! A5    A(1,2,12)             120.238          estimate D2E/DX2                !
 ! A6    A(3,2,12)             119.3957         estimate D2E/DX2                !
 ! A7    A(2,3,4)              118.7359         estimate D2E/DX2                !
 ! A8    A(2,3,13)             120.5099         estimate D2E/DX2                !
 ! A9    A(4,3,13)             120.7542         estimate D2E/DX2                !
 ! A10   A(3,4,5)              121.981          estimate D2E/DX2                !
 ! A11   A(3,4,9)              119.5873         estimate D2E/DX2                !
 ! A12   A(5,4,9)              118.4317         estimate D2E/DX2                !
 ! A13   A(4,5,6)              118.4657         estimate D2E/DX2                !
 ! A14   A(4,5,7)              120.3595         estimate D2E/DX2                !
 ! A15   A(6,5,7)              121.1748         estimate D2E/DX2                !
 ! A16   A(1,6,5)              120.1895         estimate D2E/DX2                !
 ! A17   A(1,6,14)             120.7746         estimate D2E/DX2                !
 ! A18   A(5,6,14)             119.0359         estimate D2E/DX2                !
 ! A19   A(5,7,8)              114.3165         estimate D2E/DX2                !
 ! A20   A(5,7,10)             122.9659         estimate D2E/DX2                !
 ! A21   A(8,7,10)             122.7175         estimate D2E/DX2                !
 ! A22   A(7,8,15)             109.8433         estimate D2E/DX2                !
 ! A23   A(4,9,16)             111.7998         estimate D2E/DX2                !
 ! A24   A(4,9,17)             105.3954         estimate D2E/DX2                !
 ! A25   A(4,9,18)             111.8            estimate D2E/DX2                !
 ! A26   A(16,9,17)            109.7579         estimate D2E/DX2                !
 ! A27   A(16,9,18)            108.299          estimate D2E/DX2                !
 ! A28   A(17,9,18)            109.7569         estimate D2E/DX2                !
 ! D1    D(6,1,2,3)              0.0            estimate D2E/DX2                !
 ! D2    D(6,1,2,12)          -179.9999         estimate D2E/DX2                !
 ! D3    D(11,1,2,3)           179.9999         estimate D2E/DX2                !
 ! D4    D(11,1,2,12)            0.0            estimate D2E/DX2                !
 ! D5    D(2,1,6,5)             -0.0002         estimate D2E/DX2                !
 ! D6    D(2,1,6,14)          -179.9999         estimate D2E/DX2                !
 ! D7    D(11,1,6,5)           179.9999         estimate D2E/DX2                !
 ! D8    D(11,1,6,14)            0.0001         estimate D2E/DX2                !
 ! D9    D(1,2,3,4)             -0.0001         estimate D2E/DX2                !
 ! D10   D(1,2,3,13)           179.9999         estimate D2E/DX2                !
 ! D11   D(12,2,3,4)           179.9999         estimate D2E/DX2                !
 ! D12   D(12,2,3,13)           -0.0002         estimate D2E/DX2                !
 ! D13   D(2,3,4,5)              0.0003         estimate D2E/DX2                !
 ! D14   D(2,3,4,9)           -179.9998         estimate D2E/DX2                !
 ! D15   D(13,3,4,5)          -179.9997         estimate D2E/DX2                !
 ! D16   D(13,3,4,9)             0.0003         estimate D2E/DX2                !
 ! D17   D(3,4,5,6)             -0.0005         estimate D2E/DX2                !
 ! D18   D(3,4,5,7)           -180.0            estimate D2E/DX2                !
 ! D19   D(9,4,5,6)            179.9996         estimate D2E/DX2                !
 ! D20   D(9,4,5,7)              0.0001         estimate D2E/DX2                !
 ! D21   D(3,4,9,16)            60.8012         estimate D2E/DX2                !
 ! D22   D(3,4,9,17)           179.9952         estimate D2E/DX2                !
 ! D23   D(3,4,9,18)           -60.8118         estimate D2E/DX2                !
 ! D24   D(5,4,9,16)          -119.1988         estimate D2E/DX2                !
 ! D25   D(5,4,9,17)            -0.0048         estimate D2E/DX2                !
 ! D26   D(5,4,9,18)           119.1882         estimate D2E/DX2                !
 ! D27   D(4,5,6,1)              0.0004         estimate D2E/DX2                !
 ! D28   D(4,5,6,14)          -179.9998         estimate D2E/DX2                !
 ! D29   D(7,5,6,1)            179.9999         estimate D2E/DX2                !
 ! D30   D(7,5,6,14)            -0.0003         estimate D2E/DX2                !
 ! D31   D(4,5,7,8)            179.992          estimate D2E/DX2                !
 ! D32   D(4,5,7,10)             0.0051         estimate D2E/DX2                !
 ! D33   D(6,5,7,8)             -0.0075         estimate D2E/DX2                !
 ! D34   D(6,5,7,10)          -179.9944         estimate D2E/DX2                !
 ! D35   D(5,7,8,15)          -179.9925         estimate D2E/DX2                !
 ! D36   D(10,7,8,15)           -0.0055         estimate D2E/DX2                !
 --------------------------------------------------------------------------------
 Trust Radius=3.00D-01 FncErr=1.00D-07 GrdErr=1.00D-06
 Number of steps in this run=     92 maximum allowed number of steps=    108.
 GradGradGradGradGradGradGradGradGradGradGradGradGradGradGradGradGradGrad

                          Input orientation:                          
 ---------------------------------------------------------------------
 Center     Atomic      Atomic             Coordinates (Angstroms)
 Number     Number       Type             X           Y           Z
 ---------------------------------------------------------------------
      1          6           0        1.932763   -1.471226    0.000021
      2          6           0        2.613527   -0.256240   -0.000002
      3          6           0        1.907673    0.948231   -0.000005
      4          6           0        0.525320    0.908758    0.000014
      5          6           0       -0.182612   -0.300522    0.000042
      6          6           0        0.540781   -1.495509    0.000041
      7          6           0       -1.670450   -0.300889    0.000061
      8          8           0       -2.211260   -1.498517   -0.000080
      9          7           0       -0.240547    2.172215    0.000006
     10          8           0       -2.339035    0.729426   -0.000038
     11          1           0        2.486781   -2.403274    0.000022
     12          1           0        3.697984   -0.237768   -0.000019
     13          1           0        2.436421    1.897478   -0.000021
     14          1           0        0.002258   -2.436767    0.000060
     15          1           0       -3.181374   -1.422864   -0.000178
     16          1           0       -0.040956    2.738069   -0.830310
     17          1           0       -1.275878    1.878709   -0.000062
     18          1           0       -0.041066    2.738016    0.830386
 ---------------------------------------------------------------------
                    Distance matrix (angstroms):
                    1          2          3          4          5
     1  C    0.000000
     2  C    1.392706   0.000000
     3  C    2.419587   1.396059   0.000000
     4  C    2.764999   2.391198   1.382916   0.000000
     5  C    2.417718   2.796490   2.434887   1.401259   0.000000
     6  C    1.392194   2.414967   2.800046   2.404317   1.396886
     7  C    3.788513   4.284210   3.789890   2.506921   1.487838
     8  O    4.144113   4.982150   4.790844   3.644701   2.355972
     9  N    4.242398   3.747417   2.472445   1.477456   2.473416
    10  O    4.805323   5.049694   4.252341   2.869963   2.389760
    11  H    1.084274   2.150772   3.401169   3.849271   3.398121
    12  H    2.153468   1.084614   2.147512   3.373473   3.881103
    13  H    3.406147   2.160988   1.086575   2.151714   3.419143
    14  H    2.158499   3.401974   3.884433   3.386168   2.144229
    15  H    5.114366   5.911166   5.614311   4.379046   3.201910
    16  H    4.722624   4.086756   2.773100   2.087219   3.153187
    17  H    4.638690   4.436832   3.316743   2.045756   2.438089
    18  H    4.722629   4.086805   2.773168   2.087222   3.153129
                    6          7          8          9         10
     6  C    0.000000
     7  C    2.513297   0.000000
     8  O    2.752043   1.314073   0.000000
     9  N    3.750023   2.856723   4.166291   0.000000
    10  O    3.639186   1.228232   2.231604   2.546624   0.000000
    11  H    2.147313   4.658604   4.784368   5.326670   5.753461
    12  H    3.398506   5.368805   6.042239   4.617363   6.114005
    13  H    3.886620   4.658241   5.756190   2.691029   4.916231
    14  H    1.084423   2.712919   2.404158   4.615373   3.937821
    15  H    3.722864   1.881946   0.973059   4.644680   2.311252
    16  H    4.353284   3.546834   4.831994   1.024428   3.163094
    17  H    3.832179   2.215025   3.504368   1.076130   1.565616
    18  H    4.353246   3.546727   4.831938   1.024429   3.163021
                   11         12         13         14         15
    11  H    0.000000
    12  H    2.481215   0.000000
    13  H    4.301047   2.480084   0.000000
    14  H    2.484749   4.300464   4.970999   0.000000
    15  H    5.752320   6.980689   6.525664   3.341184   0.000000
    16  H    5.788982   4.850223   2.744698   5.241213   5.278703
    17  H    5.700262   5.405440   3.712346   4.500774   3.811994
    18  H    5.788988   4.850295   2.744817   5.241154   5.278664
                   16         17         18
    16  H    0.000000
    17  H    1.718384   0.000000
    18  H    1.660696   1.718375   0.000000
 Stoichiometry    C7H8NO2(1+)
 Framework group  C1[X(C7H8NO2)]
 Deg. of freedom    48
 Full point group                 C1      NOp   1
 Largest Abelian subgroup         C1      NOp   1
 Largest concise Abelian subgroup C1      NOp   1
                         Standard orientation:                         
 ---------------------------------------------------------------------
 Center     Atomic      Atomic             Coordinates (Angstroms)
 Number     Number       Type             X           Y           Z
 ---------------------------------------------------------------------
      1          6           0        1.932763   -1.471226    0.000021
      2          6           0        2.613527   -0.256240   -0.000002
      3          6           0        1.907673    0.948231   -0.000005
      4          6           0        0.525320    0.908758    0.000014
      5          6           0       -0.182612   -0.300522    0.000042
      6          6           0        0.540781   -1.495509    0.000041
      7          6           0       -1.670450   -0.300889    0.000061
      8          8           0       -2.211260   -1.498517   -0.000080
      9          7           0       -0.240547    2.172215    0.000006
     10          8           0       -2.339035    0.729426   -0.000038
     11          1           0        2.486781   -2.403274    0.000022
     12          1           0        3.697984   -0.237768   -0.000019
     13          1           0        2.436421    1.897478   -0.000021
     14          1           0        0.002258   -2.436767    0.000060
     15          1           0       -3.181374   -1.422864   -0.000178
     16          1           0       -0.040956    2.738069   -0.830310
     17          1           0       -1.275878    1.878709   -0.000062
     18          1           0       -0.041066    2.738016    0.830386
 ---------------------------------------------------------------------
 Rotational constants (GHZ):      2.2510583      1.2124832      0.7914590
 Standard basis: 6-31+G(d,p) (6D, 7F)
 There are   230 symmetry adapted cartesian basis functions of A   symmetry.
 There are   230 symmetry adapted basis functions of A   symmetry.
   230 basis functions,   376 primitive gaussians,   230 cartesian basis functions
    36 alpha electrons       36 beta electrons
       nuclear repulsion energy       516.0160865369 Hartrees.
 NAtoms=   18 NActive=   18 NUniq=   18 SFac= 1.00D+00 NAtFMM=   60 NAOKFM=F Big=F
 Integral buffers will be    131072 words long.
 Raffenetti 2 integral format.
 Two-electron integral symmetry is turned on.
 One-electron integrals computed using PRISM.
 NBasis=   230 RedAO= T EigKep=  2.22D-06  NBF=   230
 NBsUse=   230 1.00D-06 EigRej= -1.00D+00 NBFU=   230
 ExpMin= 4.38D-02 ExpMax= 5.48D+03 ExpMxC= 8.25D+02 IAcc=2 IRadAn=         4 AccDes= 0.00D+00
 Harris functional with IExCor=  408 and IRadAn=       4 diagonalized for initial guess.
 HarFok:  IExCor=  408 AccDes= 0.00D+00 IRadAn=         4 IDoV= 1 UseB2=F ITyADJ=14
 ICtDFT=  3500011 ScaDFX=  1.000000  1.000000  1.000000  1.000000
 FoFCou: FMM=F IPFlag=           0 FMFlag=      100000 FMFlg1=           0
         NFxFlg=           0 DoJE=T BraDBF=F KetDBF=T FulRan=T
         wScrn=  0.000000 ICntrl=     500 IOpCl=  0 I1Cent=   200000004 NGrid=           0
         NMat0=    1 NMatS0=      1 NMatT0=    0 NMatD0=    1 NMtDS0=    0 NMtDT0=    0
 Petite list used in FoFCou.
 Keep R1 ints in memory in canonical form, NReq=359209085.
 Requested convergence on RMS density matrix=1.00D-08 within 128 cycles.
 Requested convergence on MAX density matrix=1.00D-06.
 Requested convergence on             energy=1.00D-06.
 No special actions if energy rises.
 SCF Done:  E(RB3PW91) =  -476.393820528     A.U. after   14 cycles
            NFock= 14  Conv=0.73D-08     -V/T= 2.0091

 **********************************************************************

            Population analysis using the SCF density.

 **********************************************************************

 Orbital symmetries:
       Occupied  (A) (A) (A) (A) (A) (A) (A) (A) (A) (A) (A) (A)
                 (A) (A) (A) (A) (A) (A) (A) (A) (A) (A) (A) (A)
                 (A) (A) (A) (A) (A) (A) (A) (A) (A) (A) (A) (A)
       Virtual   (A) (A) (A) (A) (A) (A) (A) (A) (A) (A) (A) (A)
                 (A) (A) (A) (A) (A) (A) (A) (A) (A) (A) (A) (A)
                 (A) (A) (A) (A) (A) (A) (A) (A) (A) (A) (A) (A)
                 (A) (A) (A) (A) (A) (A) (A) (A) (A) (A) (A) (A)
                 (A) (A) (A) (A) (A) (A) (A) (A) (A) (A) (A) (A)
                 (A) (A) (A) (A) (A) (A) (A) (A) (A) (A) (A) (A)
                 (A) (A) (A) (A) (A) (A) (A) (A) (A) (A) (A) (A)
                 (A) (A) (A) (A) (A) (A) (A) (A) (A) (A) (A) (A)
                 (A) (A) (A) (A) (A) (A) (A) (A) (A) (A) (A) (A)
                 (A) (A) (A) (A) (A) (A) (A) (A) (A) (A) (A) (A)
                 (A) (A) (A) (A) (A) (A) (A) (A) (A) (A) (A) (A)
                 (A) (A) (A) (A) (A) (A) (A) (A) (A) (A) (A) (A)
                 (A) (A) (A) (A) (A) (A) (A) (A) (A) (A) (A) (A)
                 (A) (A) (A) (A) (A) (A) (A) (A) (A) (A) (A) (A)
                 (A) (A) (A) (A) (A) (A) (A) (A) (A) (A) (A) (A)
                 (A) (A) (A) (A) (A) (A) (A) (A) (A) (A) (A) (A)
                 (A) (A)
 The electronic state is 1-A.
 Alpha  occ. eigenvalues --  -19.36634 -19.32136 -14.61729 -10.49661 -10.42138
 Alpha  occ. eigenvalues --  -10.38065 -10.36568 -10.35857 -10.35741 -10.34904
 Alpha  occ. eigenvalues --   -1.30169  -1.21466  -1.18000  -1.04384  -0.95387
 Alpha  occ. eigenvalues --   -0.93041  -0.84593  -0.81340  -0.78440  -0.75985
 Alpha  occ. eigenvalues --   -0.74247  -0.71658  -0.68680  -0.67135  -0.63675
 Alpha  occ. eigenvalues --   -0.63089  -0.61798  -0.61023  -0.57152  -0.54928
 Alpha  occ. eigenvalues --   -0.54147  -0.52845  -0.50421  -0.47082  -0.43928
 Alpha  occ. eigenvalues --   -0.43730
 Alpha virt. eigenvalues --   -0.22939  -0.19150  -0.15760  -0.12450  -0.11187
 Alpha virt. eigenvalues --   -0.10347  -0.08971  -0.08294  -0.07153  -0.06256
 Alpha virt. eigenvalues --   -0.05276  -0.05143  -0.04223  -0.03191  -0.02898
 Alpha virt. eigenvalues --   -0.01778  -0.00633  -0.00290   0.00051   0.00430
 Alpha virt. eigenvalues --    0.01710   0.01722   0.02172   0.03069   0.04597
 Alpha virt. eigenvalues --    0.04742   0.05431   0.05547   0.06544   0.06566
 Alpha virt. eigenvalues --    0.06889   0.07513   0.08326   0.09085   0.09615
 Alpha virt. eigenvalues --    0.09762   0.10276   0.10958   0.11414   0.12743
 Alpha virt. eigenvalues --    0.13850   0.14006   0.14431   0.15029   0.16081
 Alpha virt. eigenvalues --    0.16698   0.17196   0.17414   0.18147   0.19620
 Alpha virt. eigenvalues --    0.20650   0.21221   0.22392   0.23644   0.25193
 Alpha virt. eigenvalues --    0.27511   0.28603   0.31730   0.34433   0.34916
 Alpha virt. eigenvalues --    0.42700   0.46103   0.49243   0.50436   0.52419
 Alpha virt. eigenvalues --    0.53923   0.56575   0.56976   0.58140   0.58301
 Alpha virt. eigenvalues --    0.58890   0.61692   0.62040   0.65621   0.65695
 Alpha virt. eigenvalues --    0.66399   0.68728   0.70698   0.72255   0.75868
 Alpha virt. eigenvalues --    0.78284   0.78943   0.79695   0.80524   0.83815
 Alpha virt. eigenvalues --    0.85991   0.88926   0.89423   0.93864   0.95462
 Alpha virt. eigenvalues --    0.96275   0.98062   0.99582   1.00249   1.02417
 Alpha virt. eigenvalues --    1.03107   1.04947   1.05882   1.08407   1.10280
 Alpha virt. eigenvalues --    1.11306   1.14309   1.14862   1.16974   1.17461
 Alpha virt. eigenvalues --    1.20349   1.21251   1.21925   1.23106   1.24062
 Alpha virt. eigenvalues --    1.25117   1.28189   1.33869   1.41155   1.41515
 Alpha virt. eigenvalues --    1.50439   1.51527   1.54398   1.54560   1.59608
 Alpha virt. eigenvalues --    1.62373   1.64072   1.66524   1.67074   1.69935
 Alpha virt. eigenvalues --    1.73080   1.75935   1.78386   1.80849   1.81253
 Alpha virt. eigenvalues --    1.83255   1.84730   1.85312   1.85455   1.89737
 Alpha virt. eigenvalues --    1.93008   1.93460   2.01690   2.02103   2.09450
 Alpha virt. eigenvalues --    2.11969   2.12284   2.16782   2.19353   2.20915
 Alpha virt. eigenvalues --    2.21351   2.23542   2.25044   2.25438   2.26605
 Alpha virt. eigenvalues --    2.33099   2.34557   2.35163   2.37608   2.40872
 Alpha virt. eigenvalues --    2.41827   2.44219   2.45891   2.46793   2.50030
 Alpha virt. eigenvalues --    2.52486   2.55047   2.57210   2.59556   2.63324
 Alpha virt. eigenvalues --    2.65617   2.70458   2.70826   2.75785   2.80963
 Alpha virt. eigenvalues --    2.89078   2.93572   2.99923   3.02128   3.08489
 Alpha virt. eigenvalues --    3.12031   3.13565   3.17344   3.17958   3.21800
 Alpha virt. eigenvalues --    3.32978   3.34180   3.40971   3.70525   4.05668
 Alpha virt. eigenvalues --    4.11658   4.13934   4.15618   4.21039   4.31496
 Alpha virt. eigenvalues --    4.33331   4.40062   4.66626   4.69876
          Condensed to atoms (all electrons):
               1          2          3          4          5          6
     1  C    7.962372  -0.271585   1.364264  -1.307043   0.596171  -2.630239
     2  C   -0.271585   6.511687  -1.571652   1.863521  -1.766915   1.608523
     3  C    1.364264  -1.571652  15.488679  -5.168125  -0.927144  -4.452656
     4  C   -1.307043   1.863521  -5.168125  19.833507  -5.556771  -1.508387
     5  C    0.596171  -1.766915  -0.927144  -5.556771  13.937432  -1.872307
     6  C   -2.630239   1.608523  -4.452656  -1.508387  -1.872307  16.360166
     7  C   -0.183135  -0.202644   0.654156  -0.740588   0.041316  -0.710578
     8  O    0.117690  -0.005368   0.032711   0.030408  -0.030135  -0.154047
     9  N   -0.042503  -0.002849  -0.711047   0.149055   0.326371   0.189908
    10  O    0.048249  -0.009758   0.077656  -0.201232  -0.014382  -0.060622
    11  H    0.192140   0.061162  -0.005629  -0.001770   0.005756   0.071821
    12  H    0.089392   0.190746   0.090726  -0.063197   0.036075  -0.018979
    13  H   -0.003287   0.112095   0.221088   0.051177  -0.048033  -0.012266
    14  H    0.110223  -0.029396   0.040353   0.016652   0.132847   0.037608
    15  H   -0.008914  -0.000308   0.003337  -0.007952   0.017397   0.001178
    16  H    0.000790  -0.006303  -0.019050  -0.045222   0.047804   0.002663
    17  H    0.003588  -0.003424   0.215042   0.127311  -0.279979  -0.084663
    18  H    0.000793  -0.006292  -0.018968  -0.045113   0.047643   0.002623
               7          8          9         10         11         12
     1  C   -0.183135   0.117690  -0.042503   0.048249   0.192140   0.089392
     2  C   -0.202644  -0.005368  -0.002849  -0.009758   0.061162   0.190746
     3  C    0.654156   0.032711  -0.711047   0.077656  -0.005629   0.090726
     4  C   -0.740588   0.030408   0.149055  -0.201232  -0.001770  -0.063197
     5  C    0.041316  -0.030135   0.326371  -0.014382   0.005756   0.036075
     6  C   -0.710578  -0.154047   0.189908  -0.060622   0.071821  -0.018979
     7  C    5.970621   0.122858  -0.109706   0.360198   0.004225   0.002501
     8  O    0.122858   8.244532  -0.012287  -0.141648   0.000064   0.000007
     9  N   -0.109706  -0.012287   7.090815  -0.034843   0.000186  -0.000374
    10  O    0.360198  -0.141648  -0.034843   8.340612   0.000027  -0.000001
    11  H    0.004225   0.000064   0.000186   0.000027   0.476022  -0.004059
    12  H    0.002501   0.000007  -0.000374  -0.000001  -0.004059   0.476603
    13  H    0.004225   0.000017  -0.003568   0.000104  -0.000124  -0.004144
    14  H    0.008748   0.003180  -0.001190   0.000090  -0.003860  -0.000124
    15  H    0.027618   0.204664   0.000548   0.001496  -0.000000   0.000000
    16  H    0.003902   0.000176   0.306321   0.001126  -0.000000  -0.000002
    17  H    0.030283   0.003198   0.177406   0.096074  -0.000000   0.000002
    18  H    0.003898   0.000175   0.306315   0.001128  -0.000000  -0.000002
              13         14         15         16         17         18
     1  C   -0.003287   0.110223  -0.008914   0.000790   0.003588   0.000793
     2  C    0.112095  -0.029396  -0.000308  -0.006303  -0.003424  -0.006292
     3  C    0.221088   0.040353   0.003337  -0.019050   0.215042  -0.018968
     4  C    0.051177   0.016652  -0.007952  -0.045222   0.127311  -0.045113
     5  C   -0.048033   0.132847   0.017397   0.047804  -0.279979   0.047643
     6  C   -0.012266   0.037608   0.001178   0.002663  -0.084663   0.002623
     7  C    0.004225   0.008748   0.027618   0.003902   0.030283   0.003898
     8  O    0.000017   0.003180   0.204664   0.000176   0.003198   0.000175
     9  N   -0.003568  -0.001190   0.000548   0.306321   0.177406   0.306315
    10  O    0.000104   0.000090   0.001496   0.001126   0.096074   0.001128
    11  H   -0.000124  -0.003860  -0.000000  -0.000000  -0.000000  -0.000000
    12  H   -0.004144  -0.000124   0.000000  -0.000002   0.000002  -0.000002
    13  H    0.492201   0.000011  -0.000000   0.000623   0.000073   0.000622
    14  H    0.000011   0.468866  -0.000028   0.000002   0.000007   0.000002
    15  H   -0.000000  -0.000028   0.339286  -0.000001  -0.000024  -0.000001
    16  H    0.000623   0.000002  -0.000001   0.326282  -0.008956  -0.022888
    17  H    0.000073   0.000007  -0.000024  -0.008956   0.284271  -0.008958
    18  H    0.000622   0.000002  -0.000001  -0.022888  -0.008958   0.326280
 Mulliken charges:
               1
     1  C   -0.038964
     2  C   -0.471240
     3  C    0.686259
     4  C   -1.426230
     5  C    1.306854
     6  C   -0.769748
     7  C    0.712101
     8  O   -0.416195
     9  N   -0.628559
    10  O   -0.464274
    11  H    0.204039
    12  H    0.204829
    13  H    0.189190
    14  H    0.216008
    15  H    0.421704
    16  H    0.412735
    17  H    0.448750
    18  H    0.412741
 Sum of Mulliken charges =   1.00000
 Mulliken charges with hydrogens summed into heavy atoms:
               1
     1  C    0.165074
     2  C   -0.266410
     3  C    0.875449
     4  C   -1.426230
     5  C    1.306854
     6  C   -0.553740
     7  C    0.712101
     8  O    0.005510
     9  N    0.645667
    10  O   -0.464274
 Electronic spatial extent (au):  <R**2>=           1364.8982
 Charge=              1.0000 electrons
 Dipole moment (field-independent basis, Debye):
    X=              1.0408    Y=              4.1866    Z=              0.0000  Tot=              4.3140
 Quadrupole moment (field-independent basis, Debye-Ang):
   XX=            -35.5568   YY=            -28.3417   ZZ=            -56.1995
   XY=              3.7186   XZ=              0.0003   YZ=              0.0002
 Traceless Quadrupole moment (field-independent basis, Debye-Ang):
   XX=              4.4759   YY=             11.6910   ZZ=            -16.1668
   XY=              3.7186   XZ=              0.0003   YZ=              0.0002
 Octapole moment (field-independent basis, Debye-Ang**2):
  XXX=            -11.6234  YYY=             49.4521  ZZZ=             -0.0004  XYY=             -0.7280
  XXY=            -26.0268  XXZ=             -0.0031  XZZ=            -11.1865  YZZ=              9.6664
  YYZ=             -0.0003  XYZ=             -0.0017
 Hexadecapole moment (field-independent basis, Debye-Ang**3):
 XXXX=           -778.8797 YYYY=           -398.9137 ZZZZ=            -59.7455 XXXY=             84.4512
 XXXZ=              0.0049 YYYX=             -6.7121 YYYZ=              0.0000 ZZZX=             -0.0045
 ZZZY=              0.0011 XXYY=           -221.1881 XXZZ=           -195.8026 YYZZ=            -96.2032
 XXYZ=              0.0045 YYXZ=             -0.0001 ZZXY=              3.2516
 N-N= 5.160160865369D+02 E-N=-2.129143467628D+03  KE= 4.720857695830D+02
 Calling FoFJK, ICntrl=      2127 FMM=F ISym2X=0 I1Cent= 0 IOpClX= 0 NMat=1 NMatS=1 NMatT=0.
 ***** Axes restored to original set *****
 -------------------------------------------------------------------
 Center     Atomic                   Forces (Hartrees/Bohr)
 Number     Number              X              Y              Z
 -------------------------------------------------------------------
      1        6          -0.000394983   -0.001008335   -0.000000687
      2        6           0.001058597    0.000361232    0.000000101
      3        6           0.000534189    0.000396481   -0.000000479
      4        6          -0.000224253    0.002957623    0.000001249
      5        6          -0.006084875   -0.000494331    0.000008751
      6        6           0.001663193   -0.001360456    0.000001065
      7        6           0.008107356   -0.003050007   -0.000031087
      8        8          -0.001869344   -0.004337966    0.000009201
      9        7           0.001300925    0.000153217   -0.000000285
     10        8          -0.005170316    0.007764544    0.000010043
     11        1           0.000321022   -0.000518067   -0.000000027
     12        1           0.000553612    0.000000900    0.000000160
     13        1           0.000456382    0.000069740   -0.000000365
     14        1           0.000387283   -0.000091135    0.000000098
     15        1           0.000121736    0.000460944    0.000000932
     16        1          -0.000383744   -0.000042124    0.000813910
     17        1           0.000007257   -0.001219916    0.000001787
     18        1          -0.000384036   -0.000042345   -0.000814365
 -------------------------------------------------------------------
 Cartesian Forces:  Max     0.008107356 RMS     0.002125776

 GradGradGradGradGradGradGradGradGradGradGradGradGradGradGradGradGradGrad
 Berny optimization.
 FormGI is forming the generalized inverse of G from B-inverse, IUseBI=4.
 Internal  Forces:  Max     0.009327801 RMS     0.001367215
 Search for a local minimum.
 Step number   1 out of a maximum of   92
 All quantities printed in internal units (Hartrees-Bohrs-Radians)
 Mixed Optimization -- RFO/linear search
 Second derivative matrix not updated -- first step.
 ITU=  0
     Eigenvalues ---    0.00667   0.00927   0.01558   0.01599   0.01741
     Eigenvalues ---    0.02110   0.02158   0.02163   0.02175   0.02189
     Eigenvalues ---    0.02212   0.02245   0.02828   0.07077   0.07764
     Eigenvalues ---    0.16000   0.16000   0.16000   0.16000   0.16000
     Eigenvalues ---    0.16000   0.16000   0.16000   0.22000   0.22494
     Eigenvalues ---    0.24486   0.25000   0.25000   0.25000   0.25000
     Eigenvalues ---    0.33688   0.34862   0.35212   0.35443   0.35465
     Eigenvalues ---    0.35483   0.36466   0.42077   0.42653   0.43639
     Eigenvalues ---    0.43639   0.46000   0.46211   0.46772   0.48074
     Eigenvalues ---    0.52757   0.63432   0.91827
 RFO step:  Lambda=-2.91341837D-04 EMin= 6.67187613D-03
 Linear search not attempted -- first point.
 Iteration  1 RMS(Cart)=  0.01039755 RMS(Int)=  0.00005633
 Iteration  2 RMS(Cart)=  0.00005922 RMS(Int)=  0.00000678
 Iteration  3 RMS(Cart)=  0.00000000 RMS(Int)=  0.00000678
 Variable       Old X    -DE/DX   Delta X   Delta X   Delta X     New X
                                 (Linear)    (Quad)   (Total)
    R1        2.63183   0.00143   0.00000   0.00290   0.00290   2.63473
    R2        2.63086   0.00075   0.00000   0.00153   0.00153   2.63240
    R3        2.04898   0.00061   0.00000   0.00172   0.00172   2.05070
    R4        2.63817   0.00109   0.00000   0.00228   0.00228   2.64044
    R5        2.04962   0.00055   0.00000   0.00156   0.00156   2.05118
    R6        2.61333   0.00176   0.00000   0.00369   0.00369   2.61702
    R7        2.05333   0.00028   0.00000   0.00080   0.00080   2.05413
    R8        2.64800   0.00232   0.00000   0.00525   0.00525   2.65325
    R9        2.79199  -0.00126   0.00000  -0.00362  -0.00362   2.78836
   R10        2.63973   0.00300   0.00000   0.00658   0.00658   2.64631
   R11        2.81161  -0.00119   0.00000  -0.00353  -0.00353   2.80808
   R12        2.04926  -0.00011   0.00000  -0.00032  -0.00032   2.04894
   R13        2.48324   0.00425   0.00000   0.00670   0.00670   2.48994
   R14        2.32102   0.00933   0.00000   0.01015   0.01015   2.33118
   R15        1.83882  -0.00009   0.00000  -0.00016  -0.00016   1.83865
   R16        1.93589  -0.00076   0.00000  -0.00174  -0.00174   1.93415
   R17        2.03359   0.00033   0.00000   0.00089   0.00089   2.03448
   R18        1.93589  -0.00076   0.00000  -0.00174  -0.00174   1.93415
    A1        2.09896   0.00020   0.00000   0.00042   0.00042   2.09938
    A2        2.09457  -0.00011   0.00000  -0.00028  -0.00028   2.09429
    A3        2.08965  -0.00009   0.00000  -0.00014  -0.00014   2.08952
    A4        2.10079  -0.00006   0.00000  -0.00083  -0.00083   2.09996
    A5        2.09855   0.00002   0.00000   0.00036   0.00036   2.09891
    A6        2.08385   0.00004   0.00000   0.00047   0.00047   2.08432
    A7        2.07233   0.00015   0.00000   0.00058   0.00058   2.07291
    A8        2.10329  -0.00045   0.00000  -0.00262  -0.00262   2.10067
    A9        2.10756   0.00030   0.00000   0.00205   0.00205   2.10961
   A10        2.12897   0.00040   0.00000   0.00193   0.00193   2.13090
   A11        2.08719   0.00158   0.00000   0.00614   0.00614   2.09333
   A12        2.06702  -0.00198   0.00000  -0.00807  -0.00807   2.05895
   A13        2.06762  -0.00127   0.00000  -0.00472  -0.00471   2.06290
   A14        2.10067  -0.00084   0.00000  -0.00354  -0.00354   2.09713
   A15        2.11490   0.00211   0.00000   0.00826   0.00825   2.12315
   A16        2.09770   0.00058   0.00000   0.00262   0.00262   2.10032
   A17        2.10792  -0.00068   0.00000  -0.00375  -0.00375   2.10417
   A18        2.07757   0.00010   0.00000   0.00113   0.00113   2.07870
   A19        1.99520   0.00048   0.00000   0.00194   0.00194   1.99714
   A20        2.14616  -0.00011   0.00000  -0.00046  -0.00046   2.14571
   A21        2.14183  -0.00037   0.00000  -0.00148  -0.00148   2.14034
   A22        1.91713  -0.00086   0.00000  -0.00538  -0.00538   1.91175
   A23        1.95128   0.00083   0.00000   0.00596   0.00595   1.95722
   A24        1.83950  -0.00198   0.00000  -0.01379  -0.01378   1.82572
   A25        1.95128   0.00083   0.00000   0.00596   0.00594   1.95722
   A26        1.91564   0.00040   0.00000   0.00112   0.00113   1.91676
   A27        1.89017  -0.00049   0.00000  -0.00057  -0.00061   1.88956
   A28        1.91562   0.00040   0.00000   0.00110   0.00111   1.91673
    D1        0.00000   0.00000   0.00000   0.00001   0.00001   0.00001
    D2       -3.14159  -0.00000   0.00000  -0.00000  -0.00000  -3.14159
    D3        3.14159   0.00000   0.00000   0.00000   0.00000  -3.14159
    D4        0.00000  -0.00000   0.00000  -0.00000  -0.00000  -0.00000
    D5       -0.00000   0.00000   0.00000   0.00001   0.00001   0.00001
    D6       -3.14159  -0.00000   0.00000  -0.00001  -0.00001   3.14158
    D7        3.14159   0.00000   0.00000   0.00001   0.00001  -3.14158
    D8        0.00000  -0.00000   0.00000  -0.00001  -0.00001  -0.00001
    D9       -0.00000   0.00000   0.00000   0.00000   0.00000   0.00000
   D10        3.14159  -0.00000   0.00000  -0.00001  -0.00001   3.14158
   D11        3.14159   0.00000   0.00000   0.00001   0.00001  -3.14159
   D12       -0.00000   0.00000   0.00000   0.00000   0.00000  -0.00000
   D13        0.00000  -0.00000   0.00000  -0.00003  -0.00003  -0.00002
   D14       -3.14159  -0.00000   0.00000  -0.00002  -0.00002   3.14157
   D15       -3.14159  -0.00000   0.00000  -0.00002  -0.00002   3.14158
   D16        0.00001  -0.00000   0.00000  -0.00002  -0.00002  -0.00001
   D17       -0.00001   0.00000   0.00000   0.00004   0.00004   0.00003
   D18       -3.14159   0.00000   0.00000   0.00005   0.00005  -3.14154
   D19        3.14159   0.00000   0.00000   0.00004   0.00004  -3.14156
   D20        0.00000   0.00000   0.00000   0.00005   0.00005   0.00005
   D21        1.06118   0.00028   0.00000   0.00397   0.00398   1.06517
   D22        3.14151   0.00000   0.00000   0.00008   0.00008  -3.14159
   D23       -1.06137  -0.00028   0.00000  -0.00382  -0.00384  -1.06521
   D24       -2.08041   0.00028   0.00000   0.00397   0.00399  -2.07643
   D25       -0.00008   0.00000   0.00000   0.00008   0.00008   0.00000
   D26        2.08023  -0.00028   0.00000  -0.00382  -0.00384   2.07638
   D27        0.00001  -0.00000   0.00000  -0.00003  -0.00003  -0.00002
   D28       -3.14159  -0.00000   0.00000  -0.00001  -0.00001   3.14159
   D29        3.14159  -0.00000   0.00000  -0.00004  -0.00004   3.14155
   D30       -0.00001  -0.00000   0.00000  -0.00002  -0.00002  -0.00003
   D31        3.14145   0.00001   0.00000   0.00055   0.00055  -3.14118
   D32        0.00009  -0.00001   0.00000  -0.00042  -0.00042  -0.00034
   D33       -0.00013   0.00001   0.00000   0.00057   0.00057   0.00044
   D34       -3.14150  -0.00001   0.00000  -0.00041  -0.00041   3.14128
   D35       -3.14146  -0.00001   0.00000  -0.00051  -0.00051   3.14121
   D36       -0.00010   0.00001   0.00000   0.00046   0.00046   0.00036
         Item               Value     Threshold  Converged?
 Maximum Force            0.009328     0.000450     NO 
 RMS     Force            0.001367     0.000300     NO 
 Maximum Displacement     0.051594     0.001800     NO 
 RMS     Displacement     0.010403     0.001200     NO 
 Predicted change in Energy=-1.458447D-04
 GradGradGradGradGradGradGradGradGradGradGradGradGradGradGradGradGradGrad

                          Input orientation:                          
 ---------------------------------------------------------------------
 Center     Atomic      Atomic             Coordinates (Angstroms)
 Number     Number       Type             X           Y           Z
 ---------------------------------------------------------------------
      1          6           0        1.937782   -1.472526    0.000001
      2          6           0        2.619343   -0.256227    0.000079
      3          6           0        1.911927    0.948724    0.000060
      4          6           0        0.527632    0.908898   -0.000038
      5          6           0       -0.183784   -0.301560   -0.000141
      6          6           0        0.544998   -1.497348   -0.000105
      7          6           0       -1.669736   -0.294112   -0.000311
      8          8           0       -2.220631   -1.491039    0.000100
      9          7           0       -0.245240    2.165831   -0.000034
     10          8           0       -2.335322    0.744531   -0.000023
     11          1           0        2.492489   -2.405220    0.000018
     12          1           0        3.704620   -0.237392    0.000161
     13          1           0        2.442622    1.897371    0.000129
     14          1           0        0.010445   -2.440672   -0.000177
     15          1           0       -3.189632   -1.403201    0.000307
     16          1           0       -0.056069    2.734978   -0.829406
     17          1           0       -1.274905    1.851406   -0.000119
     18          1           0       -0.056211    2.734884    0.829435
 ---------------------------------------------------------------------
                    Distance matrix (angstroms):
                    1          2          3          4          5
     1  C    0.000000
     2  C    1.394241   0.000000
     3  C    2.421388   1.397263   0.000000
     4  C    2.767616   2.394321   1.384868   0.000000
     5  C    2.423263   2.803493   2.440331   1.404038   0.000000
     6  C    1.393006   2.417290   2.802100   2.406308   1.400368
     7  C    3.795108   4.289246   3.791168   2.505127   1.485971
     8  O    4.158455   4.995009   4.799009   3.648651   2.358731
     9  N    4.243021   3.751294   2.476837   1.475538   2.468156
    10  O    4.814017   5.054723   4.252155   2.867669   2.392368
    11  H    1.085182   2.152734   3.403821   3.852797   3.404089
    12  H    2.155753   1.085440   2.149562   3.377459   3.888933
    13  H    3.407501   2.160837   1.087000   2.155056   3.425391
    14  H    2.156835   3.402668   3.886341   3.389263   2.147912
    15  H    5.127883   5.921127   5.617602   4.377654   3.201365
    16  H    4.729318   4.097949   2.784193   2.088810   3.150327
    17  H    4.622757   4.428012   3.312210   2.034076   2.413672
    18  H    4.729298   4.097946   2.784205   2.088809   3.150311
                    6          7          8          9         10
     6  C    0.000000
     7  C    2.520480   0.000000
     8  O    2.765636   1.317619   0.000000
     9  N    3.747446   2.842623   4.156305   0.000000
    10  O    3.649967   1.233606   2.238510   2.527555   0.000000
    11  H    2.148710   4.667001   4.800961   5.328196   5.764433
    12  H    3.401573   5.374655   6.056421   4.623513   6.119237
    13  H    3.889099   4.659838   5.764309   2.701236   4.915057
    14  H    1.084254   2.725936   2.424768   4.613593   3.955773
    15  H    3.735816   1.881532   0.972974   4.626817   2.311406
    16  H    4.354493   3.530822   4.820024   1.023509   3.137634
    17  H    3.811325   2.181546   3.473664   1.076602   1.532859
    18  H    4.354466   3.530830   4.819848   1.023510   3.137491
                   11         12         13         14         15
    11  H    0.000000
    12  H    2.483695   0.000000
    13  H    4.302880   2.479889   0.000000
    14  H    2.482298   4.301322   4.973339   0.000000
    15  H    5.769796   6.992125   6.528098   3.364050   0.000000
    16  H    5.796959   4.864766   2.762820   5.242080   5.256631
    17  H    5.684376   5.399884   3.717812   4.480409   3.776062
    18  H    5.796936   4.864768   2.762851   5.242049   5.256380
                   16         17         18
    16  H    0.000000
    17  H    1.718714   0.000000
    18  H    1.658841   1.718694   0.000000
 Stoichiometry    C7H8NO2(1+)
 Framework group  C1[X(C7H8NO2)]
 Deg. of freedom    48
 Full point group                 C1      NOp   1
 Largest Abelian subgroup         C1      NOp   1
 Largest concise Abelian subgroup C1      NOp   1
                         Standard orientation:                         
 ---------------------------------------------------------------------
 Center     Atomic      Atomic             Coordinates (Angstroms)
 Number     Number       Type             X           Y           Z
 ---------------------------------------------------------------------
      1          6           0        1.946248   -1.462505    0.000028
      2          6           0        2.620353   -0.242059    0.000107
      3          6           0        1.905576    0.958541    0.000087
      4          6           0        0.521551    0.910244   -0.000010
      5          6           0       -0.182444   -0.304545   -0.000113
      6          6           0        0.553641   -1.495851   -0.000077
      7          6           0       -1.668414   -0.306191   -0.000284
      8          8           0       -2.211974   -1.506467    0.000128
      9          7           0       -0.259000    2.162423   -0.000007
     10          8           0       -2.340344    0.728359    0.000004
     11          1           0        2.506652   -2.391788    0.000046
     12          1           0        3.705494   -0.216582    0.000189
     13          1           0        2.430456    1.910418    0.000156
     14          1           0        0.024871   -2.442429   -0.000149
     15          1           0       -3.181494   -1.424561    0.000334
     16          1           0       -0.073315    2.732718   -0.829378
     17          1           0       -1.286721    1.841703   -0.000091
     18          1           0       -0.073456    2.732622    0.829462
 ---------------------------------------------------------------------
 Rotational constants (GHZ):      2.2557243      1.2083088      0.7902439
 Standard basis: 6-31+G(d,p) (6D, 7F)
 There are   230 symmetry adapted cartesian basis functions of A   symmetry.
 There are   230 symmetry adapted basis functions of A   symmetry.
   230 basis functions,   376 primitive gaussians,   230 cartesian basis functions
    36 alpha electrons       36 beta electrons
       nuclear repulsion energy       515.6925395948 Hartrees.
 NAtoms=   18 NActive=   18 NUniq=   18 SFac= 1.00D+00 NAtFMM=   60 NAOKFM=F Big=F
 Integral buffers will be    131072 words long.
 Raffenetti 2 integral format.
 Two-electron integral symmetry is turned on.
 One-electron integrals computed using PRISM.
 NBasis=   230 RedAO= T EigKep=  2.27D-06  NBF=   230
 NBsUse=   230 1.00D-06 EigRej= -1.00D+00 NBFU=   230
 Initial guess from the checkpoint file:  "B3PWAnthranilicyang.chk"
 B after Tr=    -0.000000    0.000000   -0.000000
         Rot=    0.999997    0.000001    0.000003   -0.002451 Ang=   0.28 deg.
 ExpMin= 4.38D-02 ExpMax= 5.48D+03 ExpMxC= 8.25D+02 IAcc=2 IRadAn=         4 AccDes= 0.00D+00
 Harris functional with IExCor=  408 and IRadAn=       4 diagonalized for initial guess.
 HarFok:  IExCor=  408 AccDes= 0.00D+00 IRadAn=         4 IDoV= 1 UseB2=F ITyADJ=14
 ICtDFT=  3500011 ScaDFX=  1.000000  1.000000  1.000000  1.000000
 FoFCou: FMM=F IPFlag=           0 FMFlag=      100000 FMFlg1=           0
         NFxFlg=           0 DoJE=T BraDBF=F KetDBF=T FulRan=T
         wScrn=  0.000000 ICntrl=     500 IOpCl=  0 I1Cent=   200000004 NGrid=           0
         NMat0=    1 NMatS0=      1 NMatT0=    0 NMatD0=    1 NMtDS0=    0 NMtDT0=    0
 Petite list used in FoFCou.
 Keep R1 ints in memory in canonical form, NReq=359209085.
 Requested convergence on RMS density matrix=1.00D-08 within 128 cycles.
 Requested convergence on MAX density matrix=1.00D-06.
 Requested convergence on             energy=1.00D-06.
 No special actions if energy rises.
 SCF Done:  E(RB3PW91) =  -476.393937958     A.U. after   12 cycles
            NFock= 12  Conv=0.28D-08     -V/T= 2.0092
 Calling FoFJK, ICntrl=      2127 FMM=F ISym2X=0 I1Cent= 0 IOpClX= 0 NMat=1 NMatS=1 NMatT=0.
 ***** Axes restored to original set *****
 -------------------------------------------------------------------
 Center     Atomic                   Forces (Hartrees/Bohr)
 Number     Number              X              Y              Z
 -------------------------------------------------------------------
      1        6          -0.000508309   -0.000070580    0.000002300
      2        6          -0.000022114    0.000149359   -0.000000436
      3        6          -0.000328090   -0.000391263    0.000002850
      4        6           0.000739286    0.001600023   -0.000003703
      5        6          -0.001922001   -0.000453269   -0.000029826
      6        6           0.000392630    0.000081819   -0.000003698
      7        6           0.003522986   -0.002559517    0.000106528
      8        8          -0.000200087    0.000194773   -0.000032025
      9        7           0.003724854    0.000696779   -0.000002349
     10        8          -0.002179237    0.000735942   -0.000039367
     11        1          -0.000098252    0.000004019    0.000000336
     12        1          -0.000041329   -0.000002298   -0.000000569
     13        1          -0.000065151   -0.000050432    0.000000690
     14        1           0.000011284   -0.000137228   -0.000000640
     15        1          -0.000195613    0.000082743   -0.000001817
     16        1           0.000076088    0.000068653    0.000167340
     17        1          -0.002983948   -0.000017848    0.000001695
     18        1           0.000077003    0.000068326   -0.000167311
 -------------------------------------------------------------------
 Cartesian Forces:  Max     0.003724854 RMS     0.001013644

 GradGradGradGradGradGradGradGradGradGradGradGradGradGradGradGradGradGrad
 Berny optimization.
 Using GEDIIS/GDIIS optimizer.
 FormGI is forming the generalized inverse of G from B-inverse, IUseBI=4.
 Internal  Forces:  Max     0.003457764 RMS     0.000899544
 Search for a local minimum.
 Step number   2 out of a maximum of   92
 All quantities printed in internal units (Hartrees-Bohrs-Radians)
 Mixed Optimization -- En-DIIS/RFO-DIIS
 Update second derivatives using D2CorX and points    1    2
 DE= -1.17D-04 DEPred=-1.46D-04 R= 8.05D-01
 TightC=F SS=  1.41D+00  RLast= 2.99D-02 DXNew= 5.0454D-01 8.9624D-02
 Trust test= 8.05D-01 RLast= 2.99D-02 DXMaxT set to 3.00D-01
 ITU=  1  0
 Use linear search instead of GDIIS.
     Eigenvalues ---    0.00667   0.00927   0.01558   0.01600   0.01739
     Eigenvalues ---    0.02110   0.02158   0.02163   0.02175   0.02189
     Eigenvalues ---    0.02212   0.02245   0.02828   0.07121   0.07826
     Eigenvalues ---    0.14369   0.16000   0.16000   0.16000   0.16000
     Eigenvalues ---    0.16000   0.16000   0.16260   0.21204   0.22001
     Eigenvalues ---    0.23702   0.24734   0.25000   0.25000   0.31263
     Eigenvalues ---    0.33690   0.34545   0.35188   0.35327   0.35461
     Eigenvalues ---    0.35468   0.37929   0.40593   0.42712   0.43639
     Eigenvalues ---    0.43844   0.45601   0.46715   0.47202   0.52680
     Eigenvalues ---    0.54134   0.68962   0.85884
 RFO step:  Lambda=-1.56543461D-04 EMin= 6.67185909D-03
 Quartic linear search produced a step of -0.16573.
 Iteration  1 RMS(Cart)=  0.01002145 RMS(Int)=  0.00002830
 Iteration  2 RMS(Cart)=  0.00004258 RMS(Int)=  0.00000168
 Iteration  3 RMS(Cart)=  0.00000000 RMS(Int)=  0.00000168
 Variable       Old X    -DE/DX   Delta X   Delta X   Delta X     New X
                                 (Linear)    (Quad)   (Total)
    R1        2.63473  -0.00036  -0.00048   0.00122   0.00074   2.63547
    R2        2.63240  -0.00084  -0.00025  -0.00050  -0.00076   2.63164
    R3        2.05070  -0.00005  -0.00028   0.00108   0.00080   2.05150
    R4        2.64044  -0.00029  -0.00038   0.00099   0.00061   2.64105
    R5        2.05118  -0.00004  -0.00026   0.00100   0.00075   2.05193
    R6        2.61702  -0.00023  -0.00061   0.00230   0.00169   2.61871
    R7        2.05413  -0.00008  -0.00013   0.00039   0.00025   2.05439
    R8        2.65325   0.00279  -0.00087   0.00901   0.00814   2.66138
    R9        2.78836   0.00023   0.00060  -0.00201  -0.00141   2.78695
   R10        2.64631   0.00013  -0.00109   0.00495   0.00386   2.65017
   R11        2.80808  -0.00096   0.00058  -0.00486  -0.00427   2.80381
   R12        2.04894   0.00011   0.00005   0.00004   0.00009   2.04904
   R13        2.48994  -0.00009  -0.00111   0.00460   0.00349   2.49343
   R14        2.33118   0.00180  -0.00168   0.00877   0.00709   2.33827
   R15        1.83865   0.00020   0.00003   0.00021   0.00023   1.83889
   R16        1.93415  -0.00008   0.00029  -0.00138  -0.00110   1.93306
   R17        2.03448   0.00286  -0.00015   0.00717   0.00702   2.04150
   R18        1.93415  -0.00008   0.00029  -0.00138  -0.00110   1.93306
    A1        2.09938   0.00004  -0.00007  -0.00025  -0.00032   2.09905
    A2        2.09429   0.00006   0.00005   0.00051   0.00056   2.09485
    A3        2.08952  -0.00010   0.00002  -0.00026  -0.00024   2.08928
    A4        2.09996   0.00008   0.00014  -0.00095  -0.00082   2.09914
    A5        2.09891  -0.00004  -0.00006   0.00043   0.00037   2.09928
    A6        2.08432  -0.00004  -0.00008   0.00052   0.00044   2.08476
    A7        2.07291   0.00074  -0.00010   0.00313   0.00303   2.07594
    A8        2.10067  -0.00033   0.00043  -0.00305  -0.00261   2.09806
    A9        2.10961  -0.00040  -0.00034  -0.00008  -0.00042   2.10919
   A10        2.13090  -0.00096  -0.00032  -0.00140  -0.00172   2.12919
   A11        2.09333  -0.00210  -0.00102  -0.00289  -0.00390   2.08942
   A12        2.05895   0.00306   0.00134   0.00429   0.00562   2.06458
   A13        2.06290  -0.00053   0.00078  -0.00466  -0.00388   2.05902
   A14        2.09713   0.00346   0.00059   0.00881   0.00939   2.10652
   A15        2.12315  -0.00293  -0.00137  -0.00414  -0.00551   2.11764
   A16        2.10032   0.00064  -0.00043   0.00414   0.00371   2.10403
   A17        2.10417  -0.00040   0.00062  -0.00422  -0.00360   2.10057
   A18        2.07870  -0.00024  -0.00019   0.00008  -0.00011   2.07859
   A19        1.99714  -0.00025  -0.00032   0.00053   0.00021   1.99735
   A20        2.14571   0.00180   0.00008   0.00569   0.00576   2.15147
   A21        2.14034  -0.00155   0.00025  -0.00622  -0.00597   2.13437
   A22        1.91175  -0.00012   0.00089  -0.00443  -0.00354   1.90821
   A23        1.95722  -0.00017  -0.00099   0.00276   0.00178   1.95900
   A24        1.82572   0.00133   0.00228  -0.00178   0.00050   1.82622
   A25        1.95722  -0.00017  -0.00098   0.00274   0.00176   1.95898
   A26        1.91676  -0.00040  -0.00019  -0.00022  -0.00041   1.91635
   A27        1.88956  -0.00018   0.00010  -0.00321  -0.00311   1.88646
   A28        1.91673  -0.00040  -0.00018  -0.00025  -0.00044   1.91629
    D1        0.00001   0.00000  -0.00000   0.00001   0.00001   0.00002
    D2       -3.14159   0.00000   0.00000   0.00001   0.00001  -3.14158
    D3       -3.14159  -0.00000  -0.00000   0.00000   0.00000  -3.14159
    D4       -0.00000   0.00000   0.00000   0.00000   0.00000  -0.00000
    D5        0.00001  -0.00000  -0.00000  -0.00003  -0.00003  -0.00002
    D6        3.14158  -0.00000   0.00000  -0.00001  -0.00001   3.14157
    D7       -3.14158  -0.00000  -0.00000  -0.00002  -0.00002   3.14158
    D8       -0.00001   0.00000   0.00000  -0.00000   0.00000  -0.00001
    D9        0.00000  -0.00000  -0.00000  -0.00000  -0.00001  -0.00000
   D10        3.14158  -0.00000   0.00000  -0.00001  -0.00001   3.14157
   D11       -3.14159  -0.00000  -0.00000  -0.00000  -0.00001  -3.14159
   D12       -0.00000  -0.00000  -0.00000  -0.00001  -0.00001  -0.00001
   D13       -0.00002   0.00000   0.00000   0.00001   0.00002  -0.00000
   D14        3.14157  -0.00000   0.00000  -0.00003  -0.00002   3.14155
   D15        3.14158   0.00000   0.00000   0.00002   0.00002  -3.14158
   D16       -0.00001  -0.00000   0.00000  -0.00002  -0.00002  -0.00003
   D17        0.00003  -0.00000  -0.00001  -0.00003  -0.00004  -0.00001
   D18       -3.14154  -0.00000  -0.00001  -0.00001  -0.00002  -3.14156
   D19       -3.14156  -0.00000  -0.00001   0.00001   0.00000  -3.14156
   D20        0.00005  -0.00000  -0.00001   0.00003   0.00002   0.00007
   D21        1.06517  -0.00025  -0.00066   0.00010  -0.00056   1.06460
   D22       -3.14159   0.00000  -0.00001   0.00019   0.00018  -3.14141
   D23       -1.06521   0.00025   0.00064   0.00025   0.00089  -1.06432
   D24       -2.07643  -0.00025  -0.00066   0.00006  -0.00060  -2.07703
   D25        0.00000   0.00000  -0.00001   0.00016   0.00014   0.00014
   D26        2.07638   0.00025   0.00064   0.00021   0.00085   2.07723
   D27       -0.00002   0.00000   0.00001   0.00004   0.00004   0.00002
   D28        3.14159   0.00000   0.00000   0.00002   0.00002  -3.14158
   D29        3.14155   0.00000   0.00001   0.00002   0.00003   3.14157
   D30       -0.00003   0.00000   0.00000   0.00000   0.00001  -0.00002
   D31       -3.14118  -0.00003  -0.00009  -0.00095  -0.00104   3.14096
   D32       -0.00034   0.00003   0.00007   0.00109   0.00116   0.00083
   D33        0.00044  -0.00003  -0.00009  -0.00093  -0.00102  -0.00059
   D34        3.14128   0.00003   0.00007   0.00111   0.00118  -3.14072
   D35        3.14121   0.00003   0.00009   0.00105   0.00112  -3.14085
   D36        0.00036  -0.00003  -0.00008  -0.00099  -0.00106  -0.00070
         Item               Value     Threshold  Converged?
 Maximum Force            0.003458     0.000450     NO 
 RMS     Force            0.000900     0.000300     NO 
 Maximum Displacement     0.036938     0.001800     NO 
 RMS     Displacement     0.010041     0.001200     NO 
 Predicted change in Energy=-8.297028D-05
 GradGradGradGradGradGradGradGradGradGradGradGradGradGradGradGradGradGrad

                          Input orientation:                          
 ---------------------------------------------------------------------
 Center     Atomic      Atomic             Coordinates (Angstroms)
 Number     Number       Type             X           Y           Z
 ---------------------------------------------------------------------
      1          6           0        1.934662   -1.472632    0.000069
      2          6           0        2.618216   -0.257005   -0.000107
      3          6           0        1.911438    0.948696   -0.000104
      4          6           0        0.526114    0.913965    0.000072
      5          6           0       -0.189885   -0.298791    0.000245
      6          6           0        0.542236   -1.494933    0.000230
      7          6           0       -1.673591   -0.302355    0.000389
      8          8           0       -2.216611   -1.504905   -0.000209
      9          7           0       -0.236795    2.176096    0.000131
     10          8           0       -2.354869    0.730561   -0.000492
     11          1           0        2.487680   -2.406822    0.000069
     12          1           0        3.703907   -0.239366   -0.000244
     13          1           0        2.445306    1.895715   -0.000225
     14          1           0        0.009348   -2.439257    0.000347
     15          1           0       -3.186049   -1.420604   -0.000750
     16          1           0       -0.044332    2.744918   -0.827990
     17          1           0       -1.272536    1.868971    0.000460
     18          1           0       -0.043909    2.745073    0.828048
 ---------------------------------------------------------------------
                    Distance matrix (angstroms):
                    1          2          3          4          5
     1  C    0.000000
     2  C    1.394631   0.000000
     3  C    2.421439   1.397586   0.000000
     4  C    2.771254   2.397511   1.385759   0.000000
     5  C    2.427263   2.808412   2.443723   1.408343   0.000000
     6  C    1.392605   2.417056   2.801078   2.408952   1.402411
     7  C    3.793289   4.292046   3.797047   2.513590   1.483710
     8  O    4.151399   4.993276   4.802182   3.656976   2.358459
     9  N    4.245991   3.751142   2.474150   1.474790   2.475331
    10  O    4.822254   5.070193   4.271880   2.886815   2.397232
    11  H    1.085605   2.153777   3.404636   3.856859   3.407807
    12  H    2.156658   1.085835   2.150450   3.380612   3.894246
    13  H    3.406835   2.159653   1.087134   2.155720   3.429298
    14  H    2.154344   3.401237   3.885379   3.392807   2.149718
    15  H    5.120976   5.919751   5.621206   4.385245   3.199291
    16  H    4.731789   4.097083   2.781519   2.088896   3.157740
    17  H    4.631677   4.433703   3.314302   2.036463   2.423082
    18  H    4.731736   4.096977   2.781401   2.088882   3.157795
                    6          7          8          9         10
     6  C    0.000000
     7  C    2.516373   0.000000
     8  O    2.758865   1.319468   0.000000
     9  N    3.752778   2.864804   4.179645   0.000000
    10  O    3.653223   1.237358   2.239737   2.564333   0.000000
    11  H    2.148555   4.663148   4.789969   5.331594   5.770047
    12  H    3.401854   5.377867   6.054265   4.622076   6.135921
    13  H    3.888209   4.668707   5.770415   2.696716   4.939560
    14  H    1.084305   2.720043   2.414106   4.621911   3.954398
    15  H    3.729026   1.880960   0.973096   4.651274   2.306160
    16  H    4.359627   3.553388   4.844070   1.022930   3.175054
    17  H    3.822205   2.208054   3.503472   1.080317   1.570803
    18  H    4.359645   3.553547   4.844476   1.022930   3.175731
                   11         12         13         14         15
    11  H    0.000000
    12  H    2.485372   0.000000
    13  H    4.302746   2.478437   0.000000
    14  H    2.478544   4.299917   4.972512   0.000000
    15  H    5.758804   6.990481   6.535299   3.353836   0.000000
    16  H    5.799757   4.862141   2.757651   5.250209   5.282640
    17  H    5.693999   5.404634   3.717938   4.494892   3.805633
    18  H    5.799699   4.862003   2.757469   5.250257   5.283258
                   16         17         18
    16  H    0.000000
    17  H    1.721074   0.000000
    18  H    1.656038   1.721040   0.000000
 Stoichiometry    C7H8NO2(1+)
 Framework group  C1[X(C7H8NO2)]
 Deg. of freedom    48
 Full point group                 C1      NOp   1
 Largest Abelian subgroup         C1      NOp   1
 Largest concise Abelian subgroup C1      NOp   1
                         Standard orientation:                         
 ---------------------------------------------------------------------
 Center     Atomic      Atomic             Coordinates (Angstroms)
 Number     Number       Type             X           Y           Z
 ---------------------------------------------------------------------
      1          6           0        1.934620   -1.474866    0.000072
      2          6           0        2.619506   -0.259988   -0.000104
      3          6           0        1.914050    0.946486   -0.000101
      4          6           0        0.528689    0.913273    0.000075
      5          6           0       -0.188639   -0.298697    0.000248
      6          6           0        0.542170   -1.495641    0.000233
      7          6           0       -1.672348   -0.300635    0.000392
      8          8           0       -2.216686   -1.502588   -0.000206
      9          7           0       -0.232837    2.176240    0.000134
     10          8           0       -2.352493    0.733027   -0.000489
     11          1           0        2.486613   -2.409661    0.000072
     12          1           0        3.705216   -0.243540   -0.000241
     13          1           0        2.448955    1.892920   -0.000222
     14          1           0        0.008248   -2.439380    0.000350
     15          1           0       -3.186031   -1.417225   -0.000747
     16          1           0       -0.039750    2.744851   -0.827987
     17          1           0       -1.268914    1.870251    0.000463
     18          1           0       -0.039328    2.745005    0.828051
 ---------------------------------------------------------------------
 Rotational constants (GHZ):      2.2433127      1.2056049      0.7875508
 Standard basis: 6-31+G(d,p) (6D, 7F)
 There are   230 symmetry adapted cartesian basis functions of A   symmetry.
 There are   230 symmetry adapted basis functions of A   symmetry.
   230 basis functions,   376 primitive gaussians,   230 cartesian basis functions
    36 alpha electrons       36 beta electrons
       nuclear repulsion energy       514.8718516875 Hartrees.
 NAtoms=   18 NActive=   18 NUniq=   18 SFac= 1.00D+00 NAtFMM=   60 NAOKFM=F Big=F
 Integral buffers will be    131072 words long.
 Raffenetti 2 integral format.
 Two-electron integral symmetry is turned on.
 One-electron integrals computed using PRISM.
 NBasis=   230 RedAO= T EigKep=  2.30D-06  NBF=   230
 NBsUse=   230 1.00D-06 EigRej= -1.00D+00 NBFU=   230
 Initial guess from the checkpoint file:  "B3PWAnthranilicyang.chk"
 B after Tr=    -0.000000   -0.000000    0.000000
         Rot=    0.999996    0.000007    0.000008    0.002926 Ang=   0.34 deg.
 ExpMin= 4.38D-02 ExpMax= 5.48D+03 ExpMxC= 8.25D+02 IAcc=2 IRadAn=         4 AccDes= 0.00D+00
 Harris functional with IExCor=  408 and IRadAn=       4 diagonalized for initial guess.
 HarFok:  IExCor=  408 AccDes= 0.00D+00 IRadAn=         4 IDoV= 1 UseB2=F ITyADJ=14
 ICtDFT=  3500011 ScaDFX=  1.000000  1.000000  1.000000  1.000000
 FoFCou: FMM=F IPFlag=           0 FMFlag=      100000 FMFlg1=           0
         NFxFlg=           0 DoJE=T BraDBF=F KetDBF=T FulRan=T
         wScrn=  0.000000 ICntrl=     500 IOpCl=  0 I1Cent=   200000004 NGrid=           0
         NMat0=    1 NMatS0=      1 NMatT0=    0 NMatD0=    1 NMtDS0=    0 NMtDT0=    0
 Petite list used in FoFCou.
 Keep R1 ints in memory in canonical form, NReq=359209085.
 Requested convergence on RMS density matrix=1.00D-08 within 128 cycles.
 Requested convergence on MAX density matrix=1.00D-06.
 Requested convergence on             energy=1.00D-06.
 No special actions if energy rises.
 SCF Done:  E(RB3PW91) =  -476.393888356     A.U. after   12 cycles
            NFock= 12  Conv=0.42D-08     -V/T= 2.0093
 Calling FoFJK, ICntrl=      2127 FMM=F ISym2X=0 I1Cent= 0 IOpClX= 0 NMat=1 NMatS=1 NMatT=0.
 ***** Axes restored to original set *****
 -------------------------------------------------------------------
 Center     Atomic                   Forces (Hartrees/Bohr)
 Number     Number              X              Y              Z
 -------------------------------------------------------------------
      1        6           0.000098015    0.000486597   -0.000005311
      2        6          -0.000348972   -0.000147530    0.000000977
      3        6          -0.000727847   -0.000513318   -0.000001853
      4        6           0.000605853   -0.001714098    0.000007088
      5        6           0.001769990    0.000531744    0.000053914
      6        6          -0.000478500    0.000960209    0.000006229
      7        6          -0.002250024    0.001681207   -0.000205920
      8        8           0.000605900    0.001109997    0.000059105
      9        7          -0.002870981   -0.002136158    0.000028174
     10        8           0.004543651   -0.001510157    0.000092662
     11        1          -0.000231929    0.000277321   -0.000000351
     12        1          -0.000334269    0.000049435    0.000000659
     13        1          -0.000217666   -0.000002082   -0.000001303
     14        1          -0.000227403    0.000056958    0.000001535
     15        1          -0.000033968    0.000050001    0.000003008
     16        1          -0.000064406    0.000077756   -0.000605816
     17        1           0.000213636    0.000661139   -0.000034983
     18        1          -0.000051079    0.000080978    0.000602186
 -------------------------------------------------------------------
 Cartesian Forces:  Max     0.004543651 RMS     0.001017590

 GradGradGradGradGradGradGradGradGradGradGradGradGradGradGradGradGradGrad
 Berny optimization.
 Using GEDIIS/GDIIS optimizer.
 FormGI is forming the generalized inverse of G from B-inverse, IUseBI=4.
 Internal  Forces:  Max     0.006294488 RMS     0.001505995
 Search for a local minimum.
 Step number   3 out of a maximum of   92
 All quantities printed in internal units (Hartrees-Bohrs-Radians)
 Mixed Optimization -- RFO/linear search
 Update second derivatives using D2CorX and points    1    3    2
 DE=  4.96D-05 DEPred=-8.30D-05 R=-5.98D-01
 Trust test=-5.98D-01 RLast= 2.36D-02 DXMaxT set to 1.50D-01
 ITU= -1  1  0
 Use linear search instead of GDIIS.
 Energy rises -- skip Quadratic/GDIIS search.
 Quartic linear search produced a step of -0.62087.
 Iteration  1 RMS(Cart)=  0.00622935 RMS(Int)=  0.00001132
 Iteration  2 RMS(Cart)=  0.00001488 RMS(Int)=  0.00000031
 Iteration  3 RMS(Cart)=  0.00000000 RMS(Int)=  0.00000031
 Variable       Old X    -DE/DX   Delta X   Delta X   Delta X     New X
                                 (Linear)    (Quad)   (Total)
    R1        2.63547  -0.00001  -0.00046   0.00000  -0.00046   2.63501
    R2        2.63164  -0.00020   0.00047   0.00000   0.00047   2.63211
    R3        2.05150  -0.00036  -0.00050   0.00000  -0.00050   2.05100
    R4        2.64105  -0.00019  -0.00038   0.00000  -0.00038   2.64068
    R5        2.05193  -0.00033  -0.00046   0.00000  -0.00046   2.05147
    R6        2.61871  -0.00157  -0.00105   0.00000  -0.00105   2.61766
    R7        2.05439  -0.00011  -0.00016   0.00000  -0.00016   2.05423
    R8        2.66138  -0.00506  -0.00505   0.00000  -0.00505   2.65633
    R9        2.78695   0.00031   0.00088   0.00000   0.00088   2.78783
   R10        2.65017  -0.00203  -0.00240   0.00000  -0.00240   2.64778
   R11        2.80381  -0.00287   0.00265   0.00000   0.00265   2.80646
   R12        2.04904   0.00006  -0.00006   0.00000  -0.00006   2.04898
   R13        2.49343  -0.00129  -0.00217   0.00000  -0.00217   2.49126
   R14        2.33827  -0.00376  -0.00440   0.00000  -0.00440   2.33387
   R15        1.83889   0.00004  -0.00014   0.00000  -0.00014   1.83874
   R16        1.93306   0.00052   0.00068   0.00000   0.00068   1.93374
   R17        2.04150  -0.00039  -0.00436   0.00000  -0.00436   2.03714
   R18        1.93306   0.00052   0.00068   0.00000   0.00068   1.93374
    A1        2.09905  -0.00021   0.00020   0.00000   0.00020   2.09925
    A2        2.09485   0.00016  -0.00035   0.00000  -0.00035   2.09451
    A3        2.08928   0.00005   0.00015   0.00000   0.00015   2.08943
    A4        2.09914  -0.00006   0.00051   0.00000   0.00051   2.09965
    A5        2.09928   0.00009  -0.00023   0.00000  -0.00023   2.09905
    A6        2.08476  -0.00003  -0.00028   0.00000  -0.00028   2.08448
    A7        2.07594  -0.00093  -0.00188   0.00000  -0.00188   2.07406
    A8        2.09806   0.00066   0.00162   0.00000   0.00162   2.09968
    A9        2.10919   0.00027   0.00026   0.00000   0.00026   2.10945
   A10        2.12919   0.00065   0.00107   0.00000   0.00107   2.13025
   A11        2.08942   0.00344   0.00242   0.00000   0.00242   2.09185
   A12        2.06458  -0.00409  -0.00349   0.00000  -0.00349   2.06109
   A13        2.05902   0.00198   0.00241   0.00000   0.00241   2.06143
   A14        2.10652  -0.00629  -0.00583   0.00000  -0.00583   2.10069
   A15        2.11764   0.00432   0.00342   0.00000   0.00342   2.12106
   A16        2.10403  -0.00142  -0.00230   0.00000  -0.00230   2.10173
   A17        2.10057   0.00094   0.00223   0.00000   0.00223   2.10280
   A18        2.07859   0.00048   0.00007   0.00000   0.00007   2.07866
   A19        1.99735   0.00229  -0.00013   0.00000  -0.00013   1.99722
   A20        2.15147  -0.00461  -0.00358   0.00000  -0.00358   2.14789
   A21        2.13437   0.00232   0.00371   0.00000   0.00371   2.13808
   A22        1.90821  -0.00009   0.00220   0.00000   0.00220   1.91040
   A23        1.95900  -0.00021  -0.00110   0.00000  -0.00110   1.95790
   A24        1.82622   0.00082  -0.00031   0.00000  -0.00031   1.82591
   A25        1.95898  -0.00021  -0.00109   0.00000  -0.00109   1.95789
   A26        1.91635  -0.00036   0.00026   0.00000   0.00026   1.91661
   A27        1.88646   0.00027   0.00193   0.00000   0.00193   1.88839
   A28        1.91629  -0.00033   0.00027   0.00000   0.00027   1.91656
    D1        0.00002  -0.00000  -0.00001   0.00000  -0.00001   0.00001
    D2       -3.14158  -0.00000  -0.00001   0.00000  -0.00001  -3.14159
    D3       -3.14159  -0.00000  -0.00000   0.00000  -0.00000  -3.14159
    D4       -0.00000   0.00000  -0.00000   0.00000  -0.00000  -0.00000
    D5       -0.00002   0.00000   0.00002   0.00000   0.00002  -0.00001
    D6        3.14157   0.00000   0.00001   0.00000   0.00001   3.14158
    D7        3.14158  -0.00000   0.00001   0.00000   0.00001  -3.14159
    D8       -0.00001   0.00000  -0.00000   0.00000  -0.00000  -0.00001
    D9       -0.00000  -0.00000   0.00000   0.00000   0.00000  -0.00000
   D10        3.14157   0.00000   0.00001   0.00000   0.00001   3.14158
   D11       -3.14159  -0.00000   0.00000   0.00000   0.00000  -3.14159
   D12       -0.00001   0.00000   0.00001   0.00000   0.00001  -0.00001
   D13       -0.00000   0.00000  -0.00001   0.00000  -0.00001  -0.00001
   D14        3.14155   0.00001   0.00001   0.00000   0.00001   3.14156
   D15       -3.14158  -0.00000  -0.00001   0.00000  -0.00001   3.14159
   D16       -0.00003   0.00000   0.00001   0.00000   0.00001  -0.00002
   D17       -0.00001  -0.00000   0.00002   0.00000   0.00002   0.00002
   D18       -3.14156  -0.00001   0.00001   0.00000   0.00001  -3.14155
   D19       -3.14156  -0.00001  -0.00000   0.00000  -0.00000  -3.14156
   D20        0.00007  -0.00001  -0.00001   0.00000  -0.00001   0.00006
   D21        1.06460   0.00002   0.00035   0.00000   0.00035   1.06495
   D22       -3.14141  -0.00002  -0.00011   0.00000  -0.00011  -3.14152
   D23       -1.06432  -0.00003  -0.00055   0.00000  -0.00055  -1.06487
   D24       -2.07703   0.00002   0.00037   0.00000   0.00037  -2.07665
   D25        0.00014  -0.00002  -0.00009   0.00000  -0.00009   0.00005
   D26        2.07723  -0.00002  -0.00053   0.00000  -0.00053   2.07671
   D27        0.00002   0.00000  -0.00003   0.00000  -0.00003  -0.00001
   D28       -3.14158  -0.00000  -0.00001   0.00000  -0.00001  -3.14159
   D29        3.14157   0.00000  -0.00002   0.00000  -0.00002   3.14156
   D30       -0.00002   0.00000  -0.00000   0.00000  -0.00000  -0.00003
   D31        3.14096   0.00005   0.00065   0.00000   0.00065  -3.14157
   D32        0.00083  -0.00006  -0.00072   0.00000  -0.00072   0.00011
   D33       -0.00059   0.00004   0.00064   0.00000   0.00064   0.00005
   D34       -3.14072  -0.00007  -0.00073   0.00000  -0.00073  -3.14146
   D35       -3.14085  -0.00005  -0.00070   0.00000  -0.00070  -3.14155
   D36       -0.00070   0.00005   0.00066   0.00000   0.00066  -0.00004
         Item               Value     Threshold  Converged?
 Maximum Force            0.006294     0.000450     NO 
 RMS     Force            0.001506     0.000300     NO 
 Maximum Displacement     0.022916     0.001800     NO 
 RMS     Displacement     0.006232     0.001200     NO 
 Predicted change in Energy=-2.866414D-05
 GradGradGradGradGradGradGradGradGradGradGradGradGradGradGradGradGradGrad

                          Input orientation:                          
 ---------------------------------------------------------------------
 Center     Atomic      Atomic             Coordinates (Angstroms)
 Number     Number       Type             X           Y           Z
 ---------------------------------------------------------------------
      1          6           0        1.936604   -1.472569    0.000027
      2          6           0        2.618921   -0.256524    0.000009
      3          6           0        1.911747    0.948712   -0.000003
      4          6           0        0.527060    0.910818    0.000004
      5          6           0       -0.186092   -0.300513    0.000006
      6          6           0        0.543955   -1.496435    0.000022
      7          6           0       -1.671203   -0.297244   -0.000046
      8          8           0       -2.219119   -1.496308   -0.000016
      9          7           0       -0.242039    2.169731    0.000029
     10          8           0       -2.342742    0.739256   -0.000202
     11          1           0        2.490671   -2.405830    0.000038
     12          1           0        3.704355   -0.238143    0.000008
     13          1           0        2.443646    1.896743   -0.000006
     14          1           0        0.010033   -2.440139    0.000022
     15          1           0       -3.188287   -1.409811   -0.000094
     16          1           0       -0.051620    2.738758   -0.828869
[...]
 039,0.0027059,-0.0000038,-0.0736169,0.0341318,0.0000005,0.0000042,0.,-
 0.0606829,-0.2894054,0.1309578,-0.0000007,0.1927339,-0.0202098,-0.0000
 008,-0.000006,-0.0000103,-0.0909564,0.4570157,-0.1948424,0.0000044,0.0
 085993,0.4145362,-0.0000177,0.0000719,-0.0000086,-0.0533402,-0.8004365
 ,0.0248689,-0.0000027,-0.0575148,-0.0974536,0.0000017,0.000015,-0.0000
 032,0.0256957,0.1200436,0.1302013,-0.0000013,-0.0775928,0.0257845,0.00
 00002,0.0000173,0.0000044,-0.0608431,2.101802,0.0271343,0.0000089,0.22
 31989,1.7547694,0.0001642,0.0000757,0.0001727,0.351509,-0.8890162,-0.5
 068711,-0.000065,-0.5793153,-1.021482,-0.0000767,-0.0001519,-0.0001867
 ,-0.3216392,-0.5104641,-0.1924162,-0.0000071,0.0238212,-0.5428859,0.00
 00124,-0.0000463,-0.0000231,-0.0587393,-1.1160127,0.1824506,0.0000524,
 0.1026322,-1.2147599,-0.0000694,0.0000078,0.0000597,-0.3353014,0.07123
 47,0.0223728,0.000001,0.0283494,0.0446918,-0.0000007,-0.0000036,-0.000
 0023,0.1462441,0.037942,-0.0025785,0.0000006,-0.0058758,0.0895583,0.00
 00006,0.0000057,-0.0000008,0.1427227,0.0969185,-0.0114275,-0.0000003,-
 0.0222674,-0.0041015,0.0000024,-0.000007,0.000012,0.1520461,0.095274,-
 0.0205759,0.0000027,-0.016511,0.0863992,0.0000011,0.0000125,-0.0000003
 ,0.1406515,0.4462475,0.1257422,0.0000168,0.1314676,0.3211947,-0.000002
 2,0.0000296,0.0000039,0.3673037,0.2032083,0.008575,0.014049,0.0152568,
 0.2485791,-0.0474797,0.0198183,-0.0804195,0.2651913,0.6873533,0.453118
 6,-0.0000129,0.2576911,0.5680766,-0.0000256,-0.0000173,-0.0000338,0.19
 80038,0.2032155,0.0085817,-0.0140412,0.0152593,0.2485775,0.0474873,-0.
 0198142,0.080432,0.2651975\Polar=116.5564804,-0.5759337,100.9139949,-0
 .0000589,0.0006159,47.6912077\PG=C01 [X(C7H8N1O2)]\NImag=0\\0.70337625
 ,-0.03511291,0.74128984,-0.00000733,0.00000172,0.13756667,-0.18356967,
 -0.12530856,0.00000101,0.75683619,-0.06229428,-0.30029172,-0.00000075,
 0.00480437,0.67775050,0.00000093,0.00000043,-0.06398172,-0.00000799,0.
 00000059,0.14118537,0.06447985,0.02177490,-0.00000137,-0.18342400,0.06
 121597,0.00000270,0.70873288,-0.01614911,-0.05236518,0.00000014,0.1272
 9922,-0.28849593,-0.00000131,0.03472949,0.73854996,-0.00000120,-0.0000
 0011,0.00662873,0.00000121,0.00000095,-0.06257329,-0.00000590,-0.00000
 681,0.13027177,-0.05179462,-0.02894707,0.00000087,-0.02703646,0.082959
 98,-0.00000057,-0.35605557,-0.06357673,0.00000220,0.72050754,-0.029830
 15,-0.01784994,0.00000099,0.02783546,0.03200180,-0.00000089,0.01581919
 ,-0.12147343,0.00000058,0.04684165,0.61791934,0.00000076,0.00000036,-0
 .00517996,0.00000014,-0.00000095,0.00329982,0.00000284,0.00000121,-0.0
 6173511,-0.00000845,-0.00001147,0.16124145,-0.02777888,0.02624917,0.00
 000143,0.00040362,-0.00665143,-0.00000026,-0.03404074,-0.01885434,0.00
 000109,-0.16867164,-0.11782198,0.00000679,0.65450146,0.06711791,0.0325
 8276,-0.00000259,0.00219240,-0.06039965,0.00000023,-0.06879951,0.02582
 250,0.00000091,-0.05742654,-0.25660055,0.00000494,-0.00869313,0.709682
 77,0.00000048,-0.00000141,0.00704542,-0.00000027,-0.00000032,-0.005716
 18,-0.00000029,0.00000179,0.00968436,0.00000820,0.00000416,-0.05703951
 ,-0.00001252,0.00000279,0.13371526,-0.35402037,0.02940032,0.00000350,-
 0.02325328,-0.07162319,0.00000069,-0.04774321,0.02003833,0.00000062,0.
 05996539,0.02835424,-0.00000087,-0.17007220,0.05958208,0.00000460,0.70
 850585,-0.03389185,-0.13014363,0.00000197,-0.03332591,0.03216311,0.000
 00029,0.02925476,-0.01293998,-0.00000063,-0.02051338,-0.05538937,0.000
 00047,0.11355705,-0.28217461,-0.00000355,0.04140203,0.72724995,0.00000
 530,0.00000010,-0.06496878,0.00000067,0.00000142,0.00654412,0.00000088
 ,-0.00000054,-0.00513718,-0.00000111,-0.00000048,0.00383957,0.00000325
 ,-0.00000276,-0.06109328,-0.00001372,-0.00000222,0.14155882,0.00368420
 ,0.00307526,-0.00000039,-0.00009872,0.00493700,0.00000016,0.01156160,-
 0.00523589,-0.00000006,-0.02381922,-0.02964320,-0.00000036,-0.20295377
 ,-0.00243302,0.00001172,-0.02217418,0.01766652,0.00000110,0.72326587,0
 .00453635,-0.00627825,-0.00000019,0.00045428,-0.00363814,-0.00000009,-
 0.00482468,-0.00686836,0.00000025,-0.03321201,0.01461326,0.00000195,-0
 .01096354,-0.10217013,0.00000110,0.02744612,0.01063092,-0.00000177,-0.
 09271668,0.89291233,0.00000006,-0.00000008,0.00871884,-0.00000054,0.00
 000026,-0.00141029,0.00000015,-0.00000014,0.00625761,-0.00000071,-0.00
 000101,-0.00180248,0.00000213,0.00000111,-0.07574884,-0.00000049,0.000
 00122,-0.00107160,0.00004068,0.00003895,0.20794033,0.00098021,-0.00062
 424,0.00000012,-0.00011443,-0.00224315,-0.00000006,-0.00332445,-0.0011
 8821,0.00000049,-0.00475162,0.00876480,0.00000007,-0.03240911,-0.04465
 076,-0.00000836,-0.00342480,-0.00276443,-0.00000047,-0.18479466,-0.121
 24593,-0.00003026,0.67849867,-0.00058593,0.00044380,0.00000025,0.00020
 277,-0.00115590,-0.00000003,-0.00200674,0.00207343,0.00000010,0.004102
 02,0.00101955,-0.00000002,-0.01924181,-0.00481004,-0.00000462,0.002522
 49,-0.00445907,0.00000031,-0.08094170,-0.30976603,-0.00004349,0.068720
 27,0.46604743,0.,-0.00000007,-0.00062752,0.00000002,-0.00000031,-0.000
 05519,-0.00000034,0.00000031,-0.00065762,0.00000018,0.00000078,0.00212
 704,-0.00000232,-0.00000374,0.00938730,0.00000027,-0.00000080,0.000409
 49,-0.00002491,-0.00005408,-0.06521125,0.00007020,0.00006704,0.0425427
 6,0.00108846,0.00061672,0.00000006,-0.00739674,-0.00565500,0.00000046,
 -0.01979104,0.04731365,-0.00000043,-0.12560304,0.03136103,-0.00000061,
 0.01435895,-0.00647523,-0.00000109,-0.00057053,-0.00081579,-0.00000010
 ,-0.02498509,0.01780370,0.00000155,0.00286886,-0.00979948,-0.00000238,
 0.52941870,-0.00198848,-0.00146752,-0.00000008,-0.00065177,0.00585358,
 0.00000056,0.00904295,-0.00832908,0.00000010,0.04409617,-0.17006210,0.
 00000298,0.02274115,-0.03107490,0.00000025,-0.00524988,-0.00382120,0.0
 0000075,-0.00235904,0.00769441,0.00000069,0.00009702,-0.00404218,-0.00
 000147,0.08015866,0.61077975,0.00000051,0.00000003,-0.00134952,0.00000
 016,-0.00000057,0.00736260,-0.00000081,0.00000058,0.00193105,0.,0.0000
 0433,-0.07368817,-0.00000283,-0.00000056,-0.00085117,0.00000053,0.0000
 0082,0.00777496,-0.00000022,-0.00000017,-0.00278913,-0.00000038,-0.000
 00020,-0.00136554,-0.00001622,0.00000376,0.71455387,-0.00217253,0.0016
 7656,0.00000025,0.00024761,-0.00008680,-0.00000003,-0.00193368,0.00165
 524,0.00000019,0.00626508,0.00352358,0.00000017,-0.03193968,0.04294227
 ,-0.00000214,-0.00484431,-0.00742046,0.00000007,-0.28914774,0.24454612
 ,-0.00000826,0.03646435,-0.00813113,-0.00000144,-0.02157858,-0.0250532
 9,0.00000398,0.33076708,0.00181349,0.00176057,0.00000003,-0.00049227,0
 .00076948,0.00000013,0.00268837,0.00184033,0.00000032,0.00170820,-0.01
 993228,-0.00000063,0.03088878,-0.00557716,0.00000039,-0.00148167,0.005
 01228,0.00000021,0.22677227,-0.45992498,0.00001015,0.01697239,-0.10832
 320,-0.00001150,-0.05208014,-0.01972132,0.00000156,-0.26711654,0.57599
 362,-0.00000012,0.,-0.00192677,0.00000018,-0.00000011,0.00036143,-0.00
 000020,-0.00000045,-0.00051679,-0.00000010,0.00000240,-0.00019198,0.00
 000162,0.00000070,0.01898871,-0.00000035,-0.00000065,0.00347852,-0.000
 01121,0.00001122,-0.07458063,0.00000186,-0.00001314,0.02694596,0.00000
 816,0.00000392,0.01095165,0.00000831,0.00000182,0.03836368,-0.13512391
 ,0.12842977,0.00000102,0.01215969,-0.01553622,-0.00000018,-0.00096457,
 -0.00353358,0.00000003,-0.00107378,-0.00106192,0.,-0.00503231,-0.00109
 752,0.00000043,-0.01138759,0.02731091,0.00000016,0.00050040,0.00156714
 ,0.,-0.00014238,-0.00019668,-0.00000002,0.00031437,0.00012505,0.000000
 01,-0.00079113,0.00030066,-0.00000006,0.13956563,0.12851852,-0.2757091
 1,-0.00000165,0.01492945,-0.01718742,-0.00000023,-0.00314749,-0.002990
 91,0.00000003,-0.00118360,0.00009984,0.,-0.00121187,0.00129359,0.00000
 010,-0.00321398,0.00573888,0.00000002,-0.00015123,0.00031316,0.,0.0000
 2348,0.00000285,0.00000002,0.00027187,0.00006147,0.00000004,-0.0001245
 8,0.00005795,-0.00000001,-0.13545641,0.28761936,0.00000100,-0.00000145
 ,-0.04041167,-0.00000003,-0.00000010,0.00425348,-0.00000012,0.00000011
 ,0.00726443,0.00000004,0.00000006,-0.00006816,0.00000021,0.00000004,0.
 00721675,0.00000039,-0.00000035,0.00400152,0.00000006,0.00000010,0.000
 34783,-0.00000004,-0.00000004,0.00001544,-0.00000002,-0.00000007,-0.00
 112097,-0.00000004,-0.00000001,-0.00027980,-0.00000130,0.00000172,0.02
 699189,-0.00856396,0.00225869,0.00000021,-0.35146981,-0.00483726,0.000
 00464,-0.00950849,-0.00229351,0.00000018,0.00086578,0.00207496,0.00000
 006,0.00091547,-0.00017087,0.,0.00018791,-0.00239854,0.00000012,-0.000
 38455,-0.00002634,0.,0.00002310,0.00004953,0.,-0.00066118,-0.00013977,
 -0.00000001,0.00004004,-0.00015440,0.00000002,0.00071174,0.00010103,-0
 .00000008,0.36741643,-0.02791531,0.00478846,0.00000029,-0.00533109,-0.
 05940014,-0.00000002,0.02821726,0.00367261,-0.00000033,0.00164279,-0.0
 0388613,0.,0.00004463,-0.00126350,-0.00000002,-0.00277614,-0.00486392,
 0.00000002,0.00019071,-0.00035731,-0.00000002,-0.00006916,0.00015820,0
 .00000002,0.00230291,-0.00022222,0.00000005,-0.00002051,0.00042114,-0.
 00000005,0.00022695,0.00089619,0.00000002,0.00517959,0.05923431,-0.000
 00022,-0.00000021,0.00564256,0.00000490,-0.00000003,-0.04141027,-0.000
 00020,0.00000040,0.00455535,0.00000039,0.00000010,0.00711332,0.0000000
 2,0.00000012,-0.00088099,0.00000032,-0.00000031,0.00735080,-0.00000006
 ,0.00000003,-0.00118019,0.,0.,0.00021381,-0.00000009,0.00000001,0.0001
 1803,0.,-0.00000012,0.00014102,-0.00000002,0.00000001,-0.00393629,-0.0
 0000508,0.,0.02672437,-0.00158218,0.00343055,0.00000010,0.01283579,0.0
 1552821,-0.00000039,-0.12891397,-0.12293116,0.00000222,-0.01080862,-0.
 02831784,0.00000056,-0.00488702,0.00214245,0.00000045,-0.00052568,0.00
 070637,-0.00000001,0.00072875,-0.00180855,-0.00000003,-0.00074353,0.00
 008941,-0.00000001,0.00340447,-0.00007576,0.00000017,0.00014347,0.0009
 4133,-0.00000016,0.00052067,0.00077031,0.00000002,0.00072055,-0.000164
 72,-0.00000002,0.13184758,0.00379135,-0.00290261,0.,-0.01503458,-0.017
 70455,0.00000048,-0.12280044,-0.27475074,0.00000464,0.00348353,0.00270
 438,-0.00000006,0.00064719,0.00136348,0.00000003,0.00098911,-0.0000196
 7,-0.00000001,0.00058673,-0.00002553,-0.00000004,0.00001270,0.00004739
 ,0.,-0.00004063,0.00136292,-0.00000008,-0.00008230,0.00027377,0.,-0.00
 084104,-0.00081801,-0.00000001,-0.00013751,0.00103122,-0.00000005,0.13
 019933,0.28885918,0.00000038,0.00000006,0.00676306,0.00000021,-0.00000
 059,0.00404729,0.00000190,0.00000499,-0.03617045,0.00000031,0.00000061
 ,0.00357416,0.00000007,0.00000016,0.00605446,-0.00000016,0.00000011,-0
 .00110586,-0.00000003,-0.00000007,0.00141870,0.00000006,0.00000001,-0.
 00024250,-0.00000016,-0.00000042,-0.00375137,-0.00000004,-0.00000004,-
 0.00013808,0.,-0.00000001,-0.00011750,-0.00000006,-0.00000002,-0.00387
 583,-0.00000272,-0.00000486,0.02480211,-0.00898645,-0.02702250,0.00000
 064,-0.00565337,0.00056557,0.00000023,-0.00084949,0.00093524,0.0000000
 3,-0.00162851,0.00221847,0.00000020,0.01152882,0.01585325,-0.00000044,
 -0.12874059,-0.12675033,0.00000351,0.00186942,0.00188220,0.00000032,-0
 .00327130,0.00011176,-0.00000049,-0.00013650,0.00154182,-0.00000015,-0
 .00002045,-0.00139575,0.,0.00102193,0.00006031,-0.00000010,-0.00041203
 ,-0.00129554,-0.00000008,0.00006950,-0.00009014,-0.00000002,0.13453006
 ,0.00267521,0.00594707,-0.00000011,0.00112114,0.00097849,0.00000002,0.
 00028103,0.00028094,0.,0.00364808,-0.00117855,-0.00000012,-0.01284497,
 -0.01832890,0.00000042,-0.12519868,-0.28298571,0.00000450,-0.00155319,
 -0.00225412,-0.00000034,-0.00056965,0.00111770,0.00000012,-0.00018150,
 -0.00098913,0.00000011,0.00001878,0.00111318,-0.00000002,-0.00002459,0
 .00065044,-0.00000001,0.00024678,0.00021482,0.,-0.00008397,0.00000640,
 0.,0.13288773,0.29545212,-0.00000047,0.00000052,0.00579704,0.00000022,
 0.00000038,0.00721013,0.00000038,-0.00000002,-0.00105230,0.00000018,-0
 .00000025,0.00578065,-0.00000051,0.00000078,0.00348320,0.00000419,0.00
 000370,-0.04024911,0.00000014,0.00000002,-0.00422343,-0.00000039,-0.00
 000011,0.00040513,-0.00000018,-0.00000013,0.00103178,-0.00000002,-0.00
 000024,0.00060442,-0.00000011,-0.00000002,-0.00407900,0.,0.00000005,-0
 .00055826,-0.00000001,0.,-0.00069522,-0.00000365,-0.00000465,0.0266384
 2,-0.00006958,0.00016232,-0.00000002,0.00006133,0.00034233,0.,0.000570
 14,-0.00057315,0.00000004,-0.00123868,0.00016035,-0.00000024,0.0022333
 2,-0.00212802,-0.00000152,0.00060625,0.00010964,0.00000014,-0.02731265
 ,-0.00890935,-0.00000198,-0.48304155,0.02980233,-0.00004268,0.00148434
 ,0.00058996,0.00000009,0.00178896,0.01011612,0.00000069,0.00001546,-0.
 00000076,0.,-0.00000331,0.00001399,0.,-0.00004018,0.00000919,0.0000000
 5,-0.00008816,0.00013527,0.00000004,0.50699524,0.00007578,0.00032638,-
 0.00000004,0.00016736,-0.00000840,0.00000001,-0.00000025,-0.00055976,0
 .00000005,-0.00163692,0.00089710,0.00000007,-0.00096453,-0.00600999,-0
 .00000184,0.00086134,-0.00034380,0.00000021,-0.05594928,0.00238160,-0.
 00000573,0.07913345,-0.05057723,-0.00000003,0.00170006,0.00081431,-0.0
 0000016,0.00725907,0.00286847,0.00000179,0.00002146,0.00000923,0.,0.00
 001318,0.00002567,0.,-0.00013148,0.00000917,0.00000003,-0.00028785,0.0
 0064746,-0.00000006,-0.02814581,0.05143728,-0.00000015,0.00000005,0.00
 007737,0.00000008,0.00000021,0.00007879,0.00000027,-0.00000036,-0.0003
 0897,-0.00000078,0.00000031,0.00075301,0.00000119,-0.00000171,0.005500
 18,0.00000040,-0.00000010,-0.00042343,-0.00001542,-0.00000158,0.003247
 67,-0.00003296,-0.00000351,-0.01702023,0.00000061,0.00000030,0.0002464
 4,0.00000214,0.00000154,-0.00587635,0.,0.,0.00002636,0.,0.00000001,-0.
 00002301,-0.00000004,0.,-0.00015194,0.00000002,0.00000009,-0.00012810,
 0.00004526,0.00000529,0.01410176,0.00056237,0.00048054,-0.00019405,-0.
 00005819,-0.00057726,0.00072399,0.00059760,0.00163541,0.00034977,0.004
 53547,0.01154058,-0.01679178,-0.00130215,0.00014643,-0.00109631,-0.000
 72305,0.00057944,0.00082396,-0.00074267,0.00077461,-0.00050870,0.00004
 485,-0.00034624,0.00061576,-0.06686272,-0.04082688,0.06069281,-0.00313
 229,-0.00281503,-0.00255795,-0.00002799,-0.00006919,-0.00009269,-0.000
 01782,0.00000071,-0.00001388,-0.00088768,-0.00031790,-0.00050449,-0.00
 006793,0.00007504,0.00017078,0.00004108,0.00004299,-0.00000798,0.06255
 568,0.00029114,0.00035685,0.00023945,-0.00012536,-0.00118656,-0.001165
 32,-0.00166676,0.00239215,-0.00035724,-0.00473897,-0.02035191,0.019427
 88,0.00284250,-0.00136763,0.00109351,-0.00065737,-0.00063974,-0.001123
 51,0.00043540,-0.00105513,0.00058029,0.00013879,0.00054485,0.00010756,
 -0.03955934,-0.16138547,0.16206858,-0.00038881,0.00095145,-0.00058128,
 0.00002199,0.00002279,0.00019382,-0.00002012,0.00008827,0.00001147,0.0
 0035340,0.00028058,0.00079198,0.00018683,-0.00017317,-0.00020615,-0.00
 012110,-0.00007044,0.00000066,0.03834108,0.17128943,-0.00031450,-0.000
 43222,0.00001458,0.00002215,0.00054204,0.00027382,0.00083365,-0.001216
 82,0.00043600,-0.00382317,0.00060435,0.00655071,0.00034771,-0.00147703
 ,-0.00034044,0.00017815,-0.00047568,-0.00021320,0.00050729,0.00090489,
 0.00039885,-0.00035533,-0.00066798,-0.00002056,0.05540583,0.15284659,-
 0.29582277,-0.00157784,-0.00168793,-0.00062924,-0.00001039,-0.00001946
 ,-0.00005306,0.00004893,-0.00008193,0.00002253,-0.00035429,0.00016196,
 -0.00010791,0.00005628,-0.00010134,0.00001658,0.00011644,0.00007068,0.
 00006385,-0.06242239,-0.16751293,0.30888570,-0.00107131,-0.00101989,-0
 .00000008,-0.00041122,-0.00027182,-0.00000006,0.00000959,-0.00090624,-
 0.00000057,-0.02418873,0.01664079,-0.00000074,-0.00355202,0.00175172,0
 .00000055,-0.00106265,-0.00328520,0.00000025,0.03554434,-0.02607651,-0
 .00000282,-0.00290698,0.01599476,0.00000437,-0.21850587,-0.04124337,-0
 .00001655,-0.01702573,0.03614670,-0.00001010,-0.00023825,-0.00004670,-
 0.00000002,0.00015795,-0.00024781,0.00000010,-0.00099428,-0.00005681,0
 .00000005,0.00090294,-0.00070752,0.00000008,-0.00204310,-0.00220146,-0
 .00000066,0.00404396,-0.00055707,0.00291462,0.22729255,-0.00134288,-0.
 00084455,0.00000002,0.00138835,0.00113805,-0.00000027,0.00188875,-0.00
 825004,0.00000008,0.02748727,0.01781916,0.00000233,-0.00256406,0.00040
 001,0.00000031,0.00026180,-0.00237485,0.00000005,0.01688328,-0.0351517
 0,-0.00000102,-0.00064615,0.01113339,0.00000353,-0.02738607,-0.0640719
 6,-0.00000469,0.00719127,0.02146449,-0.00000760,-0.00027793,-0.0000830
 7,0.,0.00027466,-0.00062590,0.00000003,-0.00100114,0.00000210,0.000000
 08,0.00041214,-0.00032589,0.00000005,-0.00144222,-0.00177657,-0.000000
 52,-0.01388501,-0.00448813,-0.00029714,0.00664211,0.07052344,0.0000001
 2,0.00000004,0.00017710,0.,-0.00000012,0.00025635,0.00000014,0.0000002
 5,0.00068651,-0.00000093,-0.00000055,-0.00112789,0.00000036,-0.0000006
 4,0.00093536,0.00000016,0.00000006,-0.00048199,-0.00000091,0.00000388,
 -0.00071088,0.00000008,-0.00000258,0.00317369,-0.00002160,-0.00000764,
 -0.06738639,-0.00000251,-0.00000294,-0.01506582,0.00000003,0.,0.000001
 81,0.,0.00000002,-0.00003947,0.00000001,-0.00000002,-0.00019517,-0.000
 00003,0.00000002,0.00000147,0.00000015,0.00000040,-0.00022721,0.029236
 14,0.00526966,0.00272518,0.00002564,0.00000908,0.07455604,0.00056210,0
 .00048036,0.00019402,-0.00005835,-0.00057700,-0.00072428,0.00059758,0.
 00163533,-0.00034993,0.00453124,0.01154000,0.01679148,-0.00130212,0.00
 014609,0.00109651,-0.00072296,0.00057916,-0.00082402,-0.00074134,0.000
 77309,0.00050890,0.00004476,-0.00034562,-0.00061622,-0.06684687,-0.040
 80455,-0.06066111,-0.00313047,-0.00281250,0.00255940,-0.00002800,-0.00
 006918,0.00009272,-0.00001782,0.00000074,0.00001392,-0.00088763,-0.000
 31777,0.00050466,-0.00006790,0.00007500,-0.00017069,0.00004110,0.00004
 288,0.00000803,0.00144148,0.00522376,0.00842687,0.00404881,-0.01388418
 ,-0.02923685,0.06253640,0.00029116,0.00035678,-0.00023946,-0.00012524,
 -0.00118660,0.00116540,-0.00166682,0.00239151,0.00035709,-0.00473448,-
 0.02035016,-0.01942893,0.00284119,-0.00136804,-0.00109310,-0.00065694,
 -0.00063958,0.00112370,0.00043606,-0.00105600,-0.00058080,0.00013877,0
 .00054506,-0.00010737,-0.03953543,-0.16137936,-0.16207343,-0.00038846,
 0.00095223,0.00058145,0.00002197,0.00002279,-0.00019383,-0.00002010,0.
 00008824,-0.00001145,0.00035326,0.00028051,-0.00079199,0.00018677,-0.0
 0017313,0.00020613,-0.00012109,-0.00007049,-0.00000067,0.00522069,0.01
 479180,0.01883995,-0.00055568,-0.00448799,-0.00526890,0.03831438,0.171
 28242,0.00031444,0.00043223,0.00001458,-0.00002213,-0.00054200,0.00027
 376,-0.00083367,0.00121669,0.00043591,0.00382342,-0.00060403,0.0065535
 2,-0.00034743,0.00147726,-0.00034061,-0.00017822,0.00047565,-0.0002133
 8,-0.00050758,-0.00090444,0.00039887,0.00035538,0.00066797,-0.00002020
 ,-0.05537380,-0.15285011,-0.29584536,0.00157719,0.00168727,-0.00062992
 ,0.00001039,0.00001945,-0.00005305,-0.00004893,0.00008192,0.00002254,0
 .00035415,-0.00016196,-0.00010794,-0.00005627,0.00010132,0.00001661,-0
 .00011647,-0.00007068,0.00006379,-0.00842299,-0.01883841,-0.02220061,-
 0.00291407,0.00029565,0.00272131,0.06238658,0.16751621,0.30891020\\-0.
 00001770,0.00000211,0.00000074,0.00000450,0.00000038,-0.00000020,-0.00
 005351,-0.00001027,0.00000252,0.00005072,-0.00000407,-0.00000173,-0.00
 011421,0.00000811,-0.00001277,0.00003590,0.00004014,-0.00000234,0.0001
 7041,0.00008344,0.00004706,-0.00003052,-0.00003987,-0.00001511,-0.0000
 2106,-0.00006763,0.00000637,-0.00002191,-0.00006760,-0.00001233,-0.000
 01043,0.00001016,0.00000035,-0.00001485,-0.00000047,-0.00000051,-0.000
 00816,-0.00000082,0.00000028,-0.00001108,-0.00000343,-0.00000012,-0.00
 000770,0.00001856,-0.00000100,-0.00000169,0.00001331,-0.00002843,0.000
 04762,0.00000412,-0.00001048,0.00000366,0.00001383,0.00002770\\\@


 There are more things in heaven and earth, Horatio,
 than are dreamt of in your philosophy.
                   -- Hamlet, Act I, Scene 5
 Job cpu time:       0 days  0 hours 11 minutes  4.0 seconds.
 File lengths (MBytes):  RWF=    100 Int=      0 D2E=      0 Chk=      5 Scr=      1
 Normal termination of Gaussian 09 at Sun Dec 15 22:31:13 2024.
