 Entering Gaussian System, Link 0=g09
 Input=camb3lypAnthranilic.gjf
 Output=camb3lypAnthranilic.log
 Initial command:
 /home/phzd/g09E/g09/l1.exe "/home/phzd/g09E/scratch/Gau-155584.inp" -scrdir="/home/phzd/g09E/scratch/"
 Default is to use a total of  18 processors:
                               18 via shared-memory
                                1 via Linda
 Entering Link 1 = /home/phzd/g09E/g09/l1.exe PID=    155586.
  
 Copyright (c) 1988,1990,1992,1993,1995,1998,2003,2009,2015,
            Gaussian, Inc.  All Rights Reserved.
  
 This is part of the Gaussian(R) 09 program.  It is based on
 the Gaussian(R) 03 system (copyright 2003, Gaussian, Inc.),
 the Gaussian(R) 98 system (copyright 1998, Gaussian, Inc.),
 the Gaussian(R) 94 system (copyright 1995, Gaussian, Inc.),
 the Gaussian 92(TM) system (copyright 1992, Gaussian, Inc.),
 the Gaussian 90(TM) system (copyright 1990, Gaussian, Inc.),
 the Gaussian 88(TM) system (copyright 1988, Gaussian, Inc.),
 the Gaussian 86(TM) system (copyright 1986, Carnegie Mellon
 University), and the Gaussian 82(TM) system (copyright 1983,
 Carnegie Mellon University). Gaussian is a federally registered
 trademark of Gaussian, Inc.
  
 This software contains proprietary and confidential information,
 including trade secrets, belonging to Gaussian, Inc.
  
 This software is provided under written license and may be
 used, copied, transmitted, or stored only in accord with that
 written license.
  
 The following legend is applicable only to US Government
 contracts under FAR:
  
                    RESTRICTED RIGHTS LEGEND
  
 Use, reproduction and disclosure by the US Government is
 subject to restrictions as set forth in subparagraphs (a)
 and (c) of the Commercial Computer Software - Restricted
 Rights clause in FAR 52.227-19.
  
 Gaussian, Inc.
 340 Quinnipiac St., Bldg. 40, Wallingford CT 06492
  
  
 ---------------------------------------------------------------
 Warning -- This program may not be used in any manner that
 competes with the business of Gaussian, Inc. or will provide
 assistance to any competitor of Gaussian, Inc.  The licensee
 of this program is prohibited from giving any competitor of
 Gaussian, Inc. access to this program.  By using this program,
 the user acknowledges that Gaussian, Inc. is engaged in the
 business of creating and licensing software in the field of
 computational chemistry and represents and warrants to the
 licensee that it is not a competitor of Gaussian, Inc. and that
 it will not use this program in any manner prohibited above.
 ---------------------------------------------------------------
  

 Cite this work as:
 Gaussian 09, Revision E.01,
 M. J. Frisch, G. W. Trucks, H. B. Schlegel, G. E. Scuseria, 
 M. A. Robb, J. R. Cheeseman, G. Scalmani, V. Barone, B. Mennucci, 
 G. A. Petersson, H. Nakatsuji, M. Caricato, X. Li, H. P. Hratchian, 
 A. F. Izmaylov, J. Bloino, G. Zheng, J. L. Sonnenberg, M. Hada, 
 M. Ehara, K. Toyota, R. Fukuda, J. Hasegawa, M. Ishida, T. Nakajima, 
 Y. Honda, O. Kitao, H. Nakai, T. Vreven, J. A. Montgomery, Jr., 
 J. E. Peralta, F. Ogliaro, M. Bearpark, J. J. Heyd, E. Brothers, 
 K. N. Kudin, V. N. Staroverov, T. Keith, R. Kobayashi, J. Normand, 
 K. Raghavachari, A. Rendell, J. C. Burant, S. S. Iyengar, J. Tomasi, 
 M. Cossi, N. Rega, J. M. Millam, M. Klene, J. E. Knox, J. B. Cross, 
 V. Bakken, C. Adamo, J. Jaramillo, R. Gomperts, R. E. Stratmann, 
 O. Yazyev, A. J. Austin, R. Cammi, C. Pomelli, J. W. Ochterski, 
 R. L. Martin, K. Morokuma, V. G. Zakrzewski, G. A. Voth, 
 P. Salvador, J. J. Dannenberg, S. Dapprich, A. D. Daniels, 
 O. Farkas, J. B. Foresman, J. V. Ortiz, J. Cioslowski, 
 and D. J. Fox, Gaussian, Inc., Wallingford CT, 2013.
 
 ******************************************
 Gaussian 09:  ES64L-G09RevE.01 30-Nov-2015
                22-Jun-2024 
 ******************************************
 %chk=camb3lypAnthranilic.chk
 --------------------------------
 # opt freq cam-b3lyp/6-31+g(d,p)
 --------------------------------
 1/14=-1,18=20,19=15,26=3,38=1/1,3;
 2/9=110,12=2,17=6,18=5,40=1/2;
 3/5=1,6=6,7=111,11=2,16=1,25=1,30=1,71=1,74=-40/1,2,3;
 4//1;
 5/5=2,38=5/2;
 6/7=2,8=2,9=2,10=2,28=1/1;
 7//1,2,3,16;
 1/14=-1,18=20,19=15,26=3/3(2);
 2/9=110/2;
 99//99;
 2/9=110/2;
 3/5=1,6=6,7=111,11=2,16=1,25=1,30=1,71=1,74=-40/1,2,3;
 4/5=5,16=3,69=1/1;
 5/5=2,38=5/2;
 7//1,2,3,16;
 1/14=-1,18=20,19=15,26=3/3(-5);
 2/9=110/2;
 6/7=2,8=2,9=2,10=2,19=2,28=1/1;
 99/9=1/99;
 ----------
 [No Title]
 ----------
 Symbolic Z-matrix:
 Charge =  0 Multiplicity = 1
 C                    -1.85922  -1.52339  -0.00002 
 C                    -2.58942  -0.32163   0.00022 
 C                    -1.94402   0.90306   0.0002 
 C                    -0.52993   0.98772  -0.00006 
 C                     0.2135   -0.23165  -0.00031 
 C                    -0.47524  -1.46411  -0.00026 
 C                     1.67932  -0.20226  -0.00059 
 O                     2.26063  -1.43192   0.00033 
 N                     0.07582   2.20817  -0.00011 
 O                     2.38053   0.80802   0.00027 
 H                    -2.36991  -2.48036  -0.00001 
 H                    -3.67574  -0.34762   0.00042 
 H                    -2.52086   1.82439   0.00038 
 H                     0.10944  -2.37662  -0.00044 
 H                     3.21937  -1.27704   0.00085 
 H                     1.08639   2.25698  -0.0004 
 H                    -0.47851   3.04778   0.00005 
 

 GradGradGradGradGradGradGradGradGradGradGradGradGradGradGradGradGradGrad
 Berny optimization.
 Initialization pass.
                           ----------------------------
                           !    Initial Parameters    !
                           ! (Angstroms and Degrees)  !
 --------------------------                            --------------------------
 ! Name  Definition              Value          Derivative Info.                !
 --------------------------------------------------------------------------------
 ! R1    R(1,2)                  1.4062         estimate D2E/DX2                !
 ! R2    R(1,6)                  1.3852         estimate D2E/DX2                !
 ! R3    R(1,11)                 1.0847         estimate D2E/DX2                !
 ! R4    R(2,3)                  1.3843         estimate D2E/DX2                !
 ! R5    R(2,12)                 1.0866         estimate D2E/DX2                !
 ! R6    R(3,4)                  1.4166         estimate D2E/DX2                !
 ! R7    R(3,13)                 1.087          estimate D2E/DX2                !
 ! R8    R(4,5)                  1.4281         estimate D2E/DX2                !
 ! R9    R(4,9)                  1.3625         estimate D2E/DX2                !
 ! R10   R(5,6)                  1.4119         estimate D2E/DX2                !
 ! R11   R(5,7)                  1.4661         estimate D2E/DX2                !
 ! R12   R(6,14)                 1.0838         estimate D2E/DX2                !
 ! R13   R(7,8)                  1.3601         estimate D2E/DX2                !
 ! R14   R(7,10)                 1.2298         estimate D2E/DX2                !
 ! R15   R(8,15)                 0.9712         estimate D2E/DX2                !
 ! R16   R(9,16)                 1.0118         estimate D2E/DX2                !
 ! R17   R(9,17)                 1.0061         estimate D2E/DX2                !
 ! A1    A(2,1,6)              118.8307         estimate D2E/DX2                !
 ! A2    A(2,1,11)             120.6302         estimate D2E/DX2                !
 ! A3    A(6,1,11)             120.5391         estimate D2E/DX2                !
 ! A4    A(1,2,3)              120.9276         estimate D2E/DX2                !
 ! A5    A(1,2,12)             119.9125         estimate D2E/DX2                !
 ! A6    A(3,2,12)             119.1599         estimate D2E/DX2                !
 ! A7    A(2,3,4)              121.2151         estimate D2E/DX2                !
 ! A8    A(2,3,13)             120.1599         estimate D2E/DX2                !
 ! A9    A(4,3,13)             118.625          estimate D2E/DX2                !
 ! A10   A(3,4,5)              117.9442         estimate D2E/DX2                !
 ! A11   A(3,4,9)              119.8226         estimate D2E/DX2                !
 ! A12   A(5,4,9)              122.2332         estimate D2E/DX2                !
 ! A13   A(4,5,6)              119.4319         estimate D2E/DX2                !
 ! A14   A(4,5,7)              120.2215         estimate D2E/DX2                !
 ! A15   A(6,5,7)              120.3466         estimate D2E/DX2                !
 ! A16   A(1,6,5)              121.6505         estimate D2E/DX2                !
 ! A17   A(1,6,14)             120.1971         estimate D2E/DX2                !
 ! A18   A(5,6,14)             118.1524         estimate D2E/DX2                !
 ! A19   A(5,7,8)              114.1529         estimate D2E/DX2                !
 ! A20   A(5,7,10)             125.9119         estimate D2E/DX2                !
 ! A21   A(8,7,10)             119.9351         estimate D2E/DX2                !
 ! A22   A(7,8,15)             106.1252         estimate D2E/DX2                !
 ! A23   A(4,9,16)             119.1615         estimate D2E/DX2                !
 ! A24   A(4,9,17)             120.1696         estimate D2E/DX2                !
 ! A25   A(16,9,17)            120.6689         estimate D2E/DX2                !
 ! D1    D(6,1,2,3)              0.0008         estimate D2E/DX2                !
 ! D2    D(6,1,2,12)          -179.9993         estimate D2E/DX2                !
 ! D3    D(11,1,2,3)          -179.9997         estimate D2E/DX2                !
 ! D4    D(11,1,2,12)            0.0002         estimate D2E/DX2                !
 ! D5    D(2,1,6,5)             -0.0023         estimate D2E/DX2                !
 ! D6    D(2,1,6,14)           179.9993         estimate D2E/DX2                !
 ! D7    D(11,1,6,5)           179.9983         estimate D2E/DX2                !
 ! D8    D(11,1,6,14)           -0.0002         estimate D2E/DX2                !
 ! D9    D(1,2,3,4)              0.0001         estimate D2E/DX2                !
 ! D10   D(1,2,3,13)           179.9994         estimate D2E/DX2                !
 ! D11   D(12,2,3,4)          -179.9998         estimate D2E/DX2                !
 ! D12   D(12,2,3,13)           -0.0005         estimate D2E/DX2                !
 ! D13   D(2,3,4,5)              0.0003         estimate D2E/DX2                !
 ! D14   D(2,3,4,9)            179.9982         estimate D2E/DX2                !
 ! D15   D(13,3,4,5)          -179.999          estimate D2E/DX2                !
 ! D16   D(13,3,4,9)            -0.0011         estimate D2E/DX2                !
 ! D17   D(3,4,5,6)             -0.0016         estimate D2E/DX2                !
 ! D18   D(3,4,5,7)            179.9999         estimate D2E/DX2                !
 ! D19   D(9,4,5,6)           -179.9995         estimate D2E/DX2                !
 ! D20   D(9,4,5,7)              0.002          estimate D2E/DX2                !
 ! D21   D(3,4,9,16)          -179.9928         estimate D2E/DX2                !
 ! D22   D(3,4,9,17)             0.0001         estimate D2E/DX2                !
 ! D23   D(5,4,9,16)             0.005          estimate D2E/DX2                !
 ! D24   D(5,4,9,17)           179.9978         estimate D2E/DX2                !
 ! D25   D(4,5,6,1)              0.0027         estimate D2E/DX2                !
 ! D26   D(4,5,6,14)          -179.9988         estimate D2E/DX2                !
 ! D27   D(7,5,6,1)           -179.9988         estimate D2E/DX2                !
 ! D28   D(7,5,6,14)            -0.0003         estimate D2E/DX2                !
 ! D29   D(4,5,7,8)            179.947          estimate D2E/DX2                !
 ! D30   D(4,5,7,10)             0.0521         estimate D2E/DX2                !
 ! D31   D(6,5,7,8)             -0.0515         estimate D2E/DX2                !
 ! D32   D(6,5,7,10)          -179.9464         estimate D2E/DX2                !
 ! D33   D(5,7,8,15)          -179.9503         estimate D2E/DX2                !
 ! D34   D(10,7,8,15)           -0.0485         estimate D2E/DX2                !
 --------------------------------------------------------------------------------
 Trust Radius=3.00D-01 FncErr=1.00D-07 GrdErr=1.00D-06
 Number of steps in this run=     86 maximum allowed number of steps=    102.
 GradGradGradGradGradGradGradGradGradGradGradGradGradGradGradGradGradGrad

                          Input orientation:                          
 ---------------------------------------------------------------------
 Center     Atomic      Atomic             Coordinates (Angstroms)
 Number     Number       Type             X           Y           Z
 ---------------------------------------------------------------------
      1          6           0       -1.859221   -1.523389   -0.000022
      2          6           0       -2.589424   -0.321626    0.000218
      3          6           0       -1.944016    0.903063    0.000202
      4          6           0       -0.529934    0.987718   -0.000059
      5          6           0        0.213499   -0.231649   -0.000312
      6          6           0       -0.475244   -1.464112   -0.000259
      7          6           0        1.679323   -0.202258   -0.000591
      8          8           0        2.260625   -1.431921    0.000334
      9          7           0        0.075816    2.208172   -0.000106
     10          8           0        2.380526    0.808024    0.000272
     11          1           0       -2.369909   -2.480363   -0.000013
     12          1           0       -3.675740   -0.347621    0.000418
     13          1           0       -2.520863    1.824385    0.000379
     14          1           0        0.109444   -2.376621   -0.000435
     15          1           0        3.219372   -1.277043    0.000848
     16          1           0        1.086391    2.256975   -0.000404
     17          1           0       -0.478512    3.047779    0.000045
 ---------------------------------------------------------------------
                    Distance matrix (angstroms):
                    1          2          3          4          5
     1  C    0.000000
     2  C    1.406212   0.000000
     3  C    2.427933   1.384346   0.000000
     4  C    2.841243   2.440467   1.416614   0.000000
     5  C    2.442286   2.804367   2.437713   1.428128   0.000000
     6  C    1.385246   2.403130   2.785823   2.452440   1.411854
     7  C    3.777126   4.270416   3.788182   2.509354   1.466119
     8  O    4.120861   4.975513   4.809486   3.693491   2.373052
     9  N    4.203441   3.674695   2.404793   1.362513   2.443703
    10  O    4.838485   5.096716   4.325586   2.916002   2.403524
    11  H    1.084713   2.169869   3.410126   3.925951   3.425013
    12  H    2.163833   1.086627   2.136136   3.417488   3.890968
    13  H    3.412530   2.147106   1.087008   2.159586   3.421113
    14  H    2.145611   3.392181   3.869499   3.424556   2.147494
    15  H    5.084564   5.886844   5.604769   4.380233   3.182471
    16  H    4.792471   4.490078   3.319103   2.055120   2.637269
    17  H    4.775137   3.976033   2.597597   2.060703   3.351645
                    6          7          8          9         10
     6  C    0.000000
     7  C    2.496885   0.000000
     8  O    2.736058   1.360141   0.000000
     9  N    3.713400   2.895066   4.245429   0.000000
    10  O    3.649387   1.229779   2.243152   2.696684   0.000000
    11  H    2.150005   4.646078   4.747744   5.288093   5.777553
    12  H    3.389650   5.357036   6.034578   4.539411   6.165539
    13  H    3.872825   4.663566   5.784994   2.624888   5.005657
    14  H    1.083759   2.681860   2.349476   4.584916   3.911493
    15  H    3.699349   1.878008   0.971176   4.693471   2.247480
    16  H    4.035492   2.529703   3.871276   1.011753   1.942742
    17  H    4.511892   3.901153   5.250770   1.006091   3.631887
                   11         12         13         14         15
    11  H    0.000000
    12  H    2.500757   0.000000
    13  H    4.307394   2.459949   0.000000
    14  H    2.481522   4.294701   4.956508   0.000000
    15  H    5.717346   6.957470   6.524504   3.298594   0.000000
    16  H    5.864161   5.427874   3.633100   4.735466   4.127819
    17  H    5.842751   4.663798   2.380733   5.456172   5.690205
                   16         17
    16  H    0.000000
    17  H    1.753366   0.000000
 Stoichiometry    C7H7NO2
 Framework group  C1[X(C7H7NO2)]
 Deg. of freedom    45
 Full point group                 C1      NOp   1
 Largest Abelian subgroup         C1      NOp   1
 Largest concise Abelian subgroup C1      NOp   1
                         Standard orientation:                         
 ---------------------------------------------------------------------
 Center     Atomic      Atomic             Coordinates (Angstroms)
 Number     Number       Type             X           Y           Z
 ---------------------------------------------------------------------
      1          6           0       -1.859221   -1.523389   -0.000022
      2          6           0       -2.589424   -0.321626    0.000218
      3          6           0       -1.944016    0.903063    0.000202
      4          6           0       -0.529934    0.987718   -0.000059
      5          6           0        0.213499   -0.231649   -0.000312
      6          6           0       -0.475244   -1.464112   -0.000259
      7          6           0        1.679323   -0.202258   -0.000591
      8          8           0        2.260625   -1.431921    0.000334
      9          7           0        0.075816    2.208172   -0.000106
     10          8           0        2.380526    0.808024    0.000272
     11          1           0       -2.369909   -2.480363   -0.000013
     12          1           0       -3.675740   -0.347621    0.000418
     13          1           0       -2.520863    1.824385    0.000379
     14          1           0        0.109444   -2.376621   -0.000435
     15          1           0        3.219372   -1.277043    0.000848
     16          1           0        1.086391    2.256975   -0.000404
     17          1           0       -0.478512    3.047779    0.000045
 ---------------------------------------------------------------------
 Rotational constants (GHZ):      2.2923684      1.2100986      0.7920109
 Standard basis: 6-31+G(d,p) (6D, 7F)
 There are   225 symmetry adapted cartesian basis functions of A   symmetry.
 There are   225 symmetry adapted basis functions of A   symmetry.
   225 basis functions,   369 primitive gaussians,   225 cartesian basis functions
    36 alpha electrons       36 beta electrons
       nuclear repulsion energy       500.0782038866 Hartrees.
 NAtoms=   17 NActive=   17 NUniq=   17 SFac= 1.00D+00 NAtFMM=   60 NAOKFM=F Big=F
 Integral buffers will be    131072 words long.
 Raffenetti 2 integral format.
 Two-electron integral symmetry is turned on.
 One-electron integrals computed using PRISM.
 NBasis=   225 RedAO= T EigKep=  2.75D-06  NBF=   225
 NBsUse=   225 1.00D-06 EigRej= -1.00D+00 NBFU=   225
 ExpMin= 4.38D-02 ExpMax= 5.48D+03 ExpMxC= 8.25D+02 IAcc=2 IRadAn=         4 AccDes= 0.00D+00
 Harris functional with IExCor=20419 and IRadAn=       4 diagonalized for initial guess.
 HarFok:  IExCor=20419 AccDes= 0.00D+00 IRadAn=         4 IDoV= 1 UseB2=F ITyADJ=14
 ICtDFT=  3500011 ScaDFX=  1.000000  1.000000  1.000000  1.000000
 FoFCou: FMM=F IPFlag=           0 FMFlag=      100000 FMFlg1=           0
         NFxFlg=           0 DoJE=T BraDBF=F KetDBF=T FulRan=T
         wScrn=  0.000000 ICntrl=     500 IOpCl=  0 I1Cent=   200000004 NGrid=           0
         NMat0=    1 NMatS0=      1 NMatT0=    0 NMatD0=    1 NMtDS0=    0 NMtDT0=    0
 Petite list used in FoFCou.
 Keep R1 ints in memory in canonical form, NReq=652403680.
 Requested convergence on RMS density matrix=1.00D-08 within 128 cycles.
 Requested convergence on MAX density matrix=1.00D-06.
 Requested convergence on             energy=1.00D-06.
 No special actions if energy rises.
 SCF Done:  E(RCAM-B3LYP) =  -475.996865099     A.U. after   16 cycles
            NFock= 16  Conv=0.52D-08     -V/T= 2.0094

 **********************************************************************

            Population analysis using the SCF density.

 **********************************************************************

 Orbital symmetries:
       Occupied  (A) (A) (A) (A) (A) (A) (A) (A) (A) (A) (A) (A)
                 (A) (A) (A) (A) (A) (A) (A) (A) (A) (A) (A) (A)
                 (A) (A) (A) (A) (A) (A) (A) (A) (A) (A) (A) (A)
       Virtual   (A) (A) (A) (A) (A) (A) (A) (A) (A) (A) (A) (A)
                 (A) (A) (A) (A) (A) (A) (A) (A) (A) (A) (A) (A)
                 (A) (A) (A) (A) (A) (A) (A) (A) (A) (A) (A) (A)
                 (A) (A) (A) (A) (A) (A) (A) (A) (A) (A) (A) (A)
                 (A) (A) (A) (A) (A) (A) (A) (A) (A) (A) (A) (A)
                 (A) (A) (A) (A) (A) (A) (A) (A) (A) (A) (A) (A)
                 (A) (A) (A) (A) (A) (A) (A) (A) (A) (A) (A) (A)
                 (A) (A) (A) (A) (A) (A) (A) (A) (A) (A) (A) (A)
                 (A) (A) (A) (A) (A) (A) (A) (A) (A) (A) (A) (A)
                 (A) (A) (A) (A) (A) (A) (A) (A) (A) (A) (A) (A)
                 (A) (A) (A) (A) (A) (A) (A) (A) (A) (A) (A) (A)
                 (A) (A) (A) (A) (A) (A) (A) (A) (A) (A) (A) (A)
                 (A) (A) (A) (A) (A) (A) (A) (A) (A) (A) (A) (A)
                 (A) (A) (A) (A) (A) (A) (A) (A) (A) (A) (A) (A)
                 (A) (A) (A) (A) (A) (A) (A) (A) (A) (A) (A) (A)
                 (A) (A) (A) (A) (A) (A) (A) (A) (A)
 The electronic state is 1-A.
 Alpha  occ. eigenvalues --  -19.28113 -19.22689 -14.42726 -10.41113 -10.33305
 Alpha  occ. eigenvalues --  -10.28365 -10.28229 -10.28066 -10.27223 -10.26487
 Alpha  occ. eigenvalues --   -1.19766  -1.10262  -1.01856  -0.93456  -0.85810
 Alpha  occ. eigenvalues --   -0.82051  -0.74349  -0.70281  -0.67208  -0.61257
 Alpha  occ. eigenvalues --   -0.59803  -0.58352  -0.56617  -0.53164  -0.53036
 Alpha  occ. eigenvalues --   -0.51117  -0.50098  -0.47540  -0.46346  -0.44215
 Alpha  occ. eigenvalues --   -0.42254  -0.39809  -0.38675  -0.35522  -0.32208
 Alpha  occ. eigenvalues --   -0.26680
 Alpha virt. eigenvalues --   -0.01122   0.02712   0.03645   0.03940   0.04494
 Alpha virt. eigenvalues --    0.05853   0.07036   0.07725   0.08199   0.09170
 Alpha virt. eigenvalues --    0.09480   0.09727   0.10751   0.12161   0.12717
 Alpha virt. eigenvalues --    0.14599   0.15436   0.16232   0.16390   0.16632
 Alpha virt. eigenvalues --    0.17446   0.19123   0.20021   0.20088   0.20940
 Alpha virt. eigenvalues --    0.21452   0.21955   0.22493   0.23563   0.23622
 Alpha virt. eigenvalues --    0.24291   0.25071   0.25686   0.25969   0.26463
 Alpha virt. eigenvalues --    0.27139   0.27748   0.27927   0.28692   0.30267
 Alpha virt. eigenvalues --    0.30727   0.31784   0.32339   0.32438   0.33161
 Alpha virt. eigenvalues --    0.34619   0.35174   0.36317   0.37107   0.38187
 Alpha virt. eigenvalues --    0.39347   0.42549   0.43591   0.45805   0.45919
 Alpha virt. eigenvalues --    0.49321   0.52109   0.52674   0.56262   0.65678
 Alpha virt. eigenvalues --    0.67517   0.71725   0.71767   0.73671   0.76971
 Alpha virt. eigenvalues --    0.77759   0.78350   0.79156   0.80087   0.80223
 Alpha virt. eigenvalues --    0.82735   0.83322   0.86753   0.89572   0.90261
 Alpha virt. eigenvalues --    0.94024   0.96353   0.99202   0.99748   1.01183
 Alpha virt. eigenvalues --    1.01919   1.04708   1.08468   1.09420   1.10391
 Alpha virt. eigenvalues --    1.12810   1.16054   1.17545   1.18867   1.19657
 Alpha virt. eigenvalues --    1.21136   1.21351   1.26565   1.28859   1.29988
 Alpha virt. eigenvalues --    1.30946   1.32757   1.33257   1.36595   1.39688
 Alpha virt. eigenvalues --    1.40188   1.42237   1.42371   1.43434   1.44884
 Alpha virt. eigenvalues --    1.45053   1.47019   1.47274   1.48250   1.53034
 Alpha virt. eigenvalues --    1.54212   1.62302   1.64470   1.69135   1.73189
 Alpha virt. eigenvalues --    1.80310   1.80943   1.85340   1.86447   1.87770
 Alpha virt. eigenvalues --    1.90292   1.92848   1.97583   1.98935   1.99108
 Alpha virt. eigenvalues --    2.02708   2.03517   2.06746   2.07422   2.09399
 Alpha virt. eigenvalues --    2.12643   2.12930   2.15080   2.18505   2.23782
 Alpha virt. eigenvalues --    2.26929   2.28817   2.33172   2.36972   2.39832
 Alpha virt. eigenvalues --    2.45099   2.45182   2.47147   2.47170   2.50079
 Alpha virt. eigenvalues --    2.51803   2.53206   2.57210   2.59692   2.60378
 Alpha virt. eigenvalues --    2.62255   2.64345   2.65938   2.67639   2.69197
 Alpha virt. eigenvalues --    2.69954   2.74863   2.75332   2.80490   2.81055
 Alpha virt. eigenvalues --    2.83373   2.83471   2.88881   2.94782   3.02401
 Alpha virt. eigenvalues --    3.08028   3.12705   3.16341   3.19493   3.27547
 Alpha virt. eigenvalues --    3.31483   3.34472   3.39463   3.43234   3.54519
 Alpha virt. eigenvalues --    3.57625   3.60120   3.74790   3.93904   4.26036
 Alpha virt. eigenvalues --    4.33846   4.35892   4.37624   4.38653   4.52174
 Alpha virt. eigenvalues --    4.56703   4.61901   4.84137   4.94543
          Condensed to atoms (all electrons):
               1          2          3          4          5          6
     1  C    7.306236   0.452176   0.116758  -0.342838  -0.283798  -1.591068
     2  C    0.452176   5.869777  -0.302821   1.303427  -1.522918   0.448740
     3  C    0.116758  -0.302821   9.391702  -0.178772  -1.231023  -2.242719
     4  C   -0.342838   1.303427  -0.178772  17.847651  -6.109971  -4.431304
     5  C   -0.283798  -1.522918  -1.231023  -6.109971  14.561424  -0.623165
     6  C   -1.591068   0.448740  -2.242719  -4.431304  -0.623165  14.815369
     7  C   -0.108104  -0.149980  -0.045834  -1.146097   0.347397   0.050618
     8  O    0.119801   0.000476  -0.026278  -0.145270  -0.096385  -0.009199
     9  N   -0.003989   0.043234  -0.145151   0.053811  -0.052286   0.178635
    10  O    0.042703  -0.004417   0.029399  -0.095323  -0.048141  -0.092928
    11  H    0.248742  -0.009823   0.008888  -0.001699   0.013867   0.061341
    12  H    0.042515   0.245307   0.059302  -0.044237   0.007700   0.005087
    13  H    0.011502   0.034136   0.214322   0.017588   0.064481  -0.026164
    14  H    0.036999   0.003327   0.001404   0.034037   0.055801   0.197440
    15  H   -0.008334  -0.000768   0.006160   0.005405   0.060341  -0.014930
    16  H    0.003381   0.002203   0.087014   0.140087  -0.192301  -0.040432
    17  H   -0.002207   0.003092  -0.090896  -0.085350   0.137555   0.026358
               7          8          9         10         11         12
     1  C   -0.108104   0.119801  -0.003989   0.042703   0.248742   0.042515
     2  C   -0.149980   0.000476   0.043234  -0.004417  -0.009823   0.245307
     3  C   -0.045834  -0.026278  -0.145151   0.029399   0.008888   0.059302
     4  C   -1.146097  -0.145270   0.053811  -0.095323  -0.001699  -0.044237
     5  C    0.347397  -0.096385  -0.052286  -0.048141   0.013867   0.007700
     6  C    0.050618  -0.009199   0.178635  -0.092928   0.061341   0.005087
     7  C    5.787162   0.184914  -0.105988   0.396384  -0.001182   0.000626
     8  O    0.184914   8.435138   0.001210  -0.161978   0.000151   0.000006
     9  N   -0.105988   0.001210   7.093718  -0.021958   0.000186  -0.000369
    10  O    0.396384  -0.161978  -0.021958   8.463873   0.000020  -0.000001
    11  H   -0.001182   0.000151   0.000186   0.000020   0.556293  -0.004562
    12  H    0.000626   0.000006  -0.000369  -0.000001  -0.004562   0.558918
    13  H    0.007320   0.000015  -0.018128  -0.000015  -0.000151  -0.005499
    14  H   -0.018224  -0.000127  -0.000999  -0.000081  -0.004833  -0.000157
    15  H   -0.013547   0.198196  -0.000091   0.004844  -0.000000  -0.000000
    16  H   -0.001938   0.000594   0.313798   0.021862  -0.000000   0.000002
    17  H   -0.003172   0.000173   0.323595   0.002398  -0.000000  -0.000010
              13         14         15         16         17
     1  C    0.011502   0.036999  -0.008334   0.003381  -0.002207
     2  C    0.034136   0.003327  -0.000768   0.002203   0.003092
     3  C    0.214322   0.001404   0.006160   0.087014  -0.090896
     4  C    0.017588   0.034037   0.005405   0.140087  -0.085350
     5  C    0.064481   0.055801   0.060341  -0.192301   0.137555
     6  C   -0.026164   0.197440  -0.014930  -0.040432   0.026358
     7  C    0.007320  -0.018224  -0.013547  -0.001938  -0.003172
     8  O    0.000015  -0.000127   0.198196   0.000594   0.000173
     9  N   -0.018128  -0.000999  -0.000091   0.313798   0.323595
    10  O   -0.000015  -0.000081   0.004844   0.021862   0.002398
    11  H   -0.000151  -0.004833  -0.000000  -0.000000  -0.000000
    12  H   -0.005499  -0.000157  -0.000000   0.000002  -0.000010
    13  H    0.576673   0.000011  -0.000000   0.000048   0.005199
    14  H    0.000011   0.534015   0.000148   0.000000   0.000002
    15  H   -0.000000   0.000148   0.370843   0.000010  -0.000001
    16  H    0.000048   0.000000   0.000010   0.331429  -0.023043
    17  H    0.005199   0.000002  -0.000001  -0.023043   0.397191
 Mulliken charges:
               1
     1  C   -0.040474
     2  C   -0.415166
     3  C    0.348546
     4  C   -0.821148
     5  C    0.911422
     6  C   -0.711679
     7  C    0.819648
     8  O   -0.501438
     9  N   -0.659228
    10  O   -0.536641
    11  H    0.132762
    12  H    0.135372
    13  H    0.118662
    14  H    0.161235
    15  H    0.391724
    16  H    0.357285
    17  H    0.309117
 Sum of Mulliken charges =  -0.00000
 Mulliken charges with hydrogens summed into heavy atoms:
               1
     1  C    0.092288
     2  C   -0.279794
     3  C    0.467208
     4  C   -0.821148
     5  C    0.911422
     6  C   -0.550444
     7  C    0.819648
     8  O   -0.109714
     9  N    0.007174
    10  O   -0.536641
 Electronic spatial extent (au):  <R**2>=           1384.6732
 Charge=             -0.0000 electrons
 Dipole moment (field-independent basis, Debye):
    X=             -1.2342    Y=              0.4637    Z=             -0.0007  Tot=              1.3184
 Quadrupole moment (field-independent basis, Debye-Ang):
   XX=            -52.4510   YY=            -51.0081   ZZ=            -62.7221
   XY=             -5.3693   XZ=             -0.0017   YZ=             -0.0011
 Traceless Quadrupole moment (field-independent basis, Debye-Ang):
   XX=              2.9428   YY=              4.3856   ZZ=             -7.3284
   XY=             -5.3693   XZ=             -0.0017   YZ=             -0.0011
 Octapole moment (field-independent basis, Debye-Ang**2):
  XXX=             19.4682  YYY=             25.2241  ZZZ=              0.0032  XYY=             -3.2358
  XXY=            -16.9133  XXZ=              0.0129  XZZ=             12.2843  YZZ=              0.2748
  YYZ=              0.0017  XYZ=             -0.0081
 Hexadecapole moment (field-independent basis, Debye-Ang**3):
 XXXX=           -967.4034 YYYY=           -535.3953 ZZZZ=            -71.6824 XXXY=            -78.7869
 XXXZ=              0.0313 YYYX=            -10.9743 YYYZ=             -0.0009 ZZZX=              0.0078
 ZZZY=             -0.0029 XXYY=           -271.2795 XXZZ=           -212.4937 YYZZ=           -133.2717
 XXYZ=             -0.0240 YYXZ=              0.0036 ZZXY=             -5.1090
 N-N= 5.000782038866D+02 E-N=-2.109403364551D+03  KE= 4.715710119688D+02
 Calling FoFJK, ICntrl=      2127 FMM=F ISym2X=0 I1Cent= 0 IOpClX= 0 NMat=1 NMatS=1 NMatT=0.
 ***** Axes restored to original set *****
 -------------------------------------------------------------------
 Center     Atomic                   Forces (Hartrees/Bohr)
 Number     Number              X              Y              Z
 -------------------------------------------------------------------
      1        6           0.002928108    0.003679862    0.000005431
      2        6           0.005350748    0.001104278   -0.000001598
      3        6           0.001623392   -0.004155975    0.000004555
      4        6           0.001008452   -0.002884402   -0.000013949
      5        6          -0.004622204    0.001808409   -0.000066681
      6        6          -0.002640187    0.004073033   -0.000010603
      7        6           0.005953088    0.001800716    0.000271018
      8        8          -0.001929330    0.007592589   -0.000081282
      9        7          -0.001024721   -0.003003844   -0.000003050
     10        8          -0.006167081   -0.009227953   -0.000109387
     11        1           0.000386839    0.000577397    0.000001462
     12        1           0.000657359    0.000027763   -0.000000962
     13        1           0.000445119   -0.000555464    0.000000325
     14        1          -0.000025688    0.000353240   -0.000000825
     15        1          -0.001402354   -0.000173244   -0.000001635
     16        1          -0.000861898   -0.000144682    0.000008138
     17        1           0.000320358   -0.000871722   -0.000000956
 -------------------------------------------------------------------
 Cartesian Forces:  Max     0.009227953 RMS     0.002686149

 GradGradGradGradGradGradGradGradGradGradGradGradGradGradGradGradGradGrad
 Berny optimization.
 FormGI is forming the generalized inverse of G from B-inverse, IUseBI=4.
 Internal  Forces:  Max     0.011097107 RMS     0.002438619
 Search for a local minimum.
 Step number   1 out of a maximum of   86
 All quantities printed in internal units (Hartrees-Bohrs-Radians)
 Mixed Optimization -- RFO/linear search
 Second derivative matrix not updated -- first step.
 ITU=  0
     Eigenvalues ---    0.01214   0.01520   0.01648   0.01802   0.01930
     Eigenvalues ---    0.02040   0.02056   0.02100   0.02139   0.02161
     Eigenvalues ---    0.02188   0.02188   0.02209   0.02219   0.16000
     Eigenvalues ---    0.16000   0.16000   0.16000   0.16000   0.16000
     Eigenvalues ---    0.16000   0.22000   0.22477   0.24467   0.25000
     Eigenvalues ---    0.25000   0.25000   0.25000   0.35161   0.35205
     Eigenvalues ---    0.35431   0.35544   0.36209   0.39381   0.40635
     Eigenvalues ---    0.42777   0.44008   0.45680   0.46633   0.46772
     Eigenvalues ---    0.47813   0.52443   0.52919   0.53137   0.91179
 RFO step:  Lambda=-8.59272801D-04 EMin= 1.21413269D-02
 Linear search not attempted -- first point.
 Iteration  1 RMS(Cart)=  0.01068742 RMS(Int)=  0.00000934
 Iteration  2 RMS(Cart)=  0.00001134 RMS(Int)=  0.00000250
 Iteration  3 RMS(Cart)=  0.00000000 RMS(Int)=  0.00000250
 Variable       Old X    -DE/DX   Delta X   Delta X   Delta X     New X
                                 (Linear)    (Quad)   (Total)
    R1        2.65735  -0.00481   0.00000  -0.01071  -0.01071   2.64664
    R2        2.61774  -0.00617   0.00000  -0.01280  -0.01280   2.60494
    R3        2.04981  -0.00069   0.00000  -0.00195  -0.00195   2.04786
    R4        2.61604  -0.00593   0.00000  -0.01219  -0.01219   2.60384
    R5        2.05343  -0.00066   0.00000  -0.00186  -0.00186   2.05156
    R6        2.67701  -0.00524   0.00000  -0.01216  -0.01216   2.66485
    R7        2.05415  -0.00071   0.00000  -0.00201  -0.00201   2.05214
    R8        2.69877  -0.00805   0.00000  -0.01954  -0.01953   2.67924
    R9        2.57478  -0.00430   0.00000  -0.00818  -0.00818   2.56659
   R10        2.66802  -0.00588   0.00000  -0.01349  -0.01348   2.65453
   R11        2.77056  -0.00354   0.00000  -0.00977  -0.00977   2.76080
   R12        2.04801  -0.00031   0.00000  -0.00087  -0.00087   2.04713
   R13        2.57029  -0.00813   0.00000  -0.01534  -0.01534   2.55495
   R14        2.32395  -0.01110   0.00000  -0.01216  -0.01216   2.31179
   R15        1.83526  -0.00141   0.00000  -0.00265  -0.00265   1.83260
   R16        1.91194  -0.00087   0.00000  -0.00190  -0.00190   1.91004
   R17        1.90124  -0.00090   0.00000  -0.00193  -0.00193   1.89930
    A1        2.07399  -0.00040   0.00000  -0.00163  -0.00163   2.07236
    A2        2.10539   0.00027   0.00000   0.00126   0.00126   2.10665
    A3        2.10380   0.00013   0.00000   0.00037   0.00037   2.10417
    A4        2.11058   0.00028   0.00000   0.00159   0.00158   2.11216
    A5        2.09287  -0.00013   0.00000  -0.00072  -0.00072   2.09215
    A6        2.07973  -0.00015   0.00000  -0.00087  -0.00086   2.07887
    A7        2.11560  -0.00044   0.00000  -0.00179  -0.00179   2.11381
    A8        2.09719   0.00031   0.00000   0.00142   0.00142   2.09861
    A9        2.07040   0.00014   0.00000   0.00037   0.00037   2.07077
   A10        2.05851  -0.00011   0.00000  -0.00048  -0.00047   2.05804
   A11        2.09130   0.00044   0.00000   0.00179   0.00179   2.09309
   A12        2.13337  -0.00033   0.00000  -0.00131  -0.00131   2.13206
   A13        2.08448   0.00108   0.00000   0.00415   0.00416   2.08864
   A14        2.09826  -0.00066   0.00000  -0.00254  -0.00254   2.09572
   A15        2.10045  -0.00042   0.00000  -0.00161  -0.00161   2.09883
   A16        2.12320  -0.00040   0.00000  -0.00185  -0.00184   2.12136
   A17        2.09784   0.00037   0.00000   0.00200   0.00200   2.09983
   A18        2.06215   0.00002   0.00000  -0.00015  -0.00016   2.06199
   A19        1.99234   0.00019   0.00000   0.00075   0.00074   1.99309
   A20        2.19758   0.00013   0.00000   0.00053   0.00052   2.19810
   A21        2.09326  -0.00032   0.00000  -0.00127  -0.00128   2.09198
   A22        1.85223  -0.00010   0.00000  -0.00061  -0.00061   1.85163
   A23        2.07976   0.00000   0.00000   0.00003   0.00003   2.07979
   A24        2.09736  -0.00020   0.00000  -0.00127  -0.00127   2.09608
   A25        2.10607   0.00020   0.00000   0.00125   0.00125   2.10732
    D1        0.00001  -0.00000   0.00000  -0.00005  -0.00005  -0.00004
    D2       -3.14158  -0.00000   0.00000  -0.00005  -0.00005   3.14156
    D3       -3.14159  -0.00000   0.00000  -0.00001  -0.00001   3.14159
    D4        0.00000  -0.00000   0.00000  -0.00000  -0.00000  -0.00000
    D5       -0.00004   0.00000   0.00000   0.00014   0.00014   0.00010
    D6        3.14158   0.00000   0.00000   0.00004   0.00004  -3.14157
    D7        3.14156   0.00000   0.00000   0.00010   0.00010  -3.14152
    D8       -0.00000  -0.00000   0.00000  -0.00000  -0.00000  -0.00000
    D9        0.00000  -0.00000   0.00000  -0.00001  -0.00001  -0.00000
   D10        3.14158   0.00000   0.00000   0.00004   0.00004  -3.14157
   D11       -3.14159  -0.00000   0.00000  -0.00001  -0.00001   3.14158
   D12       -0.00001   0.00000   0.00000   0.00003   0.00003   0.00002
   D13        0.00000  -0.00000   0.00000  -0.00002  -0.00002  -0.00002
   D14        3.14156   0.00000   0.00000   0.00016   0.00016  -3.14146
   D15       -3.14157  -0.00000   0.00000  -0.00007  -0.00007   3.14154
   D16       -0.00002   0.00000   0.00000   0.00012   0.00012   0.00010
   D17       -0.00003   0.00000   0.00000   0.00011   0.00011   0.00008
   D18        3.14159   0.00000   0.00000  -0.00001  -0.00001   3.14158
   D19       -3.14158  -0.00000   0.00000  -0.00008  -0.00008   3.14152
   D20        0.00004  -0.00000   0.00000  -0.00020  -0.00020  -0.00016
   D21       -3.14147  -0.00001   0.00000  -0.00039  -0.00039   3.14133
   D22        0.00000  -0.00000   0.00000  -0.00013  -0.00013  -0.00013
   D23        0.00009  -0.00000   0.00000  -0.00019  -0.00019  -0.00011
   D24        3.14156   0.00000   0.00000   0.00006   0.00006  -3.14157
   D25        0.00005  -0.00000   0.00000  -0.00017  -0.00017  -0.00013
   D26       -3.14157  -0.00000   0.00000  -0.00007  -0.00007   3.14154
   D27       -3.14157  -0.00000   0.00000  -0.00006  -0.00006   3.14156
   D28       -0.00001   0.00000   0.00000   0.00004   0.00004   0.00004
   D29        3.14067   0.00006   0.00000   0.00392   0.00393  -3.13859
   D30        0.00091  -0.00007   0.00000  -0.00419  -0.00419  -0.00328
   D31       -0.00090   0.00006   0.00000   0.00381   0.00381   0.00291
   D32       -3.14066  -0.00007   0.00000  -0.00431  -0.00431   3.13822
   D33       -3.14072  -0.00006   0.00000  -0.00382  -0.00382   3.13864
   D34       -0.00085   0.00006   0.00000   0.00376   0.00376   0.00291
         Item               Value     Threshold  Converged?
 Maximum Force            0.011097     0.000450     NO 
 RMS     Force            0.002439     0.000300     NO 
 Maximum Displacement     0.029952     0.001800     NO 
 RMS     Displacement     0.010689     0.001200     NO 
 Predicted change in Energy=-4.304407D-04
 GradGradGradGradGradGradGradGradGradGradGradGradGradGradGradGradGradGrad

                          Input orientation:                          
 ---------------------------------------------------------------------
 Center     Atomic      Atomic             Coordinates (Angstroms)
 Number     Number       Type             X           Y           Z
 ---------------------------------------------------------------------
      1          6           0       -1.852669   -1.517938    0.000247
      2          6           0       -2.578672   -0.320258   -0.000522
      3          6           0       -1.936918    0.899064   -0.000472
      4          6           0       -0.529155    0.981560    0.000360
      5          6           0        0.206796   -0.230259    0.001169
      6          6           0       -0.475492   -1.458151    0.001018
      7          6           0        1.667428   -0.199787    0.002038
      8          8           0        2.247159   -1.421207   -0.000945
      9          7           0        0.078374    2.196290    0.000542
     10          8           0        2.364676    0.805403   -0.001096
     11          1           0       -2.362670   -2.474111    0.000208
     12          1           0       -3.664010   -0.345868   -0.001166
     13          1           0       -2.512382    1.819999   -0.001048
     14          1           0        0.111297   -2.368760    0.001597
     15          1           0        3.204182   -1.264482   -0.002759
     16          1           0        1.088089    2.241994    0.001371
     17          1           0       -0.473901    3.036023   -0.000026
 ---------------------------------------------------------------------
                    Distance matrix (angstroms):
                    1          2          3          4          5
     1  C    0.000000
     2  C    1.400542   0.000000
     3  C    2.418470   1.377895   0.000000
     4  C    2.828282   2.428013   1.410178   0.000000
     5  C    2.428892   2.786922   2.422990   1.417790   0.000000
     6  C    1.378474   2.391268   2.773487   2.440300   1.404719
     7  C    3.758804   4.247809   3.768128   2.494105   1.460950
     8  O    4.100969   4.949821   4.784366   3.671677   2.362508
     9  N    4.186217   3.659632   2.396706   1.358183   2.429945
    10  O    4.814968   5.069892   4.302614   2.899189   2.393543
    11  H    1.083682   2.164657   3.399938   3.911960   3.411309
    12  H    2.157477   1.085641   2.129015   3.404318   3.872532
    13  H    3.402506   2.141283   1.085946   2.153177   3.405509
    14  H    2.140342   3.381168   3.856665   3.410985   2.140632
    15  H    5.063200   5.859433   5.577800   4.356894   3.170798
    16  H    4.773379   4.473285   3.309703   2.050409   2.624636
    17  H    4.758105   3.961652   2.589790   2.055207   3.336457
                    6          7          8          9         10
     6  C    0.000000
     7  C    2.485073   0.000000
     8  O    2.722903   1.352022   0.000000
     9  N    3.696174   2.875113   4.217809   0.000000
    10  O    3.631837   1.223344   2.229709   2.676144   0.000000
    11  H    2.143272   4.627553   4.728544   5.269852   5.753522
    12  H    3.376954   5.333440   6.008184   4.524158   6.137628
    13  H    3.859428   4.642236   5.758355   2.617942   4.981476
    14  H    1.083297   2.669455   2.336615   4.565168   3.892690
    15  H    3.684770   1.869549   0.969773   4.663435   2.233651
    16  H    4.016947   2.509568   3.842199   1.010749   1.921842
    17  H    4.494174   3.880175   5.222171   1.005068   3.610151
                   11         12         13         14         15
    11  H    0.000000
    12  H    2.494575   0.000000
    13  H    4.296719   2.453003   0.000000
    14  H    2.476210   4.283111   4.942610   0.000000
    15  H    5.696758   6.929352   6.495624   3.284111   0.000000
    16  H    5.843748   5.411052   3.625118   4.713085   4.095515
    17  H    5.824863   4.649084   2.373631   5.436372   5.658856
                   16         17
    16  H    0.000000
    17  H    1.752226   0.000000
 Stoichiometry    C7H7NO2
 Framework group  C1[X(C7H7NO2)]
 Deg. of freedom    45
 Full point group                 C1      NOp   1
 Largest Abelian subgroup         C1      NOp   1
 Largest concise Abelian subgroup C1      NOp   1
                         Standard orientation:                         
 ---------------------------------------------------------------------
 Center     Atomic      Atomic             Coordinates (Angstroms)
 Number     Number       Type             X           Y           Z
 ---------------------------------------------------------------------
      1          6           0       -1.854335   -1.513464    0.000127
      2          6           0       -2.577283   -0.313938   -0.000642
      3          6           0       -1.932424    0.903745   -0.000592
      4          6           0       -0.524456    0.982653    0.000240
      5          6           0        0.208405   -0.231038    0.001049
      6          6           0       -0.477011   -1.457187    0.000897
      7          6           0        1.669110   -0.204288    0.001917
      8          8           0        2.245726   -1.427182   -0.001065
      9          7           0        0.086168    2.195830    0.000422
     10          8           0        2.368918    0.799121   -0.001217
     11          1           0       -2.366771   -2.468334    0.000087
     12          1           0       -3.662683   -0.336781   -0.001287
     13          1           0       -2.505539    1.826143   -0.001169
     14          1           0        0.107456   -2.369288    0.001477
     15          1           0        3.203145   -1.272897   -0.002880
     16          1           0        1.095996    2.238961    0.001250
     17          1           0       -0.463965    3.036969   -0.000146
 ---------------------------------------------------------------------
 Rotational constants (GHZ):      2.3157143      1.2224279      0.8000795
 Standard basis: 6-31+G(d,p) (6D, 7F)
 There are   225 symmetry adapted cartesian basis functions of A   symmetry.
 There are   225 symmetry adapted basis functions of A   symmetry.
   225 basis functions,   369 primitive gaussians,   225 cartesian basis functions
    36 alpha electrons       36 beta electrons
       nuclear repulsion energy       502.4828495746 Hartrees.
 NAtoms=   17 NActive=   17 NUniq=   17 SFac= 1.00D+00 NAtFMM=   60 NAOKFM=F Big=F
 Integral buffers will be    131072 words long.
 Raffenetti 2 integral format.
 Two-electron integral symmetry is turned on.
 One-electron integrals computed using PRISM.
 NBasis=   225 RedAO= T EigKep=  2.62D-06  NBF=   225
 NBsUse=   225 1.00D-06 EigRej= -1.00D+00 NBFU=   225
 Initial guess from the checkpoint file:  "camb3lypAnthranilic.chk"
 B after Tr=    -0.000000   -0.000000    0.000000
         Rot=    0.999999    0.000008   -0.000021    0.001209 Ang=   0.14 deg.
 ExpMin= 4.38D-02 ExpMax= 5.48D+03 ExpMxC= 8.25D+02 IAcc=2 IRadAn=         4 AccDes= 0.00D+00
 Harris functional with IExCor=20419 and IRadAn=       4 diagonalized for initial guess.
 HarFok:  IExCor=20419 AccDes= 0.00D+00 IRadAn=         4 IDoV= 1 UseB2=F ITyADJ=14
 ICtDFT=  3500011 ScaDFX=  1.000000  1.000000  1.000000  1.000000
 FoFCou: FMM=F IPFlag=           0 FMFlag=      100000 FMFlg1=           0
         NFxFlg=           0 DoJE=T BraDBF=F KetDBF=T FulRan=T
         wScrn=  0.000000 ICntrl=     500 IOpCl=  0 I1Cent=   200000004 NGrid=           0
         NMat0=    1 NMatS0=      1 NMatT0=    0 NMatD0=    1 NMtDS0=    0 NMtDT0=    0
 Petite list used in FoFCou.
 Keep R1 ints in memory in canonical form, NReq=652403680.
 Requested convergence on RMS density matrix=1.00D-08 within 128 cycles.
 Requested convergence on MAX density matrix=1.00D-06.
 Requested convergence on             energy=1.00D-06.
 No special actions if energy rises.
 SCF Done:  E(RCAM-B3LYP) =  -475.997233817     A.U. after   13 cycles
            NFock= 13  Conv=0.58D-08     -V/T= 2.0090
 Calling FoFJK, ICntrl=      2127 FMM=F ISym2X=0 I1Cent= 0 IOpClX= 0 NMat=1 NMatS=1 NMatT=0.
 ***** Axes restored to original set *****
 -------------------------------------------------------------------
 Center     Atomic                   Forces (Hartrees/Bohr)
 Number     Number              X              Y              Z
 -------------------------------------------------------------------
      1        6          -0.000322601   -0.000696530   -0.000018558
      2        6          -0.000528569    0.000232795    0.000001686
      3        6          -0.000764604    0.000236250   -0.000018991
      4        6           0.000609537    0.000314313    0.000044969
      5        6          -0.000662482    0.000400170    0.000238892
      6        6           0.000247100   -0.000775217    0.000037979
      7        6           0.001653370   -0.001671818   -0.000899780
      8        8          -0.000019528    0.001084501    0.000270537
      9        7          -0.000248509    0.000933157    0.000010487
     10        8           0.000518505    0.000123889    0.000356551
     11        1          -0.000119796   -0.000063930   -0.000004398
     12        1          -0.000171961   -0.000038662    0.000002480
     13        1          -0.000089225    0.000086495   -0.000001051
     14        1          -0.000005576   -0.000031985    0.000002783
     15        1           0.000072592   -0.000373737    0.000001251
     16        1          -0.000106932    0.000201102   -0.000027499
     17        1          -0.000061321    0.000039209    0.000002662
 -------------------------------------------------------------------
 Cartesian Forces:  Max     0.001671818 RMS     0.000496195

 GradGradGradGradGradGradGradGradGradGradGradGradGradGradGradGradGradGrad
 Berny optimization.
 Using GEDIIS/GDIIS optimizer.
 FormGI is forming the generalized inverse of G from B-inverse, IUseBI=4.
 Internal  Forces:  Max     0.002207111 RMS     0.000567384
 Search for a local minimum.
 Step number   2 out of a maximum of   86
 All quantities printed in internal units (Hartrees-Bohrs-Radians)
 Mixed Optimization -- En-DIIS/RFO-DIIS
 Update second derivatives using D2CorX and points    1    2
 DE= -3.69D-04 DEPred=-4.30D-04 R= 8.57D-01
 TightC=F SS=  1.41D+00  RLast= 4.32D-02 DXNew= 5.0454D-01 1.2952D-01
 Trust test= 8.57D-01 RLast= 4.32D-02 DXMaxT set to 3.00D-01
 ITU=  1  0
 Use linear search instead of GDIIS.
     Eigenvalues ---    0.01214   0.01535   0.01649   0.01802   0.01930
     Eigenvalues ---    0.02040   0.02056   0.02100   0.02139   0.02161
     Eigenvalues ---    0.02188   0.02188   0.02209   0.02219   0.15960
     Eigenvalues ---    0.16000   0.16000   0.16000   0.16000   0.16000
     Eigenvalues ---    0.16025   0.21982   0.22547   0.24215   0.24742
     Eigenvalues ---    0.25000   0.25000   0.25059   0.35160   0.35210
     Eigenvalues ---    0.35428   0.35542   0.36528   0.40467   0.40612
     Eigenvalues ---    0.42738   0.45643   0.46078   0.46646   0.46762
     Eigenvalues ---    0.50568   0.51313   0.53127   0.55014   0.90690
 RFO step:  Lambda=-5.74639200D-05 EMin= 1.21414868D-02
 Quartic linear search produced a step of -0.12810.
 Iteration  1 RMS(Cart)=  0.00845507 RMS(Int)=  0.00003771
 Iteration  2 RMS(Cart)=  0.00004989 RMS(Int)=  0.00001723
 Iteration  3 RMS(Cart)=  0.00000000 RMS(Int)=  0.00001723
 Variable       Old X    -DE/DX   Delta X   Delta X   Delta X     New X
                                 (Linear)    (Quad)   (Total)
    R1        2.64664   0.00055   0.00137  -0.00113   0.00024   2.64688
    R2        2.60494   0.00074   0.00164  -0.00122   0.00041   2.60535
    R3        2.04786   0.00011   0.00025  -0.00011   0.00014   2.04800
    R4        2.60384   0.00044   0.00156  -0.00168  -0.00012   2.60373
    R5        2.05156   0.00017   0.00024   0.00006   0.00029   2.05186
    R6        2.66485   0.00126   0.00156   0.00017   0.00173   2.66658
    R7        2.05214   0.00012   0.00026  -0.00010   0.00016   2.05230
    R8        2.67924   0.00187   0.00250   0.00015   0.00265   2.68189
    R9        2.56659   0.00086   0.00105  -0.00019   0.00086   2.56745
   R10        2.65453   0.00120   0.00173  -0.00024   0.00149   2.65602
   R11        2.76080   0.00221   0.00125   0.00337   0.00462   2.76541
   R12        2.04713   0.00002   0.00011  -0.00012  -0.00000   2.04713
   R13        2.55495  -0.00062   0.00197  -0.00406  -0.00210   2.55285
   R14        2.31179   0.00040   0.00156  -0.00202  -0.00046   2.31133
   R15        1.83260   0.00001   0.00034  -0.00051  -0.00017   1.83244
   R16        1.91004  -0.00010   0.00024  -0.00056  -0.00032   1.90972
   R17        1.89930   0.00007   0.00025  -0.00026  -0.00001   1.89929
    A1        2.07236   0.00000   0.00021  -0.00062  -0.00041   2.07195
    A2        2.10665  -0.00008  -0.00016  -0.00002  -0.00018   2.10647
    A3        2.10417   0.00008  -0.00005   0.00064   0.00059   2.10476
    A4        2.11216   0.00003  -0.00020   0.00008  -0.00012   2.11204
    A5        2.09215  -0.00005   0.00009  -0.00022  -0.00013   2.09202
    A6        2.07887   0.00002   0.00011   0.00014   0.00025   2.07912
    A7        2.11381   0.00039   0.00023   0.00108   0.00131   2.11512
    A8        2.09861  -0.00023  -0.00018  -0.00060  -0.00078   2.09782
    A9        2.07077  -0.00016  -0.00005  -0.00048  -0.00053   2.07024
   A10        2.05804  -0.00034   0.00006  -0.00111  -0.00105   2.05699
   A11        2.09309  -0.00121  -0.00023  -0.00394  -0.00417   2.08892
   A12        2.13206   0.00155   0.00017   0.00505   0.00522   2.13728
   A13        2.08864  -0.00046  -0.00053  -0.00057  -0.00110   2.08754
   A14        2.09572   0.00176   0.00033   0.00551   0.00583   2.10155
   A15        2.09883  -0.00129   0.00021  -0.00494  -0.00474   2.09410
   A16        2.12136   0.00038   0.00024   0.00114   0.00137   2.12273
   A17        2.09983  -0.00021  -0.00026  -0.00047  -0.00072   2.09911
   A18        2.06199  -0.00017   0.00002  -0.00067  -0.00065   2.06135
   A19        1.99309  -0.00014  -0.00010  -0.00028  -0.00046   1.99262
   A20        2.19810   0.00048  -0.00007   0.00182   0.00166   2.19977
   A21        2.09198  -0.00034   0.00016  -0.00141  -0.00133   2.09065
   A22        1.85163   0.00070   0.00008   0.00367   0.00375   1.85538
   A23        2.07979   0.00028  -0.00000   0.00154   0.00153   2.08132
   A24        2.09608  -0.00017   0.00016  -0.00118  -0.00102   2.09506
   A25        2.10732  -0.00011  -0.00016  -0.00036  -0.00052   2.10680
    D1       -0.00004   0.00000   0.00001   0.00013   0.00014   0.00010
    D2        3.14156   0.00000   0.00001   0.00012   0.00012  -3.14150
    D3        3.14159   0.00000   0.00000   0.00001   0.00001  -3.14158
    D4       -0.00000   0.00000   0.00000   0.00000   0.00000   0.00000
    D5        0.00010  -0.00001  -0.00002  -0.00038  -0.00040  -0.00029
    D6       -3.14157  -0.00000  -0.00001  -0.00011  -0.00011   3.14151
    D7       -3.14152  -0.00001  -0.00001  -0.00026  -0.00027   3.14139
    D8       -0.00000   0.00000   0.00000   0.00001   0.00001   0.00000
    D9       -0.00000   0.00000   0.00000   0.00002   0.00002   0.00002
   D10       -3.14157  -0.00000  -0.00000  -0.00010  -0.00010   3.14152
   D11        3.14158   0.00000   0.00000   0.00003   0.00003  -3.14157
   D12        0.00002  -0.00000  -0.00000  -0.00008  -0.00009  -0.00006
   D13       -0.00002   0.00000   0.00000   0.00007   0.00007   0.00005
   D14       -3.14146  -0.00001  -0.00002  -0.00045  -0.00047   3.14125
   D15        3.14154   0.00000   0.00001   0.00018   0.00019  -3.14145
   D16        0.00010  -0.00001  -0.00001  -0.00034  -0.00035  -0.00026
   D17        0.00008  -0.00001  -0.00001  -0.00031  -0.00032  -0.00024
   D18        3.14158  -0.00000   0.00000   0.00002   0.00003  -3.14158
   D19        3.14152   0.00001   0.00001   0.00023   0.00024  -3.14142
   D20       -0.00016   0.00001   0.00003   0.00056   0.00059   0.00043
   D21        3.14133   0.00003   0.00005   0.00110   0.00115  -3.14070
   D22       -0.00013   0.00001   0.00002   0.00035   0.00037   0.00024
   D23       -0.00011   0.00002   0.00002   0.00056   0.00058   0.00048
   D24       -3.14157  -0.00000  -0.00001  -0.00019  -0.00020   3.14142
   D25       -0.00013   0.00001   0.00002   0.00047   0.00050   0.00037
   D26        3.14154   0.00000   0.00001   0.00021   0.00022  -3.14143
   D27        3.14156   0.00000   0.00001   0.00014   0.00015  -3.14148
   D28        0.00004  -0.00000  -0.00001  -0.00013  -0.00013  -0.00009
   D29       -3.13859  -0.00022  -0.00050  -0.01138  -0.01189   3.13270
   D30       -0.00328   0.00023   0.00054   0.01226   0.01280   0.00952
   D31        0.00291  -0.00021  -0.00049  -0.01104  -0.01154  -0.00863
   D32        3.13822   0.00024   0.00055   0.01260   0.01315  -3.13181
   D33        3.13864   0.00021   0.00049   0.01110   0.01157  -3.13298
   D34        0.00291  -0.00021  -0.00048  -0.01098  -0.01145  -0.00854
         Item               Value     Threshold  Converged?
 Maximum Force            0.002207     0.000450     NO 
 RMS     Force            0.000567     0.000300     NO 
 Maximum Displacement     0.028798     0.001800     NO 
 RMS     Displacement     0.008451     0.001200     NO 
 Predicted change in Energy=-3.743506D-05
 GradGradGradGradGradGradGradGradGradGradGradGradGradGradGradGradGradGrad

                          Input orientation:                          
 ---------------------------------------------------------------------
 Center     Atomic      Atomic             Coordinates (Angstroms)
 Number     Number       Type             X           Y           Z
 ---------------------------------------------------------------------
      1          6           0       -1.850850   -1.517481   -0.000559
      2          6           0       -2.577855   -0.320263    0.001715
      3          6           0       -1.936939    0.899429    0.001552
      4          6           0       -0.528430    0.984755   -0.000928
      5          6           0        0.209362   -0.227586   -0.003322
      6          6           0       -0.473528   -1.456042   -0.002860
      7          6           0        1.672568   -0.204253   -0.005933
      8          8           0        2.245266   -1.427732    0.002915
      9          7           0        0.071834    2.203599   -0.001424
     10          8           0        2.376290    0.796082    0.003100
     11          1           0       -2.360310   -2.474025   -0.000427
     12          1           0       -3.663323   -0.346869    0.003635
     13          1           0       -2.513776    1.819600    0.003264
     14          1           0        0.113684   -2.366375   -0.004568
     15          1           0        3.203573   -1.279721    0.008162
     16          1           0        1.080996    2.257040   -0.003992
     17          1           0       -0.486431    3.039354    0.000184
 ---------------------------------------------------------------------
                    Distance matrix (angstroms):
                    1          2          3          4          5
     1  C    0.000000
     2  C    1.400668   0.000000
     3  C    2.418443   1.377833   0.000000
     4  C    2.830190   2.429654   1.411093   0.000000
     5  C    2.430702   2.788762   2.424210   1.419194   0.000000
     6  C    1.378693   2.391277   2.773055   2.441415   1.405505
     7  C    3.760195   4.252012   3.774481   2.501630   1.463394
     8  O    4.097101   4.948634   4.786075   3.676071   2.363323
     9  N    4.188454   3.659336   2.395002   1.358639   2.435072
    10  O    4.818848   5.078363   4.314467   2.910844   2.396562
    11  H    1.083756   2.164722   3.399918   3.913942   3.413168
    12  H    2.157640   1.085796   2.129241   3.405995   3.874529
    13  H    3.402292   2.140823   1.086029   2.153737   3.406830
    14  H    2.140101   3.380975   3.856237   3.412095   2.140929
    15  H    5.060020   5.860504   5.583332   4.365293   3.173708
    16  H    4.779408   4.475456   3.309240   2.051578   2.633080
    17  H    4.756720   3.957409   2.585199   2.055029   3.340215
                    6          7          8          9         10
     6  C    0.000000
     7  C    2.484495   0.000000
     8  O    2.718948   1.350912   0.000000
     9  N    3.700054   2.891387   4.232067   0.000000
    10  O    3.632294   1.223101   2.227670   2.700304   0.000000
    11  H    2.143884   4.627742   4.722930   5.272143   5.755779
    12  H    3.377144   5.337805   6.006638   4.522866   6.146809
    13  H    3.859077   4.649896   5.761393   2.613973   4.996032
    14  H    1.083295   2.665500   2.329109   4.570167   3.888519
    15  H    3.681343   1.871045   0.969684   4.684165   2.234587
    16  H    4.025360   2.531387   3.864339   1.010579   1.952495
    17  H    4.495416   3.896447   5.236128   1.005061   3.636956
                   11         12         13         14         15
    11  H    0.000000
    12  H    2.494525   0.000000
    13  H    4.296368   2.452559   0.000000
    14  H    2.476338   4.283019   4.942266   0.000000
    15  H    5.690626   6.929971   6.503376   3.275423   0.000000
    16  H    5.850263   5.411928   3.621297   4.723522   4.124822
    17  H    5.823124   4.643185   2.365996   5.438940   5.680722
                   16         17
    16  H    0.000000
    17  H    1.751816   0.000000
 Stoichiometry    C7H7NO2
 Framework group  C1[X(C7H7NO2)]
 Deg. of freedom    45
 Full point group                 C1      NOp   1
 Largest Abelian subgroup         C1      NOp   1
 Largest concise Abelian subgroup C1      NOp   1
                         Standard orientation:                         
 ---------------------------------------------------------------------
 Center     Atomic      Atomic             Coordinates (Angstroms)
 Number     Number       Type             X           Y           Z
 ---------------------------------------------------------------------
      1          6           0       -1.846288   -1.521559   -0.000314
      2          6           0       -2.576181   -0.326100    0.001960
      3          6           0       -1.938212    0.895136    0.001796
      4          6           0       -0.529914    0.983862   -0.000684
      5          6           0        0.210804   -0.226693   -0.003078
      6          6           0       -0.469119   -1.456795   -0.002616
      7          6           0        1.673948   -0.199828   -0.005689
      8          8           0        2.249599   -1.421921    0.003159
      9          7           0        0.067406    2.204152   -0.001179
     10          8           0        2.375253    0.802203    0.003345
     11          1           0       -2.353437   -2.479330   -0.000182
     12          1           0       -3.661583   -0.355327    0.003879
     13          1           0       -2.517269    1.813911    0.003508
     14          1           0        0.120289   -2.365708   -0.004324
     15          1           0        3.207546   -1.271596    0.008406
     16          1           0        1.076436    2.260029   -0.003748
     17          1           0       -0.492875    3.038557    0.000428
 ---------------------------------------------------------------------
 Rotational constants (GHZ):      2.3090281      1.2202087      0.7983331
 Standard basis: 6-31+G(d,p) (6D, 7F)
 There are   225 symmetry adapted cartesian basis functions of A   symmetry.
 There are   225 symmetry adapted basis functions of A   symmetry.
   225 basis functions,   369 primitive gaussians,   225 cartesian basis functions
    36 alpha electrons       36 beta electrons
       nuclear repulsion energy       502.0586627374 Hartrees.
 NAtoms=   17 NActive=   17 NUniq=   17 SFac= 1.00D+00 NAtFMM=   60 NAOKFM=F Big=F
 Integral buffers will be    131072 words long.
 Raffenetti 2 integral format.
 Two-electron integral symmetry is turned on.
 One-electron integrals computed using PRISM.
 NBasis=   225 RedAO= T EigKep=  2.63D-06  NBF=   225
 NBsUse=   225 1.00D-06 EigRej= -1.00D+00 NBFU=   225
 Initial guess from the checkpoint file:  "camb3lypAnthranilic.chk"
 B after Tr=    -0.000000    0.000000    0.000000
         Rot=    0.999998   -0.000024    0.000066   -0.002091 Ang=  -0.24 deg.
 ExpMin= 4.38D-02 ExpMax= 5.48D+03 ExpMxC= 8.25D+02 IAcc=2 IRadAn=         4 AccDes= 0.00D+00
 Harris functional with IExCor=20419 and IRadAn=       4 diagonalized for initial guess.
 HarFok:  IExCor=20419 AccDes= 0.00D+00 IRadAn=         4 IDoV= 1 UseB2=F ITyADJ=14
 ICtDFT=  3500011 ScaDFX=  1.000000  1.000000  1.000000  1.000000
 FoFCou: FMM=F IPFlag=           0 FMFlag=      100000 FMFlg1=           0
         NFxFlg=           0 DoJE=T BraDBF=F KetDBF=T FulRan=T
         wScrn=  0.000000 ICntrl=     500 IOpCl=  0 I1Cent=   200000004 NGrid=           0
         NMat0=    1 NMatS0=      1 NMatT0=    0 NMatD0=    1 NMtDS0=    0 NMtDT0=    0
 Petite list used in FoFCou.
 Keep R1 ints in memory in canonical form, NReq=652403680.
 Requested convergence on RMS density matrix=1.00D-08 within 128 cycles.
 Requested convergence on MAX density matrix=1.00D-06.
 Requested convergence on             energy=1.00D-06.
 No special actions if energy rises.
 SCF Done:  E(RCAM-B3LYP) =  -475.997227655     A.U. after   13 cycles
            NFock= 13  Conv=0.52D-08     -V/T= 2.0090
 Calling FoFJK, ICntrl=      2127 FMM=F ISym2X=0 I1Cent= 0 IOpClX= 0 NMat=1 NMatS=1 NMatT=0.
 ***** Axes restored to original set *****
 -------------------------------------------------------------------
 Center     Atomic                   Forces (Hartrees/Bohr)
 Number     Number              X              Y              Z
 -------------------------------------------------------------------
      1        6          -0.000258550   -0.000367445    0.000053624
      2        6          -0.000499213   -0.000034047   -0.000004830
      3        6          -0.000139888    0.000181269    0.000054358
      4        6           0.000221533   -0.000603350   -0.000129630
      5        6          -0.000486424    0.000510453   -0.000697298
      6        6           0.000176244   -0.000351570   -0.000109048
      7        6           0.000919213   -0.000349550    0.002635239
      8        8          -0.000147540   -0.000262884   -0.000790764
      9        7           0.000906661   -0.000116358   -0.000031435
     10        8          -0.000661413    0.001146957   -0.001044062
     11        1          -0.000037890   -0.000040073    0.000012531
     12        1          -0.000065676   -0.000000320   -0.000007459
     13        1          -0.000021263    0.000077961    0.000002990
     14        1          -0.000020421    0.000014312   -0.000008558
     15        1          -0.000017200    0.000006160   -0.000005857
     16        1          -0.000001703    0.000099572    0.000078184
     17        1           0.000133530    0.000088913   -0.000007985
 -------------------------------------------------------------------
 Cartesian Forces:  Max     0.002635239 RMS     0.000532379

 GradGradGradGradGradGradGradGradGradGradGradGradGradGradGradGradGradGrad
 Berny optimization.
 Using GEDIIS/GDIIS optimizer.
 FormGI is forming the generalized inverse of G from B-inverse, IUseBI=4.
 Internal  Forces:  Max     0.002015981 RMS     0.000515355
 Search for a local minimum.
 Step number   3 out of a maximum of   86
 All quantities printed in internal units (Hartrees-Bohrs-Radians)
 Mixed Optimization -- En-DIIS/RFO-DIIS
 Swapping is turned off.
 Update second derivatives using D2CorX and points    1    2    3
 DE=  6.16D-06 DEPred=-3.74D-05 R=-1.65D-01
 Trust test=-1.65D-01 RLast= 3.24D-02 DXMaxT set to 1.50D-01
 ITU= -1  1  0
     Eigenvalues ---    0.01214   0.01648   0.01802   0.01928   0.02040
     Eigenvalues ---    0.02056   0.02100   0.02139   0.02160   0.02183
     Eigenvalues ---    0.02188   0.02209   0.02219   0.02703   0.15260
     Eigenvalues ---    0.16000   0.16000   0.16000   0.16000   0.16003
     Eigenvalues ---    0.16020   0.21971   0.22411   0.23587   0.24572
     Eigenvalues ---    0.25000   0.25004   0.33612   0.35068   0.35195
     Eigenvalues ---    0.35314   0.35480   0.35554   0.40588   0.42026
     Eigenvalues ---    0.45258   0.45660   0.46603   0.46712   0.48885
     Eigenvalues ---    0.49906   0.52950   0.53561   0.54829   0.90132
 En-DIIS/RFO-DIIS IScMMF=        0 using points:     3    2
 RFO step:  Lambda=-3.21888155D-05.
 DidBck=T Rises=F RFO-DIIS coefs:    0.46564    0.53436
 Iteration  1 RMS(Cart)=  0.00489969 RMS(Int)=  0.00002927
 Iteration  2 RMS(Cart)=  0.00003957 RMS(Int)=  0.00001142
 Iteration  3 RMS(Cart)=  0.00000000 RMS(Int)=  0.00001142
 Variable       Old X    -DE/DX   Delta X   Delta X   Delta X     New X
                                 (Linear)    (Quad)   (Total)
    R1        2.64688   0.00059  -0.00013   0.00074   0.00061   2.64749
    R2        2.60535   0.00062  -0.00022   0.00084   0.00062   2.60597
    R3        2.04800   0.00005  -0.00007   0.00017   0.00009   2.04810
    R4        2.60373   0.00058   0.00006   0.00038   0.00044   2.60417
    R5        2.05186   0.00007  -0.00016   0.00031   0.00015   2.05201
    R6        2.66658   0.00041  -0.00092   0.00172   0.00079   2.66737
    R7        2.05230   0.00008  -0.00008   0.00021   0.00013   2.05242
    R8        2.68189  -0.00113  -0.00142   0.00100  -0.00042   2.68147
    R9        2.56745   0.00052  -0.00046   0.00107   0.00061   2.56806
   R10        2.65602   0.00045  -0.00079   0.00155   0.00076   2.65678
   R11        2.76541   0.00010  -0.00247   0.00379   0.00132   2.76673
   R12        2.04713  -0.00002   0.00000  -0.00003  -0.00003   2.04710
   R13        2.55285   0.00016   0.00112  -0.00157  -0.00045   2.55240
   R14        2.31133   0.00055   0.00025  -0.00015   0.00009   2.31142
   R15        1.83244  -0.00002   0.00009  -0.00015  -0.00006   1.83238
   R16        1.90972   0.00000   0.00017  -0.00025  -0.00008   1.90963
   R17        1.89929  -0.00000   0.00001  -0.00001  -0.00000   1.89929
    A1        2.07195  -0.00008   0.00022  -0.00029  -0.00008   2.07187
    A2        2.10647   0.00002   0.00010  -0.00020  -0.00010   2.10637
    A3        2.10476   0.00005  -0.00032   0.00049   0.00018   2.10494
    A4        2.11204  -0.00011   0.00006  -0.00015  -0.00008   2.11196
    A5        2.09202   0.00006   0.00007  -0.00008  -0.00001   2.09202
    A6        2.07912   0.00006  -0.00013   0.00022   0.00009   2.07921
    A7        2.11512  -0.00016  -0.00070   0.00077   0.00007   2.11519
    A8        2.09782   0.00010   0.00042  -0.00043  -0.00001   2.09781
    A9        2.07024   0.00006   0.00028  -0.00034  -0.00006   2.07019
   A10        2.05699   0.00023   0.00056  -0.00060  -0.00003   2.05696
   A11        2.08892   0.00110   0.00223  -0.00157   0.00066   2.08958
   A12        2.13728  -0.00133  -0.00279   0.00216  -0.00062   2.13665
   A13        2.08754   0.00041   0.00059  -0.00035   0.00023   2.08777
   A14        2.10155  -0.00202  -0.00312   0.00158  -0.00153   2.10001
   A15        2.09410   0.00161   0.00253  -0.00123   0.00130   2.09540
   A16        2.12273  -0.00029  -0.00073   0.00062  -0.00011   2.12262
   A17        2.09911   0.00013   0.00039  -0.00037   0.00002   2.09913
   A18        2.06135   0.00015   0.00035  -0.00025   0.00009   2.06144
   A19        1.99262   0.00051   0.00025   0.00051   0.00070   1.99332
   A20        2.19977  -0.00163  -0.00089  -0.00110  -0.00205   2.19772
   A21        2.09065   0.00114   0.00071   0.00081   0.00146   2.09211
   A22        1.85538  -0.00002  -0.00200   0.00295   0.00095   1.85633
   A23        2.08132   0.00003  -0.00082   0.00128   0.00046   2.08178
   A24        2.09506   0.00014   0.00054  -0.00047   0.00007   2.09514
   A25        2.10680  -0.00016   0.00028  -0.00081  -0.00054   2.10626
    D1        0.00010  -0.00001  -0.00007  -0.00007  -0.00014  -0.00004
    D2       -3.14150  -0.00001  -0.00007  -0.00006  -0.00013   3.14155
    D3       -3.14158  -0.00000  -0.00001  -0.00001  -0.00002   3.14159
    D4        0.00000  -0.00000  -0.00000  -0.00000  -0.00000  -0.00000
    D5       -0.00029   0.00003   0.00021   0.00021   0.00042   0.00012
    D6        3.14151   0.00001   0.00006   0.00006   0.00012  -3.14156
    D7        3.14139   0.00002   0.00015   0.00014   0.00029  -3.14151
    D8        0.00000  -0.00000  -0.00001  -0.00000  -0.00001  -0.00000
    D9        0.00002  -0.00000  -0.00001  -0.00001  -0.00002  -0.00000
   D10        3.14152   0.00001   0.00005   0.00006   0.00011  -3.14155
   D11       -3.14157  -0.00000  -0.00002  -0.00001  -0.00003   3.14159
   D12       -0.00006   0.00001   0.00005   0.00005   0.00010   0.00003
   D13        0.00005  -0.00000  -0.00004  -0.00004  -0.00008  -0.00003
   D14        3.14125   0.00003   0.00025   0.00026   0.00051  -3.14142
   D15       -3.14145  -0.00001  -0.00010  -0.00011  -0.00021   3.14152
   D16       -0.00026   0.00002   0.00019   0.00020   0.00039   0.00013
   D17       -0.00024   0.00002   0.00017   0.00017   0.00034   0.00010
   D18       -3.14158   0.00000  -0.00001   0.00001  -0.00001  -3.14158
   D19       -3.14142  -0.00002  -0.00013  -0.00014  -0.00027   3.14149
   D20        0.00043  -0.00004  -0.00031  -0.00031  -0.00062  -0.00019
   D21       -3.14070  -0.00008  -0.00062  -0.00061  -0.00122   3.14126
   D22        0.00024  -0.00003  -0.00020  -0.00020  -0.00040  -0.00016
   D23        0.00048  -0.00005  -0.00031  -0.00029  -0.00060  -0.00012
   D24        3.14142   0.00001   0.00011   0.00012   0.00022  -3.14154
   D25        0.00037  -0.00003  -0.00027  -0.00026  -0.00052  -0.00016
   D26       -3.14143  -0.00001  -0.00012  -0.00012  -0.00023   3.14152
   D27       -3.14148  -0.00001  -0.00008  -0.00009  -0.00017   3.14153
   D28       -0.00009   0.00001   0.00007   0.00005   0.00012   0.00003
   D29        3.13270   0.00065   0.00635   0.00652   0.01287  -3.13762
   D30        0.00952  -0.00069  -0.00684  -0.00718  -0.01402  -0.00450
   D31       -0.00863   0.00063   0.00617   0.00635   0.01251   0.00388
   D32       -3.13181  -0.00071  -0.00703  -0.00735  -0.01437   3.13700
   D33       -3.13298  -0.00061  -0.00618  -0.00641  -0.01260   3.13761
   D34       -0.00854   0.00060   0.00612   0.00634   0.01246   0.00393
         Item               Value     Threshold  Converged?
 Maximum Force            0.002016     0.000450     NO 
 RMS     Force            0.000515     0.000300     NO 
 Maximum Displacement     0.022353     0.001800     NO 
 RMS     Displacement     0.004897     0.001200     NO 
 Predicted change in Energy=-3.325336D-05
 GradGradGradGradGradGradGradGradGradGradGradGradGradGradGradGradGradGrad

                          Input orientation:                          
 ---------------------------------------------------------------------
 Center     Atomic      Atomic             Coordinates (Angstroms)
 Number     Number       Type             X           Y           Z
 ---------------------------------------------------------------------
      1          6           0       -1.852166   -1.518102    0.000313
      2          6           0       -2.578825   -0.320293   -0.000713
      3          6           0       -1.937176    0.899276   -0.000641
      4          6           0       -0.528209    0.984004    0.000469
      5          6           0        0.208892   -0.228497    0.001547
      6          6           0       -0.474493   -1.457139    0.001350
      7          6           0        1.672771   -0.203603    0.002738
      8          8           0        2.247506   -1.425889   -0.001213
      9          7           0        0.073538    2.202475    0.000709
     10          8           0        2.373397    0.798995   -0.001531
     11          1           0       -2.362158   -2.474420    0.000257
     12          1           0       -3.664386   -0.346440   -0.001575
     13          1           0       -2.513590    1.819792   -0.001408
     14          1           0        0.112408   -2.367657    0.002124
     15          1           0        3.205679   -1.277143   -0.003667
     16          1           0        1.082692    2.255271    0.001796
     17          1           0       -0.483746    3.038882   -0.000040
 ---------------------------------------------------------------------
                    Distance matrix (angstroms):
                    1          2          3          4          5
     1  C    0.000000
     2  C    1.400993   0.000000
     3  C    2.418873   1.378065   0.000000
     4  C    2.830795   2.430272   1.411513   0.000000
     5  C    2.431265   2.789230   2.424353   1.418971   0.000000
     6  C    1.379022   2.391786   2.773471   2.441734   1.405908
     7  C    3.762061   4.253199   3.774662   2.500946   1.464091
     8  O    4.100709   4.951345   4.787270   3.675892   2.364255
     9  N    4.189395   3.660518   2.396100   1.358959   2.434737
    10  O    4.819163   5.077137   4.311740   2.907499   2.396003
    11  H    1.083806   2.164996   3.400358   3.914597   3.413865
    12  H    2.157994   1.085875   2.129569   3.406712   3.875074
    13  H    3.402797   2.141079   1.086095   2.154131   3.406964
    14  H    2.140398   3.381486   3.856639   3.412335   2.141336
    15  H    5.063583   5.863110   5.584422   4.365172   3.174967
    16  H    4.780350   4.476633   3.310337   2.052102   2.632988
    17  H    4.758012   3.958966   2.586575   2.055359   3.339987
                    6          7          8          9         10
     6  C    0.000000
     7  C    2.486383   0.000000
     8  O    2.722179   1.350674   0.000000
     9  N    3.700420   2.889076   4.229795   0.000000
    10  O    3.633267   1.223151   2.228444   2.694274   0.000000
    11  H    2.144328   4.630040   4.727411   5.273135   5.756799
    12  H    3.377733   5.339070   6.009632   4.524272   6.145473
    13  H    3.859560   4.649706   5.762159   2.615278   4.992461
    14  H    1.083281   2.667933   2.333576   4.570298   3.890986
    15  H    3.684574   1.871452   0.969653   4.681673   2.236749
    16  H    4.025769   2.528686   3.861054   1.010535   1.945937
    17  H    4.496031   3.894135   5.233920   1.005059   3.630477
                   11         12         13         14         15
    11  H    0.000000
    12  H    2.494815   0.000000
    13  H    4.296882   2.452935   0.000000
    14  H    2.476869   4.283633   4.942734   0.000000
    15  H    5.695112   6.932821   6.503926   3.279875   0.000000
    16  H    5.851237   5.413285   3.622554   4.723655   4.121292
    17  H    5.824511   4.645091   2.367794   5.439308   5.678023
                   16         17
    16  H    0.000000
    17  H    1.751508   0.000000
 Stoichiometry    C7H7NO2
 Framework group  C1[X(C7H7NO2)]
 Deg. of freedom    45
 Full point group                 C1      NOp   1
 Largest Abelian subgroup         C1      NOp   1
 Largest concise Abelian subgroup C1      NOp   1
                         Standard orientation:                         
 ---------------------------------------------------------------------
 Center     Atomic      Atomic             Coordinates (Angstroms)
 Number     Number       Type             X           Y           Z
 ---------------------------------------------------------------------
      1          6           0       -1.849489   -1.519854    0.000162
[...]
 ! D25   D(4,5,6,1)             -0.0001         -DE/DX =    0.0                 !
 ! D26   D(4,5,6,14)           179.9999         -DE/DX =    0.0                 !
 ! D27   D(7,5,6,1)            180.0001         -DE/DX =    0.0                 !
 ! D28   D(7,5,6,14)             0.0001         -DE/DX =    0.0                 !
 ! D29   D(4,5,7,8)            179.9994         -DE/DX =    0.0                 !
 ! D30   D(4,5,7,10)            -0.0031         -DE/DX =    0.0                 !
 ! D31   D(6,5,7,8)             -0.0008         -DE/DX =    0.0                 !
 ! D32   D(6,5,7,10)           179.9967         -DE/DX =    0.0                 !
 ! D33   D(5,7,8,15)           179.9983         -DE/DX =    0.0                 !
 ! D34   D(10,7,8,15)            0.0006         -DE/DX =    0.0                 !
 --------------------------------------------------------------------------------
 GradGradGradGradGradGradGradGradGradGradGradGradGradGradGradGradGradGrad

 1\1\ WCSS.PL-BEM-QINLAB\Freq\RCAM-B3LYP\6-31+G(d,p)\C7H7N1O2\PHZD\22-J
 un-2024\0\\#N Geom=AllCheck Guess=TCheck SCRF=Check GenChk RCAM-B3LYP/
 6-31+G(d,p) Freq\\[No Title]\\0,1\C,-1.8528519509,-1.5185618649,0.0000
 455378\C,-2.5794283425,-0.3203246921,0.0000485088\C,-1.9373198967,0.89
 92433188,0.0000437639\C,-0.5281818855,0.9831809189,0.0000362349\C,0.20
 83332726,-0.2292598069,0.0000368946\C,-0.4749660951,-1.4580032964,0.00
 00404517\C,1.67218475,-0.2024533905,0.0000299445\O,2.2480809048,-1.424
 1648351,0.0000448437\N,0.0752790938,2.2009234073,0.0000351703\O,2.3704
 026709,0.8021529919,-0.0000308063\H,-2.3630792096,-2.4747753942,0.0000
 470817\H,-3.6649961824,-0.3461550336,0.0000527874\H,-2.5132539679,1.82
 01055275,0.0000451228\H,0.1119389298,-2.3685773546,0.0000392795\H,3.20
 61141311,-1.274249916,0.0000106003\H,1.08450631,2.252122999,-0.0000162
 797\H,-0.4806295326,3.0383094211,0.0000058639\\Version=ES64L-G09RevE.0
 1\State=1-A\HF=-475.9972598\RMSD=4.157e-09\RMSF=1.505e-05\ZeroPoint=0.
 1337372\Thermal=0.1422753\Dipole=-0.4582037,0.1726022,-0.0000249\Dipol
 eDeriv=-0.6024699,0.3030458,-0.0000132,0.2169195,-0.2128953,-0.0000101
 ,-0.0000031,0.0000017,-0.2049644,0.1702259,0.0054737,0.000011,-0.30041
 05,0.5507417,-0.0000011,0.0000091,-0.0000026,-0.087934,-0.1242001,-0.6
 881059,0.0000039,-0.0202656,-0.2696107,0.0000051,-0.0000287,0.0000158,
 -0.2065732,0.3619843,0.8451076,-0.0000092,0.3162484,1.36024,-0.0000007
 ,-0.0000835,0.0000275,0.1323344,-1.0213299,0.3055802,0.0000055,-0.3544
 487,-0.3755043,0.0000265,0.0001787,-0.0000514,-0.0738335,0.5828428,-0.
 1316913,0.0000138,0.4534881,0.0183065,0.0000113,-0.0000537,0.0000144,-
 0.079845,2.3644791,-0.2964377,-0.0000328,-0.0947367,1.6162313,-0.00004
 93,-0.0000191,-0.0000397,0.3305544,-0.8932364,0.556653,-0.0000142,0.60
 95287,-1.099768,0.0000166,-0.0000366,0.0000126,-0.3888236,-0.4528671,-
 0.5644216,-0.0000078,-0.3338725,-1.3609288,-0.0000126,0.0000033,-0.000
 0626,-0.5815794,-1.237729,-0.2859566,0.0000219,-0.3890376,-0.9428165,0
 .0000195,0.0000349,0.0000321,-0.3894247,0.0226725,-0.0580995,0.0000034
 ,-0.0682855,-0.0572842,0.0000037,0.0000003,-0.0000004,0.157556,-0.0955
 166,-0.0041592,-0.0000049,-0.0030722,0.0851279,0.0000002,0.0000019,-0.
 0000017,0.1297704,0.027009,0.046179,0.0000069,0.0774691,-0.0833243,-0.
 0000098,-0.0000073,0.0000032,0.147199,0.0877226,0.0479371,0.0000038,0.
 044585,0.014679,-0.000006,-0.0000006,0.0000003,0.1295165,0.3378022,-0.
 0861142,0.0000098,-0.132738,0.2897858,0.0000038,0.0000025,0.0000027,0.
 3481291,0.3466746,-0.0149316,0.000002,-0.0222842,0.2266908,0.0000002,0
 .0000043,0.0000226,0.3068136,0.1259361,0.0199414,0.,0.0009127,0.240329
 1,0.0000028,-0.0000026,0.0000254,0.3311043\Polar=123.9204633,4.1920275
 ,112.9026828,0.0000134,-0.0004341,53.3594002\PG=C01 [X(C7H7N1O2)]\NIma
 g=0\\0.71807677,0.04782845,0.73574420,-0.00000226,-0.00000001,0.126924
 47,-0.18373644,0.12234148,0.00000031,0.75719832,0.04913810,-0.27706553
 ,-0.00000026,0.02111805,0.70107332,0.00000081,-0.00000045,-0.06527401,
 -0.00000277,-0.00000049,0.14638359,0.06877562,-0.02220495,-0.00000005,
 -0.19040511,-0.06961784,0.00000043,0.67582996,0.02930709,-0.05824428,0
 .00000004,-0.13968907,-0.33413696,0.00000084,0.00237492,0.78231099,-0.
 00000110,-0.00000010,0.00986427,0.00000084,0.00000066,-0.05984103,-0.0
 0000221,-0.00000063,0.12594295,-0.06442081,0.03613169,0.00000013,-0.01
 710784,-0.09070360,0.00000049,-0.29463324,0.04255310,0.00000077,0.6979
 6438,0.02702728,-0.00442221,-0.00000012,-0.03874308,0.02430832,0.00000
 031,-0.01860061,-0.12836910,-0.00000024,0.03034574,0.74598198,-0.00000
 136,-0.00000099,-0.00569042,0.00000023,0.00000050,0.00181091,0.0000023
 5,0.00000078,-0.07419207,-0.00000437,-0.00000309,0.17795201,-0.0387628
 1,-0.02110853,-0.00000006,-0.00288821,-0.01540349,0.00000018,-0.010703
 77,0.02615188,-0.00000084,-0.19301094,0.08041950,-0.00000114,0.6538001
 2,-0.07335552,0.02524210,0.00000020,0.00679513,-0.06086444,-0.00000025
 ,0.05564884,0.03463257,0.00000061,0.04448345,-0.23808062,0.00000142,0.
 01185744,0.70990910,0.00000391,0.00000199,0.01017910,-0.00000043,-0.00
 000037,-0.00593704,-0.00000194,-0.00000214,0.00897119,0.00000238,0.000
 00184,-0.07226137,0.00000005,-0.00000525,0.13813675,-0.37660764,-0.047
 86732,0.00000129,-0.03285615,0.08428200,-0.00000028,-0.05309537,-0.032
 48789,0.00000128,0.07829655,-0.01134417,0.00000162,-0.15530221,-0.0515
 2332,-0.00000449,0.75004164,0.02430425,-0.13409808,-0.00000006,0.02814
 706,0.04031347,-0.00000033,-0.02761685,-0.02088542,0.00000077,0.029593
 71,-0.05367044,0.00000121,-0.09905319,-0.28068395,-0.00000224,-0.04488
 968,0.71136273,-0.00000006,-0.00000024,-0.06639581,0.00000027,-0.00000
 035,0.00772177,0.00000078,0.00000065,-0.00444678,-0.00000090,-0.000000
 26,0.00242887,-0.00000088,0.00000089,-0.06111932,-0.00000072,0.0000004
 4,0.14892485,0.02161785,-0.00965110,0.00000010,0.00169712,0.01641862,0
 .00000014,-0.01127547,-0.00189982,-0.00000006,-0.00636981,0.04300347,-
 0.00000117,-0.21269327,0.00480379,0.00000216,-0.03770197,-0.02829912,0
 .00000010,0.76339741,-0.00206368,-0.00858897,-0.00000007,0.00042941,-0
 .00015776,0.00000013,0.00057728,-0.00681329,-0.00000025,0.03557422,0.0
 2274600,-0.00000116,0.01671886,-0.10818010,0.00000188,-0.03243126,0.00
 856324,-0.00000047,0.16060650,0.82560573,-0.00000009,0.00000025,0.0077
 4893,0.00000012,-0.00000032,-0.00087500,0.00000010,0.00000003,0.006364
 37,-0.00000004,-0.00000109,-0.00014214,0.00000109,-0.00000021,-0.07973
 151,0.00000016,0.00000029,-0.00339501,-0.00001896,-0.00002458,0.216312
 80,-0.00231619,0.00197081,0.00000013,-0.00077924,-0.00123054,0.,0.0002
 3197,0.00206620,0.00000003,-0.00689188,-0.01034102,0.00000028,-0.03325
 367,0.04312059,-0.00000079,-0.00223531,0.00323486,-0.00000004,-0.16620
 778,0.08474009,0.00000028,0.66643661,0.00361878,0.00023942,0.00000009,
 0.00007370,0.00166097,-0.00000009,-0.00051793,0.00085874,0.00000027,-0
 .00194293,0.00174717,0.00000077,0.02052781,-0.00315380,-0.00000165,-0.
 00482031,-0.00693072,0.00000059,0.04667575,-0.23833385,0.00000354,-0.0
 0638911,0.41324422,-0.00000042,-0.00000036,-0.00066016,-0.00000018,0.0
 0000032,-0.00004735,0.00000027,0.00000027,-0.00082385,-0.00000006,-0.0
 0000015,0.00252836,-0.00000072,-0.00000004,0.01165659,0.00000074,0.000
 00041,0.00073635,0.00000101,0.00000134,-0.06549425,-0.00001776,-0.0000
 1071,0.03716979,0.01047063,-0.00979793,0.00000008,-0.00429713,0.018290
 55,-0.00000013,-0.04133771,-0.05922984,0.00000028,-0.18227022,-0.08927
 509,0.00000139,0.03280675,0.01754150,-0.00000109,-0.01549366,-0.002319
 66,0.00000047,-0.02043065,-0.01066572,0.00000063,0.00223729,0.00342810
 ,0.00000010,0.87382733,0.00155353,-0.00955015,0.,0.00610733,0.00979883
 ,0.00000009,-0.03017131,-0.01040748,0.00000019,-0.09549221,-0.32643124
 ,-0.00000058,0.00591357,-0.05082925,0.00000026,-0.00055680,0.00037947,
 0.00000001,-0.02395313,-0.00579337,0.00000035,0.00386293,-0.00283506,-
 0.00000004,-0.05058898,0.81280341,0.00000033,-0.00000037,-0.00093617,0
 .00000026,0.00000056,0.00452196,-0.00000065,0.00000031,0.01158643,0.00
 000386,0.00000479,-0.04239946,0.00000119,-0.00000054,0.00813887,-0.000
 00053,-0.00000004,0.00419435,-0.00000064,-0.00000012,-0.00166344,0.000
 00016,-0.00000034,-0.00012348,-0.00002099,-0.00001905,0.01689129,-0.00
 644940,0.00032235,-0.00000008,-0.00022531,-0.00502485,-0.00000002,0.00
 341382,0.00085248,0.00000004,0.00007598,-0.01126191,0.00000041,-0.0383
 1644,-0.04633552,0.00000188,-0.00172373,0.00990354,0.00000033,-0.31462
 961,-0.26697795,0.00001659,0.03788509,0.00046225,0.00000015,0.00059072
 ,0.01614603,0.00000006,0.33245489,-0.00806017,0.00490169,-0.00000005,-
 0.00007788,-0.00816620,0.00000007,0.00726668,0.00408851,-0.00000031,-0
 .00845092,-0.02422370,-0.00000017,-0.04113321,-0.00419222,0.00000206,0
 .00716781,0.00700392,-0.00000017,-0.25774340,-0.47861800,0.00002279,-0
 .01621224,-0.11209294,0.00000526,0.02111287,0.00469589,0.00000042,0.30
 877020,0.59511688,0.00000034,0.00000006,-0.00172480,-0.00000004,0.0000
 0015,0.00036521,-0.00000019,-0.00000014,-0.00073960,0.00000008,0.00000
 088,-0.00067374,0.00000158,0.00000167,0.02021204,-0.00000001,-0.000000
 54,0.00447803,0.00001783,0.00002330,-0.07931889,0.00000005,0.00000459,
 0.02812278,-0.00000047,-0.00000053,0.00251215,-0.00001968,-0.00002924,
 0.03670092,-0.12338636,-0.11978014,0.00000036,0.01211279,0.01679718,-0
 .00000009,-0.00144329,0.00297708,0.00000016,-0.00106166,0.00078594,0.0
 0000028,-0.00500573,0.00170371,-0.00000066,-0.01037456,-0.02989189,0.0
 0000019,0.00077870,-0.00161954,-0.00000004,-0.00022522,0.00029210,0.00
 000011,0.00038516,-0.00010173,-0.00000003,-0.00096607,-0.00024113,0.00
 000001,0.12699747,-0.11997935,-0.28516568,0.00000038,-0.01509953,-0.01
 812577,-0.00000002,0.00406229,-0.00240085,0.00000019,0.00087301,-0.000
 00578,0.00000045,0.00039443,0.00160147,-0.00000107,0.00199200,0.003479
 61,0.00000025,0.00044589,0.00001394,-0.00000006,-0.00017482,0.00011342
 ,0.00000019,-0.00020233,0.00016857,-0.00000002,-0.00015556,-0.00000884
 ,-0.00000004,0.12852052,0.29961710,0.00000030,0.00000030,-0.03271336,-
 0.00000005,-0.00000004,0.00135561,0.00000004,0.00000003,0.00566825,0.0
 0000001,0.,-0.00037345,0.00000005,0.00000002,0.00717906,0.00000009,0.0
 0000012,0.00196449,-0.00000006,-0.00000002,0.00123585,0.,0.,-0.0000134
 9,0.,-0.00000004,-0.00055457,0.,0.,-0.00052933,-0.00000035,-0.00000036
 ,0.02463002,-0.01116785,-0.00358058,0.00000014,-0.34432733,-0.00685936
 ,0.00000127,-0.01027209,0.00230070,-0.00000006,0.00108766,-0.00216306,
 -0.00000008,0.00071620,-0.00005177,0.00000036,0.00000617,0.00348951,-0
 .00000007,0.00020073,0.00005501,-0.00000003,-0.00018392,0.00005176,0.0
 0000005,-0.00093647,-0.00006280,0.00000004,-0.00016588,-0.00006172,0.0
 0000002,0.00079243,0.00019509,-0.00000002,0.36385578,0.02707926,0.0069
 7310,-0.00000011,-0.00602447,-0.06182799,0.00000003,-0.02861426,0.0039
 9484,0.00000014,-0.00234635,-0.00502584,0.00000008,-0.00054465,-0.0011
 6302,-0.00000016,0.00322954,-0.00468835,0.00000004,0.00040259,-0.00022
 216,-0.00000002,-0.00000390,0.00021685,0.00000004,-0.00131095,0.000677
 35,0.00000007,-0.00007129,0.00002624,0.,-0.00061352,0.00093963,0.,0.00
 731935,0.05926132,0.00000010,-0.00000001,0.00498657,0.00000125,-0.0000
 0002,-0.04189156,0.00000012,0.00000001,0.00504135,0.,0.00000006,0.0086
 8088,0.00000009,0.00000006,-0.00061654,-0.00000003,-0.00000003,0.00635
 450,-0.00000007,0.00000003,-0.00108528,-0.00000003,-0.00000004,0.00017
 230,-0.00000003,-0.00000001,-0.00023798,0.,0.,0.00011593,-0.00000002,0
 .,-0.00344689,-0.00000139,-0.00000005,0.02726717,-0.00043367,-0.003091
 87,0.00000013,0.01215959,-0.01427648,-0.00000016,-0.14101182,0.1271434
 2,0.00000076,-0.01220742,0.02891460,0.00000106,-0.00485352,-0.00198863
 ,-0.00000220,-0.00119666,-0.00121114,0.00000054,0.00036330,0.00165381,
 -0.00000013,-0.00078865,0.00005864,0.00000042,0.00224817,0.00097556,-0
 .00000022,-0.00011585,-0.00037564,-0.00000008,0.00042717,-0.00069727,0
 .00000002,0.00092385,0.00030453,-0.00000006,0.14548162,-0.00419174,-0.
 00277588,-0.00000008,0.01747028,-0.01944255,0.00000016,0.12758762,-0.2
 5990501,-0.00000085,-0.00376457,0.00194748,-0.00000138,-0.00017720,0.0
 0123325,0.00000328,-0.00080270,0.00009973,-0.00000078,-0.00099310,-0.0
 0016028,0.00000019,0.00017066,-0.00004794,-0.00000058,-0.00092776,0.00
 213918,0.00000006,0.00030951,0.00038802,0.00000011,0.00082973,-0.00099
 572,-0.00000004,-0.00021176,0.00096518,0.00000003,-0.13618964,0.276168
 86,-0.00000016,-0.00000006,0.00741506,-0.00000004,0.00000009,0.0027375
 8,0.00000052,-0.00000014,-0.03365429,-0.00000015,-0.00000023,0.0042948
 4,-0.00000005,0.00000016,0.00473471,0.00000024,0.00000018,-0.00058919,
 -0.00000013,-0.00000010,0.00005646,0.00000002,0.00000006,-0.00005519,0
 .00000011,-0.00000009,-0.00299461,0.00000004,-0.00000003,0.00000491,0.
 00000003,0.00000006,0.00052547,-0.00000006,0.,-0.00482866,-0.00000032,
 0.00000009,0.02317063,-0.01009874,0.02704275,-0.00000006,-0.00576343,-
 0.00094329,0.00000002,-0.00051437,-0.00102897,0.00000004,-0.00142309,-
 0.00319746,0.00000003,0.01164626,-0.01291857,-0.00000006,-0.14382531,0
 .13357508,0.00000029,0.00151896,-0.00171065,0.00000004,-0.00474634,-0.
 00055240,-0.00000009,0.00051810,-0.00069222,0.,0.00021890,0.00098965,-
 0.00000006,0.00108859,-0.00030690,0.,-0.00061686,0.00127317,0.00000004
 ,0.00005935,0.00008322,0.00000001,0.15190554,-0.00324997,0.00668749,0.
 00000010,-0.00105325,0.00105476,0.00000006,-0.00046329,0.00020242,-0.0
 0000006,-0.00408826,-0.00248855,0.00000003,0.01532216,-0.01846251,0.00
 000003,0.13064343,-0.26783975,-0.00000024,0.00250938,-0.00283236,-0.00
 000004,0.00078907,0.00170805,0.00000010,0.00108241,-0.00087039,0.00000
 005,-0.00023647,0.00098172,-0.00000003,0.00030508,0.00074893,0.,-0.000
 24019,0.00019346,-0.00000005,0.00009988,-0.00000237,-0.00000002,-0.141
 35680,0.28054657,0.00000009,-0.00000013,0.00606309,0.00000009,0.000000
 04,0.00785405,-0.00000003,0.,-0.00079082,0.,0.,0.00568670,0.00000015,0
 .00000028,0.00386520,0.00000016,-0.00000033,-0.04139504,-0.00000020,-0
 .00000001,-0.00367262,-0.00000006,-0.00000004,0.00035855,-0.00000002,-
 0.00000003,0.00026473,0.00000008,0.00000006,0.00053371,0.,0.00000001,-
 0.00483188,-0.00000003,0.,-0.00028326,0.00000002,-0.00000004,-0.000763
 68,-0.00000028,0.00000021,0.02739493,0.00052558,-0.00029658,-0.0000001
 1,0.00009223,0.00034358,-0.00000004,-0.00018303,0.00028989,0.00000007,
 -0.00079216,0.00005460,0.,0.00248741,0.00288919,0.00000005,0.00028661,
 -0.00025816,0.00000007,-0.03292414,0.00659330,0.00000068,-0.48815051,-
 0.05702530,0.00001638,0.00042975,-0.00066560,-0.00000007,0.00243809,-0
 .00916293,0.00000013,0.00001885,0.00002194,0.,0.00003281,0.00000002,0.
 00000004,-0.00004823,-0.00002680,0.00000002,-0.00012912,-0.00008024,0.
 00000003,0.51638084,-0.00027712,0.00041065,-0.00000002,-0.00015973,-0.
 00015968,0.00000003,0.00009815,-0.00042802,-0.00000007,0.00156461,0.00
 081548,-0.00000007,0.00093409,-0.00666166,0.00000051,-0.00085890,-0.00
 055874,-0.00000009,0.05585959,0.00773186,-0.00000180,-0.10586545,-0.06
 120987,0.00000428,-0.00053538,0.00023960,0.00000002,-0.00811455,0.0015
 6901,0.00000010,-0.00003133,-0.00001800,0.,-0.00003838,0.00003087,0.,0
 .00011892,0.00001431,-0.00000001,0.00009036,0.00070861,0.00000001,0.05
 669658,0.05818444,-0.00000023,-0.00000009,0.00020380,0.00000020,-0.000
 00009,0.00003837,0.00000007,0.00000008,-0.00032250,-0.00000023,0.,0.00
 093799,-0.00000007,0.00000056,0.00404296,0.00000017,0.00000013,-0.0004
 0802,-0.00000037,-0.00000026,0.00389177,0.00001780,0.00000281,-0.01423
 299,-0.00000005,-0.00000007,-0.00005503,-0.00000006,-0.00000005,-0.005
 97008,0.00000003,0.00000004,-0.00000252,-0.00000010,0.,-0.00002370,0.0
 0000006,-0.00000010,-0.00001475,0.00000008,-0.00000007,-0.00027738,-0.
 00001733,-0.00000287,0.01209815,-0.00234688,0.00235266,0.00000002,-0.0
 0068100,-0.00345808,0.00000006,0.00597355,0.00161817,0.00000012,-0.012
 68451,-0.01244810,0.00000035,-0.00626800,0.00151387,0.00000013,0.00148
 037,0.00164275,-0.00000018,0.01592297,0.01119100,-0.00000060,-0.001388
 91,-0.00476777,0.00000024,-0.45277930,-0.02178406,0.00002195,-0.012702
 13,-0.00820082,0.00000040,-0.00008911,0.00002440,0.,0.00007471,-0.0000
 8245,-0.00000001,-0.00015805,0.00009347,-0.00000002,0.00025728,0.00024
 045,0.,-0.00054173,0.00067149,0.,0.46680222,0.00213848,-0.00131131,-0.
 00000005,-0.00146857,0.00308638,0.,-0.00298024,-0.00740734,-0.00000007
 ,-0.03295088,0.00954099,0.00000138,0.00459029,0.00078833,0.00000071,-0
 .00179223,-0.00145830,-0.00000018,-0.00855727,-0.01433800,0.00000067,0
 .00042788,0.00416957,-0.00000029,-0.02309246,-0.07683917,0.00000263,0.
 00219233,0.00755423,-0.00000038,0.00012237,-0.00001946,-0.00000001,-0.
 00020234,-0.00039184,0.00000003,-0.00010551,0.00018469,-0.00000003,-0.
 00009217,-0.00005193,0.,0.00051025,-0.00058999,0.,0.03517812,0.0695965
 0,-0.00000009,0.00000016,0.00011983,-0.00000010,-0.00000023,0.00193647
 ,0.00000017,-0.00000013,0.00380566,-0.00000155,-0.00000106,-0.00401027
 ,-0.00000018,0.00000021,-0.00115376,0.00000016,0.00000001,-0.00063014,
 -0.00000002,0.00000021,-0.00009761,0.00000003,0.00000011,0.00125366,0.
 00002620,0.00000403,-0.00201791,0.00000011,-0.00000028,-0.00486648,0.,
 0.,-0.00013634,-0.00000002,-0.00000002,-0.00035935,0.00000005,-0.00000
 002,-0.00076793,0.,-0.00000002,-0.00002955,0.00000003,0.,0.00010041,-0
 .00002268,-0.00000250,0.01211019,0.00026035,-0.00061117,-0.00000006,-0
 .00019285,0.00112945,0.00000008,0.00065037,-0.00329933,-0.00000010,0.0
 1544900,-0.01317663,0.00000013,-0.00039815,-0.00418419,0.00000074,0.00
 030121,-0.00035107,-0.00000017,-0.00326433,-0.00267068,0.00000021,0.00
 037667,0.00082688,-0.00000024,-0.20596873,0.18950989,-0.00000472,-0.00
 178307,0.00441284,0.00000008,-0.00004917,0.00008620,-0.00000002,-0.000
 01994,0.00000339,0.00000003,-0.00084918,0.00074076,-0.00000006,-0.0000
 9574,-0.00022337,0.,0.00007675,-0.00015295,0.00000002,-0.00087147,0.02
 608195,-0.00000211,0.19637828,-0.00081764,0.00102344,0.00000003,-0.000
 16686,-0.00134916,-0.00000008,0.00317150,0.00290969,-0.00000022,0.0186
 2019,-0.02436994,0.00000083,-0.00540978,-0.00113523,0.00000034,0.00205
 981,-0.00038844,-0.00000007,0.00037137,-0.00062263,0.00000002,-0.00016
 600,0.00064579,-0.00000002,0.18649065,-0.34734617,0.00001158,-0.000780
 58,0.00097581,0.00000003,-0.00005442,0.00005742,0.00000001,0.00006054,
 0.00004035,0.,-0.00133318,0.00018906,0.00000008,-0.00025480,-0.0002841
 4,-0.00000002,0.00011626,-0.00007887,-0.00000003,-0.00378510,0.0074866
 5,-0.00000046,-0.19812197,0.36224638,-0.00000009,0.00000006,-0.0001103
 9,0.00000002,-0.00000014,-0.00085953,0.00000024,0.00000014,-0.00243353
 ,-0.00000043,-0.00000165,-0.00457764,-0.00000044,0.00000023,0.00370305
 ,0.00000015,0.,0.00157610,0.00000034,0.00000017,-0.00013444,-0.0000001
 0,0.00000004,-0.00054763,-0.00000645,0.00001548,0.00287288,0.00000017,
 -0.00000035,0.00077724,0.00000002,0.00000001,0.00004309,-0.00000002,0.
 ,0.00015452,0.00000012,-0.00000004,0.00072862,0.,-0.00000003,0.0000232
 8,0.00000003,0.,-0.00000648,0.00000023,-0.00000190,-0.00525688,0.00000
 619,-0.00001203,0.00404773\\-0.00001408,-0.00001625,0.00000009,-0.0000
 1177,-0.00000328,0.00000007,0.00000686,0.00001187,0.00000002,0.0000035
 7,0.00001794,0.00000001,0.00000870,-0.00001821,-0.00000165,0.00002326,
 0.00000306,-0.00000048,0.00004794,0.00001297,0.00000630,-0.00003176,-0
 .00005866,-0.00000158,0.00000570,-0.00000601,-0.00000007,-0.00001445,0
 .00003691,-0.00000250,0.00000184,-0.00000240,0.,-0.00000373,0.00000265
 ,-0.00000003,-0.00000338,0.00000282,0.,0.00001082,-0.00000646,-0.00000
 001,-0.00001864,0.00001227,-0.00000012,-0.00000845,0.00000364,-0.00000
 020,-0.00000244,0.00000714,0.00000016\\\@


 EXPERIENCE IS THE FRUIT OF THE TREE OF ERRORS.
 Job cpu time:       0 days  0 hours 28 minutes 20.5 seconds.
 File lengths (MBytes):  RWF=     93 Int=      0 D2E=      0 Chk=      5 Scr=      1
 Normal termination of Gaussian 09 at Sat Jun 22 16:42:33 2024.
