 Entering Gaussian System, Link 0=g09
 Input=m062xAnthranilicyang.gjf
 Output=m062xAnthranilicyang.log
 Initial command:
 /home/phzd/g09E/g09/l1.exe "/home/phzd/g09E/scratch/Gau-128992.inp" -scrdir="/home/phzd/g09E/scratch/"
 Default is to use a total of  18 processors:
                               18 via shared-memory
                                1 via Linda
 Entering Link 1 = /home/phzd/g09E/g09/l1.exe PID=    128994.
  
 Copyright (c) 1988,1990,1992,1993,1995,1998,2003,2009,2015,
            Gaussian, Inc.  All Rights Reserved.
  
 This is part of the Gaussian(R) 09 program.  It is based on
 the Gaussian(R) 03 system (copyright 2003, Gaussian, Inc.),
 the Gaussian(R) 98 system (copyright 1998, Gaussian, Inc.),
 the Gaussian(R) 94 system (copyright 1995, Gaussian, Inc.),
 the Gaussian 92(TM) system (copyright 1992, Gaussian, Inc.),
 the Gaussian 90(TM) system (copyright 1990, Gaussian, Inc.),
 the Gaussian 88(TM) system (copyright 1988, Gaussian, Inc.),
 the Gaussian 86(TM) system (copyright 1986, Carnegie Mellon
 University), and the Gaussian 82(TM) system (copyright 1983,
 Carnegie Mellon University). Gaussian is a federally registered
 trademark of Gaussian, Inc.
  
 This software contains proprietary and confidential information,
 including trade secrets, belonging to Gaussian, Inc.
  
 This software is provided under written license and may be
 used, copied, transmitted, or stored only in accord with that
 written license.
  
 The following legend is applicable only to US Government
 contracts under FAR:
  
                    RESTRICTED RIGHTS LEGEND
  
 Use, reproduction and disclosure by the US Government is
 subject to restrictions as set forth in subparagraphs (a)
 and (c) of the Commercial Computer Software - Restricted
 Rights clause in FAR 52.227-19.
  
 Gaussian, Inc.
 340 Quinnipiac St., Bldg. 40, Wallingford CT 06492
  
  
 ---------------------------------------------------------------
 Warning -- This program may not be used in any manner that
 competes with the business of Gaussian, Inc. or will provide
 assistance to any competitor of Gaussian, Inc.  The licensee
 of this program is prohibited from giving any competitor of
 Gaussian, Inc. access to this program.  By using this program,
 the user acknowledges that Gaussian, Inc. is engaged in the
 business of creating and licensing software in the field of
 computational chemistry and represents and warrants to the
 licensee that it is not a competitor of Gaussian, Inc. and that
 it will not use this program in any manner prohibited above.
 ---------------------------------------------------------------
  

 Cite this work as:
 Gaussian 09, Revision E.01,
 M. J. Frisch, G. W. Trucks, H. B. Schlegel, G. E. Scuseria, 
 M. A. Robb, J. R. Cheeseman, G. Scalmani, V. Barone, B. Mennucci, 
 G. A. Petersson, H. Nakatsuji, M. Caricato, X. Li, H. P. Hratchian, 
 A. F. Izmaylov, J. Bloino, G. Zheng, J. L. Sonnenberg, M. Hada, 
 M. Ehara, K. Toyota, R. Fukuda, J. Hasegawa, M. Ishida, T. Nakajima, 
 Y. Honda, O. Kitao, H. Nakai, T. Vreven, J. A. Montgomery, Jr., 
 J. E. Peralta, F. Ogliaro, M. Bearpark, J. J. Heyd, E. Brothers, 
 K. N. Kudin, V. N. Staroverov, T. Keith, R. Kobayashi, J. Normand, 
 K. Raghavachari, A. Rendell, J. C. Burant, S. S. Iyengar, J. Tomasi, 
 M. Cossi, N. Rega, J. M. Millam, M. Klene, J. E. Knox, J. B. Cross, 
 V. Bakken, C. Adamo, J. Jaramillo, R. Gomperts, R. E. Stratmann, 
 O. Yazyev, A. J. Austin, R. Cammi, C. Pomelli, J. W. Ochterski, 
 R. L. Martin, K. Morokuma, V. G. Zakrzewski, G. A. Voth, 
 P. Salvador, J. J. Dannenberg, S. Dapprich, A. D. Daniels, 
 O. Farkas, J. B. Foresman, J. V. Ortiz, J. Cioslowski, 
 and D. J. Fox, Gaussian, Inc., Wallingford CT, 2013.
 
 ******************************************
 Gaussian 09:  ES64L-G09RevE.01 30-Nov-2015
                22-Jun-2024 
 ******************************************
 %chk=m062xAnthranilicyang.chk
 ----------------------------
 # opt freq m062x/6-31+g(d,p)
 ----------------------------
 1/14=-1,18=20,19=15,26=3,38=1/1,3;
 2/9=110,12=2,17=6,18=5,40=1/2;
 3/5=1,6=6,7=111,11=2,16=1,25=1,30=1,71=1,74=-55/1,2,3;
 4//1;
 5/5=2,38=5/2;
 6/7=2,8=2,9=2,10=2,28=1/1;
 7//1,2,3,16;
 1/14=-1,18=20,19=15,26=3/3(2);
 2/9=110/2;
 99//99;
 2/9=110/2;
 3/5=1,6=6,7=111,11=2,16=1,25=1,30=1,71=1,74=-55/1,2,3;
 4/5=5,16=3,69=1/1;
 5/5=2,38=5/2;
 7//1,2,3,16;
 1/14=-1,18=20,19=15,26=3/3(-5);
 2/9=110/2;
 6/7=2,8=2,9=2,10=2,19=2,28=1/1;
 99/9=1/99;
 ----------
 [No Title]
 ----------
 Symbolic Z-matrix:
 Charge =  1 Multiplicity = 1
 C                    -1.93939  -1.47584  -0.0003 
 C                    -2.62312  -0.25842   0.00012 
 C                    -1.91407   0.94845   0.00037 
 C                    -0.5284    0.91123   0.00015 
 C                     0.18707  -0.3019   -0.00007 
 C                    -0.54476  -1.49913  -0.0003 
 C                     1.67336  -0.3022   0. 
 O                     2.22273  -1.5063    0.00051 
 N                     0.23835   2.18198  -0.00008 
 O                     2.34896   0.73349  -0.00035 
 H                    -2.4921   -2.40916  -0.00063 
 H                    -3.70788  -0.2395    0.00021 
 H                    -2.44514   1.8964    0.00077 
 H                    -0.01099  -2.44225  -0.00035 
 H                     3.19406  -1.4217    0.00047 
 H                     0.04136   2.75161   0.82897 
 H                     1.2724    1.88936   0.00009 
 H                     0.04211   2.75063  -0.83 
 

 GradGradGradGradGradGradGradGradGradGradGradGradGradGradGradGradGradGrad
 Berny optimization.
 Initialization pass.
                           ----------------------------
                           !    Initial Parameters    !
                           ! (Angstroms and Degrees)  !
 --------------------------                            --------------------------
 ! Name  Definition              Value          Derivative Info.                !
 --------------------------------------------------------------------------------
 ! R1    R(1,2)                  1.3963         estimate D2E/DX2                !
 ! R2    R(1,6)                  1.3948         estimate D2E/DX2                !
 ! R3    R(1,11)                 1.0847         estimate D2E/DX2                !
 ! R4    R(2,3)                  1.3997         estimate D2E/DX2                !
 ! R5    R(2,12)                 1.0849         estimate D2E/DX2                !
 ! R6    R(3,4)                  1.3862         estimate D2E/DX2                !
 ! R7    R(3,13)                 1.0866         estimate D2E/DX2                !
 ! R8    R(4,5)                  1.4084         estimate D2E/DX2                !
 ! R9    R(4,9)                  1.4842         estimate D2E/DX2                !
 ! R10   R(5,6)                  1.4032         estimate D2E/DX2                !
 ! R11   R(5,7)                  1.4863         estimate D2E/DX2                !
 ! R12   R(6,14)                 1.0837         estimate D2E/DX2                !
 ! R13   R(7,8)                  1.3235         estimate D2E/DX2                !
 ! R14   R(7,10)                 1.2366         estimate D2E/DX2                !
 ! R15   R(8,15)                 0.975          estimate D2E/DX2                !
 ! R16   R(9,16)                 1.025          estimate D2E/DX2                !
 ! R17   R(9,17)                 1.0747         estimate D2E/DX2                !
 ! R18   R(9,18)                 1.025          estimate D2E/DX2                !
 ! A1    A(2,1,6)              120.2761         estimate D2E/DX2                !
 ! A2    A(2,1,11)             120.0466         estimate D2E/DX2                !
 ! A3    A(6,1,11)             119.6774         estimate D2E/DX2                !
 ! A4    A(1,2,3)              120.2459         estimate D2E/DX2                !
 ! A5    A(1,2,12)             120.3186         estimate D2E/DX2                !
 ! A6    A(3,2,12)             119.4355         estimate D2E/DX2                !
 ! A7    A(2,3,4)              118.896          estimate D2E/DX2                !
 ! A8    A(2,3,13)             120.306          estimate D2E/DX2                !
 ! A9    A(4,3,13)             120.798          estimate D2E/DX2                !
 ! A10   A(3,4,5)              122.0696         estimate D2E/DX2                !
 ! A11   A(3,4,9)              119.5674         estimate D2E/DX2                !
 ! A12   A(5,4,9)              118.363          estimate D2E/DX2                !
 ! A13   A(4,5,6)              118.033          estimate D2E/DX2                !
 ! A14   A(4,5,7)              120.5423         estimate D2E/DX2                !
 ! A15   A(6,5,7)              121.4247         estimate D2E/DX2                !
 ! A16   A(1,6,5)              120.4795         estimate D2E/DX2                !
 ! A17   A(1,6,14)             120.4648         estimate D2E/DX2                !
 ! A18   A(5,6,14)             119.0557         estimate D2E/DX2                !
 ! A19   A(5,7,8)              114.5363         estimate D2E/DX2                !
 ! A20   A(5,7,10)             123.1059         estimate D2E/DX2                !
 ! A21   A(8,7,10)             122.3579         estimate D2E/DX2                !
 ! A22   A(7,8,15)             109.547          estimate D2E/DX2                !
 ! A23   A(4,9,16)             112.1121         estimate D2E/DX2                !
 ! A24   A(4,9,17)             105.3054         estimate D2E/DX2                !
 ! A25   A(4,9,18)             112.0996         estimate D2E/DX2                !
 ! A26   A(16,9,17)            109.6413         estimate D2E/DX2                !
 ! A27   A(16,9,18)            108.0461         estimate D2E/DX2                !
 ! A28   A(17,9,18)            109.5972         estimate D2E/DX2                !
 ! D1    D(6,1,2,3)              0.0083         estimate D2E/DX2                !
 ! D2    D(6,1,2,12)          -179.9943         estimate D2E/DX2                !
 ! D3    D(11,1,2,3)          -179.9921         estimate D2E/DX2                !
 ! D4    D(11,1,2,12)            0.0052         estimate D2E/DX2                !
 ! D5    D(2,1,6,5)             -0.0092         estimate D2E/DX2                !
 ! D6    D(2,1,6,14)           179.9827         estimate D2E/DX2                !
 ! D7    D(11,1,6,5)           179.9912         estimate D2E/DX2                !
 ! D8    D(11,1,6,14)           -0.0169         estimate D2E/DX2                !
 ! D9    D(1,2,3,4)              0.0022         estimate D2E/DX2                !
 ! D10   D(1,2,3,13)          -179.9955         estimate D2E/DX2                !
 ! D11   D(12,2,3,4)          -179.9951         estimate D2E/DX2                !
 ! D12   D(12,2,3,13)            0.0072         estimate D2E/DX2                !
 ! D13   D(2,3,4,5)             -0.0122         estimate D2E/DX2                !
 ! D14   D(2,3,4,9)            179.9784         estimate D2E/DX2                !
 ! D15   D(13,3,4,5)           179.9855         estimate D2E/DX2                !
 ! D16   D(13,3,4,9)            -0.0239         estimate D2E/DX2                !
 ! D17   D(3,4,5,6)              0.0112         estimate D2E/DX2                !
 ! D18   D(3,4,5,7)           -179.9863         estimate D2E/DX2                !
 ! D19   D(9,4,5,6)           -179.9795         estimate D2E/DX2                !
 ! D20   D(9,4,5,7)              0.023          estimate D2E/DX2                !
 ! D21   D(3,4,9,16)            60.8162         estimate D2E/DX2                !
 ! D22   D(3,4,9,17)           179.9828         estimate D2E/DX2                !
 ! D23   D(3,4,9,18)           -60.9105         estimate D2E/DX2                !
 ! D24   D(5,4,9,16)          -119.1928         estimate D2E/DX2                !
 ! D25   D(5,4,9,17)            -0.0262         estimate D2E/DX2                !
 ! D26   D(5,4,9,18)           119.0804         estimate D2E/DX2                !
 ! D27   D(4,5,6,1)             -0.0004         estimate D2E/DX2                !
 ! D28   D(4,5,6,14)          -179.9924         estimate D2E/DX2                !
 ! D29   D(7,5,6,1)            179.9971         estimate D2E/DX2                !
 ! D30   D(7,5,6,14)             0.0051         estimate D2E/DX2                !
 ! D31   D(4,5,7,8)            179.9649         estimate D2E/DX2                !
 ! D32   D(4,5,7,10)            -0.033          estimate D2E/DX2                !
 ! D33   D(6,5,7,8)             -0.0325         estimate D2E/DX2                !
 ! D34   D(6,5,7,10)           179.9696         estimate D2E/DX2                !
 ! D35   D(5,7,8,15)           179.9967         estimate D2E/DX2                !
 ! D36   D(10,7,8,15)           -0.0054         estimate D2E/DX2                !
 --------------------------------------------------------------------------------
 Trust Radius=3.00D-01 FncErr=1.00D-07 GrdErr=1.00D-06
 Number of steps in this run=     92 maximum allowed number of steps=    108.
 GradGradGradGradGradGradGradGradGradGradGradGradGradGradGradGradGradGrad

                          Input orientation:                          
 ---------------------------------------------------------------------
 Center     Atomic      Atomic             Coordinates (Angstroms)
 Number     Number       Type             X           Y           Z
 ---------------------------------------------------------------------
      1          6           0       -1.939390   -1.475838   -0.000302
      2          6           0       -2.623116   -0.258417    0.000119
      3          6           0       -1.914065    0.948453    0.000370
      4          6           0       -0.528397    0.911229    0.000146
      5          6           0        0.187071   -0.301902   -0.000072
      6          6           0       -0.544756   -1.499127   -0.000301
      7          6           0        1.673355   -0.302199   -0.000002
      8          8           0        2.222725   -1.506299    0.000512
      9          7           0        0.238354    2.181978   -0.000079
     10          8           0        2.348961    0.733494   -0.000352
     11          1           0       -2.492101   -2.409155   -0.000625
     12          1           0       -3.707882   -0.239496    0.000211
     13          1           0       -2.445144    1.896404    0.000772
     14          1           0       -0.010986   -2.442250   -0.000345
     15          1           0        3.194062   -1.421697    0.000471
     16          1           0        0.041360    2.751607    0.828966
     17          1           0        1.272402    1.889357    0.000085
     18          1           0        0.042110    2.750631   -0.830004
 ---------------------------------------------------------------------
                    Distance matrix (angstroms):
                    1          2          3          4          5
     1  C    0.000000
     2  C    1.396279   0.000000
     3  C    2.424423   1.399746   0.000000
     4  C    2.772903   2.399150   1.386168   0.000000
     5  C    2.428984   2.810523   2.445028   1.408397   0.000000
     6  C    1.394828   2.420525   2.804578   2.410412   1.403182
     7  C    3.798599   4.296694   3.799173   2.513985   1.486284
     8  O    4.162227   5.003937   4.810285   3.662392   2.365261
     9  N    4.257016   3.760790   2.480825   1.484153   2.484409
    10  O    4.824013   5.070053   4.268442   2.882842   2.397043
    11  H    1.084698   2.154725   3.407001   3.857601   3.408589
    12  H    2.157801   1.084931   2.151512   3.381315   3.895453
    13  H    3.409957   2.162158   1.086580   2.155108   3.429447
    14  H    2.157010   3.404754   3.888261   3.393160   2.149492
    15  H    5.133738   5.932350   5.631214   4.393091   3.208728
    16  H    4.741555   4.104469   2.785969   2.097274   3.167405
    17  H    4.651897   4.448370   3.322480   2.049295   2.445314
    18  H    4.741075   4.104498   2.786393   2.097147   3.166664
                    6          7          8          9         10
     6  C    0.000000
     7  C    2.520447   0.000000
     8  O    2.767490   1.323505   0.000000
     9  N    3.763482   2.868861   4.188212   0.000000
    10  O    3.654886   1.236569   2.243348   2.559837   0.000000
    11  H    2.149489   4.668007   4.800493   5.341712   5.771666
    12  H    3.404708   5.381602   6.064395   4.629937   6.134497
    13  H    3.891157   4.668607   5.776451   2.698651   4.933133
    14  H    1.083693   2.723384   2.421873   4.630945   3.956602
    15  H    3.739620   1.888339   0.975014   4.660760   2.314961
    16  H    4.370350   3.560383   4.855353   1.024988   3.175779
    17  H    3.844982   2.227932   3.526130   1.074655   1.579557
    18  H    4.369584   3.559443   4.854513   1.025014   3.174701
                   11         12         13         14         15
    11  H    0.000000
    12  H    2.487075   0.000000
    13  H    4.305815   2.481245   0.000000
    14  H    2.481336   4.303390   4.974841   0.000000
    15  H    5.771267   7.002459   6.542969   3.363608   0.000000
    16  H    5.808624   4.867273   2.756806   5.259909   5.295508
    17  H    5.713903   5.416202   3.717553   4.517732   3.828297
    18  H    5.808054   4.867500   2.757957   5.259008   5.294602
                   16         17         18
    16  H    0.000000
    17  H    1.716387   0.000000
    18  H    1.658970   1.715943   0.000000
 Stoichiometry    C7H8NO2(1+)
 Framework group  C1[X(C7H8NO2)]
 Deg. of freedom    48
 Full point group                 C1      NOp   1
 Largest Abelian subgroup         C1      NOp   1
 Largest concise Abelian subgroup C1      NOp   1
                         Standard orientation:                         
 ---------------------------------------------------------------------
 Center     Atomic      Atomic             Coordinates (Angstroms)
 Number     Number       Type             X           Y           Z
 ---------------------------------------------------------------------
      1          6           0        1.939390   -1.475838    0.000302
      2          6           0        2.623116   -0.258417   -0.000119
      3          6           0        1.914065    0.948453   -0.000370
      4          6           0        0.528397    0.911229   -0.000146
      5          6           0       -0.187071   -0.301902    0.000072
      6          6           0        0.544756   -1.499127    0.000301
      7          6           0       -1.673355   -0.302199    0.000002
      8          8           0       -2.222725   -1.506299   -0.000512
      9          7           0       -0.238354    2.181978    0.000079
     10          8           0       -2.348961    0.733494    0.000352
     11          1           0        2.492101   -2.409155    0.000625
     12          1           0        3.707882   -0.239497   -0.000211
     13          1           0        2.445144    1.896404   -0.000772
     14          1           0        0.010986   -2.442250    0.000345
     15          1           0       -3.194062   -1.421697   -0.000471
     16          1           0       -0.041360    2.751607   -0.828966
     17          1           0       -1.272402    1.889357   -0.000085
     18          1           0       -0.042110    2.750631    0.830004
 ---------------------------------------------------------------------
 Rotational constants (GHZ):      2.2343428      1.2032867      0.7854672
 Standard basis: 6-31+G(d,p) (6D, 7F)
 There are   230 symmetry adapted cartesian basis functions of A   symmetry.
 There are   230 symmetry adapted basis functions of A   symmetry.
   230 basis functions,   376 primitive gaussians,   230 cartesian basis functions
    36 alpha electrons       36 beta electrons
       nuclear repulsion energy       514.1645139868 Hartrees.
 NAtoms=   18 NActive=   18 NUniq=   18 SFac= 1.00D+00 NAtFMM=   60 NAOKFM=F Big=F
 Integral buffers will be    131072 words long.
 Raffenetti 2 integral format.
 Two-electron integral symmetry is turned on.
 One-electron integrals computed using PRISM.
 NBasis=   230 RedAO= T EigKep=  2.28D-06  NBF=   230
 NBsUse=   230 1.00D-06 EigRej= -1.00D+00 NBFU=   230
 ExpMin= 4.38D-02 ExpMax= 5.48D+03 ExpMxC= 8.25D+02 IAcc=2 IRadAn=         4 AccDes= 0.00D+00
 Harris functional with IExCor= 1009 and IRadAn=       4 diagonalized for initial guess.
 HarFok:  IExCor= 1009 AccDes= 0.00D+00 IRadAn=         4 IDoV= 1 UseB2=F ITyADJ=14
 ICtDFT=  3500011 ScaDFX=  1.000000  1.000000  1.000000  1.000000
 FoFCou: FMM=F IPFlag=           0 FMFlag=      100000 FMFlg1=           0
         NFxFlg=           0 DoJE=T BraDBF=F KetDBF=T FulRan=T
         wScrn=  0.000000 ICntrl=     500 IOpCl=  0 I1Cent=   200000004 NGrid=           0
         NMat0=    1 NMatS0=      1 NMatT0=    0 NMatD0=    1 NMtDS0=    0 NMtDT0=    0
 Petite list used in FoFCou.
 Keep R1 ints in memory in canonical form, NReq=359209085.
 Requested convergence on RMS density matrix=1.00D-08 within 128 cycles.
 Requested convergence on MAX density matrix=1.00D-06.
 Requested convergence on             energy=1.00D-06.
 No special actions if energy rises.
 SCF Done:  E(RM062X) =  -476.370068006     A.U. after   15 cycles
            NFock= 15  Conv=0.52D-08     -V/T= 2.0088

 **********************************************************************

            Population analysis using the SCF density.

 **********************************************************************

 Orbital symmetries:
       Occupied  (A) (A) (A) (A) (A) (A) (A) (A) (A) (A) (A) (A)
                 (A) (A) (A) (A) (A) (A) (A) (A) (A) (A) (A) (A)
                 (A) (A) (A) (A) (A) (A) (A) (A) (A) (A) (A) (A)
       Virtual   (A) (A) (A) (A) (A) (A) (A) (A) (A) (A) (A) (A)
                 (A) (A) (A) (A) (A) (A) (A) (A) (A) (A) (A) (A)
                 (A) (A) (A) (A) (A) (A) (A) (A) (A) (A) (A) (A)
                 (A) (A) (A) (A) (A) (A) (A) (A) (A) (A) (A) (A)
                 (A) (A) (A) (A) (A) (A) (A) (A) (A) (A) (A) (A)
                 (A) (A) (A) (A) (A) (A) (A) (A) (A) (A) (A) (A)
                 (A) (A) (A) (A) (A) (A) (A) (A) (A) (A) (A) (A)
                 (A) (A) (A) (A) (A) (A) (A) (A) (A) (A) (A) (A)
                 (A) (A) (A) (A) (A) (A) (A) (A) (A) (A) (A) (A)
                 (A) (A) (A) (A) (A) (A) (A) (A) (A) (A) (A) (A)
                 (A) (A) (A) (A) (A) (A) (A) (A) (A) (A) (A) (A)
                 (A) (A) (A) (A) (A) (A) (A) (A) (A) (A) (A) (A)
                 (A) (A) (A) (A) (A) (A) (A) (A) (A) (A) (A) (A)
                 (A) (A) (A) (A) (A) (A) (A) (A) (A) (A) (A) (A)
                 (A) (A) (A) (A) (A) (A) (A) (A) (A) (A) (A) (A)
                 (A) (A) (A) (A) (A) (A) (A) (A) (A) (A) (A) (A)
                 (A) (A)
 The electronic state is 1-A.
 Alpha  occ. eigenvalues --  -19.86341 -19.82419 -15.05093 -10.87778 -10.79774
 Alpha  occ. eigenvalues --  -10.75478 -10.73895 -10.73249 -10.73055 -10.72150
 Alpha  occ. eigenvalues --   -1.41454  -1.32296  -1.28235  -1.13954  -1.04470
 Alpha  occ. eigenvalues --   -1.01957  -0.92731  -0.89102  -0.85980  -0.82979
 Alpha  occ. eigenvalues --   -0.81562  -0.78615  -0.75822  -0.74892  -0.71073
 Alpha  occ. eigenvalues --   -0.69819  -0.68182  -0.67542  -0.64122  -0.61268
 Alpha  occ. eigenvalues --   -0.60308  -0.58545  -0.56896  -0.53895  -0.48604
 Alpha  occ. eigenvalues --   -0.48488
 Alpha virt. eigenvalues --   -0.19388  -0.15580  -0.14805  -0.10281  -0.09693
 Alpha virt. eigenvalues --   -0.08738  -0.07974  -0.07933  -0.07038  -0.06430
 Alpha virt. eigenvalues --   -0.04967  -0.04753  -0.03859  -0.03308  -0.02214
 Alpha virt. eigenvalues --   -0.01927  -0.00095   0.00128   0.00752   0.01734
 Alpha virt. eigenvalues --    0.01777   0.02459   0.03312   0.04288   0.05191
 Alpha virt. eigenvalues --    0.05800   0.05834   0.06682   0.06733   0.07187
 Alpha virt. eigenvalues --    0.07977   0.08339   0.08922   0.09711   0.10178
 Alpha virt. eigenvalues --    0.10683   0.11789   0.12602   0.12888   0.13969
 Alpha virt. eigenvalues --    0.14310   0.14336   0.14770   0.15925   0.16605
 Alpha virt. eigenvalues --    0.18036   0.18069   0.19022   0.20461   0.21076
 Alpha virt. eigenvalues --    0.22808   0.23575   0.24378   0.25643   0.27075
 Alpha virt. eigenvalues --    0.29079   0.32682   0.33419   0.36364   0.38628
 Alpha virt. eigenvalues --    0.46915   0.50569   0.54047   0.54229   0.56312
 Alpha virt. eigenvalues --    0.57918   0.60266   0.60893   0.62215   0.62452
 Alpha virt. eigenvalues --    0.63205   0.65843   0.66274   0.69728   0.70019
 Alpha virt. eigenvalues --    0.71264   0.72878   0.74980   0.76777   0.80652
 Alpha virt. eigenvalues --    0.82708   0.83156   0.84436   0.84845   0.87842
 Alpha virt. eigenvalues --    0.90222   0.93437   0.93554   0.97644   0.99371
 Alpha virt. eigenvalues --    0.99946   1.01772   1.03757   1.06003   1.06610
 Alpha virt. eigenvalues --    1.08386   1.09440   1.12153   1.12475   1.15502
 Alpha virt. eigenvalues --    1.16842   1.18268   1.21085   1.21254   1.24115
 Alpha virt. eigenvalues --    1.25298   1.26232   1.26714   1.29829   1.30375
 Alpha virt. eigenvalues --    1.30626   1.31890   1.37880   1.46125   1.47432
 Alpha virt. eigenvalues --    1.54955   1.56342   1.58546   1.60664   1.63740
 Alpha virt. eigenvalues --    1.66240   1.68180   1.70152   1.72438   1.75208
 Alpha virt. eigenvalues --    1.77589   1.80256   1.82994   1.85300   1.85453
 Alpha virt. eigenvalues --    1.88220   1.88956   1.89504   1.90152   1.93255
 Alpha virt. eigenvalues --    1.96642   1.98053   2.05532   2.06377   2.12915
 Alpha virt. eigenvalues --    2.15211   2.15573   2.20860   2.23130   2.24625
 Alpha virt. eigenvalues --    2.25317   2.27601   2.28366   2.28807   2.29933
 Alpha virt. eigenvalues --    2.36355   2.37326   2.38886   2.40473   2.43225
 Alpha virt. eigenvalues --    2.44533   2.46748   2.48106   2.49217   2.52502
 Alpha virt. eigenvalues --    2.54924   2.58049   2.59864   2.61569   2.64862
 Alpha virt. eigenvalues --    2.67389   2.72306   2.72631   2.76947   2.83347
 Alpha virt. eigenvalues --    2.90153   2.95926   3.00662   3.03218   3.09285
 Alpha virt. eigenvalues --    3.11751   3.14564   3.18171   3.18968   3.21666
 Alpha virt. eigenvalues --    3.32926   3.34872   3.41508   3.69032   4.06977
 Alpha virt. eigenvalues --    4.12511   4.15737   4.17354   4.21909   4.32811
 Alpha virt. eigenvalues --    4.34474   4.41759   4.67581   4.70546
          Condensed to atoms (all electrons):
               1          2          3          4          5          6
     1  C    7.337037   0.074707   0.937733  -1.004309   0.200663  -1.870842
     2  C    0.074707   6.013238  -0.995513   1.382301  -1.377745   1.181212
     3  C    0.937733  -0.995513  14.117920  -4.476169  -0.891557  -3.792573
     4  C   -1.004309   1.382301  -4.476169  17.430816  -4.118547  -1.508304
     5  C    0.200663  -1.377745  -0.891557  -4.118547  12.071196  -1.245108
     6  C   -1.870842   1.181212  -3.792573  -1.508304  -1.245108  14.633788
     7  C   -0.117708  -0.182328   0.575978  -0.611263   0.150455  -0.697404
     8  O    0.096619  -0.006273   0.032807   0.057428  -0.026288  -0.182285
     9  N   -0.034731   0.001123  -0.644775   0.151251   0.280128   0.181683
    10  O    0.042917  -0.009831   0.084907  -0.195025  -0.046497  -0.050736
    11  H    0.229039   0.028428  -0.000980  -0.002648   0.012050   0.063518
    12  H    0.058711   0.232644   0.065344  -0.046212   0.029830  -0.011298
    13  H    0.009923   0.068280   0.332343  -0.019951  -0.047313  -0.027638
    14  H    0.050167  -0.025773   0.036167   0.012390   0.109190   0.129796
    15  H   -0.006254  -0.000144   0.002770  -0.009854   0.015281   0.007567
    16  H    0.000195  -0.006172  -0.016606  -0.040116   0.037806   0.001827
    17  H    0.003227  -0.003606   0.182282   0.085528  -0.218107  -0.072060
    18  H    0.000173  -0.006156  -0.016758  -0.040003   0.037714   0.001914
               7          8          9         10         11         12
     1  C   -0.117708   0.096619  -0.034731   0.042917   0.229039   0.058711
     2  C   -0.182328  -0.006273   0.001123  -0.009831   0.028428   0.232644
     3  C    0.575978   0.032807  -0.644775   0.084907  -0.000980   0.065344
     4  C   -0.611263   0.057428   0.151251  -0.195025  -0.002648  -0.046212
     5  C    0.150455  -0.026288   0.280128  -0.046497   0.012050   0.029830
     6  C   -0.697404  -0.182285   0.181683  -0.050736   0.063518  -0.011298
     7  C    5.645877   0.163964  -0.101492   0.398105   0.002480   0.002350
     8  O    0.163964   8.240024  -0.010448  -0.137465   0.000099   0.000004
     9  N   -0.101492  -0.010448   7.099867  -0.036367   0.000109  -0.000286
    10  O    0.398105  -0.137465  -0.036367   8.333980   0.000021  -0.000001
    11  H    0.002480   0.000099   0.000109   0.000021   0.465215  -0.003501
    12  H    0.002350   0.000004  -0.000286  -0.000001  -0.003501   0.465215
    13  H    0.005336   0.000008   0.005653   0.000117  -0.000115  -0.003579
    14  H    0.006792   0.004500  -0.000978  -0.000044  -0.003495  -0.000113
    15  H    0.017245   0.219086   0.000527  -0.000348  -0.000000   0.000000
    16  H    0.004986   0.000135   0.310459   0.000643   0.000000  -0.000002
    17  H    0.025196   0.002753   0.194679   0.088917  -0.000000   0.000001
    18  H    0.004997   0.000135   0.310460   0.000628   0.000000  -0.000002
              13         14         15         16         17         18
     1  C    0.009923   0.050167  -0.006254   0.000195   0.003227   0.000173
     2  C    0.068280  -0.025773  -0.000144  -0.006172  -0.003606  -0.006156
     3  C    0.332343   0.036167   0.002770  -0.016606   0.182282  -0.016758
     4  C   -0.019951   0.012390  -0.009854  -0.040116   0.085528  -0.040003
     5  C   -0.047313   0.109190   0.015281   0.037806  -0.218107   0.037714
     6  C   -0.027638   0.129796   0.007567   0.001827  -0.072060   0.001914
     7  C    0.005336   0.006792   0.017245   0.004986   0.025196   0.004997
     8  O    0.000008   0.004500   0.219086   0.000135   0.002753   0.000135
     9  N    0.005653  -0.000978   0.000527   0.310459   0.194679   0.310460
    10  O    0.000117  -0.000044  -0.000348   0.000643   0.088917   0.000628
    11  H   -0.000115  -0.003495  -0.000000   0.000000  -0.000000   0.000000
    12  H   -0.003579  -0.000113   0.000000  -0.000002   0.000001  -0.000002
    13  H    0.479281   0.000010  -0.000000   0.000167   0.000044   0.000164
    14  H    0.000010   0.455724   0.000105   0.000002   0.000006   0.000002
    15  H   -0.000000   0.000105   0.319435  -0.000001  -0.000027  -0.000001
    16  H    0.000167   0.000002  -0.000001   0.309422  -0.008826  -0.022189
    17  H    0.000044   0.000006  -0.000027  -0.008826   0.261918  -0.008842
    18  H    0.000164   0.000002  -0.000001  -0.022189  -0.008842   0.309410
 Mulliken charges:
               1
     1  C   -0.007267
     2  C   -0.368394
     3  C    0.466680
     4  C   -1.047314
     5  C    1.026850
     6  C   -0.743056
     7  C    0.706433
     8  O   -0.454805
     9  N   -0.706863
    10  O   -0.473918
    11  H    0.209780
    12  H    0.210893
    13  H    0.197271
    14  H    0.225553
    15  H    0.434613
    16  H    0.428271
    17  H    0.466918
    18  H    0.428355
 Sum of Mulliken charges =   1.00000
 Mulliken charges with hydrogens summed into heavy atoms:
               1
     1  C    0.202513
     2  C   -0.157501
     3  C    0.663951
     4  C   -1.047314
     5  C    1.026850
     6  C   -0.517504
     7  C    0.706433
     8  O   -0.020192
     9  N    0.616680
    10  O   -0.473918
 Electronic spatial extent (au):  <R**2>=           1375.3265
 Charge=              1.0000 electrons
 Dipole moment (field-independent basis, Debye):
    X=              1.1481    Y=              4.3130    Z=              0.0005  Tot=              4.4632
 Quadrupole moment (field-independent basis, Debye-Ang):
   XX=            -35.9491   YY=            -28.4926   ZZ=            -56.9271
   XY=              3.5478   XZ=              0.0007   YZ=             -0.0013
 Traceless Quadrupole moment (field-independent basis, Debye-Ang):
   XX=              4.5072   YY=             11.9637   ZZ=            -16.4708
   XY=              3.5478   XZ=              0.0007   YZ=             -0.0013
 Octapole moment (field-independent basis, Debye-Ang**2):
  XXX=            -11.1973  YYY=             50.9697  ZZZ=              0.0043  XYY=             -0.3554
  XXY=            -26.0222  XXZ=             -0.0126  XZZ=            -11.4950  YZZ=              9.8900
  YYZ=              0.0048  XYZ=             -0.0082
 Hexadecapole moment (field-independent basis, Debye-Ang**3):
 XXXX=           -788.6979 YYYY=           -402.6133 ZZZZ=            -61.5642 XXXY=             85.2748
 XXXZ=              0.0239 YYYX=             -8.2264 YYYZ=             -0.0152 ZZZX=              0.0013
 ZZZY=              0.0178 XXYY=           -225.3294 XXZZ=           -199.6672 YYZZ=            -97.9838
 XXYZ=             -0.0100 YYXZ=             -0.0045 ZZXY=              3.2988
 N-N= 5.141645139868D+02 E-N=-2.125131263105D+03  KE= 4.722261815266D+02
 Calling FoFJK, ICntrl=      2127 FMM=F ISym2X=0 I1Cent= 0 IOpClX= 0 NMat=1 NMatS=1 NMatT=0.
 ***** Axes restored to original set *****
 -------------------------------------------------------------------
 Center     Atomic                   Forces (Hartrees/Bohr)
 Number     Number              X              Y              Z
 -------------------------------------------------------------------
      1        6           0.000877596    0.003345010   -0.000002079
      2        6           0.003936654   -0.000400221   -0.000002310
      3        6           0.001589308   -0.002405355    0.000000930
      4        6           0.001371876   -0.001585172   -0.000003833
      5        6          -0.006546586    0.000632843   -0.000002541
      6        6           0.000558685    0.004064060    0.000016645
      7        6           0.011385227    0.002961158   -0.000002310
      8        8          -0.003032048    0.008364232   -0.000009337
      9        7          -0.000771491   -0.002491658   -0.000043270
     10        8          -0.008625559   -0.010702684    0.000008874
     11        1           0.000176464    0.000297173    0.000005237
     12        1           0.000291531    0.000039763    0.000001435
     13        1           0.000299313    0.000108285   -0.000007507
     14        1           0.000763086   -0.000298829   -0.000007762
     15        1          -0.001952068    0.000002482    0.000000861
     16        1          -0.000243214   -0.000889918    0.000050252
     17        1           0.000189449   -0.000157603    0.000025355
     18        1          -0.000268224   -0.000883566   -0.000028639
 -------------------------------------------------------------------
 Cartesian Forces:  Max     0.011385227 RMS     0.003103962

 GradGradGradGradGradGradGradGradGradGradGradGradGradGradGradGradGradGrad
 Berny optimization.
 FormGI is forming the generalized inverse of G from B-inverse, IUseBI=4.
 Internal  Forces:  Max     0.013671304 RMS     0.002413918
 Search for a local minimum.
 Step number   1 out of a maximum of   92
 All quantities printed in internal units (Hartrees-Bohrs-Radians)
 Mixed Optimization -- RFO/linear search
 Second derivative matrix not updated -- first step.
 ITU=  0
     Eigenvalues ---    0.00579   0.00947   0.01524   0.01526   0.01687
     Eigenvalues ---    0.02028   0.02099   0.02114   0.02128   0.02148
     Eigenvalues ---    0.02162   0.02199   0.02704   0.06966   0.07701
     Eigenvalues ---    0.16000   0.16000   0.16000   0.16000   0.16000
     Eigenvalues ---    0.16000   0.16000   0.16000   0.22000   0.22493
     Eigenvalues ---    0.24483   0.25000   0.25000   0.25000   0.25000
     Eigenvalues ---    0.33860   0.34098   0.35211   0.35405   0.35433
     Eigenvalues ---    0.35552   0.36648   0.41342   0.42050   0.43548
     Eigenvalues ---    0.43552   0.45139   0.45398   0.46203   0.47508
     Eigenvalues ---    0.52365   0.61066   0.88403
 RFO step:  Lambda=-8.73949078D-04 EMin= 5.78597264D-03
 Linear search not attempted -- first point.
 Iteration  1 RMS(Cart)=  0.01482667 RMS(Int)=  0.00002899
 Iteration  2 RMS(Cart)=  0.00005047 RMS(Int)=  0.00000383
 Iteration  3 RMS(Cart)=  0.00000000 RMS(Int)=  0.00000383
 Variable       Old X    -DE/DX   Delta X   Delta X   Delta X     New X
                                 (Linear)    (Quad)   (Total)
    R1        2.63859  -0.00336   0.00000  -0.00691  -0.00691   2.63167
    R2        2.63584  -0.00287   0.00000  -0.00601  -0.00602   2.62983
    R3        2.04978  -0.00034   0.00000  -0.00097  -0.00097   2.04881
    R4        2.64514  -0.00334   0.00000  -0.00710  -0.00710   2.63803
    R5        2.05022  -0.00029   0.00000  -0.00082  -0.00082   2.04940
    R6        2.61948  -0.00429   0.00000  -0.00907  -0.00906   2.61041
    R7        2.05334  -0.00005   0.00000  -0.00016  -0.00016   2.05318
    R8        2.66148  -0.00735   0.00000  -0.01693  -0.01693   2.64456
    R9        2.80464  -0.00436   0.00000  -0.01275  -0.01275   2.79189
   R10        2.65163  -0.00610   0.00000  -0.01368  -0.01368   2.63795
   R11        2.80867  -0.00222   0.00000  -0.00653  -0.00653   2.80214
   R12        2.04788   0.00064   0.00000   0.00179   0.00179   2.04968
   R13        2.50106  -0.00969   0.00000  -0.01585  -0.01585   2.48521
   R14        2.33678  -0.01367   0.00000  -0.01545  -0.01545   2.32133
   R15        1.84251  -0.00194   0.00000  -0.00370  -0.00370   1.83881
   R16        1.93695  -0.00041   0.00000  -0.00093  -0.00093   1.93602
   R17        2.03080   0.00022   0.00000   0.00060   0.00060   2.03140
   R18        1.93700  -0.00041   0.00000  -0.00095  -0.00095   1.93605
    A1        2.09921  -0.00023   0.00000   0.00021   0.00020   2.09941
    A2        2.09521   0.00012   0.00000  -0.00004  -0.00004   2.09517
    A3        2.08876   0.00010   0.00000  -0.00017  -0.00016   2.08860
    A4        2.09869   0.00014   0.00000   0.00197   0.00195   2.10064
    A5        2.09996  -0.00003   0.00000  -0.00076  -0.00075   2.09920
    A6        2.08454  -0.00011   0.00000  -0.00121  -0.00120   2.08334
    A7        2.07513  -0.00110   0.00000  -0.00470  -0.00470   2.07042
    A8        2.09974   0.00087   0.00000   0.00431   0.00431   2.10404
    A9        2.10832   0.00024   0.00000   0.00039   0.00040   2.10872
   A10        2.13052   0.00046   0.00000   0.00109   0.00109   2.13161
   A11        2.08684   0.00111   0.00000   0.00480   0.00480   2.09164
   A12        2.06582  -0.00157   0.00000  -0.00589  -0.00589   2.05993
   A13        2.06006   0.00209   0.00000   0.00747   0.00748   2.06755
   A14        2.10386  -0.00244   0.00000  -0.00929  -0.00930   2.09456
   A15        2.11926   0.00035   0.00000   0.00182   0.00182   2.12108
   A16        2.10276  -0.00135   0.00000  -0.00603  -0.00603   2.09674
   A17        2.10251   0.00121   0.00000   0.00635   0.00635   2.10885
   A18        2.07791   0.00014   0.00000  -0.00032  -0.00032   2.07759
   A19        1.99903  -0.00044   0.00000  -0.00177  -0.00177   1.99726
   A20        2.14860  -0.00139   0.00000  -0.00555  -0.00555   2.14305
   A21        2.13555   0.00184   0.00000   0.00732   0.00732   2.14287
   A22        1.91196  -0.00033   0.00000  -0.00208  -0.00208   1.90988
   A23        1.95672  -0.00087   0.00000  -0.00554  -0.00555   1.95118
   A24        1.83793   0.00015   0.00000   0.00103   0.00103   1.83895
   A25        1.95651  -0.00087   0.00000  -0.00543  -0.00544   1.95107
   A26        1.91360   0.00032   0.00000   0.00201   0.00201   1.91562
   A27        1.88576   0.00094   0.00000   0.00563   0.00562   1.89138
   A28        1.91283   0.00035   0.00000   0.00239   0.00239   1.91522
    D1        0.00015  -0.00000   0.00000  -0.00008  -0.00008   0.00007
    D2       -3.14149  -0.00000   0.00000  -0.00003  -0.00003  -3.14152
    D3       -3.14145  -0.00000   0.00000  -0.00008  -0.00008  -3.14154
    D4        0.00009  -0.00000   0.00000  -0.00004  -0.00004   0.00006
    D5       -0.00016   0.00000   0.00000   0.00008   0.00008  -0.00008
    D6        3.14129   0.00000   0.00000   0.00020   0.00020   3.14149
    D7        3.14144   0.00000   0.00000   0.00009   0.00009   3.14153
    D8       -0.00029   0.00000   0.00000   0.00020   0.00020  -0.00009
    D9        0.00004  -0.00000   0.00000  -0.00004  -0.00004  -0.00000
   D10       -3.14151  -0.00000   0.00000  -0.00005  -0.00005  -3.14157
   D11       -3.14151  -0.00000   0.00000  -0.00009  -0.00009   3.14159
   D12        0.00013  -0.00000   0.00000  -0.00010  -0.00010   0.00003
   D13       -0.00021   0.00000   0.00000   0.00016   0.00016  -0.00006
   D14        3.14122   0.00001   0.00000   0.00025   0.00025   3.14146
   D15        3.14134   0.00000   0.00000   0.00017   0.00017   3.14151
   D16       -0.00042   0.00001   0.00000   0.00026   0.00026  -0.00016
   D17        0.00020  -0.00000   0.00000  -0.00015  -0.00015   0.00005
   D18       -3.14135  -0.00000   0.00000  -0.00010  -0.00010  -3.14145
   D19       -3.14123  -0.00000   0.00000  -0.00024  -0.00024  -3.14147
   D20        0.00040  -0.00000   0.00000  -0.00019  -0.00019   0.00021
   D21        1.06144  -0.00002   0.00000  -0.00010  -0.00009   1.06135
   D22        3.14129  -0.00001   0.00000  -0.00003  -0.00003   3.14127
   D23       -1.06309   0.00003   0.00000   0.00056   0.00055  -1.06254
   D24       -2.08031  -0.00001   0.00000  -0.00001  -0.00001  -2.08031
   D25       -0.00046  -0.00001   0.00000   0.00006   0.00006  -0.00040
   D26        2.07835   0.00003   0.00000   0.00064   0.00064   2.07898
   D27       -0.00001   0.00000   0.00000   0.00002   0.00002   0.00002
   D28       -3.14146  -0.00000   0.00000  -0.00009  -0.00009  -3.14155
   D29        3.14154  -0.00000   0.00000  -0.00002  -0.00002   3.14152
   D30        0.00009  -0.00000   0.00000  -0.00013  -0.00013  -0.00005
   D31        3.14098   0.00000   0.00000   0.00048   0.00048   3.14146
   D32       -0.00058   0.00001   0.00000   0.00050   0.00050  -0.00007
   D33       -0.00057   0.00001   0.00000   0.00053   0.00053  -0.00004
   D34        3.14106   0.00001   0.00000   0.00055   0.00055  -3.14157
   D35        3.14154   0.00000   0.00000   0.00004   0.00004   3.14158
   D36       -0.00009   0.00000   0.00000   0.00002   0.00002  -0.00008
         Item               Value     Threshold  Converged?
 Maximum Force            0.013671     0.000450     NO 
 RMS     Force            0.002414     0.000300     NO 
 Maximum Displacement     0.054125     0.001800     NO 
 RMS     Displacement     0.014824     0.001200     NO 
 Predicted change in Energy=-4.378360D-04
 GradGradGradGradGradGradGradGradGradGradGradGradGradGradGradGradGradGrad

                          Input orientation:                          
 ---------------------------------------------------------------------
 Center     Atomic      Atomic             Coordinates (Angstroms)
 Number     Number       Type             X           Y           Z
 ---------------------------------------------------------------------
      1          6           0       -1.935429   -1.470891   -0.000133
      2          6           0       -2.615769   -0.255766    0.000040
      3          6           0       -1.909394    0.948317    0.000122
      4          6           0       -0.528683    0.905613    0.000032
      5          6           0        0.178653   -0.301907   -0.000071
      6          6           0       -0.544014   -1.496230   -0.000143
      7          6           0        1.661455   -0.292815    0.000015
      8          8           0        2.212794   -1.486782    0.000063
      9          7           0        0.245758    2.163775   -0.000051
     10          8           0        2.320319    0.743934    0.000103
     11          1           0       -2.489137   -2.403022   -0.000248
     12          1           0       -3.700089   -0.236247    0.000113
     13          1           0       -2.436954    1.898137    0.000282
     14          1           0       -0.005219   -2.437585   -0.000179
     15          1           0        3.181600   -1.395917    0.000103
     16          1           0        0.050116    2.730905    0.830419
     17          1           0        1.277785    1.862975    0.000226
     18          1           0        0.050773    2.730276   -0.831124
 ---------------------------------------------------------------------
                    Distance matrix (angstroms):
                    1          2          3          4          5
     1  C    0.000000
     2  C    1.392621   0.000000
     3  C    2.419349   1.395987   0.000000
     4  C    2.761650   2.388457   1.381372   0.000000
     5  C    2.415754   2.794802   2.433722   1.399439   0.000000
     6  C    1.391645   2.414729   2.800013   2.401892   1.395943
     7  C    3.784896   4.277384   3.780393   2.496584   1.482830
     8  O    4.148253   4.983013   4.787708   3.638578   2.354073
     9  N    4.238912   3.747334   2.474271   1.477406   2.466595
    10  O    4.797587   5.036305   4.234649   2.853586   2.383384
    11  H    1.084186   2.150987   3.401114   3.845835   3.395848
    12  H    2.153688   1.084496   2.147040   3.370706   3.879297
    13  H    3.406153   2.161313   1.086498   2.150954   3.417835
    14  H    2.158751   3.402249   3.884613   3.383931   2.143579
    15  H    5.117578   5.908420   5.604789   4.366147   3.196021
    16  H    4.720942   4.088603   2.776093   2.087161   3.147091
    17  H    4.630271   4.432699   3.315827   2.044472   2.427922
    18  H    4.720736   4.088731   2.776437   2.087100   3.146607
                    6          7          8          9         10
     6  C    0.000000
     7  C    2.512430   0.000000
     8  O    2.756824   1.315117   0.000000
     9  N    3.744246   2.835318   4.146782   0.000000
    10  O    3.636309   1.228394   2.233307   2.513912   0.000000
    11  H    2.146106   4.656220   4.790370   5.323089   5.747538
    12  H    3.398288   5.361842   6.043676   4.618421   6.099678
    13  H    3.886509   4.647282   5.751334   2.695832   4.895287
    14  H    1.084642   2.716218   2.413215   4.608199   3.940837
    15  H    3.726965   1.878211   0.973058   4.614171   2.306679
    16  H    4.348735   3.525459   4.812021   1.024496   3.129105
    17  H    3.821415   2.189664   3.477803   1.074970   1.529421
    18  H    4.348294   3.524793   4.811319   1.024512   3.128471
                   11         12         13         14         15
    11  H    0.000000
    12  H    2.482200   0.000000
    13  H    4.301475   2.480142   0.000000
    14  H    2.484158   4.300924   4.971099   0.000000
    15  H    5.759472   6.978715   6.512983   3.352743   0.000000
    16  H    5.787488   4.853600   2.751027   5.235097   5.246549
    17  H    5.691083   5.402403   3.714906   4.487863   3.774240
    18  H    5.787248   4.853883   2.751814   5.234538   5.245806
                   16         17         18
    16  H    0.000000
    17  H    1.717467   0.000000
    18  H    1.661543   1.717240   0.000000
 Stoichiometry    C7H8NO2(1+)
 Framework group  C1[X(C7H8NO2)]
 Deg. of freedom    48
 Full point group                 C1      NOp   1
 Largest Abelian subgroup         C1      NOp   1
 Largest concise Abelian subgroup C1      NOp   1
                         Standard orientation:                         
 ---------------------------------------------------------------------
 Center     Atomic      Atomic             Coordinates (Angstroms)
 Number     Number       Type             X           Y           Z
 ---------------------------------------------------------------------
      1          6           0        1.942182   -1.459882    0.000129
      2          6           0        2.614129   -0.240095   -0.000044
      3          6           0        1.899472    0.959090   -0.000126
      4          6           0        0.519088    0.906869   -0.000036
      5          6           0       -0.179907   -0.305498    0.000068
      6          6           0        0.550975   -1.494811    0.000140
      7          6           0       -1.662737   -0.306627   -0.000019
      8          8           0       -2.205832   -1.504367   -0.000067
      9          7           0       -0.264008    2.159662    0.000048
     10          8           0       -2.328732    0.725555   -0.000106
     11          1           0        2.502302   -2.388173    0.000244
     12          1           0        3.698289   -0.213102   -0.000116
     13          1           0        2.420472    1.912524   -0.000285
     14          1           0        0.018682   -2.439858    0.000175
     15          1           0       -3.175242   -1.420182   -0.000107
     16          1           0       -0.072280    2.728128   -0.830422
     17          1           0       -1.293937    1.851755   -0.000230
     18          1           0       -0.072933    2.727494    0.831121
 ---------------------------------------------------------------------
 Rotational constants (GHZ):      2.2615092      1.2157738      0.7941559
 Standard basis: 6-31+G(d,p) (6D, 7F)
 There are   230 symmetry adapted cartesian basis functions of A   symmetry.
 There are   230 symmetry adapted basis functions of A   symmetry.
   230 basis functions,   376 primitive gaussians,   230 cartesian basis functions
    36 alpha electrons       36 beta electrons
       nuclear repulsion energy       516.7634831546 Hartrees.
 NAtoms=   18 NActive=   18 NUniq=   18 SFac= 1.00D+00 NAtFMM=   60 NAOKFM=F Big=F
 Integral buffers will be    131072 words long.
 Raffenetti 2 integral format.
 Two-electron integral symmetry is turned on.
 One-electron integrals computed using PRISM.
 NBasis=   230 RedAO= T EigKep=  2.20D-06  NBF=   230
 NBsUse=   230 1.00D-06 EigRej= -1.00D+00 NBFU=   230
 Initial guess from the checkpoint file:  "m062xAnthranilicyang.chk"
 B after Tr=    -0.000000   -0.000000    0.000000
         Rot=    0.999996    0.000013    0.000005   -0.002898 Ang=   0.33 deg.
 ExpMin= 4.38D-02 ExpMax= 5.48D+03 ExpMxC= 8.25D+02 IAcc=2 IRadAn=         4 AccDes= 0.00D+00
 Harris functional with IExCor= 1009 and IRadAn=       4 diagonalized for initial guess.
 HarFok:  IExCor= 1009 AccDes= 0.00D+00 IRadAn=         4 IDoV= 1 UseB2=F ITyADJ=14
 ICtDFT=  3500011 ScaDFX=  1.000000  1.000000  1.000000  1.000000
 FoFCou: FMM=F IPFlag=           0 FMFlag=      100000 FMFlg1=           0
         NFxFlg=           0 DoJE=T BraDBF=F KetDBF=T FulRan=T
         wScrn=  0.000000 ICntrl=     500 IOpCl=  0 I1Cent=   200000004 NGrid=           0
         NMat0=    1 NMatS0=      1 NMatT0=    0 NMatD0=    1 NMtDS0=    0 NMtDT0=    0
 Petite list used in FoFCou.
 Keep R1 ints in memory in canonical form, NReq=359209085.
 Requested convergence on RMS density matrix=1.00D-08 within 128 cycles.
 Requested convergence on MAX density matrix=1.00D-06.
 Requested convergence on             energy=1.00D-06.
 No special actions if energy rises.
 SCF Done:  E(RM062X) =  -476.370326734     A.U. after   12 cycles
            NFock= 12  Conv=0.91D-08     -V/T= 2.0084
 Calling FoFJK, ICntrl=      2127 FMM=F ISym2X=0 I1Cent= 0 IOpClX= 0 NMat=1 NMatS=1 NMatT=0.
 ***** Axes restored to original set *****
 -------------------------------------------------------------------
 Center     Atomic                   Forces (Hartrees/Bohr)
 Number     Number              X              Y              Z
 -------------------------------------------------------------------
      1        6          -0.000369505   -0.000355958   -0.000000217
      2        6          -0.000136744    0.000006390   -0.000000157
      3        6          -0.000996870    0.000132455    0.000001810
      4        6           0.001300992    0.002025409   -0.000001067
      5        6          -0.001597416   -0.000265230    0.000001057
      6        6           0.000404682   -0.000997623    0.000001497
      7        6           0.000849476   -0.002660836    0.000005238
      8        8           0.000177991    0.002214659   -0.000004254
      9        7          -0.005120890    0.002630782   -0.000023569
     10        8           0.003591158   -0.001355703   -0.000002004
     11        1          -0.000134116    0.000017402    0.000002186
     12        1          -0.000092902   -0.000093105   -0.000000675
     13        1           0.000018736    0.000022225   -0.000002638
     14        1          -0.000129586    0.000004100   -0.000002042
     15        1           0.000298629   -0.000737710    0.000001293
     16        1          -0.000242120    0.000079612   -0.000268151
     17        1           0.002431693   -0.000750084    0.000012358
     18        1          -0.000253208    0.000083215    0.000279334
 -------------------------------------------------------------------
 Cartesian Forces:  Max     0.005120890 RMS     0.001209034

 GradGradGradGradGradGradGradGradGradGradGradGradGradGradGradGradGradGrad
 Berny optimization.
 Using GEDIIS/GDIIS optimizer.
 FormGI is forming the generalized inverse of G from B-inverse, IUseBI=4.
 Internal  Forces:  Max     0.008041769 RMS     0.001901538
 Search for a local minimum.
 Step number   2 out of a maximum of   92
 All quantities printed in internal units (Hartrees-Bohrs-Radians)
 Mixed Optimization -- RFO/linear search
 Update second derivatives using D2CorX and points    1    2
 DE= -2.59D-04 DEPred=-4.38D-04 R= 5.91D-01
 TightC=F SS=  1.41D+00  RLast= 4.39D-02 DXNew= 5.0454D-01 1.3183D-01
 Trust test= 5.91D-01 RLast= 4.39D-02 DXMaxT set to 3.00D-01
 ITU=  1  0
 Use linear search instead of GDIIS.
     Eigenvalues ---    0.00579   0.00947   0.01525   0.01533   0.01689
     Eigenvalues ---    0.02028   0.02099   0.02114   0.02128   0.02148
     Eigenvalues ---    0.02162   0.02199   0.02704   0.07017   0.07722
     Eigenvalues ---    0.15344   0.16000   0.16000   0.16000   0.16000
     Eigenvalues ---    0.16000   0.16000   0.16059   0.21315   0.22018
     Eigenvalues ---    0.23547   0.24738   0.25000   0.25000   0.26569
     Eigenvalues ---    0.33085   0.35210   0.35352   0.35418   0.35487
     Eigenvalues ---    0.35814   0.36402   0.41740   0.42023   0.43549
     Eigenvalues ---    0.43556   0.45092   0.46192   0.47028   0.52140
     Eigenvalues ---    0.56123   0.71233   0.95354
 RFO step:  Lambda=-4.50590544D-04 EMin= 5.78596009D-03
 Quartic linear search produced a step of -0.29198.
 Iteration  1 RMS(Cart)=  0.02261281 RMS(Int)=  0.00016209
 Iteration  2 RMS(Cart)=  0.00021831 RMS(Int)=  0.00000196
 Iteration  3 RMS(Cart)=  0.00000001 RMS(Int)=  0.00000196
 Variable       Old X    -DE/DX   Delta X   Delta X   Delta X     New X
                                 (Linear)    (Quad)   (Total)
    R1        2.63167  -0.00059   0.00202  -0.00691  -0.00489   2.62679
    R2        2.62983   0.00014   0.00176  -0.00491  -0.00315   2.62668
    R3        2.04881   0.00006   0.00028  -0.00069  -0.00041   2.04841
    R4        2.63803  -0.00004   0.00207  -0.00606  -0.00399   2.63405
    R5        2.04940   0.00009   0.00024  -0.00050  -0.00026   2.04914
    R6        2.61041   0.00157   0.00265  -0.00497  -0.00233   2.60809
    R7        2.05318   0.00001   0.00005  -0.00012  -0.00007   2.05311
    R8        2.64456   0.00572   0.00494  -0.00447   0.00048   2.64503
    R9        2.79189   0.00006   0.00372  -0.01046  -0.00674   2.78515
   R10        2.63795   0.00149   0.00399  -0.00876  -0.00477   2.63318
   R11        2.80214   0.00491   0.00191   0.00483   0.00674   2.80888
   R12        2.04968  -0.00006  -0.00052   0.00136   0.00084   2.05051
   R13        2.48521  -0.00116   0.00463  -0.01429  -0.00966   2.47555
   R14        2.32133   0.00079   0.00451  -0.01191  -0.00740   2.31393
   R15        1.83881   0.00024   0.00108  -0.00271  -0.00163   1.83718
   R16        1.93602  -0.00012   0.00027  -0.00097  -0.00070   1.93532
   R17        2.03140   0.00254  -0.00017   0.00539   0.00521   2.03661
   R18        1.93605  -0.00013   0.00028  -0.00099  -0.00071   1.93533
    A1        2.09941   0.00011  -0.00006  -0.00067  -0.00072   2.09869
    A2        2.09517  -0.00017   0.00001  -0.00011  -0.00010   2.09507
    A3        2.08860   0.00006   0.00005   0.00078   0.00083   2.08943
    A4        2.10064   0.00022  -0.00057   0.00117   0.00060   2.10125
    A5        2.09920  -0.00022   0.00022  -0.00088  -0.00066   2.09854
    A6        2.08334   0.00000   0.00035  -0.00029   0.00006   2.08340
    A7        2.07042   0.00134   0.00137   0.00019   0.00156   2.07198
    A8        2.10404  -0.00065  -0.00126   0.00168   0.00042   2.10446
    A9        2.10872  -0.00069  -0.00012  -0.00186  -0.00198   2.10674
   A10        2.13161  -0.00153  -0.00032  -0.00264  -0.00296   2.12865
   A11        2.09164  -0.00478  -0.00140  -0.00984  -0.01124   2.08040
   A12        2.05993   0.00631   0.00172   0.01248   0.01420   2.07413
   A13        2.06755  -0.00158  -0.00218   0.00260   0.00041   2.06796
   A14        2.09456   0.00804   0.00272   0.01451   0.01723   2.11179
   A15        2.12108  -0.00646  -0.00053  -0.01711  -0.01764   2.10344
   A16        2.09674   0.00144   0.00176  -0.00066   0.00110   2.09784
   A17        2.10885  -0.00082  -0.00185   0.00275   0.00090   2.10976
   A18        2.07759  -0.00062   0.00009  -0.00210  -0.00201   2.07559
   A19        1.99726  -0.00204   0.00052  -0.00726  -0.00675   1.99052
   A20        2.14305   0.00537   0.00162   0.01051   0.01214   2.15519
   A21        2.14287  -0.00333  -0.00214  -0.00325  -0.00539   2.13748
   A22        1.90988   0.00138   0.00061   0.00428   0.00489   1.91476
   A23        1.95118  -0.00008   0.00162  -0.00556  -0.00395   1.94723
   A24        1.83895   0.00008  -0.00030   0.00194   0.00165   1.84060
   A25        1.95107  -0.00008   0.00159  -0.00541  -0.00383   1.94724
   A26        1.91562   0.00014  -0.00059   0.00302   0.00244   1.91805
   A27        1.89138  -0.00020  -0.00164   0.00274   0.00109   1.89247
   A28        1.91522   0.00016  -0.00070   0.00349   0.00280   1.91802
    D1        0.00007  -0.00000   0.00002  -0.00013  -0.00011  -0.00004
    D2       -3.14152  -0.00000   0.00001  -0.00006  -0.00006  -3.14158
    D3       -3.14154  -0.00000   0.00002  -0.00013  -0.00011   3.14154
    D4        0.00006  -0.00000   0.00001  -0.00007  -0.00006  -0.00000
    D5       -0.00008   0.00000  -0.00002   0.00014   0.00012   0.00004
    D6        3.14149   0.00000  -0.00006   0.00029   0.00024  -3.14146
    D7        3.14153   0.00000  -0.00003   0.00015   0.00012  -3.14153
    D8       -0.00009   0.00000  -0.00006   0.00030   0.00024   0.00015
    D9       -0.00000  -0.00000   0.00001  -0.00005  -0.00004  -0.00004
   D10       -3.14157  -0.00000   0.00002  -0.00008  -0.00006   3.14156
   D11        3.14159  -0.00000   0.00003  -0.00011  -0.00009   3.14150
   D12        0.00003  -0.00000   0.00003  -0.00014  -0.00011  -0.00009
   D13       -0.00006   0.00000  -0.00005   0.00022   0.00017   0.00012
   D14        3.14146   0.00000  -0.00007   0.00038   0.00031  -3.14141
   D15        3.14151   0.00000  -0.00005   0.00025   0.00020  -3.14148
   D16       -0.00016   0.00000  -0.00007   0.00041   0.00033   0.00017
   D17        0.00005  -0.00000   0.00004  -0.00020  -0.00016  -0.00011
   D18       -3.14145  -0.00000   0.00003  -0.00015  -0.00012  -3.14157
   D19       -3.14147  -0.00000   0.00007  -0.00036  -0.00029   3.14142
   D20        0.00021  -0.00000   0.00005  -0.00031  -0.00025  -0.00004
   D21        1.06135  -0.00018   0.00003  -0.00158  -0.00155   1.05980
   D22        3.14127  -0.00001   0.00001   0.00025   0.00026   3.14153
   D23       -1.06254   0.00019  -0.00016   0.00274   0.00257  -1.05996
   D24       -2.08031  -0.00018   0.00000  -0.00143  -0.00142  -2.08173
   D25       -0.00040  -0.00001  -0.00002   0.00041   0.00039  -0.00000
   D26        2.07898   0.00019  -0.00019   0.00290   0.00271   2.08169
   D27        0.00002  -0.00000  -0.00001   0.00002   0.00001   0.00003
   D28       -3.14155  -0.00000   0.00002  -0.00013  -0.00011   3.14153
   D29        3.14152   0.00000   0.00001  -0.00004  -0.00003   3.14149
   D30       -0.00005  -0.00000   0.00004  -0.00019  -0.00015  -0.00019
   D31        3.14146   0.00000  -0.00014   0.00103   0.00089  -3.14084
   D32       -0.00007  -0.00000  -0.00015   0.00093   0.00078   0.00071
   D33       -0.00004   0.00000  -0.00015   0.00109   0.00093   0.00089
   D34       -3.14157  -0.00000  -0.00016   0.00099   0.00082  -3.14075
   D35        3.14158  -0.00000  -0.00001   0.00001   0.00000   3.14158
   D36       -0.00008   0.00000  -0.00000   0.00011   0.00011   0.00003
         Item               Value     Threshold  Converged?
 Maximum Force            0.008042     0.000450     NO 
 RMS     Force            0.001902     0.000300     NO 
 Maximum Displacement     0.088479     0.001800     NO 
 RMS     Displacement     0.022569     0.001200     NO 
 Predicted change in Energy=-2.784110D-04
 GradGradGradGradGradGradGradGradGradGradGradGradGradGradGradGradGradGrad

                          Input orientation:                          
 ---------------------------------------------------------------------
 Center     Atomic      Atomic             Coordinates (Angstroms)
 Number     Number       Type             X           Y           Z
 ---------------------------------------------------------------------
      1          6           0       -1.923642   -1.466526    0.000099
      2          6           0       -2.606147   -0.255582   -0.000099
      3          6           0       -1.904972    0.949096   -0.000231
      4          6           0       -0.525296    0.913322   -0.000111
      5          6           0        0.184627   -0.292971    0.000000
      6          6           0       -0.533814   -1.486899    0.000124
      7          6           0        1.670963   -0.306439    0.000159
      8          8           0        2.193936   -1.507527   -0.000653
      9          7           0        0.226795    2.180825   -0.000019
     10          8           0        2.355721    0.708675    0.000926
     11          1           0       -2.474699   -2.399975    0.000252
     12          1           0       -3.690389   -0.239852   -0.000107
     13          1           0       -2.435377    1.897288   -0.000419
     14          1           0        0.009390   -2.426228    0.000155
     15          1           0        3.163968   -1.442738   -0.000511
     16          1           0        0.018265    2.742261    0.830730
     17          1           0        1.266697    1.897805    0.000134
     18          1           0        0.018535    2.742237   -0.830859
 ---------------------------------------------------------------------
                    Distance matrix (angstroms):
                    1          2          3          4          5
     1  C    0.000000
     2  C    1.390035   0.000000
     3  C    2.415694   1.393878   0.000000
     4  C    2.760262   2.386688   1.380140   0.000000
     5  C    2.412888   2.791025   2.430876   1.399690   0.000000
     6  C    1.389978   2.410541   2.795380   2.400236   1.393421
     7  C    3.777166   4.277412   3.789944   2.512243   1.486396
     8  O    4.117782   4.960661   4.778707   3.640705   2.347864
     9  N    4.234094   3.736528   2.462029   1.473840   2.474156
    10  O    4.800463   5.054694   4.267471   2.888276   2.391013
    11  H    1.083970   2.148418   3.397185   3.844230   3.392857
    12  H    2.150842   1.084356   2.145067   3.368624   3.875381
    13  H    3.402516   2.159632   1.086460   2.148627   3.414917
    14  H    2.158157   3.398932   3.880412   3.382083   2.140442
    15  H    5.087666   5.890974   5.604911   4.377406   3.193499
    16  H    4.709016   4.069997   2.757676   2.081051   3.151257
    17  H    4.636484   4.431252   3.310519   2.044614   2.443435
    18  H    4.709164   4.070139   2.757749   2.081064   3.151254
                    6          7          8          9         10
     6  C    0.000000
     7  C    2.500905   0.000000
     8  O    2.727828   1.310005   0.000000
     9  N    3.745762   2.876127   4.180142   0.000000
    10  O    3.629044   1.224480   2.222100   2.588350   0.000000
    11  H    2.144934   4.644287   4.753169   5.318063   5.744272
    12  H    3.393979   5.361765   6.019326   4.604781   6.120062
    13  H    3.881838   4.660304   5.746590   2.677228   4.936337
    14  H    1.085085   2.693387   2.369864   4.612180   3.915723
    15  H    3.698046   1.876231   0.972194   4.664461   2.298226
    16  H    4.345169   3.565926   4.846178   1.024128   3.207453
    17  H    3.833805   2.241009   3.529314   1.077728   1.612453
    18  H    4.345252   3.565885   4.845834   1.024134   3.207754
                   11         12         13         14         15
    11  H    0.000000
    12  H    2.478716   0.000000
    13  H    4.297442   2.478391   0.000000
    14  H    2.484227   4.297511   4.966857   0.000000
    15  H    5.719342   6.959106   6.519850   3.304334   0.000000
    16  H    5.774699   4.830880   2.724912   5.234808   5.301003
    17  H    5.698153   5.398359   3.702074   4.503119   3.841727
    18  H    5.774885   4.831058   2.724932   5.234855   5.300684
                   16         17         18
    16  H    0.000000
    17  H    1.720924   0.000000
    18  H    1.661588   1.720908   0.000000
 Stoichiometry    C7H8NO2(1+)
 Framework group  C1[X(C7H8NO2)]
 Deg. of freedom    48
 Full point group                 C1      NOp   1
 Largest Abelian subgroup         C1      NOp   1
 Largest concise Abelian subgroup C1      NOp   1
                         Standard orientation:                         
 ---------------------------------------------------------------------
 Center     Atomic      Atomic             Coordinates (Angstroms)
 Number     Number       Type             X           Y           Z
 ---------------------------------------------------------------------
      1          6           0        1.909345   -1.485243   -0.000084
      2          6           0        2.603902   -0.281172    0.000114
      3          6           0        1.914786    0.930445    0.000245
      4          6           0        0.534822    0.908443    0.000125
      5          6           0       -0.187106   -0.290704    0.000015
      6          6           0        0.519382   -1.491743   -0.000109
      7          6           0       -1.673502   -0.289336   -0.000144
      8          8           0       -2.208437   -1.485144    0.000668
      9          7           0       -0.204580    2.183390    0.000034
     10          8           0       -2.348095    0.732562   -0.000911
     11          1           0        2.451057   -2.424146   -0.000237
     12          1           0        3.688247   -0.276265    0.000121
     13          1           0        2.454629    1.873295    0.000434
     14          1           0       -0.033170   -2.425604   -0.000141
     15          1           0       -3.177775   -1.410676    0.000526
     16          1           0        0.009543    2.742717   -0.830715
     17          1           0       -1.247256    1.910763   -0.000119
     18          1           0        0.009273    2.742696    0.830874
 ---------------------------------------------------------------------
 Rotational constants (GHZ):      2.2490841      1.2164841      0.7929203
 Standard basis: 6-31+G(d,p) (6D, 7F)
 There are   230 symmetry adapted cartesian basis functions of A   symmetry.
 There are   230 symmetry adapted basis functions of A   symmetry.
   230 basis functions,   376 primitive gaussians,   230 cartesian basis functions
    36 alpha electrons       36 beta electrons
       nuclear repulsion energy       516.5093395233 Hartrees.
 NAtoms=   18 NActive=   18 NUniq=   18 SFac= 1.00D+00 NAtFMM=   60 NAOKFM=F Big=F
 Integral buffers will be    131072 words long.
 Raffenetti 2 integral format.
 Two-electron integral symmetry is turned on.
 One-electron integrals computed using PRISM.
 NBasis=   230 RedAO= T EigKep=  2.18D-06  NBF=   230
 NBsUse=   230 1.00D-06 EigRej= -1.00D+00 NBFU=   230
 Initial guess from the checkpoint file:  "m062xAnthranilicyang.chk"
 B after Tr=     0.000000    0.000000   -0.000000
         Rot=    0.999976    0.000023    0.000014    0.006966 Ang=   0.80 deg.
 ExpMin= 4.38D-02 ExpMax= 5.48D+03 ExpMxC= 8.25D+02 IAcc=2 IRadAn=         4 AccDes= 0.00D+00
 Harris functional with IExCor= 1009 and IRadAn=       4 diagonalized for initial guess.
 HarFok:  IExCor= 1009 AccDes= 0.00D+00 IRadAn=         4 IDoV= 1 UseB2=F ITyADJ=14
 ICtDFT=  3500011 ScaDFX=  1.000000  1.000000  1.000000  1.000000
 FoFCou: FMM=F IPFlag=           0 FMFlag=      100000 FMFlg1=           0
         NFxFlg=           0 DoJE=T BraDBF=F KetDBF=T FulRan=T
         wScrn=  0.000000 ICntrl=     500 IOpCl=  0 I1Cent=   200000004 NGrid=           0
         NMat0=    1 NMatS0=      1 NMatT0=    0 NMatD0=    1 NMtDS0=    0 NMtDT0=    0
 Petite list used in FoFCou.
 Keep R1 ints in memory in canonical form, NReq=359209085.
 Requested convergence on RMS density matrix=1.00D-08 within 128 cycles.
 Requested convergence on MAX density matrix=1.00D-06.
 Requested convergence on             energy=1.00D-06.
 No special actions if energy rises.
 SCF Done:  E(RM062X) =  -476.370157745     A.U. after   13 cycles
            NFock= 13  Conv=0.52D-08     -V/T= 2.0083
 Calling FoFJK, ICntrl=      2127 FMM=F ISym2X=0 I1Cent= 0 IOpClX= 0 NMat=1 NMatS=1 NMatT=0.
 ***** Axes restored to original set *****
 -------------------------------------------------------------------
 Center     Atomic                   Forces (Hartrees/Bohr)
 Number     Number              X              Y              Z
 -------------------------------------------------------------------
      1        6          -0.001057597   -0.002046934    0.000003282
      2        6          -0.002574201    0.000326250    0.000001447
      3        6          -0.001494620    0.001157076   -0.000000815
      4        6           0.000247875   -0.000763320    0.000005981
      5        6           0.001211403    0.000658146    0.000010023
      6        6           0.000177838   -0.002636250   -0.000015167
      7        6          -0.001678156    0.000895803   -0.000004392
      8        8           0.001741034   -0.005487579    0.000002673
      9        7           0.006891591   -0.001830526   -0.000022709
     10        8          -0.000972773    0.007203643   -0.000010792
     11        1          -0.000218966   -0.000176412   -0.000001604
     12        1          -0.000215400   -0.000025904   -0.000002478
     13        1          -0.000221941    0.000053976    0.000002954
     14        1          -0.000663461    0.000405439    0.000004613
     15        1           0.000773381   -0.000198131    0.000001785
     16        1           0.000631869    0.000485710    0.000181315
     17        1          -0.003202122    0.001492976    0.000019645
     18        1           0.000624245    0.000486036   -0.000175762
 -------------------------------------------------------------------
 Cartesian Forces:  Max     0.007203643 RMS     0.001829878

 GradGradGradGradGradGradGradGradGradGradGradGradGradGradGradGradGradGrad
 Berny optimization.
 Using GEDIIS/GDIIS optimizer.
 FormGI is forming the generalized inverse of G from B-inverse, IUseBI=4.
 Internal  Forces:  Max     0.009383197 RMS     0.002344485
 Search for a local minimum.
 Step number   3 out of a maximum of   92
 All quantities printed in internal units (Hartrees-Bohrs-Radians)
 Mixed Optimization -- RFO/linear search
 Update second derivatives using D2CorX and points    1    3    2
 DE=  1.69D-04 DEPred=-2.78D-04 R=-6.07D-01
 Trust test=-6.07D-01 RLast= 4.03D-02 DXMaxT set to 1.50D-01
 ITU= -1  1  0
 Use linear search instead of GDIIS.
 Energy rises -- skip Quadratic/GDIIS search.
 Quartic linear search produced a step of -0.63762.
 Iteration  1 RMS(Cart)=  0.01429838 RMS(Int)=  0.00006408
 Iteration  2 RMS(Cart)=  0.00011923 RMS(Int)=  0.00000055
 Iteration  3 RMS(Cart)=  0.00000001 RMS(Int)=  0.00000055
 Variable       Old X    -DE/DX   Delta X   Delta X   Delta X     New X
                                 (Linear)    (Quad)   (Total)
    R1        2.62679   0.00312   0.00312   0.00000   0.00312   2.62990
    R2        2.62668   0.00289   0.00201   0.00000   0.00201   2.62869
    R3        2.04841   0.00026   0.00026   0.00000   0.00026   2.04867
    R4        2.63405   0.00264   0.00254   0.00000   0.00254   2.63659
    R5        2.04914   0.00021   0.00017   0.00000   0.00017   2.04930
    R6        2.60809   0.00286   0.00148   0.00000   0.00148   2.60957
    R7        2.05311   0.00015   0.00005   0.00000   0.00005   2.05316
    R8        2.64503  -0.00228  -0.00030   0.00000  -0.00030   2.64473
    R9        2.78515   0.00307   0.00430   0.00000   0.00430   2.78945
   R10        2.63318   0.00327   0.00304   0.00000   0.00304   2.63622
   R11        2.80888  -0.00015  -0.00430   0.00000  -0.00430   2.80458
   R12        2.05051  -0.00068  -0.00053   0.00000  -0.00053   2.04998
   R13        2.47555   0.00621   0.00616   0.00000   0.00616   2.48171
   R14        2.31393   0.00543   0.00472   0.00000   0.00472   2.31865
   R15        1.83718   0.00076   0.00104   0.00000   0.00104   1.83822
   R16        1.93532   0.00029   0.00044   0.00000   0.00044   1.93576
   R17        2.03661  -0.00348  -0.00332   0.00000  -0.00332   2.03329
   R18        1.93533   0.00028   0.00046   0.00000   0.00046   1.93579
    A1        2.09869  -0.00007   0.00046   0.00000   0.00046   2.09915
    A2        2.09507  -0.00006   0.00007   0.00000   0.00007   2.09513
    A3        2.08943   0.00013  -0.00053   0.00000  -0.00053   2.08890
    A4        2.10125  -0.00019  -0.00039   0.00000  -0.00039   2.10086
    A5        2.09854   0.00006   0.00042   0.00000   0.00042   2.09896
    A6        2.08340   0.00013  -0.00004   0.00000  -0.00004   2.08336
    A7        2.07198  -0.00064  -0.00100   0.00000  -0.00100   2.07099
    A8        2.10446   0.00015  -0.00027   0.00000  -0.00027   2.10419
    A9        2.10674   0.00050   0.00126   0.00000   0.00126   2.10800
   A10        2.12865   0.00088   0.00189   0.00000   0.00189   2.13054
   A11        2.08040   0.00526   0.00717   0.00000   0.00717   2.08757
   A12        2.07413  -0.00614  -0.00905   0.00000  -0.00905   2.06508
   A13        2.06796   0.00111  -0.00026   0.00000  -0.00026   2.06770
   A14        2.11179  -0.00938  -0.01099   0.00000  -0.01099   2.10080
   A15        2.10344   0.00827   0.01125   0.00000   0.01125   2.11469
   A16        2.09784  -0.00108  -0.00070   0.00000  -0.00070   2.09714
   A17        2.10976   0.00016  -0.00058   0.00000  -0.00058   2.10918
   A18        2.07559   0.00092   0.00128   0.00000   0.00128   2.07687
   A19        1.99052   0.00350   0.00430   0.00000   0.00430   1.99482
   A20        2.15519  -0.00735  -0.00774   0.00000  -0.00774   2.14745
   A21        2.13748   0.00385   0.00344   0.00000   0.00344   2.14092
   A22        1.91476   0.00045  -0.00312   0.00000  -0.00312   1.91165
   A23        1.94723   0.00072   0.00252   0.00000   0.00252   1.94975
   A24        1.84060   0.00049  -0.00105   0.00000  -0.00105   1.83955
   A25        1.94724   0.00072   0.00244   0.00000   0.00244   1.94968
   A26        1.91805  -0.00074  -0.00155   0.00000  -0.00156   1.91650
   A27        1.89247  -0.00049  -0.00069   0.00000  -0.00069   1.89178
   A28        1.91802  -0.00072  -0.00179   0.00000  -0.00179   1.91623
    D1       -0.00004  -0.00000   0.00007   0.00000   0.00007   0.00003
    D2       -3.14158  -0.00000   0.00004   0.00000   0.00004  -3.14154
    D3        3.14154   0.00000   0.00007   0.00000   0.00007  -3.14158
    D4       -0.00000   0.00000   0.00004   0.00000   0.00004   0.00003
    D5        0.00004  -0.00000  -0.00007   0.00000  -0.00007  -0.00003
    D6       -3.14146  -0.00000  -0.00015   0.00000  -0.00015   3.14157
    D7       -3.14153  -0.00000  -0.00008   0.00000  -0.00008   3.14157
    D8        0.00015  -0.00000  -0.00015   0.00000  -0.00015  -0.00000
    D9       -0.00004   0.00000   0.00002   0.00000   0.00002  -0.00002
   D10        3.14156   0.00000   0.00004   0.00000   0.00004  -3.14159
   D11        3.14150   0.00000   0.00005   0.00000   0.00005   3.14156
   D12       -0.00009   0.00000   0.00007   0.00000   0.00007  -0.00001
   D13        0.00012   0.00000  -0.00011   0.00000  -0.00011   0.00001
   D14       -3.14141   0.00000  -0.00020   0.00000  -0.00020   3.14157
   D15       -3.14148  -0.00000  -0.00013   0.00000  -0.00013   3.14158
   D16        0.00017   0.00000  -0.00021   0.00000  -0.00021  -0.00004
   D17       -0.00011  -0.00000   0.00010   0.00000   0.00010  -0.00001
   D18       -3.14157  -0.00001   0.00007   0.00000   0.00007  -3.14149
   D19        3.14142  -0.00000   0.00019   0.00000   0.00019  -3.14158
   D20       -0.00004  -0.00001   0.00016   0.00000   0.00016   0.00012
   D21        1.05980   0.00019   0.00099   0.00000   0.00099   1.06079
   D22        3.14153  -0.00001  -0.00017   0.00000  -0.00017   3.14136
   D23       -1.05996  -0.00019  -0.00164   0.00000  -0.00164  -1.06160
   D24       -2.08173   0.00019   0.00091   0.00000   0.00090  -2.08083
   D25       -0.00000  -0.00001  -0.00025   0.00000  -0.00025  -0.00026
   D26        2.08169  -0.00019  -0.00173   0.00000  -0.00172   2.07996
   D27        0.00003   0.00000  -0.00001   0.00000  -0.00001   0.00002
   D28        3.14153   0.00000   0.00007   0.00000   0.00007  -3.14158
   D29        3.14149   0.00000   0.00002   0.00000   0.00002   3.14151
   D30       -0.00019   0.00000   0.00009   0.00000   0.00009  -0.00010
   D31       -3.14084  -0.00001  -0.00057   0.00000  -0.00057  -3.14140
   D32        0.00071  -0.00001  -0.00050   0.00000  -0.00050   0.00021
   D33        0.00089  -0.00001  -0.00059   0.00000  -0.00059   0.00030
   D34       -3.14075  -0.00002  -0.00053   0.00000  -0.00053  -3.14127
   D35        3.14158   0.00000  -0.00000   0.00000  -0.00000   3.14158
   D36        0.00003   0.00000  -0.00007   0.00000  -0.00007  -0.00004
         Item               Value     Threshold  Converged?
 Maximum Force            0.009383     0.000450     NO 
 RMS     Force            0.002344     0.000300     NO 
 Maximum Displacement     0.056269     0.001800     NO 
 RMS     Displacement     0.014380     0.001200     NO 
 Predicted change in Energy=-6.676802D-05
 GradGradGradGradGradGradGradGradGradGradGradGradGradGradGradGradGradGrad

                          Input orientation:                          
 ---------------------------------------------------------------------
 Center     Atomic      Atomic             Coordinates (Angstroms)
 Number     Number       Type             X           Y           Z
 ---------------------------------------------------------------------
      1          6           0       -1.931181   -1.469321   -0.000048
      2          6           0       -2.612306   -0.255709   -0.000010
      3          6           0       -1.907815    0.948591   -0.000006
      4          6           0       -0.527475    0.908398   -0.000020
      5          6           0        0.180797   -0.298679   -0.000045
      6          6           0       -0.540339   -1.492860   -0.000046
      7          6           0        1.664919   -0.297752    0.000066
      8          8           0        2.205984   -1.494378   -0.000197
      9          7           0        0.238880    2.169989   -0.000039
     10          8           0        2.333247    0.731231    0.000401
     11          1           0       -2.483930   -2.401929   -0.000066
     12          1           0       -3.696600   -0.237563    0.000033
     13          1           0       -2.436406    1.897822    0.000027
     14          1           0        0.000053   -2.433484   -0.000057
     15          1           0        3.175315   -1.412962   -0.000119
     16          1           0        0.038553    2.735089    0.830533
[...]
 555984\Dipole=-0.4011319,1.6760055,-0.000011\DipoleDeriv=-0.0833378,0.
 1888589,0.0000027,0.1572569,0.0566532,-0.0000003,-0.0000069,-0.0000027
 ,-0.074608,0.1664715,-0.0014348,-0.0000048,0.0769156,0.0276714,0.00000
 08,0.0000032,0.0000012,-0.064419,-0.2886857,-0.1401332,-0.0000009,-0.1
 837039,-0.0310778,0.0000026,-0.0000057,0.0000073,-0.0944648,0.4446825,
 0.2186142,-0.0000033,0.0207301,0.4264293,0.0000013,0.0000285,-0.000013
 8,-0.0495052,-0.7504258,-0.024115,-0.0000067,0.0684166,-0.1011097,0.00
 00006,0.0000114,0.0000082,0.0221439,0.0911146,-0.1308592,-0.0000031,0.
 0536496,0.0181151,0.000001,0.000019,-0.0000015,-0.0664102,2.1106752,-0
 .0239125,0.0000281,-0.210019,1.8639567,-0.0000547,0.0000571,-0.0000514
 ,0.3850974,-0.9348332,0.5406934,-0.0000299,0.5556789,-1.0894435,0.0000
 364,-0.0000771,0.000113,-0.3466162,-0.5398041,0.1683414,-0.0000108,-0.
 0414295,-0.5960314,0.0000012,-0.0000171,0.0000336,-0.098726,-1.1521076
 ,-0.2051635,0.0000039,-0.098699,-1.2718886,0.0000252,-0.0000361,-0.000
 0645,-0.3526256,0.0755471,-0.0141913,0.0000003,-0.0198857,0.0567341,-0
 .0000006,-0.0000013,0.0000013,0.1467821,0.0528635,0.0021997,0.0000013,
 0.0059554,0.0892811,-0.0000007,0.0000025,-0.0000011,0.1436874,0.100928
 8,0.003459,0.,0.012086,0.0069582,-0.0000024,-0.0000035,-0.0000055,0.15
 3028,0.0996327,0.0110268,0.0000019,0.0110039,0.0997045,-0.0000009,0.00
 00046,0.,0.1426229,0.4740237,-0.1366587,0.000009,-0.1250136,0.3286744,
 -0.0000061,0.0000147,-0.0000098,0.3762288,0.210784,-0.0112324,0.010704
 9,-0.0137629,0.272208,0.0578051,0.0205333,0.0973078,0.2829901,0.711680
 5,-0.4342555,0.0000098,-0.2554168,0.5709706,-0.0000003,0.0000101,-0.00
 00042,0.2117979,0.2107902,-0.0112373,-0.0107024,-0.0137626,0.2721946,-
 0.0578082,-0.0205368,-0.0973178,0.2829966\Polar=112.2849075,0.8936761,
 99.7988449,0.0002522,0.0001734,47.5882754\PG=C01 [X(C7H8N1O2)]\NImag=0
 \\0.71486269,0.03505015,0.75260482,-0.00000756,0.00000515,0.14140422,-
 0.18946212,0.13262357,0.00000318,0.76512123,0.05774577,-0.30935333,-0.
 00000303,-0.00534405,0.69262626,0.00000240,-0.00000433,-0.06529130,-0.
 00000910,0.00000561,0.14450063,0.07573302,-0.02755923,-0.00000154,-0.1
 8799740,-0.05574971,0.00000161,0.72146508,0.02119017,-0.05338875,-0.00
 000084,-0.13350234,-0.29691384,-0.00000050,-0.03460405,0.74911193,-0.0
 0000106,-0.00000037,0.00621393,0.00000036,-0.00000190,-0.06394895,-0.0
 0000811,0.00000733,0.13367001,-0.06301825,0.03456246,0.00000130,-0.026
 12155,-0.09496519,-0.00000085,-0.36596014,0.07054704,0.00000463,0.7348
 0975,0.03606438,-0.02246756,-0.00000107,-0.02767317,0.04025512,0.00000
 107,-0.02234666,-0.12544026,-0.00000055,-0.04728644,0.63924083,0.00000
 143,-0.00000071,-0.00496786,0.00000012,0.00000161,0.00290856,0.0000043
 7,-0.00000183,-0.06324231,-0.00001012,0.00000794,0.16266293,-0.0255736
 4,-0.02673607,0.00000081,-0.00119092,0.00783736,-0.00000012,-0.0337722
 6,0.01807306,0.00000097,-0.17458227,0.12811437,0.00000518,0.67432216,-
 0.07882134,0.04017844,0.00000205,-0.00279151,-0.07414152,-0.00000077,0
 .08137582,0.03187045,-0.00000113,0.05385897,-0.26841486,-0.00000363,0.
 00841910,0.73228611,-0.00000056,0.00000122,0.00637081,-0.00000003,-0.0
 0000070,-0.00520979,0.00000097,-0.00000056,0.00904278,0.00000482,-0.00
 000454,-0.05585873,-0.00000307,0.00000400,0.13133241,-0.36092549,-0.03
 506089,0.00000309,-0.02133696,0.08216843,0.00000133,-0.05835617,-0.024
 22970,0.00000064,0.07137125,-0.03476440,-0.00000181,-0.17651784,-0.055
 92895,0.00000262,0.72053409,0.03958766,-0.13513168,-0.00000174,0.03368
 247,0.04003344,-0.00000014,-0.03532695,-0.01674526,0.00000057,0.027097
 84,-0.05784596,-0.00000137,-0.12343560,-0.29360396,0.00000015,-0.03940
 603,0.73889795,0.00000463,-0.00000028,-0.06620570,0.00000082,-0.000001
 02,0.00604953,0.00000055,0.00000029,-0.00479162,-0.00000095,0.00000029
 ,0.00278066,0.00000158,-0.00000058,-0.06060806,-0.00000962,0.00000628,
 0.14410013,0.00219570,-0.00260237,-0.00000045,0.00060337,-0.00570239,0
 .00000007,0.01154002,0.00551610,-0.00000027,-0.02215311,0.02900346,-0.
 00000016,-0.21305717,0.00153243,0.00000591,-0.01931408,-0.01633243,-0.
 00000026,0.75564133,-0.00472913,-0.00652505,0.00000005,-0.00036109,-0.
 00378705,0.00000003,0.00491378,-0.00698405,-0.00000031,0.03432191,0.01
 567085,-0.00000126,0.01063616,-0.10483801,-0.00000007,-0.02720014,0.01
 184341,0.00000101,0.10792226,0.94081792,0.00000022,0.00000005,0.008836
 38,-0.00000027,-0.00000005,-0.00137069,0.00000014,-0.00000029,0.006471
 88,0.00000049,0.00000151,-0.00164720,-0.00000270,0.00000014,-0.0766160
 2,-0.00000016,-0.00000102,-0.00058898,0.00005098,0.00000529,0.21162938
 ,0.00135105,0.00059955,0.,-0.00028197,0.00237609,0.,-0.00337707,0.0011
 5169,0.00000032,-0.00493659,-0.00889739,-0.00000018,-0.03167746,0.0452
 5697,-0.00000491,-0.00430812,0.00211651,-0.00000027,-0.19107834,0.1239
 0056,-0.00002001,0.69239064,0.00021614,0.00084258,-0.00000014,-0.00008
 875,-0.00134988,0.00000001,0.00202655,0.00211865,-0.00000007,-0.004215
 25,0.00089542,0.00000020,0.01809909,-0.00472988,0.00000294,-0.00182686
 ,-0.00464139,-0.00000047,0.09001451,-0.32628729,0.00002155,-0.07888153
 ,0.48959584,-0.00000005,0.00000006,-0.00060045,-0.00000003,0.00000007,
 -0.00005227,-0.00000009,0.00000001,-0.00063192,-0.00000029,-0.00000071
 ,0.00186682,-0.00000140,0.00000307,0.01011781,-0.00000024,0.00000044,0
 .00031786,-0.00001803,0.00002896,-0.06649882,0.00006830,-0.00002888,0.
 04308793,0.00111685,-0.00069225,0.,-0.00735951,0.00575966,0.00000065,-
 0.01938747,-0.04791211,0.,-0.12924344,-0.03487391,0.00000085,0.0143236
 7,0.00679114,-0.00000080,-0.00071978,0.00083807,-0.00000003,-0.0235641
 3,-0.01828928,-0.00000103,0.00248079,0.00964643,-0.00000061,0.55281023
 ,0.00219365,-0.00162615,0.00000004,0.00053540,0.00573575,-0.00000042,-
 0.00828350,-0.00819344,0.00000024,-0.04729123,-0.17925632,-0.00000159,
 -0.02323839,-0.02916768,0.00000023,0.00475240,-0.00391146,-0.00000045,
 0.00147566,0.00732375,-0.00000001,0.00025769,-0.00392321,0.00000061,-0
 .08044921,0.61688000,0.00000003,0.00000018,-0.00129432,0.00000005,-0.0
 0000005,0.00736675,-0.00000012,0.00000024,0.00247317,0.00000104,-0.000
 00188,-0.07353711,-0.00000192,-0.00000021,-0.00088612,0.00000076,-0.00
 000039,0.00805984,-0.00000013,0.00000023,-0.00320082,-0.00000006,0.000
 00030,-0.00121184,-0.00001426,0.00000621,0.71512414,-0.00194929,-0.001
 77125,0.00000034,0.00006695,0.00024191,-0.00000006,-0.00200328,-0.0016
 6568,0.00000007,0.00611290,-0.00380055,-0.00000015,-0.03196680,-0.0435
 5168,-0.00000457,-0.00546296,0.00733586,-0.00000008,-0.31046359,-0.265
 75624,-0.00002676,0.03887420,0.00584747,0.00000018,-0.02169018,0.02486
 423,0.00000050,0.34864240,-0.00140056,0.00172126,0.00000009,0.00017264
 ,0.00084446,-0.00000007,-0.00240782,0.00203544,-0.00000007,-0.00293414
 ,-0.01992765,0.00000066,-0.02914852,-0.00446179,-0.00000232,0.00075381
 ,0.00434049,-0.00000001,-0.25015196,-0.49028034,-0.00003248,-0.0149189
 3,-0.11609492,0.00000134,0.05242003,-0.01978774,0.00000035,0.29139763,
 0.61122076,-0.00000002,-0.00000020,-0.00185131,0.00000010,0.00000020,0
 .00031847,-0.00000037,0.00000011,-0.00053122,0.00000018,-0.00000147,-0
 .00038008,-0.00000041,-0.00000294,0.01963896,-0.00000076,0.00000072,0.
 00309968,-0.00002990,-0.00003385,-0.07698482,0.00000166,0.00000345,0.0
 2778437,0.00000253,-0.00000049,0.01061644,0.00003086,0.00003291,0.0382
 0583,-0.13664389,-0.12919976,0.00000006,0.01260806,0.01549893,0.000000
 03,-0.00094499,0.00357244,0.00000013,-0.00116643,0.00114983,0.00000005
 ,-0.00512382,0.00095212,0.00000032,-0.01079294,-0.02720185,-0.00000004
 ,0.00050577,-0.00156705,0.00000004,-0.00014145,0.00021943,-0.00000002,
 0.00032862,-0.00010995,-0.00000001,-0.00079145,-0.00031439,-0.00000008
 ,0.14031441,-0.12916143,-0.27609557,-0.00000031,-0.01486182,-0.0166403
 3,0.00000002,0.00299475,-0.00315135,-0.00000014,0.00136438,0.00008095,
 0.,0.00123419,0.00131012,-0.00000012,0.00309247,0.00627928,-0.00000001
 ,0.00011673,0.00035642,0.,-0.00000344,-0.00001879,0.,-0.00027213,0.000
 09068,-0.00000001,0.00015376,0.00005082,0.00000001,0.13617888,0.287260
 40,0.00000011,-0.00000023,-0.04182793,-0.00000024,-0.00000044,0.004633
 61,0.00000011,-0.00000021,0.00749390,0.00000006,-0.00000003,-0.0000949
 2,0.00000014,-0.00000002,0.00741436,0.00000026,0.00000038,0.00435432,0
 .00000005,-0.00000004,0.00022109,-0.00000002,0.00000002,0.00002576,-0.
 00000004,0.00000006,-0.00112523,0.,0.,-0.00025398,-0.00000031,0.000000
 45,0.02773493,-0.00808006,-0.00218287,0.00000018,-0.35170090,0.0045854
 0,0.00000455,-0.00906034,0.00223030,0.00000022,0.00086899,-0.00204292,
 0.00000006,0.00103570,0.00024768,-0.00000001,0.00004708,0.00227273,0.0
 0000013,-0.00049209,0.00003508,-0.00000001,0.00004784,-0.00007254,0.,-
 0.00066220,0.00010600,0.,0.00008092,0.00017622,0.,0.00059144,-0.000114
 93,-0.00000007,0.36702538,0.02772922,0.00532273,-0.00000038,0.00507853
 ,-0.06009914,-0.00000020,-0.02806094,0.00417816,0.00000036,-0.00188302
 ,-0.00385129,-0.00000007,-0.00001849,-0.00142542,0.,0.00297541,-0.0048
 6938,-0.00000019,-0.00020461,-0.00038285,0.00000002,0.00008274,0.00016
 865,0.,-0.00228548,-0.00023360,-0.00000002,0.00003056,0.00042870,0.000
 00003,-0.00030917,0.00083141,0.00000005,-0.00489613,0.05914237,0.00000
 039,0.00000012,0.00592860,0.00000459,-0.00000015,-0.04258079,-0.000000
 29,-0.00000019,0.00482957,0.00000024,-0.00000014,0.00734339,-0.0000000
 5,-0.00000004,-0.00083720,0.00000025,-0.00000006,0.00751133,0.00000001
 ,0.,-0.00115544,0.,0.,0.00017358,-0.00000011,0.,0.00003327,0.,0.000000
 04,0.00013287,-0.00000006,0.00000004,-0.00412264,-0.00000500,0.0000003
 6,0.02736487,-0.00160941,-0.00346738,0.00000007,0.01330934,-0.01536163
 ,-0.00000032,-0.12892778,0.12257649,0.00000247,-0.01037236,0.02811767,
 0.00000050,-0.00496915,-0.00205184,0.00000032,-0.00058449,-0.00075802,
 -0.00000002,0.00075773,0.00181012,0.00000007,-0.00073618,-0.00006595,-
 0.00000005,0.00327240,0.00005949,0.00000008,0.00012070,-0.00095227,-0.
 00000007,0.00053331,-0.00076906,-0.00000002,0.00059276,0.00025787,-0.0
 0000004,0.13140887,-0.00361004,-0.00300883,-0.00000003,0.01498674,-0.0
 1692299,-0.00000043,0.12214678,-0.27463828,-0.00000408,-0.00322257,0.0
 0288474,0.00000007,-0.00059929,0.00150041,-0.00000003,-0.00117257,-0.0
 0007667,0.00000002,-0.00051133,0.00000146,0.,-0.00004139,0.00006340,0.
 ,0.00002212,0.00142053,0.00000007,0.00006506,0.00025653,0.00000001,0.0
 0083208,-0.00080977,-0.00000003,0.00015298,0.00096411,0.00000004,-0.12
 988430,0.28788357,0.00000018,-0.00000009,0.00691524,0.00000011,0.00000
 009,0.00447039,0.00000237,-0.00000401,-0.03707043,0.00000010,-0.000000
 60,0.00392412,0.00000018,-0.00000006,0.00621008,-0.00000007,0.,-0.0010
 9545,-0.00000004,-0.00000001,0.00127781,0.00000006,-0.00000001,-0.0002
 4112,-0.00000026,0.00000034,-0.00378249,-0.00000002,0.00000004,-0.0001
 2232,0.,0.,-0.00020092,-0.00000006,0.00000005,-0.00402402,-0.00000281,
 0.00000436,0.02502945,-0.00822653,0.02663682,0.00000062,-0.00566064,-0
 .00034742,0.00000017,-0.00103973,-0.00106430,0.,-0.00145654,-0.0024068
 3,0.00000009,0.01186161,-0.01540236,-0.00000040,-0.13152414,0.12780552
 ,0.00000329,0.00187933,-0.00213274,0.00000013,-0.00511602,-0.00000094,
 -0.00000045,-0.00010708,-0.00153286,-0.00000007,-0.00003550,0.00144036
 ,0.00000004,0.00100296,-0.00013894,-0.00000007,-0.00039380,0.00127644,
 -0.00000002,0.00006285,0.00008631,-0.00000001,0.13809752,-0.00259096,0
 .00671451,0.00000010,-0.00122822,0.00081992,-0.00000005,-0.00023099,0.
 00039264,0.00000002,-0.00371195,-0.00109177,0.00000006,0.01315248,-0.0
 1815261,-0.00000044,0.12543747,-0.28075586,-0.00000455,0.00118444,-0.0
 0240068,0.00000021,0.00106970,0.00113697,-0.00000004,0.00020549,-0.001
 01946,-0.00000010,0.00005638,0.00119611,0.00000003,0.00008483,0.000483
 62,0.00000003,-0.00024249,0.00024080,0.,0.00009051,0.00000188,0.,-0.13
 362636,0.29242386,-0.00000005,-0.00000044,0.00606996,0.00000020,-0.000
 00019,0.00731492,0.00000014,0.00000003,-0.00106711,0.00000009,0.000000
 03,0.00616480,-0.00000038,-0.00000047,0.00387847,0.00000347,-0.0000039
 3,-0.04149925,0.00000030,0.,-0.00432152,-0.00000028,0.00000008,0.00026
 181,-0.00000007,0.00000004,0.00086344,-0.00000007,0.00000008,0.0006115
 3,-0.00000009,0.00000006,-0.00417965,0.,-0.00000002,-0.00058703,-0.000
 00001,0.,-0.00071040,-0.00000336,0.00000475,0.02728170,-0.00014316,-0.
 00012938,0.,0.00008085,-0.00035426,-0.00000001,0.00055341,0.00049716,0
 .00000004,-0.00112784,-0.00004586,-0.00000011,0.00230467,0.00172715,-0
 .00000114,0.00076728,-0.00005477,0.00000007,-0.02608770,0.01072008,-0.
 00000192,-0.49117680,-0.02543572,-0.00004832,0.00146845,-0.00065699,0.
 00000005,0.00124574,-0.01097510,0.00000040,0.00002017,-0.00000503,0.,-
 0.00000814,-0.00001699,0.,-0.00002743,-0.00000221,0.00000003,-0.000100
 79,-0.00017293,0.00000002,0.51424828,-0.00010022,0.00032852,0.00000005
 ,-0.00016352,0.00000815,-0.00000002,-0.00002356,-0.00054094,0.,0.00160
 430,0.00084967,-0.00000010,0.00092514,-0.00589114,0.00000083,-0.000794
 56,-0.00038185,-0.00000015,0.05602130,0.00280376,0.00000575,-0.0739631
 5,-0.05051231,-0.00000345,-0.00155628,0.00071786,0.00000004,-0.0072217
 0,0.00237487,-0.00000127,-0.00002089,0.00001390,0.,-0.00000868,0.00002
 593,0.,0.00012165,0.00000605,-0.00000001,0.00014995,0.00067891,0.00000
 002,0.02302344,0.05131942,-0.00000011,-0.00000004,0.00009913,0.0000000
 5,-0.00000013,0.00004620,0.00000017,0.00000019,-0.00027556,-0.00000047
 ,-0.00000009,0.00062646,0.00000091,0.00000050,0.00552141,0.00000039,0.
 00000004,-0.00048339,-0.00000894,0.00000153,0.00346377,-0.00004431,0.0
 0000065,-0.01715913,0.00000032,-0.00000016,0.00021105,0.00000146,-0.00
 000113,-0.00591125,0.,0.,0.00003045,0.,0.,-0.00001745,-0.00000002,0.,-
 0.00012632,0.,-0.00000007,-0.00010945,0.00005091,-0.00000163,0.0141081
 1,0.00062016,-0.00053261,-0.00018092,-0.00008527,0.00064998,0.00063815
 ,0.00062253,-0.00169409,0.00044076,0.00492962,-0.01111270,-0.01666971,
 -0.00128112,-0.00006340,-0.00096022,-0.00083247,-0.00061308,0.00078355
 ,-0.00070848,-0.00064451,-0.00040367,0.00004623,0.00026967,0.00055678,
 -0.06984489,0.04276915,0.06320153,-0.00299793,0.00267036,-0.00247399,-
 0.00002671,0.00007876,-0.00007600,-0.00002609,-0.00000348,-0.00001330,
 -0.00091887,0.00035148,-0.00047740,-0.00006681,-0.00008391,0.00014462,
 0.00003746,-0.00002888,-0.00000017,0.06519419,-0.00032329,0.00038094,-
 0.00021080,0.00011073,-0.00115829,0.00112871,0.00159335,0.00229612,0.0
 0042835,0.00507655,-0.01970285,-0.01978017,-0.00279730,-0.00142243,-0.
 00092450,0.00071780,-0.00058698,0.00109470,-0.00031046,-0.00114167,-0.
 00060361,-0.00019640,0.00060339,-0.00007490,0.04193539,-0.16068725,-0.
 16071140,0.00027647,0.00096615,0.00050367,-0.00002374,0.00001969,-0.00
 018541,0.00001450,0.00008576,-0.00002152,-0.00033507,0.00024489,-0.000
 76289,-0.00016734,-0.00017072,0.00017093,0.00013982,-0.00007377,0.0000
 0037,-0.04071207,0.16974353,-0.00033791,0.00047763,0.00001906,0.000026
 01,-0.00053200,0.00028417,0.00076984,0.00126247,0.00033829,-0.00394693
 ,-0.00057492,0.00640492,0.00036733,0.00131501,-0.00031719,0.00026513,0
 .00053508,-0.00024354,0.00063536,-0.00099622,0.00041301,-0.00042628,0.
 00072283,-0.00001256,0.05846826,-0.15202923,-0.29595050,-0.00166169,0.
 00172567,-0.00078551,-0.00001552,0.00000974,-0.00005226,0.00004803,0.0
 0008506,0.00002410,-0.00035542,-0.00022930,-0.00012023,0.00006746,0.00
 010068,0.00001270,0.00014078,-0.00006845,0.00006553,-0.06574112,0.1663
 5171,0.30853095,-0.00086771,0.00099406,-0.00000008,-0.00050720,0.00031
 124,0.,0.00029018,0.00101179,-0.00000043,-0.02288010,-0.01608678,-0.00
 000038,-0.00285443,-0.00148739,0.00000030,-0.00121171,0.00300501,0.000
 00022,0.03450324,0.02706383,0.00000088,-0.00240700,-0.01602115,0.00000
 127,-0.23339405,0.04180412,-0.00001475,-0.01478550,-0.03849643,-0.0000
 0463,-0.00024636,0.00003412,0.,0.00015963,0.00025102,0.00000006,-0.000
 99354,0.00004879,0.00000004,0.00089008,0.00069040,0.00000007,-0.002091
 88,0.00206451,-0.00000036,0.00382136,0.00068014,0.00312804,0.23875097,
 0.00128308,-0.00087772,-0.00000002,-0.00128628,0.00120157,0.00000026,-
 0.00205097,-0.00830275,0.00000004,-0.02799674,0.01782189,-0.00000206,0
 .00227908,0.00052609,-0.00000024,-0.00023104,-0.00225720,-0.00000001,-
 0.01666062,-0.03504851,-0.00000094,0.00028714,0.01152934,-0.00000139,0
 .02680228,-0.06369799,0.00000241,-0.00677866,0.02415046,0.00000286,0.0
 0028199,-0.00008115,-0.00000001,-0.00027481,-0.00061268,-0.00000004,0.
 00094667,-0.00001585,-0.00000009,-0.00040802,-0.00032745,-0.00000004,0
 .00160179,-0.00165326,0.00000031,0.01437651,-0.00429130,0.00033625,-0.
 00654686,0.06622766,0.00000005,-0.00000001,0.00016250,0.00000004,0.000
 00009,0.00027640,0.00000016,0.00000012,0.00068729,-0.00000019,-0.00000
 041,-0.00136101,-0.00000011,0.00000015,0.00112331,-0.00000001,0.000000
 04,-0.00051368,0.00000126,-0.00000122,-0.00034216,-0.00000035,0.000000
 35,0.00278461,-0.00001534,0.00000339,-0.06777959,-0.00000116,-0.000000
 09,-0.01280213,0.,0.,0.00000136,0.,0.00000001,-0.00004112,-0.00000006,
 0.00000003,-0.00021304,0.00000001,0.00000002,0.00000237,0.,-0.00000004
 ,-0.00015503,0.02979629,-0.00489200,0.00311955,0.00001741,-0.00000339,
 0.07193508,0.00062009,-0.00053254,0.00018089,-0.00008535,0.00064988,-0
 .00063851,0.00062239,-0.00169396,-0.00044074,0.00492610,-0.01111210,0.
 01666997,-0.00128092,-0.00006292,0.00096045,-0.00083254,-0.00061293,-0
 .00078359,-0.00070778,-0.00064359,0.00040359,0.00004624,0.00026939,-0.
 00055696,-0.06982827,0.04274435,-0.06317269,-0.00299733,0.00266907,0.0
 0247447,-0.00002671,0.00007875,0.00007605,-0.00002609,-0.00000349,0.00
 001334,-0.00091876,0.00035136,0.00047761,-0.00006678,-0.00008387,-0.00
 014458,0.00003746,-0.00002884,0.00000018,0.00151709,-0.00567909,0.0085
 6862,0.00382403,0.01437548,-0.02979801,0.06517712,-0.00032325,0.000380
 84,0.00021084,0.00011065,-0.00115828,-0.00112878,0.00159337,0.00229556
 ,-0.00042828,0.00507308,-0.01970096,0.01978225,-0.00279638,-0.00142234
 ,0.00092416,0.00071736,-0.00058691,-0.00109487,-0.00031072,-0.00114207
 ,0.00060390,-0.00019640,0.00060344,0.00007481,0.04191003,-0.16066425,0
 .16070403,0.00027644,0.00096639,-0.00050377,-0.00002372,0.00001968,0.0
 0018542,0.00001449,0.00008573,0.00002151,-0.00033494,0.00024482,0.0007
 6287,-0.00016730,-0.00017068,-0.00017093,0.00013982,-0.00007378,-0.000
 00035,-0.00567716,0.01489480,-0.01849202,0.00067958,-0.00429115,0.0048
 9296,-0.04068494,0.16971915,0.00033788,-0.00047769,0.00001903,-0.00002
 596,0.00053200,0.00028416,-0.00076990,-0.00126238,0.00033830,0.0039468
 5,0.00057558,0.00640656,-0.00036695,-0.00131507,-0.00031726,-0.0002652
 6,-0.00053506,-0.00024369,-0.00063574,0.00099589,0.00041314,0.00042634
 ,-0.00072282,-0.00001242,-0.05844008,0.15202116,-0.29598009,0.00166116
 ,-0.00172501,-0.00078553,0.00001552,-0.00000973,-0.00005225,-0.0000480
 3,-0.00008505,0.00002411,0.00035534,0.00022928,-0.00012034,-0.00006745
 ,-0.00010067,0.00001273,-0.00014080,0.00006844,0.00006549,-0.00856518,
 0.01848875,-0.02173050,-0.00312766,-0.00033389,0.00311530,0.06570992,-
 0.16634373,0.30856325\\-0.00000229,-0.00000826,-0.00000076,-0.00000177
 ,-0.00000502,0.00000025,-0.00001411,-0.00000833,-0.00000055,0.00001040
 ,0.00000849,0.00000117,-0.00004917,-0.00002433,0.00000880,0.00003197,-
 0.00000267,0.00000109,0.00007574,-0.00002184,-0.00003216,-0.00002477,0
 .00002561,0.00000965,-0.00001904,0.00000863,-0.00000037,-0.00001959,0.
 00002257,0.00001101,0.00000872,-0.00000793,-0.00000002,-0.00000015,-0.
 00000966,0.00000012,-0.00000631,-0.00000823,-0.00000032,0.00000742,0.0
 0000241,0.00000003,0.00000328,0.00000655,0.00000080,-0.00000689,0.0000
 0343,-0.00000233,0.00001375,0.00001509,0.00000152,-0.00000719,0.000003
 48,0.00000208\\\@


 The best way to pay for a lovely moment is to enjoy it.
 -- Richard Bach
 Job cpu time:       0 days  0 hours 31 minutes 10.6 seconds.
 File lengths (MBytes):  RWF=    100 Int=      0 D2E=      0 Chk=      5 Scr=      1
 Normal termination of Gaussian 09 at Sat Jun 22 17:04:42 2024.
